                         Program Version 4.2.0 -  RELEASE  -
|  1> # ORCA input file
|  2> # SCF done       -163.158266891026          0.000574022681
|  3> ! CAM-B3LYP def2-SVP def2/J RIJCOSX Grid4 TightSCF
|  4> %maxcore 5000
|  5> %tddft
|  6>     Mode sTDDFT
|  7>     Ethresh 5.0
|  8>     maxcore 5000
|  9> end
| 10>
| 11> %pal
| 12>   nprocs 6
| 13>   end
| 14> * xyz 0 1
| 15>    C       -3.70910        -0.02078         0.06046
| 16>    C       -3.46417        -0.52258         1.31020
| 17>    C       -2.79734        -1.74104         1.47867
| 18>    C       -2.36682        -2.48802         0.39843
| 19>    C       -2.60953        -1.98573        -0.91255
| 20>    N       -2.17495        -2.66552        -1.99139
| 21>    C       -2.40604        -2.15086        -3.16913
| 22>    C       -3.08310        -0.92515        -3.32696
| 23>    N       -3.51085        -0.23743        -2.30393
| 24>    C       -3.28298        -0.74153        -1.07277
| 25>    C       -1.69199        -3.75021         0.58418
| 26>    C       -1.78370        -4.90241        -0.31693
| 27>    N       -1.08911        -5.93751         0.06299
| 28>    C       -0.48269        -5.56229         1.22159
| 29>    C       -0.87398        -4.18953         1.59672
| 30>    C       -0.15265        -3.78843         2.78443
| 31>    S       -0.17296        -2.30251         3.49542
| 32>    C        0.64413        -4.93707         3.13688
| 33>    C        0.42538        -6.00628         2.14447
| 34>    N        1.21768        -7.08243         2.40775
| 35>    C        1.92323        -6.74282         3.44788
| 36>    C        1.63905        -5.40680         3.97181
| 37>    C        2.29045        -4.83239         5.11675
| 38>    C        3.56123        -5.24433         5.47019
| 39>    C        4.21116        -4.65297         6.56555
| 40>    C        5.47888        -4.87050         7.09946
| 41>    C        6.45799        -5.89965         6.65866
| 42>    C        7.73283        -5.27462         6.06391
| 43>    N        7.40631        -4.55522         4.84505
| 44>    C        6.80918        -6.86301         7.80821
| 45>    N        7.55894        -8.00147         7.30221
| 46>    C        5.61950        -3.95907         8.21273
| 47>    C        6.64477        -3.70908         9.04892
| 48>    C        6.53424        -2.73066        10.16327
| 49>    C        5.21092        -2.03356        10.25536
| 50>    C        4.20633        -2.26722         9.39086
| 51>    C        4.36281        -3.20873         8.34680
| 52>    C        3.52265        -3.62476         7.33067
| 53>    C        2.21439        -3.24197         6.96143
| 54>    C        1.62359        -3.82868         5.88847
| 55>    C        6.83228        -3.37945        11.49459
| 56>    C        6.77297        -4.69939        11.69454
| 57>    C        7.08970        -5.36743        12.92016
| 58>    C        7.35099        -4.80056        14.24188
| 59>    N        7.65819        -5.68014        15.15661
| 60>    C        7.63954        -6.88727        14.52381
| 61>    C        7.27114        -6.71749        13.10805
| 62>    C        7.23904        -7.99309        12.44495
| 63>    S        6.69768        -8.30186        10.92441
| 64>    C        7.67494        -8.92823        13.45130
| 65>    C        7.86686        -8.22278        14.73809
| 66>    N        8.21079        -9.10222        15.71682
| 67>    C        8.23915       -10.27288        15.13905
| 68>    C        7.92661       -10.25100        13.71322
| 69>    C        7.96022       -11.38539        12.82188
| 70>    C        7.50780       -12.63182        13.20495
| 71>    C        7.50650       -13.71264        12.31515
| 72>    C        7.95896       -13.56952        11.03050
| 73>    C        8.46060       -12.32459        10.60470
| 74>    N        8.90756       -12.17700         9.33986
| 75>    C        9.38544       -11.01285         8.99718
| 76>    C        9.48923        -9.95112         9.91917
| 77>    N        9.04269       -10.05693        11.14106
| 78>    C        8.48542       -11.22481        11.50741
| 79>    H       -4.21604         0.91864        -0.09403
| 80>    H       -3.78359         0.02188         2.18612
| 81>    H       -2.62654        -2.11290         2.47674
| 82>    H       -2.04944        -2.71350        -4.02156
| 83>    H       -3.27112        -0.50845        -4.30747
| 84>    H       -2.37969        -4.93420        -1.21000
| 85>    H        2.61603        -7.44450         3.87933
| 86>    H        4.07711        -5.98491         4.87824
| 87>    H        5.99391        -6.49674         5.86577
| 88>    H        8.45857        -6.09065         5.92183
| 89>    H        8.15750        -4.55342         6.76517
| 90>    H        7.08407        -5.19873         4.12971
| 91>    H        8.22347        -4.07648         4.48428
| 92>    H        5.87670        -7.15244         8.31823
| 93>    H        7.44523        -6.36153         8.53920
| 94>    H        6.96991        -8.56288         6.69383
| 95>    H        7.83066        -8.59182         8.08180
| 96>    H        7.59797        -4.20967         8.95892
| 97>    H        7.31096        -1.96345        10.00633
| 98>    H        5.10125        -1.32861        11.06522
| 99>    H        3.26819        -1.73965         9.48315
|100>    H        1.69503        -2.48693         7.53217
|101>    H        0.62462        -3.54825         5.59737
|102>    H        7.08469        -2.70354        12.29908
|103>    H        6.50823        -5.35863        10.87716
|104>    H        7.30022        -3.75655        14.49708
|105>    H        8.50333       -11.15239        15.70061
|106>    H        7.11082       -12.76692        14.20055
|107>    H        7.12735       -14.66606        12.65201
|108>    H        7.93906       -14.38208        10.32171
|109>    H        9.72283       -10.90340         7.97511
|110>    H        9.94989        -9.01033         9.64801
|111> *
|112>
|113>                          ****END OF INPUT****

CARTESIAN COORDINATES (ANGSTROEM)
---------------------------------
  C     -3.709100   -0.020780    0.060460
  C     -3.464170   -0.522580    1.310200
  C     -2.797340   -1.741040    1.478670
  C     -2.366820   -2.488020    0.398430
  C     -2.609530   -1.985730   -0.912550
  N     -2.174950   -2.665520   -1.991390
  C     -2.406040   -2.150860   -3.169130
  C     -3.083100   -0.925150   -3.326960
  N     -3.510850   -0.237430   -2.303930
  C     -3.282980   -0.741530   -1.072770
  C     -1.691990   -3.750210    0.584180
  C     -1.783700   -4.902410   -0.316930
  N     -1.089110   -5.937510    0.062990
  C     -0.482690   -5.562290    1.221590
  C     -0.873980   -4.189530    1.596720
  C     -0.152650   -3.788430    2.784430
  S     -0.172960   -2.302510    3.495420
  C      0.644130   -4.937070    3.136880
  C      0.425380   -6.006280    2.144470
  N      1.217680   -7.082430    2.407750
  C      1.923230   -6.742820    3.447880
  C      1.639050   -5.406800    3.971810
  C      2.290450   -4.832390    5.116750
  C      3.561230   -5.244330    5.470190
  C      4.211160   -4.652970    6.565550
  C      5.478880   -4.870500    7.099460
  C      6.457990   -5.899650    6.658660
  C      7.732830   -5.274620    6.063910
  N      7.406310   -4.555220    4.845050
  C      6.809180   -6.863010    7.808210
  N      7.558940   -8.001470    7.302210
  C      5.619500   -3.959070    8.212730
  C      6.644770   -3.709080    9.048920
  C      6.534240   -2.730660   10.163270
  C      5.210920   -2.033560   10.255360
  C      4.206330   -2.267220    9.390860
  C      4.362810   -3.208730    8.346800
  C      3.522650   -3.624760    7.330670
  C      2.214390   -3.241970    6.961430
  C      1.623590   -3.828680    5.888470
  C      6.832280   -3.379450   11.494590
  C      6.772970   -4.699390   11.694540
  C      7.089700   -5.367430   12.920160
  C      7.350990   -4.800560   14.241880
  N      7.658190   -5.680140   15.156610
  C      7.639540   -6.887270   14.523810
  C      7.271140   -6.717490   13.108050
  C      7.239040   -7.993090   12.444950
  S      6.697680   -8.301860   10.924410
  C      7.674940   -8.928230   13.451300
  C      7.866860   -8.222780   14.738090
  N      8.210790   -9.102220   15.716820
  C      8.239150  -10.272880   15.139050
  C      7.926610  -10.251000   13.713220
  C      7.960220  -11.385390   12.821880
  C      7.507800  -12.631820   13.204950
  C      7.506500  -13.712640   12.315150
  C      7.958960  -13.569520   11.030500
  C      8.460600  -12.324590   10.604700
  N      8.907560  -12.177000    9.339860
  C      9.385440  -11.012850    8.997180
  C      9.489230   -9.951120    9.919170
  N      9.042690  -10.056930   11.141060
  C      8.485420  -11.224810   11.507410
  H     -4.216040    0.918640   -0.094030
  H     -3.783590    0.021880    2.186120
  H     -2.626540   -2.112900    2.476740
  H     -2.049440   -2.713500   -4.021560
  H     -3.271120   -0.508450   -4.307470
  H     -2.379690   -4.934200   -1.210000
  H      2.616030   -7.444500    3.879330
  H      4.077110   -5.984910    4.878240
  H      5.993910   -6.496740    5.865770
  H      8.458570   -6.090650    5.921830
  H      8.157500   -4.553420    6.765170
  H      7.084070   -5.198730    4.129710
  H      8.223470   -4.076480    4.484280
  H      5.876700   -7.152440    8.318230
  H      7.445230   -6.361530    8.539200
  H      6.969910   -8.562880    6.693830
  H      7.830660   -8.591820    8.081800
  H      7.597970   -4.209670    8.958920
  H      7.310960   -1.963450   10.006330
  H      5.101250   -1.328610   11.065220
  H      3.268190   -1.739650    9.483150
  H      1.695030   -2.486930    7.532170
  H      0.624620   -3.548250    5.597370
  H      7.084690   -2.703540   12.299080
  H      6.508230   -5.358630   10.877160
  H      7.300220   -3.756550   14.497080
  H      8.503330  -11.152390   15.700610
  H      7.110820  -12.766920   14.200550
  H      7.127350  -14.666060   12.652010
  H      7.939060  -14.382080   10.321710
  H      9.722830  -10.903400    7.975110
  H      9.949890   -9.010330    9.648010

 Total Charge           Charge          ....    0
 Multiplicity           Mult            ....    1
 Number of Electrons    NEL             ....  446
 Basis Dimension        Dim             .... 1064

ORBITAL ENERGIES
----------------

  NO   OCC          E(Eh)            E(eV)
   0   2.0000     -88.898348     -2419.0470
   1   2.0000     -88.886216     -2418.7169
   2   2.0000     -14.424754      -392.5175
   3   2.0000     -14.423888      -392.4939
   4   2.0000     -14.423604      -392.4862
   5   2.0000     -14.420350      -392.3977
   6   2.0000     -14.415803      -392.2740
   7   2.0000     -14.413279      -392.2053
   8   2.0000     -14.404097      -391.9554
   9   2.0000     -14.398162      -391.7939
  10   2.0000     -14.378752      -391.2657
  11   2.0000     -14.368928      -390.9984
  12   2.0000     -10.338889      -281.3355
  13   2.0000     -10.336596      -281.2731
  14   2.0000     -10.334162      -281.2068
  15   2.0000     -10.333035      -281.1762
  16   2.0000     -10.331012      -281.1211
  17   2.0000     -10.329435      -281.0782
  18   2.0000     -10.321739      -280.8688
  19   2.0000     -10.319503      -280.8079
  20   2.0000     -10.318897      -280.7915
  21   2.0000     -10.318475      -280.7800
  22   2.0000     -10.317494      -280.7533
  23   2.0000     -10.317023      -280.7405
  24   2.0000     -10.316428      -280.7243
  25   2.0000     -10.316287      -280.7204
  26   2.0000     -10.315717      -280.7049
  27   2.0000     -10.315400      -280.6963
  28   2.0000     -10.314254      -280.6651
  29   2.0000     -10.311665      -280.5947
  30   2.0000     -10.302598      -280.3479
  31   2.0000     -10.302552      -280.3467
  32   2.0000     -10.299442      -280.2621
  33   2.0000     -10.298958      -280.2489
  34   2.0000     -10.296392      -280.1791
  35   2.0000     -10.296134      -280.1720
  36   2.0000     -10.295699      -280.1602
  37   2.0000     -10.294085      -280.1163
  38   2.0000     -10.293941      -280.1124
  39   2.0000     -10.293061      -280.0884
  40   2.0000     -10.291882      -280.0564
  41   2.0000     -10.289605      -279.9944
  42   2.0000     -10.288126      -279.9541
  43   2.0000     -10.285397      -279.8799
  44   2.0000     -10.283638      -279.8320
  45   2.0000     -10.283108      -279.8176
  46   2.0000     -10.281052      -279.7616
  47   2.0000     -10.278792      -279.7002
  48   2.0000     -10.278359      -279.6884
  49   2.0000     -10.278256      -279.6856
  50   2.0000     -10.277277      -279.6589
  51   2.0000     -10.277104      -279.6542
  52   2.0000     -10.272673      -279.5336
  53   2.0000     -10.271651      -279.5058
  54   2.0000     -10.271376      -279.4983
  55   2.0000     -10.268079      -279.4086
  56   2.0000     -10.267399      -279.3901
  57   2.0000     -10.262290      -279.2511
  58   2.0000     -10.260291      -279.1967
  59   2.0000     -10.259486      -279.1748
  60   2.0000     -10.258924      -279.1595
  61   2.0000     -10.256541      -279.0947
  62   2.0000     -10.255366      -279.0627
  63   2.0000     -10.255075      -279.0548
  64   2.0000      -7.993366      -217.5105
  65   2.0000      -7.982222      -217.2073
  66   2.0000      -5.962139      -162.2381
  67   2.0000      -5.961890      -162.2313
  68   2.0000      -5.952844      -161.9851
  69   2.0000      -5.951170      -161.9396
  70   2.0000      -5.950596      -161.9239
  71   2.0000      -5.941425      -161.6744
  72   2.0000      -1.083396       -29.4807
  73   2.0000      -1.080443       -29.4004
  74   2.0000      -1.077664       -29.3247
  75   2.0000      -1.070000       -29.1162
  76   2.0000      -1.063469       -28.9385
  77   2.0000      -1.050620       -28.5888
  78   2.0000      -1.003908       -27.3177
  79   2.0000      -1.000401       -27.2223
  80   2.0000      -0.979844       -26.6629
  81   2.0000      -0.962535       -26.1919
  82   2.0000      -0.962021       -26.1779
  83   2.0000      -0.959355       -26.1054
  84   2.0000      -0.952980       -25.9319
  85   2.0000      -0.948144       -25.8003
  86   2.0000      -0.945921       -25.7398
  87   2.0000      -0.944326       -25.6964
  88   2.0000      -0.918414       -24.9913
  89   2.0000      -0.896795       -24.4030
  90   2.0000      -0.892670       -24.2908
  91   2.0000      -0.882210       -24.0062
  92   2.0000      -0.871077       -23.7032
  93   2.0000      -0.861390       -23.4396
  94   2.0000      -0.859282       -23.3823
  95   2.0000      -0.852314       -23.1926
  96   2.0000      -0.851453       -23.1692
  97   2.0000      -0.841461       -22.8973
  98   2.0000      -0.833110       -22.6701
  99   2.0000      -0.831621       -22.6296
 100   2.0000      -0.826191       -22.4818
 101   2.0000      -0.823205       -22.4005
 102   2.0000      -0.816353       -22.2141
 103   2.0000      -0.793466       -21.5913
 104   2.0000      -0.774435       -21.0734
 105   2.0000      -0.764835       -20.8122
 106   2.0000      -0.759954       -20.6794
 107   2.0000      -0.753074       -20.4922
 108   2.0000      -0.751279       -20.4434
 109   2.0000      -0.744603       -20.2617
 110   2.0000      -0.743333       -20.2271
 111   2.0000      -0.739210       -20.1149
 112   2.0000      -0.733834       -19.9686
 113   2.0000      -0.717874       -19.5343
 114   2.0000      -0.714994       -19.4560
 115   2.0000      -0.706741       -19.2314
 116   2.0000      -0.699381       -19.0311
 117   2.0000      -0.699117       -19.0239
 118   2.0000      -0.686331       -18.6760
 119   2.0000      -0.683593       -18.6015
 120   2.0000      -0.672037       -18.2871
 121   2.0000      -0.664577       -18.0841
 122   2.0000      -0.656059       -17.8523
 123   2.0000      -0.649558       -17.6754
 124   2.0000      -0.640500       -17.4289
 125   2.0000      -0.638486       -17.3741
 126   2.0000      -0.632694       -17.2165
 127   2.0000      -0.631094       -17.1730
 128   2.0000      -0.627939       -17.0871
 129   2.0000      -0.618103       -16.8194
 130   2.0000      -0.615855       -16.7583
 131   2.0000      -0.607424       -16.5288
 132   2.0000      -0.606417       -16.5014
 133   2.0000      -0.600351       -16.3364
 134   2.0000      -0.590556       -16.0698
 135   2.0000      -0.585600       -15.9350
 136   2.0000      -0.579358       -15.7651
 137   2.0000      -0.573718       -15.6117
 138   2.0000      -0.572382       -15.5753
 139   2.0000      -0.568505       -15.4698
 140   2.0000      -0.563135       -15.3237
 141   2.0000      -0.557712       -15.1761
 142   2.0000      -0.557289       -15.1646
 143   2.0000      -0.555755       -15.1229
 144   2.0000      -0.547471       -14.8975
 145   2.0000      -0.544147       -14.8070
 146   2.0000      -0.541650       -14.7391
 147   2.0000      -0.540598       -14.7104
 148   2.0000      -0.533495       -14.5171
 149   2.0000      -0.531215       -14.4551
 150   2.0000      -0.530284       -14.4298
 151   2.0000      -0.528950       -14.3935
 152   2.0000      -0.526747       -14.3335
 153   2.0000      -0.523302       -14.2398
 154   2.0000      -0.522141       -14.2082
 155   2.0000      -0.518717       -14.1150
 156   2.0000      -0.517530       -14.0827
 157   2.0000      -0.515256       -14.0208
 158   2.0000      -0.513738       -13.9795
 159   2.0000      -0.510417       -13.8891
 160   2.0000      -0.508787       -13.8448
 161   2.0000      -0.506361       -13.7788
 162   2.0000      -0.504351       -13.7241
 163   2.0000      -0.496623       -13.5138
 164   2.0000      -0.494326       -13.4513
 165   2.0000      -0.491833       -13.3835
 166   2.0000      -0.486612       -13.2414
 167   2.0000      -0.484206       -13.1759
 168   2.0000      -0.481194       -13.0940
 169   2.0000      -0.478369       -13.0171
 170   2.0000      -0.478248       -13.0138
 171   2.0000      -0.475522       -12.9396
 172   2.0000      -0.472730       -12.8636
 173   2.0000      -0.466788       -12.7020
 174   2.0000      -0.463676       -12.6173
 175   2.0000      -0.456263       -12.4155
 176   2.0000      -0.452353       -12.3092
 177   2.0000      -0.450215       -12.2510
 178   2.0000      -0.449574       -12.2335
 179   2.0000      -0.444666       -12.1000
 180   2.0000      -0.443708       -12.0739
 181   2.0000      -0.439410       -11.9570
 182   2.0000      -0.439370       -11.9559
 183   2.0000      -0.434188       -11.8149
 184   2.0000      -0.432365       -11.7652
 185   2.0000      -0.431028       -11.7289
 186   2.0000      -0.429179       -11.6786
 187   2.0000      -0.424612       -11.5543
 188   2.0000      -0.422951       -11.5091
 189   2.0000      -0.421376       -11.4662
 190   2.0000      -0.416972       -11.3464
 191   2.0000      -0.413042       -11.2394
 192   2.0000      -0.407502       -11.0887
 193   2.0000      -0.406000       -11.0478
 194   2.0000      -0.392969       -10.6932
 195   2.0000      -0.391501       -10.6533
 196   2.0000      -0.384225       -10.4553
 197   2.0000      -0.384111       -10.4522
 198   2.0000      -0.380682       -10.3589
 199   2.0000      -0.360322        -9.8048
 200   2.0000      -0.358037        -9.7427
 201   2.0000      -0.353308        -9.6140
 202   2.0000      -0.349063        -9.4985
 203   2.0000      -0.347671        -9.4606
 204   2.0000      -0.344815        -9.3829
 205   2.0000      -0.340691        -9.2707
 206   2.0000      -0.336235        -9.1494
 207   2.0000      -0.333336        -9.0705
 208   2.0000      -0.326253        -8.8778
 209   2.0000      -0.323507        -8.8031
 210   2.0000      -0.322950        -8.7879
 211   2.0000      -0.319648        -8.6981
 212   2.0000      -0.312434        -8.5018
 213   2.0000      -0.310531        -8.4500
 214   2.0000      -0.302905        -8.2425
 215   2.0000      -0.297466        -8.0945
 216   2.0000      -0.290175        -7.8961
 217   2.0000      -0.286599        -7.7987
 218   2.0000      -0.284460        -7.7406
 219   2.0000      -0.279357        -7.6017
 220   2.0000      -0.275544        -7.4979
 221   2.0000      -0.270097        -7.3497
 222   2.0000      -0.215549        -5.8654
 223   0.0000      -0.109573        -2.9816
 224   0.0000      -0.097869        -2.6632
 225   0.0000      -0.079208        -2.1554
 226   0.0000      -0.075317        -2.0495
 227   0.0000      -0.054758        -1.4900

MULLIKEN ATOMIC CHARGES
-----------------------
   0 C :    0.017837
   1 C :    0.037602
   2 C :    0.005075
   3 C :    0.061398
   4 C :   -0.026002
   5 N :   -0.028618
   6 C :    0.030964
   7 C :    0.018582
   8 N :   -0.015340
   9 C :   -0.035735
  10 C :   -0.029202
  11 C :    0.087362
  12 N :   -0.033391
  13 C :    0.012733
  14 C :   -0.014481
  15 C :   -0.009546
  16 S :   -0.141466
  17 C :   -0.021803
  18 C :   -0.001718
  19 N :   -0.030503
  20 C :    0.045469
  21 C :    0.006974
  22 C :    0.082537
  23 C :   -0.105954
  24 C :    0.057228
  25 C :    0.045142
  26 C :   -0.067204
  27 C :    0.148217
  28 N :   -0.216310
  29 C :    0.127727
  30 N :   -0.218972
  31 C :    0.103258
  32 C :   -0.176045
  33 C :    0.180312
  34 C :   -0.045013
  35 C :    0.028173
  36 C :    0.006213
  37 C :    0.042783
  38 C :   -0.014573
  39 C :    0.021284
  40 C :   -0.096872
  41 C :    0.012276
  42 C :    0.014318
  43 C :    0.055829
  44 N :   -0.031873
  45 C :    0.031424
  46 C :   -0.006963
  47 C :    0.013204
  48 S :   -0.150980
  49 C :    0.025870
  50 C :   -0.014181
  51 N :   -0.036338
  52 C :    0.056332
  53 C :   -0.020188
  54 C :    0.065413
  55 C :   -0.030664
  56 C :    0.039819
  57 C :    0.016200
  58 C :   -0.031200
  59 N :   -0.015060
  60 C :    0.013347
  61 C :    0.026021
  62 N :   -0.000405
  63 C :   -0.023745
  64 H :   -0.022263
  65 H :   -0.004126
  66 H :   -0.019231
  67 H :    0.012481
  68 H :    0.012162
  69 H :    0.005114
  70 H :    0.003958
  71 H :   -0.044736
  72 H :   -0.043889
  73 H :   -0.003452
  74 H :   -0.026811
  75 H :    0.083049
  76 H :    0.088684
  77 H :    0.011058
  78 H :   -0.022455
  79 H :    0.089742
  80 H :    0.084045
  81 H :    0.007870
  82 H :    0.037286
  83 H :   -0.016463
  84 H :   -0.036249
  85 H :   -0.038082
  86 H :   -0.032661
  87 H :   -0.000965
  88 H :    0.022049
  89 H :    0.008291
  90 H :    0.004495
  91 H :   -0.018178
  92 H :   -0.002866
  93 H :   -0.018305
  94 H :    0.017008
  95 H :    0.016858
Sum of atomic charges:   -0.0000000

LOEWDIN ATOMIC CHARGES
----------------------
   0 C :   -0.004462
   1 C :   -0.012444
   2 C :    0.015555
   3 C :   -0.031498
   4 C :   -0.003618
   5 N :   -0.038306
   6 C :    0.004969
   7 C :   -0.000904
   8 N :   -0.035878
   9 C :   -0.014241
  10 C :   -0.022258
  11 C :    0.095738
  12 N :   -0.090362
  13 C :    0.035483
  14 C :   -0.036167
  15 C :   -0.133067
  16 S :    0.060519
  17 C :   -0.050813
  18 C :    0.033546
  19 N :   -0.080794
  20 C :    0.080454
  21 C :   -0.021694
  22 C :   -0.029990
  23 C :    0.005011
  24 C :   -0.019104
  25 C :   -0.004843
  26 C :   -0.040752
  27 C :    0.023585
  28 N :   -0.119943
  29 C :    0.023207
  30 N :   -0.120146
  31 C :   -0.010428
  32 C :    0.064390
  33 C :   -0.031014
  34 C :   -0.037922
  35 C :   -0.013211
  36 C :   -0.040482
  37 C :   -0.023722
  38 C :   -0.010438
  39 C :   -0.016514
  40 C :    0.014185
  41 C :   -0.031000
  42 C :   -0.036617
  43 C :    0.092341
  44 N :   -0.083408
  45 C :    0.041606
  46 C :   -0.034341
  47 C :   -0.134200
  48 S :    0.064266
  49 C :   -0.015797
  50 C :    0.037270
  51 N :   -0.085974
  52 C :    0.087135
  53 C :   -0.030787
  54 C :   -0.023532
  55 C :   -0.004432
  56 C :   -0.014464
  57 C :   -0.002161
  58 C :   -0.010740
  59 N :   -0.038650
  60 C :    0.001312
  61 C :   -0.001657
  62 N :   -0.029654
  63 C :   -0.002516
  64 H :    0.035997
  65 H :    0.034502
  66 H :    0.022905
  67 H :    0.026622
  68 H :    0.026057
  69 H :    0.022072
  70 H :    0.022457
  71 H :    0.020773
  72 H :    0.017779
  73 H :    0.000008
  74 H :    0.010306
  75 H :    0.048868
  76 H :    0.053650
  77 H :    0.001070
  78 H :    0.009180
  79 H :    0.052243
  80 H :    0.046080
  81 H :    0.027786
  82 H :    0.060497
  83 H :    0.022054
  84 H :    0.030654
  85 H :    0.027378
  86 H :    0.013538
  87 H :    0.023551
  88 H :    0.032685
  89 H :    0.024298
  90 H :    0.024710
  91 H :    0.031661
  92 H :    0.034353
  93 H :    0.037471
  94 H :    0.027360
  95 H :    0.025807

  Mayer bond orders larger than 0.100000
B(  0-C ,  1-C ) :   1.4326 B(  0-C ,  3-C ) :   0.1057 B(  0-C ,  9-C ) :   1.2547
B(  0-C , 64-H ) :   1.0105 B(  1-C ,  2-C ) :   1.2378 B(  1-C , 65-H ) :   0.9905
B(  2-C ,  3-C ) :   1.4789 B(  2-C , 66-H ) :   0.9882 B(  3-C ,  4-C ) :   1.2154
B(  3-C , 10-C ) :   0.9844 B(  4-C ,  5-N ) :   1.4587 B(  4-C ,  9-C ) :   1.2371
B(  5-N ,  6-C ) :   1.6496 B(  6-C ,  7-C ) :   1.2307 B(  6-C , 67-H ) :   0.9741
B(  7-C ,  8-N ) :   1.6716 B(  7-C , 68-H ) :   0.9746 B(  8-N ,  9-C ) :   1.4265
B( 10-C , 11-C ) :   1.0468 B( 10-C , 14-C ) :   1.5750 B( 11-C , 12-N ) :   1.6989
B( 11-C , 69-H ) :   0.9848 B( 12-N , 13-C ) :   1.2830 B( 13-C , 14-C ) :   1.0512
B( 13-C , 18-C ) :   1.5107 B( 14-C , 15-C ) :   1.0261 B( 15-C , 16-S ) :   1.6743
B( 15-C , 17-C ) :   1.0433 B( 17-C , 18-C ) :   1.0646 B( 17-C , 21-C ) :   1.5174
B( 18-C , 19-N ) :   1.2684 B( 19-N , 20-C ) :   1.7175 B( 20-C , 21-C ) :   1.0493
B( 20-C , 70-H ) :   0.9856 B( 21-C , 22-C ) :   1.0206 B( 22-C , 23-C ) :   1.4933
B( 22-C , 39-C ) :   1.1419 B( 23-C , 24-C ) :   1.1433 B( 23-C , 71-H ) :   0.9905
B( 24-C , 25-C ) :   1.4816 B( 24-C , 37-C ) :   1.1157 B( 25-C , 26-C ) :   1.0112
B( 25-C , 31-C ) :   1.0907 B( 26-C , 27-C ) :   1.0378 B( 26-C , 29-C ) :   1.0318
B( 26-C , 72-H ) :   0.8891 B( 27-C , 28-N ) :   1.0772 B( 27-C , 73-H ) :   0.9344
B( 27-C , 74-H ) :   0.9345 B( 28-N , 75-H ) :   0.9727 B( 28-N , 76-H ) :   0.9696
B( 29-C , 30-N ) :   1.0793 B( 29-C , 77-H ) :   0.9470 B( 29-C , 78-H ) :   0.9263
B( 30-N , 79-H ) :   0.9681 B( 30-N , 80-H ) :   0.9618 B( 31-C , 32-C ) :   1.6499
B( 31-C , 36-C ) :   1.0579 B( 32-C , 33-C ) :   0.9799 B( 32-C , 81-H ) :   0.9654
B( 33-C , 34-C ) :   0.9824 B( 33-C , 40-C ) :   0.9523 B( 33-C , 82-H ) :   0.8510
B( 34-C , 35-C ) :   1.7367 B( 34-C , 83-H ) :   0.9668 B( 35-C , 36-C ) :   1.1314
B( 35-C , 84-H ) :   0.9868 B( 36-C , 37-C ) :   1.4441 B( 37-C , 38-C ) :   1.1325
B( 38-C , 39-C ) :   1.6119 B( 38-C , 85-H ) :   0.9944 B( 39-C , 86-H ) :   0.9676
B( 40-C , 41-C ) :   1.8159 B( 40-C , 87-H ) :   0.9704 B( 41-C , 42-C ) :   1.0712
B( 41-C , 88-H ) :   0.9474 B( 42-C , 43-C ) :   1.0160 B( 42-C , 46-C ) :   1.5372
B( 43-C , 44-N ) :   1.7172 B( 43-C , 89-H ) :   0.9910 B( 44-N , 45-C ) :   1.2668
B( 45-C , 46-C ) :   1.0533 B( 45-C , 50-C ) :   1.5187 B( 46-C , 47-C ) :   1.0295
B( 47-C , 48-S ) :   1.6854 B( 47-C , 49-C ) :   1.0311 B( 49-C , 50-C ) :   1.0620
B( 49-C , 53-C ) :   1.5858 B( 50-C , 51-N ) :   1.2743 B( 51-N , 52-C ) :   1.7012
B( 52-C , 53-C ) :   1.0546 B( 52-C , 90-H ) :   0.9916 B( 53-C , 54-C ) :   0.9690
B( 54-C , 55-C ) :   1.4779 B( 54-C , 57-C ) :   0.1058 B( 54-C , 63-C ) :   1.2362
B( 55-C , 56-C ) :   1.2405 B( 55-C , 91-H ) :   1.0002 B( 56-C , 57-C ) :   1.4385
B( 56-C , 92-H ) :   0.9881 B( 57-C , 58-C ) :   1.2575 B( 57-C , 93-H ) :   1.0115
B( 58-C , 59-N ) :   1.4225 B( 58-C , 63-C ) :   1.2352 B( 59-N , 60-C ) :   1.6754
B( 60-C , 61-C ) :   1.2198 B( 60-C , 94-H ) :   0.9746 B( 61-C , 62-N ) :   1.6376
B( 61-C , 95-H ) :   0.9710 B( 62-N , 63-C ) :   1.4726

-----------------------------------------------------------------------------
         ABSORPTION SPECTRUM VIA TRANSITION ELECTRIC DIPOLE MOMENTS
-----------------------------------------------------------------------------
State   Energy  Wavelength   fosc         T2         TX        TY        TZ
        (cm-1)    (nm)                  (au**2)     (au)      (au)      (au)
-----------------------------------------------------------------------------
   0   10435.7    958.2   0.073078711   2.30539   0.94862  -0.53620   1.05735
   1   10838.1    922.7   0.057016567   1.73190   1.07783  -0.11539   0.74623
   2   13588.3    735.9   0.027479719   0.66577  -0.08173   0.42120   0.69403
   3   15526.5    644.1   0.011861292   0.25150   0.21844  -0.17441   0.41637
   4   15801.4    632.9   0.010234800   0.21324  -0.22993   0.18276  -0.35632
   5   16474.9    607.0   0.017409079   0.34788   0.29008   0.13799   0.49466
   6   17208.0    581.1   0.073950599   1.41478   0.48851   0.24597   1.05624
   7   18156.0    550.8   0.001678396   0.03043   0.05173  -0.00388   0.16656
   8   18466.3    541.5   0.073305656   1.30687   0.65616  -0.39728   0.84764
   9   18584.9    538.1   0.041416093   0.73364  -0.20883  -0.72697  -0.40193
  10   19551.8    511.5   0.105219624   1.77168  -0.89623   0.50927  -0.84208
  11   20696.8    483.2   0.013258895   0.21090   0.07062  -0.41404  -0.18571
  12   21795.9    458.8   0.005615238   0.08481   0.20064   0.18396   0.10353
  13   24460.1    408.8   0.066876356   0.90010  -0.21596   0.91770  -0.10624
  14   24902.0    401.6   0.160931963   2.12757  -0.92928   0.49786  -1.00804
  15   25088.1    398.6   0.000991015   0.01300  -0.04965   0.07587  -0.06916
  16   25178.0    397.2   0.000432598   0.00566   0.00609   0.04501   0.05994
  17   25472.9    392.6   0.001101032   0.01423  -0.04462   0.02984   0.10653
  18   25908.1    386.0   0.000098578   0.00125  -0.00813  -0.03326   0.00896
  19   26018.5    384.3   0.063847067   0.80786  -0.71270   0.05092  -0.54527
  20   26040.4    384.0   0.011623372   0.14695   0.30585   0.12631   0.19351
  21   26128.9    382.7   0.009973103   0.12566   0.23426  -0.19377   0.18230
  22   26339.4    379.7   0.576309045   7.20321   1.88880  -0.78793   1.73632
  23   26810.9    373.0   0.009910691   0.12169  -0.22595  -0.08087  -0.25318
  24   27169.5    368.1   0.083530711   1.01214  -0.14603   0.99370   0.05806
  25   27671.3    361.4   0.001366224   0.01625  -0.01833  -0.11252  -0.05708
  26   27875.5    358.7   0.523199255   6.17903  -1.54815   1.58099  -1.13257
  27   27892.4    358.5   0.327009287   3.85967  -1.14451   0.32565  -1.56324
  28   28660.3    348.9   0.016588317   0.19054   0.00181   0.41576   0.13300
  29   28708.3    348.3   0.228609167   2.62157  -0.23182   1.58495   0.23614
  30   28733.4    348.0   0.062617634   0.71744   0.28812   0.57462   0.55158
  31   28870.8    346.4   0.095477916   1.08873   0.03076   1.03903  -0.09057
  32   29584.9    338.0   0.001016843   0.01132  -0.03604   0.05218  -0.08540
  33   29626.3    337.5   0.048104523   0.53454  -0.28793   0.52358   0.42131
  34   29745.5    336.2   0.020137111   0.22287   0.37841   0.18049   0.21703
  35   30266.9    330.4   0.028045736   0.30505  -0.37710  -0.32350  -0.24123
  36   30405.2    328.9   0.014586441   0.15793  -0.17333  -0.14196  -0.32823
  37   30563.5    327.2   0.003709417   0.03996  -0.03787  -0.18126   0.07528
  38   31003.2    322.5   0.026768091   0.28424   0.17815  -0.04496   0.50048
  39   31024.0    322.3   0.010012416   0.10625   0.19484  -0.06901   0.25204
  40   31265.5    319.8   0.008997479   0.09474   0.03212   0.27424  -0.13601
  41   31298.0    319.5   0.028820936   0.30316  -0.08797  -0.50892   0.19083
  42   31562.9    316.8   0.010111153   0.10546   0.04618  -0.31328  -0.07202
  43   32009.1    312.4   0.009983524   0.10268  -0.17945   0.09415  -0.24822
  44   32244.7    310.1   0.005224879   0.05335  -0.14828   0.03426  -0.17373
  45   32488.8    307.8   0.001978159   0.02004   0.13953   0.02373  -0.00361
  46   32634.8    306.4   0.018036265   0.18195  -0.06070  -0.07614   0.41529
  47   33030.8    302.7   0.017226321   0.17169  -0.20901   0.27336  -0.23083
  48   33086.4    302.2   0.007750634   0.07712  -0.13936   0.09919  -0.21877
  49   33225.2    301.0   0.000203027   0.00201   0.01797   0.01012  -0.03983
  50   33373.9    299.6   0.108372652   1.06903  -0.54811   0.60193  -0.63740
  51   33581.5    297.8   0.012480582   0.12235   0.04983   0.34376   0.04125
  52   33645.7    297.2   0.013983459   0.13682   0.22130  -0.19103   0.22663
  53   33890.0    295.1   0.136625568   1.32720  -0.73994   0.16555  -0.86734
  54   34195.5    292.4   0.015108488   0.14545   0.15512  -0.03643   0.34651
  55   34232.5    292.1   0.022108488   0.21262   0.23825  -0.16808   0.35721
  56   34421.5    290.5   0.012206322   0.11674   0.27421  -0.16050   0.12567
  57   34525.5    289.6   0.076559837   0.73002  -0.01222   0.81145   0.26726
  58   34742.3    287.8   0.002222387   0.02106  -0.06990   0.06820  -0.10734
  59   34922.2    286.4   0.071851661   0.67735  -0.08216   0.77720   0.25799
  60   35047.4    285.3   0.002794337   0.02625   0.09043  -0.11820   0.06402
  61   35157.6    284.4   0.006738590   0.06310   0.00449   0.23052   0.09971
  62   35263.7    283.6   0.052220229   0.48751  -0.16334   0.64883   0.19964
  63   35509.5    281.6   0.233103509   2.16112   0.20395   1.24904   0.74795
  64   35824.3    279.1   0.036960239   0.33965  -0.48597   0.16970  -0.27329
  65   36061.8    277.3   0.048374542   0.44162  -0.03219   0.64556   0.15438
  66   36107.9    276.9   0.030528092   0.27834  -0.16569  -0.28243  -0.41367
  67   36231.1    276.0   0.066256989   0.60204  -0.11416  -0.35600   0.67991
  68   36291.3    275.5   0.012105122   0.10981   0.07639   0.23332   0.22257
  69   36370.9    274.9   0.008030223   0.07269  -0.05492   0.19269  -0.18039
  70   36493.8    274.0   0.050893020   0.45911   0.00575   0.24327  -0.63237
  71   36525.4    273.8   0.003049134   0.02748   0.15136   0.06724  -0.00706
  72   36768.5    272.0   0.085874487   0.76889  -0.23370   0.83158   0.15083
  73   37211.6    268.7   0.003196844   0.02828  -0.08185   0.12053  -0.08400
  74   37497.0    266.7   0.231880935   2.03584  -0.59215   0.15199  -1.28922
  75   37527.1    266.5   0.048887191   0.42887  -0.21845   0.19107  -0.58706
  76   37575.3    266.1   0.031102779   0.27250  -0.08660  -0.05310  -0.51204
  77   37698.6    265.3   0.004387801   0.03832   0.15810  -0.06035  -0.09838
  78   37960.4    263.4   0.175018938   1.51786  -0.81754   0.16969  -0.90592
  79   38058.9    262.8   0.092683733   0.80172   0.46801   0.08414   0.75869
  80   38139.4    262.2   0.106603467   0.92018  -0.40578  -0.28283  -0.82191
  81   38505.9    259.7   0.031062402   0.26557  -0.36322   0.24360  -0.27258
  82   38760.3    258.0   0.006468588   0.05494   0.07959  -0.09096  -0.20083
  83   38888.1    257.1   0.002725479   0.02307  -0.11678  -0.01763  -0.09552
  84   39109.5    255.7   0.428712652   3.60877   0.64956   1.07963   1.42170
  85   39242.6    254.8   0.031993695   0.26840   0.10946   0.41886   0.28456
  86   39544.0    252.9   0.009131773   0.07602  -0.07458  -0.18969  -0.18568
  87   39706.5    251.8   0.011231970   0.09313   0.24801   0.01065   0.17750
  88   39910.7    250.6   0.016536316   0.13640  -0.21116  -0.03536   0.30094
  89   40294.9    248.2   0.021574212   0.17626  -0.21945  -0.16502  -0.31760

FINAL SINGLE POINT ENERGY     -3340.979575970578

DIPOLE MOMENT
-------------
                                X             Y             Z
Electronic contribution:    -23.01840      -5.14801       0.74400
Nuclear contribution   :     24.03370       5.11635      -0.18110
                        -----------------------------------------
Total Dipole Moment    :      1.01530      -0.03167       0.56289
                        -----------------------------------------
Magnitude (a.u.)       :      1.16132
Magnitude (Debye)      :      2.95185

Rotational constants in cm-1:     0.002579     0.000375     0.000347
Rotational constants in MHz :    77.330906    11.230100    10.412641

                             ****ORCA TERMINATED NORMALLY****
TOTAL RUN TIME: 0 days 0 hours 8 minutes 41 seconds 506 msec
