                         Program Version 4.2.0 -  RELEASE  -
|  1> # ORCA input file
|  2> # SCF done       -194.207502388681          0.000364783356
|  3> ! CAM-B3LYP def2-SVP def2/J RIJCOSX Grid4 TightSCF
|  4> %maxcore 5000
|  5> %tddft
|  6>     Mode sTDDFT
|  7>     Ethresh 5.0
|  8>     maxcore 5000
|  9> end
| 10>
| 11> %pal
| 12>   nprocs 6
| 13>   end
| 14> * xyz 0 1
| 15>    C        6.71731        -5.97363        -2.72096
| 16>    C        6.14591        -5.20366        -3.65170
| 17>    C        5.42337        -4.01189        -3.30038
| 18>    C        5.46650        -3.50363        -2.04622
| 19>    C        6.46539        -4.09452        -1.06463
| 20>    C        6.65447        -5.60893        -1.26246
| 21>    N        7.84638        -6.11629        -0.61591
| 22>    C        8.82785        -5.33701        -0.50499
| 23>    C        8.77667        -3.93188        -0.96366
| 24>    N        7.69646        -3.35659        -1.24386
| 25>    F        9.92944        -3.29085        -1.12359
| 26>    F        9.94993        -5.77641         0.05016
| 27>    C        4.76580        -2.34151        -1.59395
| 28>    N        5.17692        -1.71977        -0.49854
| 29>    C        4.41011        -0.61934        -0.38189
| 30>    C        3.42904        -0.53555        -1.47063
| 31>    C        2.59633         0.66700        -1.31546
| 32>    O        1.71326         1.08143        -2.03854
| 33>    C        3.11083         1.25909        -0.06694
| 34>    C        4.22180         0.44766         0.46566
| 35>    N        4.68066         0.96840         1.62936
| 36>    C        3.93291         2.02315         1.85038
| 37>    C        2.92474         2.25583         0.83726
| 38>    C        3.59989        -1.67284        -2.22601
| 39>    C        2.79755        -2.17850        -3.29036
| 40>    C        1.91943        -1.40313        -3.96696
| 41>    C        1.04425        -1.80933        -5.03097
| 42>    C        0.30219        -0.83145        -5.66748
| 43>    C       -0.56035        -1.16683        -6.72275
| 44>    C       -1.38726        -0.37321        -7.51517
| 45>    C       -1.55807         1.10144        -7.40346
| 46>    C       -1.18445         1.82608        -8.71274
| 47>    N       -0.75491         3.17218        -8.39958
| 48>    C       -2.98554         1.45177        -6.94201
| 49>    N       -3.08667         2.87092        -6.63750
| 50>    C       -2.04589        -1.25690        -8.44339
| 51>    C       -2.92201        -1.02411        -9.44046
| 52>    C       -3.50011        -2.13249       -10.24287
| 53>    C       -2.92930        -3.48717        -9.95755
| 54>    C       -2.04767        -3.70486        -8.95996
| 55>    C       -1.57930        -2.62977        -8.17470
| 56>    C       -0.67607        -2.55793        -7.12944
| 57>    C        0.08253        -3.54226        -6.45690
| 58>    C        0.91454        -3.17467        -5.44823
| 59>    C       -4.95833        -2.27718        -9.89051
| 60>    C       -5.90418        -2.60015       -10.78253
| 61>    C       -7.27800        -2.77221       -10.42138
| 62>    N       -7.79041        -2.17685        -9.35446
| 63>    C       -9.11437        -2.42718        -9.38773
| 64>    C       -9.46849        -3.24262       -10.55805
| 65>    C      -10.91562        -3.50732       -10.59583
| 66>    O      -11.54337        -4.14452       -11.41345
| 67>    C      -11.39617        -2.79923        -9.39456
| 68>    C      -10.26696        -2.15940        -8.68685
| 69>    N      -10.70068        -1.51961        -7.57467
| 70>    C      -11.99773        -1.71987        -7.54866
| 71>    C      -12.49658        -2.51307        -8.65035
| 72>    C       -8.29353        -3.50684       -11.21207
| 73>    C       -8.10749        -4.36539       -12.33691
| 74>    C       -6.93996        -4.96674       -12.64797
| 75>    C       -6.71096        -5.88358       -13.72980
| 76>    C       -7.67675        -6.43355       -14.49684
| 77>    C       -7.38707        -7.37730       -15.53968
| 78>    C       -6.16871        -7.89842       -15.69596
| 79>    C       -5.03549        -7.53933       -14.77433
| 80>    C       -5.25088        -6.19200       -14.04901
| 81>    N       -4.45651        -6.06624       -12.84575
| 82>    C       -4.13936        -7.11301       -12.22491
| 83>    C       -4.46065        -8.46502       -12.71676
| 84>    N       -4.86042        -8.67371       -13.88868
| 85>    F       -4.30352        -9.48449       -11.87889
| 86>    F       -3.43633        -7.00424       -11.09902
| 87>    H        7.23443        -6.88938        -2.96067
| 88>    H        6.18642        -5.48123        -4.69417
| 89>    H        4.86887        -3.51868        -4.08272
| 90>    H        6.12465        -3.86928        -0.04672
| 91>    H        5.81351        -6.15425        -0.81049
| 92>    H        4.09767         2.63252         2.72204
| 93>    H        2.21086         3.05579         0.83896
| 94>    H        2.89477        -3.23150        -3.51096
| 95>    H        1.86239        -0.35561        -3.70270
| 96>    H        0.39614         0.19616        -5.34891
| 97>    H       -0.86408         1.47473        -6.64430
| 98>    H       -2.03950         1.78980        -9.40738
| 99>    H       -0.34555         1.30290        -9.18488
|100>    H       -1.52027         3.66248        -7.94521
|101>    H       -0.49540         3.67482        -9.24056
|102>    H       -3.23727         0.80637        -6.08313
|103>    H       -3.69995         1.23202        -7.73975
|104>    H       -2.50102         3.09414        -5.83821
|105>    H       -4.04243         3.10877        -6.39413
|106>    H       -3.28187        -0.03291        -9.67261
|107>    H       -3.41581        -1.90385       -11.31245
|108>    H       -3.29440        -4.29473       -10.57184
|109>    H       -1.67295        -4.69998        -8.76987
|110>    H       -0.00765        -4.57747        -6.75177
|111>    H        1.48868        -3.92913        -4.93293
|112>    H       -5.21558        -2.19132        -8.84551
|113>    H       -5.65420        -2.72638       -11.82721
|114>    H      -12.59406        -1.30615        -6.75386
|115>    H      -13.52048        -2.78922        -8.80751
|116>    H       -9.00507        -4.56473       -12.90617
|117>    H       -6.07418        -4.77662       -12.03000
|118>    H       -8.71267        -6.19948       -14.30970
|119>    H       -8.20034        -7.68364       -16.17978
|120>    H       -5.95980        -8.66886       -16.41926
|121>    H       -4.10595        -7.48605       -15.35976
|122>    H       -4.90616        -5.38210       -14.70856
|123> *
|124>
|125>                          ****END OF INPUT****

CARTESIAN COORDINATES (ANGSTROEM)
---------------------------------
  C      6.717310   -5.973630   -2.720960
  C      6.145910   -5.203660   -3.651700
  C      5.423370   -4.011890   -3.300380
  C      5.466500   -3.503630   -2.046220
  C      6.465390   -4.094520   -1.064630
  C      6.654470   -5.608930   -1.262460
  N      7.846380   -6.116290   -0.615910
  C      8.827850   -5.337010   -0.504990
  C      8.776670   -3.931880   -0.963660
  N      7.696460   -3.356590   -1.243860
  F      9.929440   -3.290850   -1.123590
  F      9.949930   -5.776410    0.050160
  C      4.765800   -2.341510   -1.593950
  N      5.176920   -1.719770   -0.498540
  C      4.410110   -0.619340   -0.381890
  C      3.429040   -0.535550   -1.470630
  C      2.596330    0.667000   -1.315460
  O      1.713260    1.081430   -2.038540
  C      3.110830    1.259090   -0.066940
  C      4.221800    0.447660    0.465660
  N      4.680660    0.968400    1.629360
  C      3.932910    2.023150    1.850380
  C      2.924740    2.255830    0.837260
  C      3.599890   -1.672840   -2.226010
  C      2.797550   -2.178500   -3.290360
  C      1.919430   -1.403130   -3.966960
  C      1.044250   -1.809330   -5.030970
  C      0.302190   -0.831450   -5.667480
  C     -0.560350   -1.166830   -6.722750
  C     -1.387260   -0.373210   -7.515170
  C     -1.558070    1.101440   -7.403460
  C     -1.184450    1.826080   -8.712740
  N     -0.754910    3.172180   -8.399580
  C     -2.985540    1.451770   -6.942010
  N     -3.086670    2.870920   -6.637500
  C     -2.045890   -1.256900   -8.443390
  C     -2.922010   -1.024110   -9.440460
  C     -3.500110   -2.132490  -10.242870
  C     -2.929300   -3.487170   -9.957550
  C     -2.047670   -3.704860   -8.959960
  C     -1.579300   -2.629770   -8.174700
  C     -0.676070   -2.557930   -7.129440
  C      0.082530   -3.542260   -6.456900
  C      0.914540   -3.174670   -5.448230
  C     -4.958330   -2.277180   -9.890510
  C     -5.904180   -2.600150  -10.782530
  C     -7.278000   -2.772210  -10.421380
  N     -7.790410   -2.176850   -9.354460
  C     -9.114370   -2.427180   -9.387730
  C     -9.468490   -3.242620  -10.558050
  C    -10.915620   -3.507320  -10.595830
  O    -11.543370   -4.144520  -11.413450
  C    -11.396170   -2.799230   -9.394560
  C    -10.266960   -2.159400   -8.686850
  N    -10.700680   -1.519610   -7.574670
  C    -11.997730   -1.719870   -7.548660
  C    -12.496580   -2.513070   -8.650350
  C     -8.293530   -3.506840  -11.212070
  C     -8.107490   -4.365390  -12.336910
  C     -6.939960   -4.966740  -12.647970
  C     -6.710960   -5.883580  -13.729800
  C     -7.676750   -6.433550  -14.496840
  C     -7.387070   -7.377300  -15.539680
  C     -6.168710   -7.898420  -15.695960
  C     -5.035490   -7.539330  -14.774330
  C     -5.250880   -6.192000  -14.049010
  N     -4.456510   -6.066240  -12.845750
  C     -4.139360   -7.113010  -12.224910
  C     -4.460650   -8.465020  -12.716760
  N     -4.860420   -8.673710  -13.888680
  F     -4.303520   -9.484490  -11.878890
  F     -3.436330   -7.004240  -11.099020
  H      7.234430   -6.889380   -2.960670
  H      6.186420   -5.481230   -4.694170
  H      4.868870   -3.518680   -4.082720
  H      6.124650   -3.869280   -0.046720
  H      5.813510   -6.154250   -0.810490
  H      4.097670    2.632520    2.722040
  H      2.210860    3.055790    0.838960
  H      2.894770   -3.231500   -3.510960
  H      1.862390   -0.355610   -3.702700
  H      0.396140    0.196160   -5.348910
  H     -0.864080    1.474730   -6.644300
  H     -2.039500    1.789800   -9.407380
  H     -0.345550    1.302900   -9.184880
  H     -1.520270    3.662480   -7.945210
  H     -0.495400    3.674820   -9.240560
  H     -3.237270    0.806370   -6.083130
  H     -3.699950    1.232020   -7.739750
  H     -2.501020    3.094140   -5.838210
  H     -4.042430    3.108770   -6.394130
  H     -3.281870   -0.032910   -9.672610
  H     -3.415810   -1.903850  -11.312450
  H     -3.294400   -4.294730  -10.571840
  H     -1.672950   -4.699980   -8.769870
  H     -0.007650   -4.577470   -6.751770
  H      1.488680   -3.929130   -4.932930
  H     -5.215580   -2.191320   -8.845510
  H     -5.654200   -2.726380  -11.827210
  H    -12.594060   -1.306150   -6.753860
  H    -13.520480   -2.789220   -8.807510
  H     -9.005070   -4.564730  -12.906170
  H     -6.074180   -4.776620  -12.030000
  H     -8.712670   -6.199480  -14.309700
  H     -8.200340   -7.683640  -16.179780
  H     -5.959800   -8.668860  -16.419260
  H     -4.105950   -7.486050  -15.359760
  H     -4.906160   -5.382100  -14.708560

 Total Charge           Charge          ....    0
 Multiplicity           Mult            ....    1
 Number of Electrons    NEL             ....  494
 Basis Dimension        Dim             .... 1188

ORBITAL ENERGIES
----------------

  NO   OCC          E(Eh)            E(eV)
   0   2.0000     -24.817901      -675.3294
   1   2.0000     -24.809436      -675.0991
   2   2.0000     -24.801444      -674.8816
   3   2.0000     -24.796134      -674.7371
   4   2.0000     -19.204869      -522.5911
   5   2.0000     -19.202294      -522.5210
   6   2.0000     -14.443761      -393.0347
   7   2.0000     -14.438937      -392.9035
   8   2.0000     -14.428243      -392.6125
   9   2.0000     -14.423526      -392.4841
  10   2.0000     -14.405308      -391.9884
  11   2.0000     -14.402946      -391.9241
  12   2.0000     -14.400299      -391.8521
  13   2.0000     -14.395330      -391.7168
  14   2.0000     -14.386189      -391.4681
  15   2.0000     -14.354666      -390.6103
  16   2.0000     -10.430203      -283.8203
  17   2.0000     -10.424011      -283.6518
  18   2.0000     -10.414739      -283.3995
  19   2.0000     -10.409037      -283.2443
  20   2.0000     -10.365732      -282.0659
  21   2.0000     -10.362150      -281.9684
  22   2.0000     -10.341577      -281.4086
  23   2.0000     -10.337519      -281.2982
  24   2.0000     -10.336216      -281.2627
  25   2.0000     -10.334202      -281.2079
  26   2.0000     -10.328831      -281.0618
  27   2.0000     -10.327505      -281.0257
  28   2.0000     -10.323653      -280.9209
  29   2.0000     -10.321511      -280.8626
  30   2.0000     -10.319038      -280.7953
  31   2.0000     -10.317724      -280.7595
  32   2.0000     -10.313608      -280.6475
  33   2.0000     -10.311155      -280.5808
  34   2.0000     -10.307749      -280.4881
  35   2.0000     -10.304970      -280.4125
  36   2.0000     -10.304389      -280.3967
  37   2.0000     -10.301805      -280.3264
  38   2.0000     -10.300985      -280.3041
  39   2.0000     -10.298727      -280.2426
  40   2.0000     -10.298664      -280.2409
  41   2.0000     -10.297381      -280.2060
  42   2.0000     -10.296669      -280.1866
  43   2.0000     -10.290505      -280.0189
  44   2.0000     -10.289446      -279.9901
  45   2.0000     -10.287106      -279.9264
  46   2.0000     -10.286532      -279.9108
  47   2.0000     -10.286345      -279.9057
  48   2.0000     -10.286110      -279.8993
  49   2.0000     -10.285358      -279.8788
  50   2.0000     -10.285317      -279.8777
  51   2.0000     -10.284275      -279.8493
  52   2.0000     -10.283608      -279.8312
  53   2.0000     -10.283142      -279.8185
  54   2.0000     -10.280260      -279.7401
  55   2.0000     -10.278414      -279.6899
  56   2.0000     -10.277595      -279.6676
  57   2.0000     -10.276539      -279.6388
  58   2.0000     -10.275855      -279.6202
  59   2.0000     -10.275081      -279.5992
  60   2.0000     -10.274600      -279.5861
  61   2.0000     -10.273955      -279.5685
  62   2.0000     -10.273576      -279.5582
  63   2.0000     -10.272602      -279.5317
  64   2.0000     -10.270755      -279.4815
  65   2.0000     -10.270433      -279.4727
  66   2.0000     -10.268468      -279.4192
  67   2.0000     -10.265067      -279.3267
  68   2.0000     -10.264304      -279.3059
  69   2.0000     -10.263726      -279.2902
  70   2.0000     -10.263458      -279.2829
  71   2.0000     -10.260967      -279.2151
  72   2.0000      -1.343299       -36.5530
  73   2.0000      -1.329222       -36.1700
  74   2.0000      -1.327279       -36.1171
  75   2.0000      -1.313751       -35.7490
  76   2.0000      -1.118982       -30.4490
  77   2.0000      -1.116022       -30.3685
  78   2.0000      -1.091553       -29.7027
  79   2.0000      -1.080700       -29.4074
  80   2.0000      -1.073833       -29.2205
  81   2.0000      -1.069657       -29.1068
  82   2.0000      -1.054112       -28.6838
  83   2.0000      -1.049642       -28.5622
  84   2.0000      -1.024248       -27.8712
  85   2.0000      -1.009754       -27.4768
  86   2.0000      -0.985799       -26.8249
  87   2.0000      -0.969354       -26.3775
  88   2.0000      -0.956077       -26.0162
  89   2.0000      -0.956013       -26.0144
  90   2.0000      -0.951908       -25.9027
  91   2.0000      -0.936259       -25.4769
  92   2.0000      -0.933386       -25.3987
  93   2.0000      -0.925595       -25.1867
  94   2.0000      -0.921373       -25.0718
  95   2.0000      -0.915106       -24.9013
  96   2.0000      -0.898687       -24.4545
  97   2.0000      -0.883912       -24.0525
  98   2.0000      -0.874117       -23.7859
  99   2.0000      -0.872573       -23.7439
 100   2.0000      -0.867045       -23.5935
 101   2.0000      -0.863901       -23.5079
 102   2.0000      -0.859160       -23.3789
 103   2.0000      -0.851962       -23.1831
 104   2.0000      -0.845317       -23.0022
 105   2.0000      -0.840705       -22.8768
 106   2.0000      -0.832800       -22.6616
 107   2.0000      -0.826598       -22.4929
 108   2.0000      -0.820714       -22.3328
 109   2.0000      -0.801410       -21.8075
 110   2.0000      -0.783888       -21.3307
 111   2.0000      -0.776460       -21.1285
 112   2.0000      -0.769175       -20.9303
 113   2.0000      -0.766019       -20.8444
 114   2.0000      -0.760968       -20.7070
 115   2.0000      -0.758106       -20.6291
 116   2.0000      -0.755492       -20.5580
 117   2.0000      -0.753512       -20.5041
 118   2.0000      -0.744259       -20.2523
 119   2.0000      -0.730525       -19.8786
 120   2.0000      -0.724994       -19.7281
 121   2.0000      -0.718828       -19.5603
 122   2.0000      -0.714805       -19.4508
 123   2.0000      -0.705393       -19.1947
 124   2.0000      -0.691813       -18.8252
 125   2.0000      -0.683268       -18.5927
 126   2.0000      -0.680061       -18.5054
 127   2.0000      -0.678423       -18.4608
 128   2.0000      -0.674283       -18.3482
 129   2.0000      -0.666745       -18.1431
 130   2.0000      -0.663646       -18.0587
 131   2.0000      -0.661441       -17.9987
 132   2.0000      -0.657235       -17.8843
 133   2.0000      -0.653621       -17.7859
 134   2.0000      -0.648053       -17.6344
 135   2.0000      -0.647396       -17.6165
 136   2.0000      -0.638998       -17.3880
 137   2.0000      -0.634241       -17.2586
 138   2.0000      -0.633162       -17.2292
 139   2.0000      -0.629319       -17.1246
 140   2.0000      -0.626048       -17.0356
 141   2.0000      -0.621008       -16.8985
 142   2.0000      -0.615640       -16.7524
 143   2.0000      -0.605589       -16.4789
 144   2.0000      -0.603761       -16.4292
 145   2.0000      -0.601745       -16.3743
 146   2.0000      -0.597352       -16.2548
 147   2.0000      -0.592095       -16.1117
 148   2.0000      -0.590800       -16.0765
 149   2.0000      -0.589601       -16.0439
 150   2.0000      -0.586475       -15.9588
 151   2.0000      -0.582575       -15.8527
 152   2.0000      -0.574286       -15.6271
 153   2.0000      -0.572144       -15.5688
 154   2.0000      -0.570909       -15.5352
 155   2.0000      -0.566427       -15.4133
 156   2.0000      -0.560141       -15.2422
 157   2.0000      -0.558219       -15.1899
 158   2.0000      -0.556717       -15.1491
 159   2.0000      -0.554149       -15.0792
 160   2.0000      -0.552690       -15.0394
 161   2.0000      -0.549298       -14.9472
 162   2.0000      -0.546511       -14.8713
 163   2.0000      -0.542924       -14.7737
 164   2.0000      -0.541283       -14.7291
 165   2.0000      -0.540482       -14.7073
 166   2.0000      -0.538169       -14.6443
 167   2.0000      -0.536117       -14.5885
 168   2.0000      -0.535641       -14.5755
 169   2.0000      -0.533938       -14.5292
 170   2.0000      -0.533224       -14.5098
 171   2.0000      -0.526989       -14.3401
 172   2.0000      -0.525017       -14.2864
 173   2.0000      -0.523047       -14.2328
 174   2.0000      -0.518843       -14.1184
 175   2.0000      -0.515728       -14.0337
 176   2.0000      -0.513765       -13.9803
 177   2.0000      -0.511839       -13.9278
 178   2.0000      -0.511314       -13.9136
 179   2.0000      -0.510277       -13.8854
 180   2.0000      -0.507914       -13.8210
 181   2.0000      -0.505930       -13.7671
 182   2.0000      -0.504217       -13.7204
 183   2.0000      -0.500701       -13.6248
 184   2.0000      -0.498003       -13.5514
 185   2.0000      -0.497407       -13.5351
 186   2.0000      -0.493024       -13.4159
 187   2.0000      -0.489640       -13.3238
 188   2.0000      -0.486786       -13.2461
 189   2.0000      -0.481676       -13.1071
 190   2.0000      -0.477662       -12.9979
 191   2.0000      -0.477149       -12.9839
 192   2.0000      -0.471607       -12.8331
 193   2.0000      -0.469846       -12.7852
 194   2.0000      -0.467671       -12.7260
 195   2.0000      -0.467175       -12.7125
 196   2.0000      -0.466266       -12.6877
 197   2.0000      -0.463485       -12.6121
 198   2.0000      -0.461778       -12.5656
 199   2.0000      -0.459994       -12.5171
 200   2.0000      -0.456929       -12.4337
 201   2.0000      -0.453979       -12.3534
 202   2.0000      -0.453176       -12.3316
 203   2.0000      -0.451533       -12.2868
 204   2.0000      -0.448332       -12.1997
 205   2.0000      -0.445585       -12.1250
 206   2.0000      -0.439463       -11.9584
 207   2.0000      -0.435225       -11.8431
 208   2.0000      -0.434147       -11.8137
 209   2.0000      -0.432430       -11.7670
 210   2.0000      -0.425985       -11.5917
 211   2.0000      -0.424097       -11.5403
 212   2.0000      -0.419757       -11.4222
 213   2.0000      -0.412892       -11.2354
 214   2.0000      -0.410368       -11.1667
 215   2.0000      -0.408467       -11.1149
 216   2.0000      -0.403694       -10.9851
 217   2.0000      -0.397277       -10.8105
 218   2.0000      -0.394465       -10.7339
 219   2.0000      -0.391760       -10.6603
 220   2.0000      -0.389235       -10.5916
 221   2.0000      -0.383092       -10.4245
 222   2.0000      -0.378816       -10.3081
 223   2.0000      -0.366876        -9.9832
 224   2.0000      -0.365412        -9.9434
 225   2.0000      -0.358705        -9.7609
 226   2.0000      -0.355888        -9.6842
 227   2.0000      -0.354586        -9.6488
 228   2.0000      -0.352635        -9.5957
 229   2.0000      -0.348742        -9.4898
 230   2.0000      -0.346011        -9.4154
 231   2.0000      -0.343706        -9.3527
 232   2.0000      -0.339235        -9.2311
 233   2.0000      -0.335561        -9.1311
 234   2.0000      -0.334860        -9.1120
 235   2.0000      -0.326874        -8.8947
 236   2.0000      -0.326283        -8.8786
 237   2.0000      -0.324302        -8.8247
 238   2.0000      -0.321076        -8.7369
 239   2.0000      -0.320157        -8.7119
 240   2.0000      -0.308935        -8.4066
 241   2.0000      -0.303161        -8.2494
 242   2.0000      -0.290204        -7.8969
 243   2.0000      -0.282757        -7.6942
 244   2.0000      -0.269283        -7.3276
 245   2.0000      -0.268478        -7.3056
 246   2.0000      -0.221202        -6.0192
 247   0.0000      -0.108623        -2.9558
 248   0.0000      -0.106645        -2.9020
 249   0.0000      -0.072638        -1.9766
 250   0.0000      -0.057467        -1.5638
 251   0.0000      -0.044121        -1.2006

MULLIKEN ATOMIC CHARGES
-----------------------
   0 C :   -0.024106
   1 C :    0.057778
   2 C :   -0.036458
   3 C :   -0.015248
   4 C :    0.099888
   5 C :    0.102943
   6 N :   -0.092548
   7 C :    0.104673
   8 C :    0.114486
   9 N :   -0.061089
  10 F :   -0.145352
  11 F :   -0.141344
  12 C :    0.046916
  13 N :   -0.040368
  14 C :    0.069660
  15 C :   -0.171747
  16 C :    0.213606
  17 O :   -0.150695
  18 C :   -0.014876
  19 C :   -0.030824
  20 N :   -0.053938
  21 C :    0.084094
  22 C :   -0.099286
  23 C :    0.054547
  24 C :   -0.055315
  25 C :    0.007824
  26 C :    0.114865
  27 C :   -0.101869
  28 C :    0.064323
  29 C :   -0.017652
  30 C :   -0.063353
  31 C :    0.152830
  32 N :   -0.221212
  33 C :    0.139666
  34 N :   -0.217416
  35 C :    0.106375
  36 C :   -0.137670
  37 C :    0.124609
  38 C :   -0.037438
  39 C :    0.026072
  40 C :    0.007691
  41 C :    0.039804
  42 C :    0.001365
  43 C :   -0.011266
  44 C :   -0.000464
  45 C :   -0.032613
  46 C :    0.025939
  47 N :   -0.046362
  48 C :    0.075827
  49 C :   -0.127181
  50 C :    0.203145
  51 O :   -0.136393
  52 C :   -0.041186
  53 C :   -0.033517
  54 N :   -0.059801
  55 C :    0.086773
  56 C :   -0.093174
  57 C :    0.024279
  58 C :    0.003977
  59 C :   -0.011636
  60 C :   -0.016269
  61 C :   -0.026814
  62 C :    0.032113
  63 C :    0.004939
  64 C :    0.089218
  65 C :    0.103639
  66 N :   -0.124805
  67 C :    0.133482
  68 C :    0.132505
  69 N :   -0.084273
  70 F :   -0.143788
  71 F :   -0.146887
  72 H :    0.021125
  73 H :   -0.001037
  74 H :    0.006552
  75 H :    0.038423
  76 H :    0.040629
  77 H :    0.004662
  78 H :   -0.008181
  79 H :   -0.022207
  80 H :    0.005920
  81 H :   -0.018130
  82 H :   -0.021267
  83 H :   -0.030941
  84 H :   -0.002146
  85 H :    0.080856
  86 H :    0.081107
  87 H :    0.001004
  88 H :   -0.014288
  89 H :    0.104708
  90 H :    0.098449
  91 H :    0.001062
  92 H :    0.026598
  93 H :   -0.011184
  94 H :   -0.032788
  95 H :   -0.039087
  96 H :   -0.035176
  97 H :    0.040009
  98 H :    0.009754
  99 H :    0.006465
 100 H :   -0.008524
 101 H :    0.005512
 102 H :    0.016700
 103 H :   -0.004587
 104 H :   -0.002624
 105 H :    0.008646
 106 H :    0.031141
 107 H :    0.039226
Sum of atomic charges:   -0.0000000

LOEWDIN ATOMIC CHARGES
----------------------
   0 C :    0.012789
   1 C :   -0.038723
   2 C :    0.025088
   3 C :   -0.037353
   4 C :    0.022597
   5 C :    0.007408
   6 N :   -0.076582
   7 C :    0.050397
   8 C :    0.041931
   9 N :   -0.053463
  10 F :   -0.033870
  11 F :   -0.030045
  12 C :    0.075819
  13 N :   -0.096825
  14 C :    0.049909
  15 C :   -0.061499
  16 C :    0.069653
  17 O :   -0.148524
  18 C :   -0.041021
  19 C :    0.015438
  20 N :   -0.097398
  21 C :    0.066353
  22 C :   -0.038718
  23 C :   -0.015277
  24 C :   -0.061210
  25 C :    0.030882
  26 C :   -0.032846
  27 C :    0.009649
  28 C :   -0.021145
  29 C :   -0.020243
  30 C :   -0.040868
  31 C :    0.030485
  32 N :   -0.126579
  33 C :    0.027145
  34 N :   -0.104417
  35 C :   -0.012670
  36 C :    0.062145
  37 C :   -0.030201
  38 C :   -0.028595
  39 C :   -0.012042
  40 C :   -0.034819
  41 C :   -0.028807
  42 C :   -0.008147
  43 C :   -0.025304
  44 C :    0.079376
  45 C :   -0.067983
  46 C :    0.079731
  47 N :   -0.107638
  48 C :    0.047798
  49 C :   -0.045214
  50 C :    0.063400
  51 O :   -0.147722
  52 C :   -0.041797
  53 C :    0.016718
  54 N :   -0.099085
  55 C :    0.069428
  56 C :   -0.040124
  57 C :   -0.029755
  58 C :   -0.005909
  59 C :   -0.021943
  60 C :   -0.033439
  61 C :   -0.013369
  62 C :   -0.026868
  63 C :   -0.009137
  64 C :    0.011293
  65 C :    0.019559
  66 N :   -0.076035
  67 C :    0.056913
  68 C :    0.043146
  69 N :   -0.060478
  70 F :   -0.032769
  71 F :   -0.032361
  72 H :    0.034804
  73 H :    0.035434
  74 H :    0.037103
  75 H :    0.042797
  76 H :    0.047391
  77 H :    0.021540
  78 H :    0.032494
  79 H :    0.020929
  80 H :    0.034241
  81 H :    0.032598
  82 H :    0.026946
  83 H :   -0.006526
  84 H :    0.016971
  85 H :    0.035980
  86 H :    0.049203
  87 H :    0.005633
  88 H :    0.013082
  89 H :    0.058459
  90 H :    0.058621
  91 H :    0.028062
  92 H :    0.052311
  93 H :    0.022594
  94 H :    0.031893
  95 H :    0.026765
  96 H :    0.022887
  97 H :    0.042011
  98 H :    0.033490
  99 H :    0.022335
 100 H :    0.033089
 101 H :    0.036799
 102 H :    0.026995
 103 H :    0.033655
 104 H :    0.034854
 105 H :    0.031451
 106 H :    0.040702
 107 H :    0.046172

  Mayer bond orders larger than 0.100000
B(  0-C ,  1-C ) :   1.7934 B(  0-C ,  5-C ) :   0.9499 B(  0-C , 72-H ) :   0.9758
B(  1-C ,  2-C ) :   1.0925 B(  1-C , 73-H ) :   0.9798 B(  2-C ,  3-C ) :   1.6842
B(  2-C , 74-H ) :   0.9786 B(  3-C ,  4-C ) :   0.9895 B(  3-C , 12-C ) :   1.1074
B(  4-C ,  5-C ) :   0.9839 B(  4-C ,  9-N ) :   1.0351 B(  4-C , 75-H ) :   0.8837
B(  5-C ,  6-N ) :   1.0030 B(  5-C , 76-H ) :   0.8900 B(  6-N ,  7-C ) :   1.9505
B(  7-C ,  8-C ) :   0.9294 B(  7-C , 11-F ) :   1.1653 B(  8-C ,  9-N ) :   1.9629
B(  8-C , 10-F ) :   1.1620 B( 12-C , 13-N ) :   1.6186 B( 12-C , 14-C ) :   0.1161
B( 12-C , 23-C ) :   1.0212 B( 13-N , 14-C ) :   1.3362 B( 14-C , 15-C ) :   1.0595
B( 14-C , 19-C ) :   1.4215 B( 15-C , 16-C ) :   0.9009 B( 15-C , 23-C ) :   1.5558
B( 16-C , 17-O ) :   2.1895 B( 16-C , 18-C ) :   0.9296 B( 18-C , 19-C ) :   1.0693
B( 18-C , 22-C ) :   1.6003 B( 19-C , 20-N ) :   1.3132 B( 20-N , 21-C ) :   1.6569
B( 21-C , 22-C ) :   1.0744 B( 21-C , 77-H ) :   0.9894 B( 22-C , 78-H ) :   1.0111
B( 23-C , 24-C ) :   1.1100 B( 24-C , 25-C ) :   1.6343 B( 24-C , 79-H ) :   0.9530
B( 25-C , 26-C ) :   1.0875 B( 25-C , 80-H ) :   0.9736 B( 26-C , 27-C ) :   1.4870
B( 26-C , 43-C ) :   1.1164 B( 27-C , 28-C ) :   1.1222 B( 27-C , 81-H ) :   1.0089
B( 28-C , 29-C ) :   1.4823 B( 28-C , 41-C ) :   1.1142 B( 29-C , 30-C ) :   1.0329
B( 29-C , 35-C ) :   1.0897 B( 30-C , 31-C ) :   1.0219 B( 30-C , 33-C ) :   1.0467
B( 30-C , 82-H ) :   0.8779 B( 31-C , 32-N ) :   1.1142 B( 31-C , 83-H ) :   0.9217
B( 31-C , 84-H ) :   0.9476 B( 32-N , 85-H ) :   0.9435 B( 32-N , 86-H ) :   0.9668
B( 33-C , 34-N ) :   1.0845 B( 33-C , 87-H ) :   0.9468 B( 33-C , 88-H ) :   0.9321
B( 34-N , 89-H ) :   0.9623 B( 34-N , 90-H ) :   0.9674 B( 35-C , 36-C ) :   1.6565
B( 35-C , 40-C ) :   1.0371 B( 36-C , 37-C ) :   0.9639 B( 36-C , 91-H ) :   0.9711
B( 37-C , 38-C ) :   0.9836 B( 37-C , 44-C ) :   0.9397 B( 37-C , 92-H ) :   0.8846
B( 38-C , 39-C ) :   1.7015 B( 38-C , 93-H ) :   0.9624 B( 39-C , 40-C ) :   1.1385
B( 39-C , 94-H ) :   0.9913 B( 40-C , 41-C ) :   1.4389 B( 41-C , 42-C ) :   1.1394
B( 42-C , 43-C ) :   1.6234 B( 42-C , 95-H ) :   0.9894 B( 43-C , 96-H ) :   0.9820
B( 44-C , 45-C ) :   1.7608 B( 44-C , 97-H ) :   0.9689 B( 45-C , 46-C ) :   1.0982
B( 45-C , 98-H ) :   0.9516 B( 46-C , 47-N ) :   1.6151 B( 46-C , 48-C ) :   0.1067
B( 46-C , 57-C ) :   0.9980 B( 47-N , 48-C ) :   1.3428 B( 48-C , 49-C ) :   1.0455
B( 48-C , 53-C ) :   1.4179 B( 49-C , 50-C ) :   0.8922 B( 49-C , 57-C ) :   1.5625
B( 50-C , 51-O ) :   2.2797 B( 50-C , 52-C ) :   0.9045 B( 52-C , 53-C ) :   1.0596
B( 52-C , 56-C ) :   1.6047 B( 53-C , 54-N ) :   1.3172 B( 54-N , 55-C ) :   1.6500
B( 55-C , 56-C ) :   1.0825 B( 55-C , 99-H ) :   0.9893 B( 56-C ,100-H ) :   1.0104
B( 57-C , 58-C ) :   1.1249 B( 58-C , 59-C ) :   1.6700 B( 58-C ,101-H ) :   0.9613
B( 59-C , 60-C ) :   1.1162 B( 59-C ,102-H ) :   0.9628 B( 60-C , 61-C ) :   1.7532
B( 60-C , 65-C ) :   0.9356 B( 61-C , 62-C ) :   1.0769 B( 61-C ,103-H ) :   0.9780
B( 62-C , 63-C ) :   1.8145 B( 62-C ,104-H ) :   0.9802 B( 63-C , 64-C ) :   0.9943
B( 63-C ,105-H ) :   0.9753 B( 64-C , 65-C ) :   0.9845 B( 64-C , 69-N ) :   1.0004
B( 64-C ,106-H ) :   0.9033 B( 65-C , 66-N ) :   1.0215 B( 65-C ,107-H ) :   0.8838
B( 66-N , 67-C ) :   1.9053 B( 67-C , 68-C ) :   0.9422 B( 67-C , 71-F ) :   1.1332
B( 68-C , 69-N ) :   1.9609 B( 68-C , 70-F ) :   1.1657

-----------------------------------------------------------------------------
         ABSORPTION SPECTRUM VIA TRANSITION ELECTRIC DIPOLE MOMENTS
-----------------------------------------------------------------------------
State   Energy  Wavelength   fosc         T2         TX        TY        TZ
        (cm-1)    (nm)                  (au**2)     (au)      (au)      (au)
-----------------------------------------------------------------------------
   0   11144.1    897.3   0.182990867   5.40581  -1.86814  -0.10222  -1.38036
   1   12214.9    818.7   0.034958541   0.94219   0.85812  -0.15539  -0.42623
   2   14388.4    695.0   0.099355658   2.27330   0.79679   1.15252   0.55689
   3   18027.7    554.7   0.115201229   2.10374   0.95027  -0.65583  -0.87784
   4   18628.9    536.8   0.011569591   0.20446   0.00240  -0.21395  -0.39835
   5   21891.9    456.8   0.012705583   0.19107  -0.16582   0.39068   0.10461
   6   22185.2    450.8   0.010749530   0.15952   0.38786  -0.09239   0.02323
   7   23171.7    431.6   0.308132065   4.37779   1.61308  -1.33201  -0.03897
   8   23767.5    420.7   0.266519638   3.69166   0.49292   1.40939   1.20926
   9   24228.2    412.7   0.549883376   7.47181  -0.82238  -1.50769  -2.12658
  10   24592.6    406.6   0.185353685   2.48126   1.32510  -0.05782   0.84973
  11   25187.8    397.0   0.310797027   4.06220  -1.92518   0.57752   0.14947
  12   25573.1    391.0   0.108257702   1.39364   0.40537  -0.19086   1.09220
  13   25754.4    388.3   0.012191963   0.15585  -0.21255   0.32248   0.08170
  14   25953.5    385.3   0.077816966   0.98708  -0.57964   0.77773   0.21502
  15   26039.0    384.0   0.068712863   0.86874  -0.61809  -0.19967  -0.66846
  16   26117.0    382.9   0.301463389   3.80003   1.40711   0.29425   1.31662
  17   26287.5    380.4   0.055813414   0.69898  -0.03342  -0.22093  -0.80564
  18   27091.7    369.1   0.221654346   2.69349   1.27893  -0.47172  -0.91396
  19   27215.6    367.4   0.002300631   0.02783  -0.10669  -0.11985  -0.04565
  20   27350.7    365.6   0.136642182   1.64472   0.22456  -0.71547  -1.04039
  21   27478.3    363.9   0.060274350   0.72214  -0.31070   0.70972   0.34915
  22   28138.7    355.4   0.109650110   1.28287  -1.06444  -0.02893   0.38599
  23   28432.1    351.7   0.015521226   0.17972   0.28478  -0.12338  -0.28878
  24   29078.1    343.9   0.002883859   0.03265   0.09028   0.15440  -0.02567
  25   29276.2    341.6   0.483253058   5.43419   0.86748  -1.29081  -1.73651
  26   29484.9    339.2   0.098010106   1.09433  -0.79045   0.28854  -0.62150
  27   30788.8    324.8   0.049451946   0.52877  -0.37558  -0.26332  -0.56425
  28   30870.5    323.9   0.128241676   1.36761   0.74584   0.17652   0.88328
  29   31006.0    322.5   0.031689760   0.33647   0.46461  -0.18663   0.29288
  30   31027.2    322.3   0.017461713   0.18528  -0.36704  -0.12497  -0.18692
  31   31292.8    319.6   0.001080589   0.01137  -0.01723  -0.06133   0.08550
  32   31469.6    317.8   0.012496555   0.13073   0.13446   0.16957   0.28965
  33   31946.2    313.0   0.073076342   0.75307   0.64489  -0.27598  -0.51089
  34   31958.6    312.9   0.010902413   0.11231  -0.23097   0.18402  -0.15841
  35   32004.8    312.5   0.085575779   0.88026   0.28825  -0.38233  -0.80684
  36   32145.2    311.1   0.148700791   1.52290  -0.71200   0.71553   0.70991
  37   32495.7    307.7   0.021351564   0.21631   0.14737  -0.30889  -0.31493
  38   32836.8    304.5   0.024679149   0.24743   0.34529   0.10117   0.34346
  39   33141.1    301.7   0.000791593   0.00786  -0.07107   0.02572   0.04638
  40   33981.4    294.3   0.164657358   1.59520   0.42406   0.61176   1.02035
  41   34098.1    293.3   0.173675380   1.67681  -0.59892  -0.69769  -0.91177
  42   34377.5    290.9   0.147000500   1.40773  -0.61233   0.94965   0.36188
  43   34648.6    288.6   0.117284139   1.11437   0.08933   0.73429   0.75313
  44   34787.6    287.5   0.061343287   0.58052   0.47998  -0.58790  -0.06717
  45   35272.5    283.5   0.050552118   0.47182  -0.60379   0.32610   0.03031
  46   35496.6    281.7   0.226429669   2.10002   0.87345  -0.70264  -0.91836
  47   35594.7    280.9   0.041402477   0.38293   0.05117   0.41261   0.45832
  48   36054.6    277.4   0.092037037   0.84038  -0.27453  -0.28027  -0.82853
  49   36159.4    276.6   0.041746434   0.38008   0.46928  -0.39951  -0.01569
  50   36519.3    273.8   0.021631820   0.19501   0.32704  -0.21907  -0.20015
  51   36645.8    272.9   0.027976926   0.25133  -0.46031  -0.18887   0.06148
  52   36831.6    271.5   0.014933190   0.13348  -0.24626  -0.11750  -0.24296
  53   37068.6    269.8   0.402479746   3.57448  -1.88649   0.03299  -0.12067
  54   37158.2    269.1   0.027886486   0.24707   0.42563  -0.04215  -0.25323
  55   37836.9    264.3   0.058481672   0.50884   0.66024  -0.24748   0.10807
  56   37956.1    263.5   0.013671993   0.11858  -0.09943   0.22632  -0.23974
  57   38101.0    262.5   0.023486154   0.20293   0.17829   0.40999   0.05526
  58   38549.0    259.4   0.159686872   1.36374   0.56405  -1.02032   0.06731
  59   38794.8    257.8   0.001610569   0.01367   0.05030  -0.08571   0.06157
  60   38885.5    257.2   0.034680677   0.29361   0.04434  -0.46213  -0.27943
  61   39265.0    254.7   0.000096765   0.00081   0.02462  -0.00943   0.01079
  62   39494.7    253.2   0.000120348   0.00100  -0.00427  -0.01983  -0.02433
  63   39675.2    252.0   0.022271327   0.18480   0.18219  -0.16542   0.35248
  64   39740.9    251.6   0.017355333   0.14377  -0.11992   0.07841  -0.35106
  65   39976.5    250.1   0.006401668   0.05272  -0.10600   0.03395  -0.20083
  66   40310.9    248.1   0.004989685   0.04075  -0.11904  -0.05107  -0.15483

FINAL SINGLE POINT ENERGY     -3248.606218091748

DIPOLE MOMENT
-------------
                                X             Y             Z
Electronic contribution:     39.02428     -41.71462      32.75486
Nuclear contribution   :    -40.38117      40.93845     -35.63162
                        -----------------------------------------
Total Dipole Moment    :     -1.35689      -0.77616      -2.87676
                        -----------------------------------------
Magnitude (a.u.)       :      3.27404
Magnitude (Debye)      :      8.32195

Rotational constants in cm-1:     0.001321     0.000298     0.000260
Rotational constants in MHz :    39.598495     8.934906     7.808738

                             ****ORCA TERMINATED NORMALLY****
TOTAL RUN TIME: 0 days 0 hours 9 minutes 46 seconds 142 msec
