                         Program Version 4.2.0 -  RELEASE  -
|  1> # ORCA input file
|  2> # SCF done       -152.178648046708          0.000265124031
|  3> ! CAM-B3LYP def2-SVP def2/J RIJCOSX Grid4 TightSCF
|  4> %maxcore 5000
|  5> %tddft
|  6>     Mode sTDDFT
|  7>     Ethresh 5.0
|  8>     maxcore 5000
|  9> end
| 10>
| 11> %pal
| 12>   nprocs 6
| 13>   end
| 14> * xyz 0 1
| 15>    C       -1.39622         0.52222        -0.30600
| 16>    C       -0.74841         0.29942        -1.45047
| 17>    C        0.63036        -0.09999        -1.46629
| 18>    C        1.28892        -0.46222        -0.34355
| 19>    C        0.56160        -0.48175         0.99084
| 20>    C       -0.68720         0.43085         1.01845
| 21>    N       -1.66286         0.05315         2.01396
| 22>    C       -1.70367        -1.14179         2.40063
| 23>    C       -0.74825        -2.16397         1.93068
| 24>    N        0.28804        -1.87295         1.28333
| 25>    F       -1.01706        -3.43734         2.19930
| 26>    F       -2.62387        -1.51075         3.28524
| 27>    C        2.63990        -0.93193        -0.35344
| 28>    C        3.34146        -1.52655         0.67439
| 29>    C        4.64388        -1.86034         0.30266
| 30>    C        4.96148        -1.51530        -1.01822
| 31>    S        3.61340        -0.77931        -1.81069
| 32>    C        6.26140        -1.83374        -1.38969
| 33>    C        6.96034        -2.43254        -0.35293
| 34>    S        5.98755        -2.60506         1.09619
| 35>    C        8.31196        -2.87557        -0.38111
| 36>    C        8.91472        -3.49148         0.73631
| 37>    C       10.27809        -3.93860         0.73251
| 38>    N       10.78025        -4.52512         1.83724
| 39>    C       10.03528        -4.67298         2.88319
| 40>    C        8.68917        -4.22353         2.88987
| 41>    N        8.17129        -3.66011         1.84811
| 42>    F        7.92371        -4.36873         3.96823
| 43>    F       10.56769        -5.25861         3.95279
| 44>    C       11.12696        -3.78536        -0.38459
| 45>    C       10.52966        -3.17301        -1.51283
| 46>    C        9.15095        -2.73074        -1.51228
| 47>    N        8.81242        -2.18743        -2.68238
| 48>    S       10.07281        -2.22525        -3.67310
| 49>    N       11.11984        -2.92856        -2.68348
| 50>    C       12.48310        -4.21352        -0.35835
| 51>    C       13.41643        -4.07646        -1.37386
| 52>    C       14.65309        -4.59965        -1.01619
| 53>    C       14.68604        -5.14490         0.27599
| 54>    S       13.15114        -4.99887         1.06129
| 55>    C       15.92603        -5.66989         0.62854
| 56>    C       16.86322        -5.52525        -0.37926
| 57>    S       16.19677        -4.71428        -1.78362
| 58>    C       18.21770        -5.99468        -0.36932
| 59>    C       18.67465        -6.87263         0.55307
| 60>    C       20.02497        -7.35778         0.55442
| 61>    C       20.95807        -6.83862        -0.24554
| 62>    C       20.64534        -5.67499        -1.14434
| 63>    C       19.14558        -5.57142        -1.50139
| 64>    N       18.77797        -4.24952        -1.95126
| 65>    C       19.40849        -3.26007        -1.49765
| 66>    C       20.58653        -3.40534        -0.62226
| 67>    N       21.17555        -4.50432        -0.47118
| 68>    F       21.03998        -2.32234         0.00072
| 69>    F       19.05340        -2.03530        -1.86931
| 70>    H       -2.43325         0.81338        -0.26446
| 71>    H       -1.25307         0.40926        -2.39803
| 72>    H        1.13856        -0.13744        -2.41860
| 73>    H        1.25749        -0.14527         1.77110
| 74>    H       -0.37708         1.45100         1.28891
| 75>    H        2.92013        -1.74206         1.63753
| 76>    H        6.69710        -1.65001        -2.35301
| 77>    H       13.18486        -3.61601        -2.31513
| 78>    H       16.13335        -6.11838         1.58166
| 79>    H       18.01350        -7.23917         1.32144
| 80>    H       20.26881        -8.15622         1.23851
| 81>    H       21.98824        -7.15059        -0.21101
| 82>    H       21.22806        -5.76692        -2.07188
| 83>    H       18.93228        -6.23925        -2.34852
| 84> *
| 85>
| 86>                          ****END OF INPUT****

CARTESIAN COORDINATES (ANGSTROEM)
---------------------------------
  C     -1.396220    0.522220   -0.306000
  C     -0.748410    0.299420   -1.450470
  C      0.630360   -0.099990   -1.466290
  C      1.288920   -0.462220   -0.343550
  C      0.561600   -0.481750    0.990840
  C     -0.687200    0.430850    1.018450
  N     -1.662860    0.053150    2.013960
  C     -1.703670   -1.141790    2.400630
  C     -0.748250   -2.163970    1.930680
  N      0.288040   -1.872950    1.283330
  F     -1.017060   -3.437340    2.199300
  F     -2.623870   -1.510750    3.285240
  C      2.639900   -0.931930   -0.353440
  C      3.341460   -1.526550    0.674390
  C      4.643880   -1.860340    0.302660
  C      4.961480   -1.515300   -1.018220
  S      3.613400   -0.779310   -1.810690
  C      6.261400   -1.833740   -1.389690
  C      6.960340   -2.432540   -0.352930
  S      5.987550   -2.605060    1.096190
  C      8.311960   -2.875570   -0.381110
  C      8.914720   -3.491480    0.736310
  C     10.278090   -3.938600    0.732510
  N     10.780250   -4.525120    1.837240
  C     10.035280   -4.672980    2.883190
  C      8.689170   -4.223530    2.889870
  N      8.171290   -3.660110    1.848110
  F      7.923710   -4.368730    3.968230
  F     10.567690   -5.258610    3.952790
  C     11.126960   -3.785360   -0.384590
  C     10.529660   -3.173010   -1.512830
  C      9.150950   -2.730740   -1.512280
  N      8.812420   -2.187430   -2.682380
  S     10.072810   -2.225250   -3.673100
  N     11.119840   -2.928560   -2.683480
  C     12.483100   -4.213520   -0.358350
  C     13.416430   -4.076460   -1.373860
  C     14.653090   -4.599650   -1.016190
  C     14.686040   -5.144900    0.275990
  S     13.151140   -4.998870    1.061290
  C     15.926030   -5.669890    0.628540
  C     16.863220   -5.525250   -0.379260
  S     16.196770   -4.714280   -1.783620
  C     18.217700   -5.994680   -0.369320
  C     18.674650   -6.872630    0.553070
  C     20.024970   -7.357780    0.554420
  C     20.958070   -6.838620   -0.245540
  C     20.645340   -5.674990   -1.144340
  C     19.145580   -5.571420   -1.501390
  N     18.777970   -4.249520   -1.951260
  C     19.408490   -3.260070   -1.497650
  C     20.586530   -3.405340   -0.622260
  N     21.175550   -4.504320   -0.471180
  F     21.039980   -2.322340    0.000720
  F     19.053400   -2.035300   -1.869310
  H     -2.433250    0.813380   -0.264460
  H     -1.253070    0.409260   -2.398030
  H      1.138560   -0.137440   -2.418600
  H      1.257490   -0.145270    1.771100
  H     -0.377080    1.451000    1.288910
  H      2.920130   -1.742060    1.637530
  H      6.697100   -1.650010   -2.353010
  H     13.184860   -3.616010   -2.315130
  H     16.133350   -6.118380    1.581660
  H     18.013500   -7.239170    1.321440
  H     20.268810   -8.156220    1.238510
  H     21.988240   -7.150590   -0.211010
  H     21.228060   -5.766920   -2.071880
  H     18.932280   -6.239250   -2.348520

 Total Charge           Charge          ....    0
 Multiplicity           Mult            ....    1
 Number of Electrons    NEL             ....  420
 Basis Dimension        Dim             ....  860

ORBITAL ENERGIES
----------------

  NO   OCC          E(Eh)            E(eV)
   0   2.0000     -89.035725     -2422.7852
   1   2.0000     -88.947395     -2420.3817
   2   2.0000     -88.946130     -2420.3473
   3   2.0000     -88.944602     -2420.3057
   4   2.0000     -88.942389     -2420.2454
   5   2.0000     -24.811420      -675.1531
   6   2.0000     -24.811100      -675.1444
   7   2.0000     -24.804046      -674.9524
   8   2.0000     -24.800269      -674.8496
   9   2.0000     -24.800100      -674.8450
  10   2.0000     -24.799591      -674.8312
  11   2.0000     -14.451118      -393.2349
  12   2.0000     -14.450959      -393.2306
  13   2.0000     -14.445302      -393.0766
  14   2.0000     -14.445153      -393.0726
  15   2.0000     -14.430200      -392.6657
  16   2.0000     -14.428729      -392.6257
  17   2.0000     -14.427713      -392.5980
  18   2.0000     -14.427604      -392.5951
  19   2.0000     -10.427092      -283.7356
  20   2.0000     -10.426534      -283.7204
  21   2.0000     -10.418157      -283.4925
  22   2.0000     -10.413798      -283.3739
  23   2.0000     -10.413544      -283.3669
  24   2.0000     -10.413470      -283.3649
  25   2.0000     -10.337297      -281.2921
  26   2.0000     -10.336945      -281.2826
  27   2.0000     -10.334003      -281.2025
  28   2.0000     -10.333767      -281.1961
  29   2.0000     -10.328665      -281.0573
  30   2.0000     -10.326250      -280.9915
  31   2.0000     -10.325190      -280.9627
  32   2.0000     -10.323480      -280.9162
  33   2.0000     -10.306945      -280.4662
  34   2.0000     -10.306328      -280.4495
  35   2.0000     -10.301622      -280.3214
  36   2.0000     -10.301470      -280.3172
  37   2.0000     -10.301144      -280.3084
  38   2.0000     -10.300552      -280.2923
  39   2.0000     -10.294770      -280.1349
  40   2.0000     -10.291591      -280.0484
  41   2.0000     -10.287955      -279.9495
  42   2.0000     -10.283872      -279.8384
  43   2.0000     -10.282534      -279.8020
  44   2.0000     -10.282149      -279.7915
  45   2.0000     -10.277341      -279.6607
  46   2.0000     -10.277261      -279.6585
  47   2.0000     -10.276958      -279.6503
  48   2.0000     -10.276610      -279.6408
  49   2.0000     -10.276461      -279.6367
  50   2.0000     -10.275975      -279.6235
  51   2.0000     -10.274983      -279.5965
  52   2.0000     -10.274212      -279.5755
  53   2.0000     -10.272161      -279.5197
  54   2.0000     -10.271241      -279.4947
  55   2.0000      -8.127041      -221.1480
  56   2.0000      -8.042698      -218.8529
  57   2.0000      -8.040542      -218.7943
  58   2.0000      -8.038272      -218.7325
  59   2.0000      -8.036186      -218.6757
  60   2.0000      -6.098189      -165.9402
  61   2.0000      -6.090327      -165.7262
  62   2.0000      -6.089802      -165.7119
  63   2.0000      -6.012257      -163.6018
  64   2.0000      -6.010088      -163.5428
  65   2.0000      -6.008295      -163.4940
  66   2.0000      -6.007999      -163.4860
  67   2.0000      -6.005932      -163.4297
  68   2.0000      -6.005843      -163.4273
  69   2.0000      -6.004148      -163.3812
  70   2.0000      -6.003537      -163.3645
  71   2.0000      -6.002236      -163.3292
  72   2.0000      -6.001500      -163.3091
  73   2.0000      -5.999880      -163.2650
  74   2.0000      -5.997705      -163.2058
  75   2.0000      -1.339425       -36.4476
  76   2.0000      -1.331950       -36.2442
  77   2.0000      -1.329862       -36.1874
  78   2.0000      -1.325411       -36.0663
  79   2.0000      -1.316944       -35.8359
  80   2.0000      -1.315163       -35.7874
  81   2.0000      -1.133371       -30.8406
  82   2.0000      -1.110512       -30.2186
  83   2.0000      -1.082193       -29.4480
  84   2.0000      -1.078764       -29.3547
  85   2.0000      -1.037185       -28.2233
  86   2.0000      -1.014869       -27.6160
  87   2.0000      -1.012088       -27.5403
  88   2.0000      -0.997580       -27.1455
  89   2.0000      -0.995643       -27.0928
  90   2.0000      -0.985980       -26.8299
  91   2.0000      -0.969411       -26.3790
  92   2.0000      -0.951386       -25.8885
  93   2.0000      -0.947293       -25.7771
  94   2.0000      -0.928807       -25.2741
  95   2.0000      -0.921298       -25.0698
  96   2.0000      -0.879834       -23.9415
  97   2.0000      -0.879640       -23.9362
  98   2.0000      -0.862508       -23.4700
  99   2.0000      -0.858755       -23.3679
 100   2.0000      -0.855631       -23.2829
 101   2.0000      -0.852474       -23.1970
 102   2.0000      -0.844675       -22.9848
 103   2.0000      -0.842032       -22.9129
 104   2.0000      -0.811521       -22.0826
 105   2.0000      -0.799199       -21.7473
 106   2.0000      -0.792396       -21.5622
 107   2.0000      -0.788493       -21.4560
 108   2.0000      -0.777840       -21.1661
 109   2.0000      -0.772728       -21.0270
 110   2.0000      -0.770642       -20.9702
 111   2.0000      -0.759826       -20.6759
 112   2.0000      -0.755552       -20.5596
 113   2.0000      -0.748411       -20.3653
 114   2.0000      -0.744153       -20.2494
 115   2.0000      -0.727532       -19.7971
 116   2.0000      -0.707413       -19.2497
 117   2.0000      -0.685732       -18.6597
 118   2.0000      -0.680257       -18.5107
 119   2.0000      -0.673757       -18.3339
 120   2.0000      -0.667901       -18.1745
 121   2.0000      -0.664696       -18.0873
 122   2.0000      -0.663943       -18.0668
 123   2.0000      -0.661625       -18.0037
 124   2.0000      -0.657870       -17.9016
 125   2.0000      -0.650941       -17.7130
 126   2.0000      -0.640311       -17.4238
 127   2.0000      -0.640000       -17.4153
 128   2.0000      -0.632858       -17.2209
 129   2.0000      -0.628496       -17.1022
 130   2.0000      -0.623405       -16.9637
 131   2.0000      -0.622390       -16.9361
 132   2.0000      -0.615695       -16.7539
 133   2.0000      -0.614543       -16.7226
 134   2.0000      -0.612121       -16.6567
 135   2.0000      -0.607324       -16.5261
 136   2.0000      -0.600877       -16.3507
 137   2.0000      -0.589823       -16.0499
 138   2.0000      -0.584184       -15.8965
 139   2.0000      -0.581952       -15.8357
 140   2.0000      -0.577806       -15.7229
 141   2.0000      -0.572531       -15.5794
 142   2.0000      -0.566672       -15.4199
 143   2.0000      -0.563179       -15.3249
 144   2.0000      -0.560977       -15.2650
 145   2.0000      -0.559283       -15.2189
 146   2.0000      -0.558710       -15.2033
 147   2.0000      -0.553699       -15.0669
 148   2.0000      -0.548115       -14.9150
 149   2.0000      -0.543399       -14.7866
 150   2.0000      -0.540387       -14.7047
 151   2.0000      -0.536861       -14.6087
 152   2.0000      -0.535408       -14.5692
 153   2.0000      -0.534119       -14.5341
 154   2.0000      -0.530991       -14.4490
 155   2.0000      -0.525486       -14.2992
 156   2.0000      -0.522245       -14.2110
 157   2.0000      -0.517103       -14.0711
 158   2.0000      -0.511815       -13.9272
 159   2.0000      -0.508693       -13.8422
 160   2.0000      -0.508075       -13.8254
 161   2.0000      -0.506351       -13.7785
 162   2.0000      -0.497051       -13.5254
 163   2.0000      -0.495564       -13.4850
 164   2.0000      -0.493318       -13.4239
 165   2.0000      -0.488083       -13.2814
 166   2.0000      -0.486650       -13.2424
 167   2.0000      -0.480252       -13.0683
 168   2.0000      -0.479181       -13.0392
 169   2.0000      -0.474717       -12.9177
 170   2.0000      -0.471179       -12.8214
 171   2.0000      -0.463060       -12.6005
 172   2.0000      -0.461345       -12.5538
 173   2.0000      -0.460594       -12.5334
 174   2.0000      -0.452297       -12.3076
 175   2.0000      -0.450926       -12.2703
 176   2.0000      -0.446636       -12.1536
 177   2.0000      -0.440566       -11.9884
 178   2.0000      -0.438798       -11.9403
 179   2.0000      -0.437050       -11.8927
 180   2.0000      -0.435065       -11.8387
 181   2.0000      -0.425402       -11.5758
 182   2.0000      -0.419902       -11.4261
 183   2.0000      -0.416733       -11.3399
 184   2.0000      -0.415570       -11.3082
 185   2.0000      -0.413385       -11.2488
 186   2.0000      -0.412929       -11.2364
 187   2.0000      -0.408344       -11.1116
 188   2.0000      -0.397366       -10.8129
 189   2.0000      -0.394196       -10.7266
 190   2.0000      -0.393115       -10.6972
 191   2.0000      -0.389795       -10.6069
 192   2.0000      -0.384971       -10.4756
 193   2.0000      -0.370573       -10.0838
 194   2.0000      -0.363779        -9.8989
 195   2.0000      -0.356593        -9.7034
 196   2.0000      -0.355243        -9.6667
 197   2.0000      -0.350298        -9.5321
 198   2.0000      -0.349546        -9.5116
 199   2.0000      -0.346091        -9.4176
 200   2.0000      -0.342800        -9.3281
 201   2.0000      -0.340745        -9.2721
 202   2.0000      -0.337310        -9.1787
 203   2.0000      -0.335320        -9.1245
 204   2.0000      -0.318516        -8.6673
 205   2.0000      -0.289283        -7.8718
 206   2.0000      -0.283158        -7.7051
 207   2.0000      -0.279464        -7.6046
 208   2.0000      -0.255565        -6.9543
 209   2.0000      -0.220961        -6.0127
 210   0.0000      -0.106416        -2.8957
 211   0.0000      -0.039146        -1.0652
 212   0.0000      -0.037802        -1.0287
 213   0.0000      -0.032971        -0.8972
 214   0.0000      -0.028135        -0.7656

MULLIKEN ATOMIC CHARGES
-----------------------
   0 C :   -0.042711
   1 C :    0.061495
   2 C :   -0.084196
   3 C :    0.077030
   4 C :    0.067189
   5 C :    0.120885
   6 N :   -0.090615
   7 C :    0.095989
   8 C :    0.114821
   9 N :   -0.081811
  10 F :   -0.144558
  11 F :   -0.145560
  12 C :   -0.074904
  13 C :   -0.039552
  14 C :    0.022364
  15 C :    0.008860
  16 S :    0.109069
  17 C :   -0.049479
  18 C :   -0.181548
  19 S :    0.150303
  20 C :    0.187428
  21 C :   -0.065077
  22 C :   -0.063928
  23 N :   -0.031719
  24 C :    0.143245
  25 C :    0.143403
  26 N :   -0.033097
  27 F :   -0.138910
  28 F :   -0.140271
  29 C :    0.188591
  30 C :   -0.018622
  31 C :   -0.014841
  32 N :   -0.294705
  33 S :    0.538170
  34 N :   -0.294122
  35 C :   -0.181409
  36 C :   -0.048344
  37 C :    0.000776
  38 C :    0.022452
  39 S :    0.142660
  40 C :   -0.049915
  41 C :   -0.073406
  42 S :    0.162774
  43 C :    0.041438
  44 C :   -0.055035
  45 C :    0.036695
  46 C :    0.004152
  47 C :    0.097644
  48 C :    0.085870
  49 N :   -0.118567
  50 C :    0.131252
  51 C :    0.115019
  52 N :   -0.086410
  53 F :   -0.145817
  54 F :   -0.141347
  55 H :    0.010439
  56 H :   -0.008620
  57 H :   -0.005128
  58 H :    0.032017
  59 H :    0.038411
  60 H :   -0.013984
  61 H :   -0.006173
  62 H :   -0.006191
  63 H :   -0.023182
  64 H :   -0.019116
  65 H :   -0.008718
  66 H :    0.002271
  67 H :    0.026987
  68 H :    0.041891
Sum of atomic charges:    0.0000000

LOEWDIN ATOMIC CHARGES
----------------------
   0 C :   -0.022040
   1 C :   -0.031594
   2 C :   -0.033426
   3 C :   -0.031643
   4 C :    0.021209
   5 C :    0.011017
   6 N :   -0.069153
   7 C :    0.044649
   8 C :    0.044620
   9 N :   -0.067582
  10 F :   -0.033544
  11 F :   -0.034065
  12 C :   -0.148556
  13 C :   -0.062428
  14 C :   -0.201888
  15 C :   -0.201611
  16 S :    0.408417
  17 C :   -0.050824
  18 C :   -0.163906
  19 S :    0.448709
  20 C :   -0.044806
  21 C :   -0.017137
  22 C :   -0.018044
  23 N :   -0.049284
  24 C :    0.059415
  25 C :    0.060547
  26 N :   -0.050643
  27 F :   -0.028352
  28 F :   -0.029262
  29 C :   -0.041988
  30 C :   -0.037875
  31 C :   -0.037457
  32 N :   -0.279676
  33 S :    0.663127
  34 N :   -0.278266
  35 C :   -0.164672
  36 C :   -0.047869
  37 C :   -0.211595
  38 C :   -0.201123
  39 S :    0.440182
  40 C :   -0.065456
  41 C :   -0.162086
  42 S :    0.452183
  43 C :   -0.038878
  44 C :   -0.029760
  45 C :   -0.027191
  46 C :   -0.016487
  47 C :    0.013404
  48 C :    0.013935
  49 N :   -0.088245
  50 C :    0.057447
  51 C :    0.041904
  52 N :   -0.064042
  53 F :   -0.034650
  54 F :   -0.029348
  55 H :    0.030762
  56 H :    0.032980
  57 H :    0.023327
  58 H :    0.037921
  59 H :    0.046575
  60 H :    0.030503
  61 H :    0.029718
  62 H :    0.029762
  63 H :    0.028894
  64 H :    0.028919
  65 H :    0.032802
  66 H :    0.029131
  67 H :    0.039285
  68 H :    0.045108

  Mayer bond orders larger than 0.100000
B(  0-C ,  1-C ) :   1.8053 B(  0-C ,  5-C ) :   0.9683 B(  0-C , 55-H ) :   0.9807
B(  1-C ,  2-C ) :   1.0732 B(  1-C , 56-H ) :   0.9816 B(  2-C ,  3-C ) :   1.7218
B(  2-C , 57-H ) :   0.9770 B(  3-C ,  4-C ) :   0.9856 B(  3-C , 12-C ) :   1.1379
B(  4-C ,  5-C ) :   0.9753 B(  4-C ,  9-N ) :   1.0207 B(  4-C , 58-H ) :   0.8926
B(  5-C ,  6-N ) :   1.0022 B(  5-C , 59-H ) :   0.8847 B(  6-N ,  7-C ) :   1.9602
B(  7-C ,  8-C ) :   0.9322 B(  7-C , 11-F ) :   1.1608 B(  8-C ,  9-N ) :   1.9608
B(  8-C , 10-F ) :   1.1632 B( 12-C , 13-C ) :   1.5243 B( 12-C , 16-S ) :   1.0940
B( 13-C , 14-C ) :   1.2367 B( 13-C , 60-H ) :   0.9899 B( 14-C , 15-C ) :   1.4056
B( 14-C , 19-S ) :   1.0307 B( 15-C , 16-S ) :   1.0552 B( 15-C , 17-C ) :   1.2481
B( 17-C , 18-C ) :   1.4705 B( 17-C , 61-H ) :   0.9882 B( 18-C , 19-S ) :   1.0869
B( 18-C , 20-C ) :   1.1995 B( 20-C , 21-C ) :   1.2950 B( 20-C , 29-C ) :   0.1240
B( 20-C , 31-C ) :   1.1924 B( 21-C , 22-C ) :   1.1145 B( 21-C , 26-N ) :   1.3835
B( 22-C , 23-N ) :   1.3851 B( 22-C , 29-C ) :   1.2927 B( 23-N , 24-C ) :   1.6623
B( 24-C , 25-C ) :   1.1063 B( 24-C , 28-F ) :   1.1802 B( 25-C , 26-N ) :   1.6619
B( 25-C , 27-F ) :   1.1826 B( 29-C , 30-C ) :   1.1919 B( 29-C , 35-C ) :   1.2032
B( 30-C , 31-C ) :   1.1030 B( 30-C , 34-N ) :   1.5108 B( 31-C , 32-N ) :   1.5100
B( 32-N , 33-S ) :   1.2742 B( 32-N , 34-N ) :   0.1519 B( 33-S , 34-N ) :   1.2753
B( 35-C , 36-C ) :   1.4734 B( 35-C , 39-S ) :   1.0809 B( 36-C , 37-C ) :   1.2473
B( 36-C , 62-H ) :   0.9881 B( 37-C , 38-C ) :   1.3827 B( 37-C , 42-S ) :   1.0475
B( 38-C , 39-S ) :   1.0239 B( 38-C , 40-C ) :   1.2765 B( 40-C , 41-C ) :   1.4999
B( 40-C , 63-H ) :   0.9994 B( 41-C , 42-S ) :   1.1143 B( 41-C , 43-C ) :   1.1102
B( 43-C , 44-C ) :   1.7471 B( 43-C , 48-C ) :   0.9344 B( 44-C , 45-C ) :   1.0795
B( 44-C , 64-H ) :   0.9786 B( 45-C , 46-C ) :   1.8077 B( 45-C , 65-H ) :   0.9800
B( 46-C , 47-C ) :   0.9953 B( 46-C , 66-H ) :   0.9753 B( 47-C , 48-C ) :   0.9891
B( 47-C , 52-N ) :   0.9994 B( 47-C , 67-H ) :   0.9035 B( 48-C , 49-N ) :   1.0002
B( 48-C , 68-H ) :   0.8820 B( 49-N , 50-C ) :   1.9168 B( 50-C , 51-C ) :   0.9364
B( 50-C , 54-F ) :   1.1695 B( 51-C , 52-N ) :   1.9581 B( 51-C , 53-F ) :   1.1618

-----------------------------------------------------------------------------
         ABSORPTION SPECTRUM VIA TRANSITION ELECTRIC DIPOLE MOMENTS
-----------------------------------------------------------------------------
State   Energy  Wavelength   fosc         T2         TX        TY        TZ
        (cm-1)    (nm)                  (au**2)     (au)      (au)      (au)
-----------------------------------------------------------------------------
   0    9900.0   1010.1   0.694457276  23.09332  -4.56753   1.49227  -0.06407
   1   18326.7    545.7   0.003791679   0.06811  -0.07733  -0.10415   0.22646
   2   20922.2    478.0   0.003641013   0.05729  -0.12150  -0.04611   0.20100
   3   21694.9    460.9   0.008192497   0.12432   0.01989  -0.12367   0.32959
   4   24143.0    414.2   0.165680383   2.25920   1.47455  -0.29080  -0.01837
   5   25021.8    399.7   0.605856448   7.97127   2.60481  -1.05688   0.26312
   6   25289.6    395.4   0.016951169   0.22066   0.44305  -0.15393   0.02598
   7   25979.3    384.9   0.763846083   9.67951  -2.94814   0.99078  -0.07938
   8   26189.6    381.8   0.391165140   4.91708   2.11632  -0.66191  -0.01245
   9   27637.7    361.8   0.008273593   0.09855  -0.26064   0.09152  -0.14914
  10   29615.5    337.7   0.000408926   0.00455   0.01668  -0.05969  -0.02654
  11   30434.1    328.6   0.106753089   1.15477   0.06907   0.34075  -1.01680
  12   32120.5    311.3   0.018188166   0.18642  -0.09142   0.13452  -0.39995
  13   32789.5    305.0   0.000488885   0.00491   0.06634   0.00009   0.02252
  14   32954.9    303.4   0.031593999   0.31562  -0.49844  -0.14575   0.21431
  15   34210.3    292.3   0.011043995   0.10628  -0.05819  -0.18668   0.26085
  16   34321.2    291.4   0.006228469   0.05974  -0.11793  -0.01741  -0.21339
  17   34605.2    289.0   0.061341883   0.58357   0.65518  -0.06668  -0.38713
  18   34804.4    287.3   0.020796011   0.19671   0.15290   0.15138  -0.38783
  19   34969.4    286.0   0.005122876   0.04823   0.21307  -0.04193  -0.03269
  20   35059.4    285.2   0.199539386   1.87370   0.09830  -0.55063   1.24934
  21   35278.1    283.5   0.021866773   0.20406   0.02969   0.13992  -0.42848
  22   35584.2    281.0   0.062301421   0.57639  -0.25811   0.42270  -0.57541
  23   36086.6    277.1   0.064939332   0.59243   0.16983  -0.38064   0.64707
  24   36311.5    275.4   0.224985025   2.03979  -0.42487  -0.29990   1.33017
  25   36680.3    272.6   0.125567016   1.12698   0.19784  -0.42796   0.95115
  26   36879.0    271.2   0.239379221   2.13689  -1.27984   0.14754   0.69074
  27   37324.5    267.9   0.192167567   1.69497  -0.58024   0.57634  -1.01298
  28   37914.6    263.8   0.039442739   0.34248  -0.56124   0.07916  -0.14568
  29   38519.7    259.6   0.051460421   0.43981   0.00150  -0.08622   0.65755
  30   39096.8    255.8   0.003198666   0.02693  -0.12644   0.08521  -0.06071
  31   39249.2    254.8   0.026748493   0.22436  -0.38018   0.28249  -0.00445
  32   39391.8    253.9   0.014655965   0.12249  -0.29164  -0.04680   0.18773
  33   40042.3    249.7   0.009729011   0.07999   0.15550  -0.10663   0.21080
  34   40120.6    249.2   0.021735755   0.17835   0.23193  -0.20007   0.29075

FINAL SINGLE POINT ENERGY     -4404.668285337165

DIPOLE MOMENT
-------------
                                X             Y             Z
Electronic contribution:     -4.49136       0.91768      14.73323
Nuclear contribution   :      5.23832      -1.04984     -15.83061
                        -----------------------------------------
Total Dipole Moment    :      0.74696      -0.13216      -1.09738
                        -----------------------------------------
Magnitude (a.u.)       :      1.33404
Magnitude (Debye)      :      3.39086

Rotational constants in cm-1:     0.004450     0.000366     0.000347
Rotational constants in MHz :   133.413595    10.973505    10.401191

                             ****ORCA TERMINATED NORMALLY****
TOTAL RUN TIME: 0 days 0 hours 5 minutes 16 seconds 776 msec
