                         Program Version 4.2.0 -  RELEASE  -
|  1> # ORCA input file
|  2> # SCF done       -195.305944907774          0.000749419172
|  3> ! CAM-B3LYP def2-SVP def2/J RIJCOSX Grid4 TightSCF
|  4> %maxcore 5000
|  5> %tddft
|  6>     Mode sTDDFT
|  7>     Ethresh 5.0
|  8>     maxcore 5000
|  9> end
| 10>
| 11> %pal
| 12>   nprocs 6
| 13>   end
| 14> * xyz 0 1
| 15>    C        0.08858         5.32182        -4.04320
| 16>    C        1.41513         5.23011        -4.04441
| 17>    C        2.09802         4.16494        -3.34475
| 18>    C        1.44001         3.34159        -2.52865
| 19>    C       -0.03552         3.53957        -2.22967
| 20>    C       -0.78324         4.31619        -3.33609
| 21>    N       -1.35830         3.49029        -4.37653
| 22>    C       -1.53379         2.26710        -4.15569
| 23>    C       -1.22681         1.64657        -2.85370
| 24>    N       -0.59367         2.23545        -1.94088
| 25>    F       -1.67946         0.41479        -2.62786
| 26>    F       -2.05785         1.49340        -5.09791
| 27>    C        2.07304         2.21043        -1.83196
| 28>    C        2.07354         0.92735        -2.36854
| 29>    C        1.48373         0.44623        -3.63325
| 30>    O        0.89033         1.06604        -4.48187
| 31>    N        1.72858        -0.92859        -3.67528
| 32>    C        2.43833        -1.37331        -2.55512
| 33>    O        2.79299        -2.50182        -2.33989
| 34>    C        2.65159        -0.16497        -1.71582
| 35>    C        3.28109        -0.03459        -0.49292
| 36>    C        3.28756         1.24415         0.05701
| 37>    C        2.69266         2.33278        -0.58244
| 38>    C        2.75635         3.59663         0.17427
| 39>    O        2.29137         4.65619        -0.12258
| 40>    S        3.66376         3.31159         1.69993
| 41>    C        3.91097         1.56287         1.35717
| 42>    O        4.49413         0.82268         2.08805
| 43>    C        1.27333        -1.68896        -4.74820
| 44>    C        1.39849        -3.01914        -4.86318
| 45>    C        0.92860        -3.77090        -5.98170
| 46>    N        1.07430        -5.14010        -6.00138
| 47>    C        0.56136        -5.61353        -7.16797
| 48>    C        0.33820        -6.76349        -7.91054
| 49>    C       -0.27798        -6.34119        -9.10115
| 50>    N       -0.43250        -4.96785        -9.07142
| 51>    C        0.07861        -4.49907        -7.90785
| 52>    C        0.30939        -3.34645        -7.16065
| 53>    C       -0.71067        -7.09121       -10.21746
| 54>    C       -0.56341        -8.43775       -10.32122
| 55>    C       -0.97852        -9.27591       -11.39650
| 56>    C       -1.18861        -8.87838       -12.74137
| 57>    C       -0.95365        -7.59078       -13.43669
| 58>    O       -0.54265        -6.53244       -13.02837
| 59>    N       -1.28480        -7.79754       -14.78645
| 60>    C       -1.69276        -9.10509       -15.03184
| 61>    O       -2.01837        -9.57230       -16.08968
| 62>    C       -1.60783        -9.78661       -13.71583
| 63>    C       -1.84731       -11.12291       -13.46248
| 64>    C       -1.61363       -11.53954       -12.15934
| 65>    C       -1.18768       -10.66853       -11.15962
| 66>    C       -1.00492       -11.33220        -9.85906
| 67>    O       -0.66378       -10.87426        -8.80688
| 68>    S       -1.38861       -13.09151       -10.01699
| 69>    C       -1.79494       -12.94797       -11.74899
| 70>    O       -2.15357       -13.85981       -12.43071
| 71>    C       -1.15417        -6.76360       -15.70921
| 72>    C       -1.50796        -6.82951       -16.99758
| 73>    C       -1.34017        -5.74868       -17.94167
| 74>    C       -0.48319        -4.72073       -17.79245
| 75>    C       -0.34790        -3.68275       -18.77994
| 76>    C       -1.17099        -3.59643       -19.82469
| 77>    C       -2.32175        -4.55000       -20.00047
| 78>    C       -2.13370        -5.88065       -19.23440
| 79>    N       -3.37920        -6.54803       -18.93155
| 80>    C       -4.42756        -5.86415       -18.82702
| 81>    C       -4.46129        -4.41199       -19.08405
| 82>    N       -3.50679        -3.80203       -19.62592
| 83>    F       -5.54805        -3.73829       -18.71651
| 84>    F       -5.56895        -6.46534       -18.50589
| 85>    H       -0.43605         6.06335        -4.62260
| 86>    H        2.01986         5.93638        -4.59149
| 87>    H        3.15622         4.03639        -3.51605
| 88>    H       -0.08636         4.10547        -1.28909
| 89>    H       -1.63476         4.84692        -2.88734
| 90>    H        3.73609        -0.86861         0.01732
| 91>    H        0.78583        -1.08150        -5.49728
| 92>    H        1.88336        -3.58091        -4.07846
| 93>    H        1.48646        -5.68038        -5.25984
| 94>    H        0.56799        -7.77580        -7.64785
| 95>    H       -0.82047        -4.42647        -9.82531
| 96>    H        0.07060        -2.33498        -7.41728
| 97>    H       -1.18931        -6.52835       -11.00360
| 98>    H       -0.13977        -8.95454        -9.47487
| 99>    H       -2.17532       -11.80567       -14.22890
|100>    H       -0.73839        -5.87420       -15.25474
|101>    H       -1.97161        -7.72412       -17.38404
|102>    H        0.13900        -4.65800       -16.91374
|103>    H        0.44130        -2.95933       -18.64177
|104>    H       -1.11998        -2.78688       -20.53361
|105>    H       -2.44568        -4.76567       -21.07113
|106>    H       -1.57592        -6.58173       -19.87170
|107> *
|108>
|109>                          ****END OF INPUT****

CARTESIAN COORDINATES (ANGSTROEM)
---------------------------------
  C      0.088580    5.321820   -4.043200
  C      1.415130    5.230110   -4.044410
  C      2.098020    4.164940   -3.344750
  C      1.440010    3.341590   -2.528650
  C     -0.035520    3.539570   -2.229670
  C     -0.783240    4.316190   -3.336090
  N     -1.358300    3.490290   -4.376530
  C     -1.533790    2.267100   -4.155690
  C     -1.226810    1.646570   -2.853700
  N     -0.593670    2.235450   -1.940880
  F     -1.679460    0.414790   -2.627860
  F     -2.057850    1.493400   -5.097910
  C      2.073040    2.210430   -1.831960
  C      2.073540    0.927350   -2.368540
  C      1.483730    0.446230   -3.633250
  O      0.890330    1.066040   -4.481870
  N      1.728580   -0.928590   -3.675280
  C      2.438330   -1.373310   -2.555120
  O      2.792990   -2.501820   -2.339890
  C      2.651590   -0.164970   -1.715820
  C      3.281090   -0.034590   -0.492920
  C      3.287560    1.244150    0.057010
  C      2.692660    2.332780   -0.582440
  C      2.756350    3.596630    0.174270
  O      2.291370    4.656190   -0.122580
  S      3.663760    3.311590    1.699930
  C      3.910970    1.562870    1.357170
  O      4.494130    0.822680    2.088050
  C      1.273330   -1.688960   -4.748200
  C      1.398490   -3.019140   -4.863180
  C      0.928600   -3.770900   -5.981700
  N      1.074300   -5.140100   -6.001380
  C      0.561360   -5.613530   -7.167970
  C      0.338200   -6.763490   -7.910540
  C     -0.277980   -6.341190   -9.101150
  N     -0.432500   -4.967850   -9.071420
  C      0.078610   -4.499070   -7.907850
  C      0.309390   -3.346450   -7.160650
  C     -0.710670   -7.091210  -10.217460
  C     -0.563410   -8.437750  -10.321220
  C     -0.978520   -9.275910  -11.396500
  C     -1.188610   -8.878380  -12.741370
  C     -0.953650   -7.590780  -13.436690
  O     -0.542650   -6.532440  -13.028370
  N     -1.284800   -7.797540  -14.786450
  C     -1.692760   -9.105090  -15.031840
  O     -2.018370   -9.572300  -16.089680
  C     -1.607830   -9.786610  -13.715830
  C     -1.847310  -11.122910  -13.462480
  C     -1.613630  -11.539540  -12.159340
  C     -1.187680  -10.668530  -11.159620
  C     -1.004920  -11.332200   -9.859060
  O     -0.663780  -10.874260   -8.806880
  S     -1.388610  -13.091510  -10.016990
  C     -1.794940  -12.947970  -11.748990
  O     -2.153570  -13.859810  -12.430710
  C     -1.154170   -6.763600  -15.709210
  C     -1.507960   -6.829510  -16.997580
  C     -1.340170   -5.748680  -17.941670
  C     -0.483190   -4.720730  -17.792450
  C     -0.347900   -3.682750  -18.779940
  C     -1.170990   -3.596430  -19.824690
  C     -2.321750   -4.550000  -20.000470
  C     -2.133700   -5.880650  -19.234400
  N     -3.379200   -6.548030  -18.931550
  C     -4.427560   -5.864150  -18.827020
  C     -4.461290   -4.411990  -19.084050
  N     -3.506790   -3.802030  -19.625920
  F     -5.548050   -3.738290  -18.716510
  F     -5.568950   -6.465340  -18.505890
  H     -0.436050    6.063350   -4.622600
  H      2.019860    5.936380   -4.591490
  H      3.156220    4.036390   -3.516050
  H     -0.086360    4.105470   -1.289090
  H     -1.634760    4.846920   -2.887340
  H      3.736090   -0.868610    0.017320
  H      0.785830   -1.081500   -5.497280
  H      1.883360   -3.580910   -4.078460
  H      1.486460   -5.680380   -5.259840
  H      0.567990   -7.775800   -7.647850
  H     -0.820470   -4.426470   -9.825310
  H      0.070600   -2.334980   -7.417280
  H     -1.189310   -6.528350  -11.003600
  H     -0.139770   -8.954540   -9.474870
  H     -2.175320  -11.805670  -14.228900
  H     -0.738390   -5.874200  -15.254740
  H     -1.971610   -7.724120  -17.384040
  H      0.139000   -4.658000  -16.913740
  H      0.441300   -2.959330  -18.641770
  H     -1.119980   -2.786880  -20.533610
  H     -2.445680   -4.765670  -21.071130
  H     -1.575920   -6.581730  -19.871700

 Total Charge           Charge          ....    0
 Multiplicity           Mult            ....    1
 Number of Electrons    NEL             ....  498
 Basis Dimension        Dim             .... 1098

ORBITAL ENERGIES
----------------

  NO   OCC          E(Eh)            E(eV)
   0   2.0000     -88.958475     -2420.6832
   1   2.0000     -88.943619     -2420.2789
   2   2.0000     -24.808460      -675.0725
   3   2.0000     -24.797765      -674.7815
   4   2.0000     -24.797747      -674.7810
   5   2.0000     -24.796184      -674.7385
   6   2.0000     -19.251815      -523.8685
   7   2.0000     -19.251687      -523.8650
   8   2.0000     -19.245214      -523.6889
   9   2.0000     -19.244236      -523.6623
  10   2.0000     -19.237125      -523.4688
  11   2.0000     -19.236016      -523.4386
  12   2.0000     -19.230917      -523.2999
  13   2.0000     -19.227596      -523.2095
  14   2.0000     -14.494442      -394.4138
  15   2.0000     -14.478512      -393.9803
  16   2.0000     -14.459142      -393.4533
  17   2.0000     -14.457996      -393.4221
  18   2.0000     -14.430727      -392.6800
  19   2.0000     -14.424613      -392.5137
  20   2.0000     -14.424522      -392.5112
  21   2.0000     -14.424422      -392.5085
  22   2.0000     -10.423524      -283.6385
  23   2.0000     -10.423395      -283.6350
  24   2.0000     -10.418976      -283.5147
  25   2.0000     -10.413872      -283.3759
  26   2.0000     -10.412924      -283.3501
  27   2.0000     -10.411690      -283.3165
  28   2.0000     -10.411503      -283.3114
  29   2.0000     -10.411491      -283.3111
  30   2.0000     -10.409195      -283.2486
  31   2.0000     -10.405589      -283.1505
  32   2.0000     -10.400020      -282.9989
  33   2.0000     -10.396981      -282.9162
  34   2.0000     -10.341660      -281.4109
  35   2.0000     -10.334797      -281.2241
  36   2.0000     -10.333199      -281.1806
  37   2.0000     -10.332289      -281.1559
  38   2.0000     -10.331122      -281.1241
  39   2.0000     -10.330193      -281.0988
  40   2.0000     -10.329772      -281.0874
  41   2.0000     -10.328468      -281.0519
  42   2.0000     -10.326066      -280.9865
  43   2.0000     -10.322462      -280.8885
  44   2.0000     -10.321384      -280.8591
  45   2.0000     -10.320586      -280.8374
  46   2.0000     -10.317603      -280.7562
  47   2.0000     -10.314944      -280.6839
  48   2.0000     -10.314815      -280.6804
  49   2.0000     -10.314163      -280.6627
  50   2.0000     -10.313675      -280.6494
  51   2.0000     -10.310744      -280.5696
  52   2.0000     -10.306494      -280.4540
  53   2.0000     -10.301699      -280.3235
  54   2.0000     -10.300212      -280.2830
  55   2.0000     -10.295704      -280.1604
  56   2.0000     -10.292420      -280.0710
  57   2.0000     -10.288105      -279.9536
  58   2.0000     -10.286469      -279.9090
  59   2.0000     -10.285950      -279.8949
  60   2.0000     -10.284493      -279.8553
  61   2.0000     -10.281300      -279.7684
  62   2.0000     -10.279722      -279.7255
  63   2.0000     -10.273041      -279.5436
  64   2.0000     -10.272252      -279.5222
  65   2.0000     -10.270341      -279.4702
  66   2.0000     -10.268730      -279.4263
  67   2.0000     -10.266858      -279.3754
  68   2.0000     -10.266762      -279.3728
  69   2.0000     -10.263132      -279.2740
  70   2.0000      -8.057643      -219.2596
  71   2.0000      -8.042928      -218.8592
  72   2.0000      -6.026491      -163.9892
  73   2.0000      -6.023257      -163.9012
  74   2.0000      -6.018695      -163.7770
  75   2.0000      -6.011789      -163.5891
  76   2.0000      -6.008551      -163.5010
  77   2.0000      -6.003961      -163.3761
  78   2.0000      -1.333726       -36.2925
  79   2.0000      -1.326527       -36.0966
  80   2.0000      -1.316253       -35.8171
  81   2.0000      -1.311785       -35.6955
  82   2.0000      -1.190883       -32.4056
  83   2.0000      -1.176706       -32.0198
  84   2.0000      -1.176098       -32.0032
  85   2.0000      -1.172185       -31.8968
  86   2.0000      -1.167312       -31.7642
  87   2.0000      -1.161473       -31.6053
  88   2.0000      -1.157216       -31.4895
  89   2.0000      -1.152451       -31.3598
  90   2.0000      -1.090648       -29.6780
  91   2.0000      -1.083837       -29.4927
  92   2.0000      -1.080039       -29.3894
  93   2.0000      -1.075412       -29.2634
  94   2.0000      -1.067857       -29.0579
  95   2.0000      -1.054378       -28.6911
  96   2.0000      -1.022943       -27.8357
  97   2.0000      -1.011734       -27.5307
  98   2.0000      -1.008434       -27.4409
  99   2.0000      -1.001616       -27.2554
 100   2.0000      -0.962830       -26.1999
 101   2.0000      -0.952310       -25.9137
 102   2.0000      -0.948465       -25.8090
 103   2.0000      -0.938973       -25.5507
 104   2.0000      -0.915769       -24.9193
 105   2.0000      -0.911818       -24.8118
 106   2.0000      -0.907404       -24.6917
 107   2.0000      -0.893001       -24.2998
 108   2.0000      -0.883231       -24.0339
 109   2.0000      -0.873796       -23.7772
 110   2.0000      -0.866624       -23.5820
 111   2.0000      -0.862280       -23.4638
 112   2.0000      -0.857769       -23.3411
 113   2.0000      -0.849605       -23.1189
 114   2.0000      -0.846812       -23.0429
 115   2.0000      -0.844511       -22.9803
 116   2.0000      -0.822586       -22.3837
 117   2.0000      -0.807620       -21.9764
 118   2.0000      -0.802162       -21.8279
 119   2.0000      -0.785896       -21.3853
 120   2.0000      -0.781147       -21.2561
 121   2.0000      -0.773240       -21.0409
 122   2.0000      -0.767695       -20.8901
 123   2.0000      -0.766171       -20.8486
 124   2.0000      -0.762756       -20.7556
 125   2.0000      -0.756871       -20.5955
 126   2.0000      -0.748752       -20.3746
 127   2.0000      -0.745186       -20.2775
 128   2.0000      -0.734878       -19.9971
 129   2.0000      -0.719905       -19.5896
 130   2.0000      -0.710999       -19.3473
 131   2.0000      -0.703474       -19.1425
 132   2.0000      -0.694051       -18.8861
 133   2.0000      -0.689872       -18.7724
 134   2.0000      -0.684749       -18.6330
 135   2.0000      -0.682581       -18.5740
 136   2.0000      -0.676552       -18.4099
 137   2.0000      -0.667717       -18.1695
 138   2.0000      -0.665363       -18.1054
 139   2.0000      -0.660360       -17.9693
 140   2.0000      -0.658759       -17.9257
 141   2.0000      -0.656716       -17.8701
 142   2.0000      -0.650386       -17.6979
 143   2.0000      -0.639806       -17.4100
 144   2.0000      -0.631814       -17.1925
 145   2.0000      -0.630268       -17.1505
 146   2.0000      -0.626635       -17.0516
 147   2.0000      -0.624350       -16.9894
 148   2.0000      -0.621943       -16.9239
 149   2.0000      -0.621332       -16.9073
 150   2.0000      -0.618031       -16.8175
 151   2.0000      -0.610305       -16.6072
 152   2.0000      -0.609550       -16.5867
 153   2.0000      -0.606073       -16.4921
 154   2.0000      -0.598581       -16.2882
 155   2.0000      -0.598159       -16.2767
 156   2.0000      -0.592689       -16.1279
 157   2.0000      -0.586468       -15.9586
 158   2.0000      -0.585867       -15.9423
 159   2.0000      -0.583641       -15.8817
 160   2.0000      -0.582585       -15.8530
 161   2.0000      -0.575199       -15.6520
 162   2.0000      -0.571280       -15.5453
 163   2.0000      -0.567460       -15.4414
 164   2.0000      -0.564879       -15.3711
 165   2.0000      -0.563071       -15.3219
 166   2.0000      -0.562245       -15.2995
 167   2.0000      -0.559500       -15.2248
 168   2.0000      -0.557037       -15.1578
 169   2.0000      -0.555127       -15.1058
 170   2.0000      -0.552895       -15.0450
 171   2.0000      -0.548759       -14.9325
 172   2.0000      -0.546971       -14.8838
 173   2.0000      -0.546926       -14.8826
 174   2.0000      -0.545321       -14.8389
 175   2.0000      -0.542440       -14.7606
 176   2.0000      -0.541160       -14.7257
 177   2.0000      -0.538407       -14.6508
 178   2.0000      -0.535223       -14.5642
 179   2.0000      -0.535142       -14.5620
 180   2.0000      -0.534080       -14.5330
 181   2.0000      -0.532035       -14.4774
 182   2.0000      -0.531563       -14.4646
 183   2.0000      -0.529206       -14.4004
 184   2.0000      -0.528179       -14.3725
 185   2.0000      -0.525967       -14.3123
 186   2.0000      -0.522034       -14.2053
 187   2.0000      -0.521635       -14.1944
 188   2.0000      -0.516211       -14.0468
 189   2.0000      -0.513016       -13.9599
 190   2.0000      -0.510412       -13.8890
 191   2.0000      -0.509123       -13.8539
 192   2.0000      -0.508630       -13.8405
 193   2.0000      -0.507314       -13.8047
 194   2.0000      -0.503430       -13.6990
 195   2.0000      -0.501417       -13.6443
 196   2.0000      -0.501164       -13.6374
 197   2.0000      -0.496493       -13.5103
 198   2.0000      -0.494851       -13.4656
 199   2.0000      -0.492164       -13.3925
 200   2.0000      -0.490652       -13.3513
 201   2.0000      -0.485583       -13.2134
 202   2.0000      -0.484893       -13.1946
 203   2.0000      -0.479401       -13.0452
 204   2.0000      -0.475769       -12.9463
 205   2.0000      -0.471924       -12.8417
 206   2.0000      -0.471043       -12.8177
 207   2.0000      -0.468399       -12.7458
 208   2.0000      -0.460838       -12.5400
 209   2.0000      -0.459183       -12.4950
 210   2.0000      -0.449050       -12.2193
 211   2.0000      -0.446372       -12.1464
 212   2.0000      -0.444267       -12.0891
 213   2.0000      -0.440075       -11.9750
 214   2.0000      -0.437431       -11.9031
 215   2.0000      -0.434295       -11.8178
 216   2.0000      -0.426548       -11.6070
 217   2.0000      -0.414544       -11.2803
 218   2.0000      -0.411526       -11.1982
 219   2.0000      -0.410112       -11.1597
 220   2.0000      -0.403334       -10.9753
 221   2.0000      -0.401460       -10.9243
 222   2.0000      -0.400001       -10.8846
 223   2.0000      -0.391651       -10.6574
 224   2.0000      -0.389538       -10.5999
 225   2.0000      -0.382886       -10.4188
 226   2.0000      -0.376094       -10.2340
 227   2.0000      -0.374783       -10.1984
 228   2.0000      -0.374698       -10.1961
 229   2.0000      -0.369190       -10.0462
 230   2.0000      -0.367046        -9.9878
 231   2.0000      -0.366306        -9.9677
 232   2.0000      -0.361863        -9.8468
 233   2.0000      -0.358845        -9.7647
 234   2.0000      -0.358003        -9.7418
 235   2.0000      -0.356074        -9.6893
 236   2.0000      -0.353814        -9.6278
 237   2.0000      -0.352630        -9.5955
 238   2.0000      -0.346298        -9.4233
 239   2.0000      -0.344368        -9.3707
 240   2.0000      -0.342248        -9.3130
 241   2.0000      -0.339877        -9.2485
 242   2.0000      -0.337244        -9.1769
 243   2.0000      -0.330649        -8.9974
 244   2.0000      -0.302235        -8.2242
 245   2.0000      -0.299555        -8.1513
 246   2.0000      -0.289955        -7.8901
 247   2.0000      -0.265427        -7.2226
 248   2.0000      -0.226241        -6.1563
 249   0.0000      -0.102993        -2.8026
 250   0.0000      -0.087009        -2.3676
 251   0.0000      -0.068344        -1.8597
 252   0.0000      -0.053726        -1.4620
 253   0.0000      -0.036272        -0.9870

MULLIKEN ATOMIC CHARGES
-----------------------
   0 C :    0.010577
   1 C :    0.022317
   2 C :    0.056975
   3 C :   -0.116468
   4 C :    0.143084
   5 C :    0.108806
   6 N :   -0.093864
   7 C :    0.150140
   8 C :    0.087146
   9 N :   -0.108740
  10 F :   -0.151330
  11 F :   -0.147281
  12 C :    0.010940
  13 C :    0.004102
  14 C :    0.202070
  15 O :   -0.162618
  16 N :   -0.221005
  17 C :    0.210744
  18 O :   -0.137577
  19 C :    0.027589
  20 C :   -0.082276
  21 C :    0.064929
  22 C :    0.048306
  23 C :    0.037326
  24 O :   -0.116410
  25 S :    0.012674
  26 C :    0.042483
  27 O :   -0.113358
  28 C :    0.065272
  29 C :    0.008227
  30 C :    0.093607
  31 N :   -0.033249
  32 C :    0.120457
  33 C :   -0.166888
  34 C :    0.063999
  35 N :   -0.027125
  36 C :    0.117095
  37 C :   -0.171684
  38 C :    0.074484
  39 C :   -0.117389
  40 C :    0.113125
  41 C :   -0.045284
  42 C :    0.186492
  43 O :   -0.165605
  44 N :   -0.223148
  45 C :    0.208066
  46 O :   -0.133480
  47 C :    0.005336
  48 C :   -0.089024
  49 C :    0.043318
  50 C :    0.036310
  51 C :    0.029155
  52 O :   -0.138343
  53 S :    0.005405
  54 C :    0.051700
  55 O :   -0.122041
  56 C :    0.081293
  57 C :    0.015093
  58 C :   -0.024947
  59 C :   -0.031075
  60 C :    0.031427
  61 C :   -0.000925
  62 C :    0.106319
  63 C :    0.103397
  64 N :   -0.092287
  65 C :    0.105404
  66 C :    0.108616
  67 N :   -0.087502
  68 F :   -0.148533
  69 F :   -0.145627
  70 H :    0.006233
  71 H :   -0.005625
  72 H :   -0.021384
  73 H :    0.036300
  74 H :    0.028004
  75 H :    0.019351
  76 H :    0.030871
  77 H :    0.005509
  78 H :    0.124313
  79 H :   -0.016952
  80 H :    0.126772
  81 H :   -0.033952
  82 H :   -0.016191
  83 H :    0.009451
  84 H :    0.014824
  85 H :    0.023725
  86 H :    0.035866
  87 H :   -0.022895
  88 H :   -0.009991
  89 H :    0.001816
  90 H :    0.026291
  91 H :    0.038937
Sum of atomic charges:   -0.0000000

LOEWDIN ATOMIC CHARGES
----------------------
   0 C :   -0.002513
   1 C :   -0.027188
   2 C :   -0.012041
   3 C :   -0.026236
   4 C :    0.024994
   5 C :    0.014761
   6 N :   -0.067605
   7 C :    0.043911
   8 C :    0.049042
   9 N :   -0.090160
  10 F :   -0.036627
  11 F :   -0.031990
  12 C :    0.046559
  13 C :   -0.029887
  14 C :    0.103424
  15 O :   -0.137652
  16 N :   -0.004828
  17 C :    0.103087
  18 O :   -0.127511
  19 C :   -0.025144
  20 C :    0.042633
  21 C :   -0.050324
  22 C :   -0.052945
  23 C :   -0.043003
  24 O :   -0.107680
  25 S :    0.300605
  26 C :   -0.044860
  27 O :   -0.106616
  28 C :    0.021329
  29 C :   -0.047250
  30 C :    0.006639
  31 N :    0.072063
  32 C :   -0.024308
  33 C :   -0.069174
  34 C :   -0.016145
  35 N :    0.076040
  36 C :   -0.010009
  37 C :   -0.100098
  38 C :    0.024405
  39 C :   -0.070175
  40 C :    0.040487
  41 C :   -0.055440
  42 C :    0.106332
  43 O :   -0.146171
  44 N :   -0.012404
  45 C :    0.097342
  46 O :   -0.124496
  47 C :   -0.023376
  48 C :    0.018762
  49 C :   -0.047194
  50 C :   -0.071384
  51 C :   -0.037226
  52 O :   -0.120951
  53 S :    0.294826
  54 C :   -0.049992
  55 O :   -0.114446
  56 C :    0.032890
  57 C :   -0.045518
  58 C :   -0.023164
  59 C :   -0.037123
  60 C :   -0.029163
  61 C :   -0.017792
  62 C :    0.012479
  63 C :    0.019640
  64 N :   -0.067048
  65 C :    0.049419
  66 C :    0.040605
  67 N :   -0.065972
  68 F :   -0.037506
  69 F :   -0.034272
  70 H :    0.031474
  71 H :    0.033123
  72 H :    0.030470
  73 H :    0.043691
  74 H :    0.040966
  75 H :    0.052316
  76 H :    0.034103
  77 H :    0.033028
  78 H :    0.091353
  79 H :    0.030226
  80 H :    0.092785
  81 H :    0.024370
  82 H :    0.026107
  83 H :    0.029662
  84 H :    0.049246
  85 H :    0.028878
  86 H :    0.036189
  87 H :    0.026917
  88 H :    0.031378
  89 H :    0.028612
  90 H :    0.038879
  91 H :    0.046561

  Mayer bond orders larger than 0.100000
B(  0-C ,  1-C ) :   1.8482 B(  0-C ,  5-C ) :   0.9972 B(  0-C , 70-H ) :   0.9743
B(  1-C ,  2-C ) :   1.0474 B(  1-C , 71-H ) :   0.9792 B(  2-C ,  3-C ) :   1.8452
B(  2-C , 72-H ) :   0.9789 B(  3-C ,  4-C ) :   0.9433 B(  3-C , 12-C ) :   1.0047
B(  4-C ,  5-C ) :   0.9802 B(  4-C ,  9-N ) :   1.0214 B(  4-C , 73-H ) :   0.8732
B(  5-C ,  6-N ) :   1.0078 B(  5-C , 74-H ) :   0.9015 B(  6-N ,  7-C ) :   1.9597
B(  7-C ,  8-C ) :   0.9300 B(  7-C , 11-F ) :   1.1640 B(  8-C ,  9-N ) :   1.9479
B(  8-C , 10-F ) :   1.1511 B( 12-C , 13-C ) :   1.4280 B( 12-C , 22-C ) :   1.4205
B( 13-C , 14-C ) :   0.8967 B( 13-C , 19-C ) :   1.3733 B( 14-C , 15-O ) :   2.1078
B( 14-C , 16-N ) :   1.0631 B( 16-N , 17-C ) :   1.0279 B( 16-N , 28-C ) :   1.0038
B( 17-C , 18-O ) :   2.2064 B( 17-C , 19-C ) :   0.8731 B( 19-C , 20-C ) :   1.3293
B( 20-C , 21-C ) :   1.3247 B( 20-C , 75-H ) :   1.0273 B( 21-C , 22-C ) :   1.3369
B( 21-C , 26-C ) :   0.8350 B( 22-C , 23-C ) :   0.8447 B( 23-C , 24-O ) :   2.1823
B( 23-C , 25-S ) :   1.0246 B( 24-O , 25-S ) :   0.1085 B( 25-S , 26-C ) :   1.0232
B( 25-S , 27-O ) :   0.1079 B( 26-C , 27-O ) :   2.2298 B( 28-C , 29-C ) :   1.7254
B( 28-C , 76-H ) :   0.9724 B( 29-C , 30-C ) :   1.0817 B( 29-C , 77-H ) :   0.9527
B( 30-C , 31-N ) :   1.1909 B( 30-C , 37-C ) :   1.4247 B( 31-N , 32-C ) :   1.1547
B( 31-N , 78-H ) :   0.9356 B( 32-C , 33-C ) :   1.2753 B( 32-C , 36-C ) :   1.2993
B( 33-C , 34-C ) :   1.3732 B( 33-C , 79-H ) :   1.0342 B( 34-C , 35-N ) :   1.1583
B( 34-C , 38-C ) :   1.1652 B( 35-N , 36-C ) :   1.1880 B( 35-N , 80-H ) :   0.9346
B( 36-C , 37-C ) :   1.2501 B( 37-C , 81-H ) :   1.0305 B( 38-C , 39-C ) :   1.6028
B( 38-C , 82-H ) :   0.9464 B( 39-C , 40-C ) :   1.1836 B( 39-C , 83-H ) :   0.9491
B( 40-C , 41-C ) :   1.2774 B( 40-C , 50-C ) :   1.2966 B( 41-C , 42-C ) :   0.9098
B( 41-C , 47-C ) :   1.3987 B( 42-C , 43-O ) :   2.1281 B( 42-C , 44-N ) :   1.0426
B( 44-N , 45-C ) :   1.0312 B( 44-N , 56-C ) :   1.0143 B( 45-C , 46-O ) :   2.2089
B( 45-C , 47-C ) :   0.8788 B( 47-C , 48-C ) :   1.3362 B( 48-C , 49-C ) :   1.3257
B( 48-C , 84-H ) :   1.0285 B( 49-C , 50-C ) :   1.3535 B( 49-C , 54-C ) :   0.8402
B( 50-C , 51-C ) :   0.8743 B( 51-C , 52-O ) :   2.1373 B( 51-C , 53-S ) :   1.0225
B( 53-S , 54-C ) :   1.0298 B( 53-S , 55-O ) :   0.1093 B( 54-C , 55-O ) :   2.2191
B( 56-C , 57-C ) :   1.7346 B( 56-C , 85-H ) :   0.9681 B( 57-C , 58-C ) :   1.0740
B( 57-C , 86-H ) :   0.9542 B( 58-C , 59-C ) :   1.7741 B( 58-C , 63-C ) :   0.9438
B( 59-C , 60-C ) :   1.0711 B( 59-C , 87-H ) :   0.9781 B( 60-C , 61-C ) :   1.8223
B( 60-C , 88-H ) :   0.9803 B( 61-C , 62-C ) :   0.9956 B( 61-C , 89-H ) :   0.9749
B( 62-C , 63-C ) :   0.9803 B( 62-C , 67-N ) :   1.0015 B( 62-C , 90-H ) :   0.9027
B( 63-C , 64-N ) :   1.0153 B( 63-C , 91-H ) :   0.8832 B( 64-N , 65-C ) :   1.9514
B( 65-C , 66-C ) :   0.9338 B( 65-C , 69-F ) :   1.1613 B( 66-C , 67-N ) :   1.9646
B( 66-C , 68-F ) :   1.1594

-----------------------------------------------------------------------------
         ABSORPTION SPECTRUM VIA TRANSITION ELECTRIC DIPOLE MOMENTS
-----------------------------------------------------------------------------
State   Energy  Wavelength   fosc         T2         TX        TY        TZ
        (cm-1)    (nm)                  (au**2)     (au)      (au)      (au)
-----------------------------------------------------------------------------
   0   13685.6    730.7   0.004090074   0.09839   0.03595  -0.30566  -0.06058
   1   14434.9    692.8   0.029124898   0.66424  -0.02386   0.50546  -0.63890
   2   19060.2    524.7   1.689061804  29.17389   1.25961   3.55300   3.86826
   3   22112.4    452.2   0.000657190   0.00978   0.06196  -0.03057   0.07079
   4   22190.2    450.6   0.001515694   0.02249  -0.05891  -0.10394  -0.09063
   5   24750.5    404.0   0.044484331   0.59170  -0.20628  -0.61474  -0.41380
   6   28286.9    353.5   0.138209885   1.60853  -0.08769   0.98954  -0.78845
   7   28346.0    352.8   0.005730074   0.06655   0.00106  -0.22821   0.12028
   8   28346.9    352.8   0.000290677   0.00338   0.01867  -0.03878  -0.03903
   9   28610.5    349.5   0.005263897   0.06057   0.08049  -0.23018   0.03330
  10   29187.5    342.6   0.001891249   0.02133  -0.08968   0.10429   0.04913
  11   29294.5    341.4   0.001280023   0.01438   0.04958   0.00393   0.10914
  12   29550.0    338.4   0.057962342   0.64575   0.15716   0.56960  -0.54461
  13   29899.0    334.5   0.000901749   0.00993  -0.01912   0.02438  -0.09471
  14   30065.4    332.6   0.066187774   0.72475  -0.07278  -0.50916   0.67838
  15   30223.4    330.9   0.015122332   0.16472  -0.09967  -0.37900  -0.10556
  16   30640.9    326.4   0.101349520   1.08892   0.01361  -0.63495   0.82800
  17   30660.0    326.2   0.023965058   0.25733   0.11658   0.46374  -0.16936
  18   30851.6    324.1   0.001856082   0.01981   0.04462  -0.10601   0.08110
  19   31466.4    317.8   0.103848366   1.08650  -0.08019   1.03768  -0.05734
  20   32054.0    312.0   0.149733392   1.53784  -0.35827  -1.08122  -0.49035
  21   32181.5    310.7   0.016508564   0.16888   0.02603  -0.38336   0.14574
  22   33317.3    300.1   0.007676945   0.07586   0.07420   0.06940  -0.25600
  23   33337.8    300.0   0.005506159   0.05437  -0.01012  -0.19676  -0.12472
  24   33570.0    297.9   0.007030553   0.06895  -0.14209  -0.06501  -0.21102
  25   33600.7    297.6   0.003557138   0.03485  -0.07589   0.04940  -0.16326
  26   33976.0    294.3   0.064227141   0.62233  -0.11469  -0.67624   0.38972
  27   33998.2    294.1   0.012922040   0.12513   0.06816   0.16659   0.30451
  28   34567.2    289.3   0.248508848   2.36676  -0.37791  -1.04172  -1.06712
  29   34779.0    287.5   0.005377252   0.05090  -0.11748   0.18953  -0.03434
  30   35278.5    283.5   0.013642167   0.12731  -0.21782  -0.18445   0.21410
  31   35536.8    281.4   0.051809024   0.47996  -0.20356   0.40149  -0.52662
  32   36021.6    277.6   0.018494932   0.16903   0.28262   0.28928   0.07399
  33   36323.8    275.3   0.045392434   0.41140  -0.19656  -0.48168  -0.37517
  34   36400.5    274.7   0.263289831   2.38123  -0.00468   0.74462  -1.35158
  35   36565.5    273.5   0.042814696   0.38548   0.14606   0.28247   0.53325
  36   36861.5    271.3   0.123820788   1.10585   0.19350   0.91196  -0.48655
  37   37324.8    267.9   0.001187723   0.01048  -0.08967   0.02485  -0.04264
  38   37716.7    265.1   0.028492069   0.24869   0.12267   0.45326  -0.16792
  39   37980.0    263.3   0.020011363   0.17346  -0.04171  -0.35293  -0.21717
  40   38352.2    260.7   0.017729711   0.15219   0.01053   0.20563  -0.33135
  41   38675.0    258.6   0.132754631   1.13004   0.05372   0.62289  -0.85975
  42   39164.7    255.3   0.061762756   0.51917  -0.10600  -0.60445   0.37758
  43   39442.8    253.5   0.002453849   0.02048  -0.04583  -0.09584   0.09590
  44   39646.8    252.2   0.006057585   0.05030   0.17172   0.02748  -0.14163
  45   39826.6    251.1   0.003653235   0.03020  -0.06416  -0.15350   0.05019
  46   40166.3    249.0   0.000191057   0.00157  -0.00869  -0.03858   0.00129

FINAL SINGLE POINT ENERGY     -4073.722502059556

DIPOLE MOMENT
-------------
                                X             Y             Z
Electronic contribution:    -16.63680      -5.24297      20.98104
Nuclear contribution   :     18.17181       7.44378     -20.50666
                        -----------------------------------------
Total Dipole Moment    :      1.53501       2.20081       0.47438
                        -----------------------------------------
Magnitude (a.u.)       :      2.72486
Magnitude (Debye)      :      6.92604

Rotational constants in cm-1:     0.001304     0.000261     0.000226
Rotational constants in MHz :    39.092200     7.810169     6.776636

                             ****ORCA TERMINATED NORMALLY****
TOTAL RUN TIME: 0 days 0 hours 8 minutes 3 seconds 769 msec
