                         Program Version 4.2.0 -  RELEASE  -
|  1> # ORCA input file
|  2> # SCF done       -208.138536966324          0.000212876647
|  3> ! CAM-B3LYP def2-SVP def2/J RIJCOSX Grid4 TightSCF
|  4> %maxcore 5000
|  5> %tddft
|  6>     Mode sTDDFT
|  7>     Ethresh 5.0
|  8>     maxcore 5000
|  9> end
| 10>
| 11> %pal
| 12>   nprocs 6
| 13>   end
| 14> * xyz 0 1
| 15>    C       -6.09765        -6.99468        -7.70461
| 16>    C       -5.01793        -6.55705        -6.93252
| 17>    C       -3.74515        -6.51303        -7.50730
| 18>    C       -3.55886        -6.89596        -8.83578
| 19>    C       -4.63876        -7.31869        -9.57918
| 20>    C       -5.91126        -7.36977        -9.01483
| 21>    O       -2.65098        -6.11655        -6.81142
| 22>    C       -2.78078        -5.71818        -5.54168
| 23>    C       -1.47538        -5.31910        -4.93711
| 24>    C       -3.96716        -5.70100        -4.88961
| 25>    C       -5.20718        -6.16712        -5.53316
| 26>    O       -6.27937        -6.21188        -4.95391
| 27>    C       -4.15114        -5.26725        -3.50332
| 28>    C       -4.05103        -3.93875        -3.07726
| 29>    C       -3.62026        -2.83545        -3.94545
| 30>    O       -3.29254        -2.87349        -5.09667
| 31>    S       -3.64134        -1.30996        -2.99826
| 32>    C       -4.18313        -2.12691        -1.48845
| 33>    O       -4.31688        -1.53492        -0.45769
| 34>    C       -4.39658        -3.55471        -1.77465
| 35>    C       -4.90319        -4.46819        -0.84215
| 36>    C       -5.02942        -5.79044        -1.28047
| 37>    C       -4.64401        -6.17951        -2.56464
| 38>    C       -4.77318        -7.61981        -2.83410
| 39>    O       -4.37344        -8.23774        -3.77655
| 40>    S       -5.58540        -8.39041        -1.42961
| 41>    C       -5.63363        -6.86579        -0.47704
| 42>    O       -6.11099        -6.79638         0.61744
| 43>    C       -5.26376        -4.06596         0.52523
| 44>    C       -6.29017        -3.18083         0.73730
| 45>    C       -6.57833        -2.74748         2.04517
| 46>    C       -7.50110        -1.82490         2.54316
| 47>    C       -8.52912        -0.99812         1.86417
| 48>    C       -7.92427         0.37728         1.47279
| 49>    N       -7.77497         1.21533         2.64194
| 50>    C       -9.17934        -1.64228         0.63255
| 51>    N      -10.38214        -0.89993         0.29379
| 52>    C       -7.21795        -1.68247         3.95096
| 53>    C       -7.71064        -0.81480         4.85625
| 54>    C       -7.13236        -0.74631         6.22722
| 55>    C       -6.23448        -1.87993         6.58685
| 56>    C       -5.74780        -2.73322         5.65904
| 57>    C       -6.15987        -2.62152         4.31300
| 58>    C       -5.76918        -3.26045         3.13726
| 59>    C       -4.75699        -4.20289         2.88844
| 60>    C       -4.51044        -4.59483         1.60548
| 61>    C       -8.22031        -0.45139         7.22490
| 62>    C       -8.72685         0.76946         7.33156
| 63>    C       -9.88017         1.16009         8.13280
| 64>    C       -9.97990         0.99844         9.51909
| 65>    C       -8.92670         0.40477        10.35421
| 66>    O       -7.83375         0.03259        10.03769
| 67>    S       -9.51777         0.31239        12.05100
| 68>    C      -11.08390         1.10184        11.66419
| 69>    O      -11.92047         1.31228        12.49575
| 70>    C      -11.11459         1.41753        10.23166
| 71>    C      -12.18557         2.06108         9.60331
| 72>    C      -12.07863         2.23092         8.21868
| 73>    C      -10.96999         1.77499         7.50100
| 74>    C      -11.07554         1.95149         6.04842
| 75>    O      -10.29818         1.60164         5.19941
| 76>    S      -12.61225         2.78729         5.67543
| 77>    C      -13.08492         2.92749         7.41004
| 78>    O      -14.03765         3.55329         7.76986
| 79>    C      -13.44972         2.39581        10.26177
| 80>    C      -13.59019         3.34828        11.21397
| 81>    O      -14.76124         3.63774        11.79086
| 82>    C      -15.87604         2.95542        11.43002
| 83>    C      -17.06933         3.28796        12.07160
| 84>    C      -18.23142         2.63344        11.72722
| 85>    C      -18.22412         1.64676        10.74403
| 86>    C      -17.04913         1.31767        10.10896
| 87>    C      -15.85674         1.96473        10.44501
| 88>    C      -14.60475         1.63162         9.76067
| 89>    O      -14.51729         0.80450         8.86886
| 90>    C      -12.48095         4.20614        11.72673
| 91>    H       -7.06948        -7.02532        -7.23612
| 92>    H       -2.56593        -6.85290        -9.25454
| 93>    H       -4.49494        -7.61409       -10.60739
| 94>    H       -6.74831        -7.70466        -9.60778
| 95>    H       -0.68520        -5.95817        -5.32380
| 96>    H       -1.50888        -5.38529        -3.85385
| 97>    H       -1.25175        -4.29098        -5.22289
| 98>    H       -6.85377        -2.80932        -0.10241
| 99>    H       -9.32877        -0.79018         2.58412
|100>    H       -8.59733         0.80330         0.71496
|101>    H       -6.93901         0.22082         1.02628
|102>    H       -8.67547         1.55581         2.96252
|103>    H       -7.17417         2.00719         2.45380
|104>    H       -9.36304        -2.70946         0.83913
|105>    H       -8.50991        -1.56671        -0.22692
|106>    H      -11.08029        -0.99894         1.02345
|107>    H      -10.78457        -1.24410        -0.57018
|108>    H       -8.48635        -0.10320         4.62264
|109>    H       -6.48912         0.15253         6.19710
|110>    H       -5.94316        -1.94573         7.62363
|111>    H       -5.05077        -3.51022         5.93628
|112>    H       -4.17091        -4.59296         3.70670
|113>    H       -3.72119        -5.29916         1.38845
|114>    H       -8.61758        -1.28783         7.77878
|115>    H       -8.33000         1.56414         6.71041
|116>    H      -17.05588         4.05703        12.82756
|117>    H      -19.15492         2.89068        12.22338
|118>    H      -19.14193         1.14325        10.48233
|119>    H      -17.00972         0.56062         9.34080
|120>    H      -11.66449         4.25980        11.01294
|121>    H      -12.10833         3.78364        12.66012
|122>    H      -12.85950         5.20425        11.93357
|123> *
|124>
|125>                          ****END OF INPUT****

CARTESIAN COORDINATES (ANGSTROEM)
---------------------------------
  C     -6.097650   -6.994680   -7.704610
  C     -5.017930   -6.557050   -6.932520
  C     -3.745150   -6.513030   -7.507300
  C     -3.558860   -6.895960   -8.835780
  C     -4.638760   -7.318690   -9.579180
  C     -5.911260   -7.369770   -9.014830
  O     -2.650980   -6.116550   -6.811420
  C     -2.780780   -5.718180   -5.541680
  C     -1.475380   -5.319100   -4.937110
  C     -3.967160   -5.701000   -4.889610
  C     -5.207180   -6.167120   -5.533160
  O     -6.279370   -6.211880   -4.953910
  C     -4.151140   -5.267250   -3.503320
  C     -4.051030   -3.938750   -3.077260
  C     -3.620260   -2.835450   -3.945450
  O     -3.292540   -2.873490   -5.096670
  S     -3.641340   -1.309960   -2.998260
  C     -4.183130   -2.126910   -1.488450
  O     -4.316880   -1.534920   -0.457690
  C     -4.396580   -3.554710   -1.774650
  C     -4.903190   -4.468190   -0.842150
  C     -5.029420   -5.790440   -1.280470
  C     -4.644010   -6.179510   -2.564640
  C     -4.773180   -7.619810   -2.834100
  O     -4.373440   -8.237740   -3.776550
  S     -5.585400   -8.390410   -1.429610
  C     -5.633630   -6.865790   -0.477040
  O     -6.110990   -6.796380    0.617440
  C     -5.263760   -4.065960    0.525230
  C     -6.290170   -3.180830    0.737300
  C     -6.578330   -2.747480    2.045170
  C     -7.501100   -1.824900    2.543160
  C     -8.529120   -0.998120    1.864170
  C     -7.924270    0.377280    1.472790
  N     -7.774970    1.215330    2.641940
  C     -9.179340   -1.642280    0.632550
  N    -10.382140   -0.899930    0.293790
  C     -7.217950   -1.682470    3.950960
  C     -7.710640   -0.814800    4.856250
  C     -7.132360   -0.746310    6.227220
  C     -6.234480   -1.879930    6.586850
  C     -5.747800   -2.733220    5.659040
  C     -6.159870   -2.621520    4.313000
  C     -5.769180   -3.260450    3.137260
  C     -4.756990   -4.202890    2.888440
  C     -4.510440   -4.594830    1.605480
  C     -8.220310   -0.451390    7.224900
  C     -8.726850    0.769460    7.331560
  C     -9.880170    1.160090    8.132800
  C     -9.979900    0.998440    9.519090
  C     -8.926700    0.404770   10.354210
  O     -7.833750    0.032590   10.037690
  S     -9.517770    0.312390   12.051000
  C    -11.083900    1.101840   11.664190
  O    -11.920470    1.312280   12.495750
  C    -11.114590    1.417530   10.231660
  C    -12.185570    2.061080    9.603310
  C    -12.078630    2.230920    8.218680
  C    -10.969990    1.774990    7.501000
  C    -11.075540    1.951490    6.048420
  O    -10.298180    1.601640    5.199410
  S    -12.612250    2.787290    5.675430
  C    -13.084920    2.927490    7.410040
  O    -14.037650    3.553290    7.769860
  C    -13.449720    2.395810   10.261770
  C    -13.590190    3.348280   11.213970
  O    -14.761240    3.637740   11.790860
  C    -15.876040    2.955420   11.430020
  C    -17.069330    3.287960   12.071600
  C    -18.231420    2.633440   11.727220
  C    -18.224120    1.646760   10.744030
  C    -17.049130    1.317670   10.108960
  C    -15.856740    1.964730   10.445010
  C    -14.604750    1.631620    9.760670
  O    -14.517290    0.804500    8.868860
  C    -12.480950    4.206140   11.726730
  H     -7.069480   -7.025320   -7.236120
  H     -2.565930   -6.852900   -9.254540
  H     -4.494940   -7.614090  -10.607390
  H     -6.748310   -7.704660   -9.607780
  H     -0.685200   -5.958170   -5.323800
  H     -1.508880   -5.385290   -3.853850
  H     -1.251750   -4.290980   -5.222890
  H     -6.853770   -2.809320   -0.102410
  H     -9.328770   -0.790180    2.584120
  H     -8.597330    0.803300    0.714960
  H     -6.939010    0.220820    1.026280
  H     -8.675470    1.555810    2.962520
  H     -7.174170    2.007190    2.453800
  H     -9.363040   -2.709460    0.839130
  H     -8.509910   -1.566710   -0.226920
  H    -11.080290   -0.998940    1.023450
  H    -10.784570   -1.244100   -0.570180
  H     -8.486350   -0.103200    4.622640
  H     -6.489120    0.152530    6.197100
  H     -5.943160   -1.945730    7.623630
  H     -5.050770   -3.510220    5.936280
  H     -4.170910   -4.592960    3.706700
  H     -3.721190   -5.299160    1.388450
  H     -8.617580   -1.287830    7.778780
  H     -8.330000    1.564140    6.710410
  H    -17.055880    4.057030   12.827560
  H    -19.154920    2.890680   12.223380
  H    -19.141930    1.143250   10.482330
  H    -17.009720    0.560620    9.340800
  H    -11.664490    4.259800   11.012940
  H    -12.108330    3.783640   12.660120
  H    -12.859500    5.204250   11.933570

 Total Charge           Charge          ....    0
 Multiplicity           Mult            ....    1
 Number of Electrons    NEL             ....  554
 Basis Dimension        Dim             .... 1240

ORBITAL ENERGIES
----------------

  NO   OCC          E(Eh)            E(eV)
   0   2.0000     -88.954769     -2420.5823
   1   2.0000     -88.954725     -2420.5811
   2   2.0000     -88.944487     -2420.3025
   3   2.0000     -88.939142     -2420.1571
   4   2.0000     -19.303394      -525.2721
   5   2.0000     -19.295712      -525.0630
   6   2.0000     -19.250471      -523.8319
   7   2.0000     -19.248984      -523.7915
   8   2.0000     -19.246368      -523.7203
   9   2.0000     -19.244818      -523.6781
  10   2.0000     -19.238978      -523.5192
  11   2.0000     -19.233316      -523.3651
  12   2.0000     -19.231738      -523.3222
  13   2.0000     -19.230448      -523.2871
  14   2.0000     -19.193395      -522.2788
  15   2.0000     -19.185293      -522.0584
  16   2.0000     -14.371578      -391.0705
  17   2.0000     -14.366107      -390.9216
  18   2.0000     -10.411952      -283.3236
  19   2.0000     -10.411373      -283.3079
  20   2.0000     -10.409181      -283.2482
  21   2.0000     -10.408686      -283.2347
  22   2.0000     -10.401429      -283.0373
  23   2.0000     -10.397585      -282.9327
  24   2.0000     -10.394504      -282.8488
  25   2.0000     -10.393079      -282.8100
  26   2.0000     -10.372457      -282.2489
  27   2.0000     -10.363540      -282.0063
  28   2.0000     -10.357585      -281.8442
  29   2.0000     -10.355439      -281.7858
  30   2.0000     -10.349438      -281.6225
  31   2.0000     -10.348906      -281.6081
  32   2.0000     -10.336629      -281.2740
  33   2.0000     -10.335878      -281.2535
  34   2.0000     -10.332328      -281.1569
  35   2.0000     -10.330431      -281.1053
  36   2.0000     -10.330249      -281.1004
  37   2.0000     -10.328211      -281.0449
  38   2.0000     -10.324044      -280.9315
  39   2.0000     -10.320506      -280.8352
  40   2.0000     -10.319808      -280.8163
  41   2.0000     -10.317148      -280.7439
  42   2.0000     -10.316915      -280.7375
  43   2.0000     -10.314825      -280.6806
  44   2.0000     -10.288817      -279.9729
  45   2.0000     -10.287779      -279.9447
  46   2.0000     -10.287309      -279.9319
  47   2.0000     -10.285543      -279.8839
  48   2.0000     -10.285065      -279.8709
  49   2.0000     -10.284907      -279.8665
  50   2.0000     -10.283090      -279.8171
  51   2.0000     -10.282957      -279.8135
  52   2.0000     -10.282572      -279.8030
  53   2.0000     -10.281811      -279.7823
  54   2.0000     -10.280635      -279.7503
  55   2.0000     -10.279046      -279.7071
  56   2.0000     -10.278965      -279.7049
  57   2.0000     -10.278930      -279.7039
  58   2.0000     -10.278521      -279.6928
  59   2.0000     -10.278275      -279.6861
  60   2.0000     -10.276747      -279.6445
  61   2.0000     -10.272706      -279.5346
  62   2.0000     -10.272445      -279.5274
  63   2.0000     -10.266558      -279.3672
  64   2.0000     -10.261730      -279.2359
  65   2.0000     -10.257252      -279.1140
  66   2.0000     -10.256273      -279.0874
  67   2.0000     -10.253326      -279.0072
  68   2.0000     -10.252193      -278.9763
  69   2.0000     -10.251169      -278.9485
  70   2.0000     -10.250602      -278.9331
  71   2.0000     -10.248172      -278.8669
  72   2.0000     -10.246101      -278.8106
  73   2.0000     -10.243393      -278.7369
  74   2.0000     -10.243248      -278.7329
  75   2.0000     -10.240502      -278.6582
  76   2.0000      -8.054013      -219.1608
  77   2.0000      -8.053986      -219.1601
  78   2.0000      -8.043705      -218.8803
  79   2.0000      -8.038338      -218.7343
  80   2.0000      -6.022883      -163.8910
  81   2.0000      -6.022846      -163.8900
  82   2.0000      -6.019599      -163.8016
  83   2.0000      -6.019569      -163.8008
  84   2.0000      -6.015088      -163.6789
  85   2.0000      -6.015012      -163.6768
  86   2.0000      -6.012550      -163.6098
  87   2.0000      -6.009303      -163.5214
  88   2.0000      -6.007201      -163.4643
  89   2.0000      -6.004806      -163.3991
  90   2.0000      -6.003929      -163.3752
  91   2.0000      -5.999418      -163.2525
  92   2.0000      -1.218791       -33.1650
  93   2.0000      -1.211133       -32.9566
  94   2.0000      -1.171673       -31.8829
  95   2.0000      -1.170886       -31.8614
  96   2.0000      -1.166893       -31.7528
  97   2.0000      -1.165892       -31.7255
  98   2.0000      -1.161821       -31.6148
  99   2.0000      -1.155722       -31.4488
 100   2.0000      -1.154941       -31.4275
 101   2.0000      -1.150976       -31.3196
 102   2.0000      -1.113290       -30.2941
 103   2.0000      -1.105159       -30.0729
 104   2.0000      -1.023793       -27.8588
 105   2.0000      -1.011148       -27.5147
 106   2.0000      -0.971003       -26.4223
 107   2.0000      -0.967418       -26.3248
 108   2.0000      -0.966628       -26.3033
 109   2.0000      -0.960212       -26.1287
 110   2.0000      -0.957446       -26.0534
 111   2.0000      -0.954550       -25.9746
 112   2.0000      -0.945144       -25.7187
 113   2.0000      -0.940547       -25.5936
 114   2.0000      -0.937662       -25.5151
 115   2.0000      -0.930484       -25.3198
 116   2.0000      -0.922917       -25.1139
 117   2.0000      -0.909288       -24.7430
 118   2.0000      -0.898690       -24.4546
 119   2.0000      -0.890979       -24.2448
 120   2.0000      -0.877902       -23.8889
 121   2.0000      -0.873974       -23.7820
 122   2.0000      -0.866240       -23.5716
 123   2.0000      -0.861720       -23.4486
 124   2.0000      -0.854672       -23.2568
 125   2.0000      -0.847320       -23.0567
 126   2.0000      -0.841851       -22.9079
 127   2.0000      -0.840403       -22.8685
 128   2.0000      -0.832001       -22.6399
 129   2.0000      -0.819990       -22.3131
 130   2.0000      -0.815437       -22.1892
 131   2.0000      -0.814773       -22.1711
 132   2.0000      -0.807667       -21.9777
 133   2.0000      -0.803799       -21.8725
 134   2.0000      -0.790316       -21.5056
 135   2.0000      -0.788338       -21.4518
 136   2.0000      -0.765195       -20.8220
 137   2.0000      -0.755146       -20.5486
 138   2.0000      -0.747327       -20.3358
 139   2.0000      -0.739531       -20.1237
 140   2.0000      -0.737926       -20.0800
 141   2.0000      -0.729108       -19.8400
 142   2.0000      -0.723280       -19.6814
 143   2.0000      -0.716004       -19.4834
 144   2.0000      -0.715156       -19.4604
 145   2.0000      -0.707249       -19.2452
 146   2.0000      -0.702841       -19.1253
 147   2.0000      -0.694349       -18.8942
 148   2.0000      -0.685316       -18.6484
 149   2.0000      -0.682785       -18.5795
 150   2.0000      -0.674051       -18.3419
 151   2.0000      -0.667970       -18.1764
 152   2.0000      -0.657934       -17.9033
 153   2.0000      -0.655680       -17.8420
 154   2.0000      -0.652693       -17.7607
 155   2.0000      -0.650228       -17.6936
 156   2.0000      -0.644390       -17.5347
 157   2.0000      -0.642295       -17.4777
 158   2.0000      -0.638251       -17.3677
 159   2.0000      -0.633747       -17.2451
 160   2.0000      -0.620582       -16.8869
 161   2.0000      -0.620213       -16.8769
 162   2.0000      -0.617297       -16.7975
 163   2.0000      -0.611587       -16.6421
 164   2.0000      -0.605122       -16.4662
 165   2.0000      -0.604313       -16.4442
 166   2.0000      -0.598670       -16.2906
 167   2.0000      -0.594994       -16.1906
 168   2.0000      -0.594127       -16.1670
 169   2.0000      -0.586685       -15.9645
 170   2.0000      -0.582530       -15.8514
 171   2.0000      -0.579922       -15.7805
 172   2.0000      -0.576687       -15.6924
 173   2.0000      -0.571422       -15.5492
 174   2.0000      -0.571261       -15.5448
 175   2.0000      -0.567964       -15.4551
 176   2.0000      -0.562830       -15.3154
 177   2.0000      -0.560713       -15.2578
 178   2.0000      -0.558091       -15.1864
 179   2.0000      -0.555634       -15.1196
 180   2.0000      -0.554380       -15.0855
 181   2.0000      -0.551243       -15.0001
 182   2.0000      -0.550454       -14.9786
 183   2.0000      -0.544667       -14.8211
 184   2.0000      -0.542442       -14.7606
 185   2.0000      -0.541425       -14.7329
 186   2.0000      -0.539416       -14.6783
 187   2.0000      -0.537547       -14.6274
 188   2.0000      -0.536373       -14.5954
 189   2.0000      -0.533715       -14.5231
 190   2.0000      -0.532203       -14.4820
 191   2.0000      -0.530837       -14.4448
 192   2.0000      -0.527156       -14.3447
 193   2.0000      -0.526681       -14.3317
 194   2.0000      -0.525763       -14.3067
 195   2.0000      -0.524011       -14.2591
 196   2.0000      -0.521879       -14.2011
 197   2.0000      -0.519238       -14.1292
 198   2.0000      -0.517678       -14.0867
 199   2.0000      -0.515692       -14.0327
 200   2.0000      -0.515223       -14.0199
 201   2.0000      -0.514191       -13.9918
 202   2.0000      -0.512558       -13.9474
 203   2.0000      -0.508472       -13.8362
 204   2.0000      -0.508091       -13.8258
 205   2.0000      -0.506882       -13.7930
 206   2.0000      -0.503904       -13.7119
 207   2.0000      -0.502793       -13.6817
 208   2.0000      -0.500674       -13.6240
 209   2.0000      -0.499954       -13.6044
 210   2.0000      -0.499396       -13.5893
 211   2.0000      -0.496995       -13.5239
 212   2.0000      -0.492298       -13.3961
 213   2.0000      -0.492150       -13.3921
 214   2.0000      -0.489680       -13.3249
 215   2.0000      -0.487229       -13.2582
 216   2.0000      -0.484325       -13.1792
 217   2.0000      -0.483563       -13.1584
 218   2.0000      -0.479933       -13.0596
 219   2.0000      -0.477817       -13.0021
 220   2.0000      -0.475292       -12.9334
 221   2.0000      -0.473775       -12.8921
 222   2.0000      -0.472627       -12.8608
 223   2.0000      -0.469401       -12.7730
 224   2.0000      -0.467103       -12.7105
 225   2.0000      -0.463749       -12.6193
 226   2.0000      -0.462099       -12.5744
 227   2.0000      -0.459102       -12.4928
 228   2.0000      -0.455379       -12.3915
 229   2.0000      -0.452493       -12.3130
 230   2.0000      -0.451034       -12.2733
 231   2.0000      -0.449665       -12.2360
 232   2.0000      -0.445226       -12.1152
 233   2.0000      -0.444109       -12.0848
 234   2.0000      -0.442393       -12.0381
 235   2.0000      -0.437414       -11.9026
 236   2.0000      -0.432885       -11.7794
 237   2.0000      -0.428647       -11.6641
 238   2.0000      -0.426416       -11.6034
 239   2.0000      -0.421850       -11.4791
 240   2.0000      -0.420029       -11.4296
 241   2.0000      -0.406151       -11.0519
 242   2.0000      -0.398222       -10.8362
 243   2.0000      -0.390767       -10.6333
 244   2.0000      -0.385324       -10.4852
 245   2.0000      -0.380261       -10.3474
 246   2.0000      -0.379169       -10.3177
 247   2.0000      -0.378296       -10.2940
 248   2.0000      -0.373949       -10.1757
 249   2.0000      -0.370949       -10.0940
 250   2.0000      -0.367592       -10.0027
 251   2.0000      -0.366374        -9.9695
 252   2.0000      -0.363463        -9.8903
 253   2.0000      -0.362220        -9.8565
 254   2.0000      -0.356542        -9.7020
 255   2.0000      -0.355026        -9.6608
 256   2.0000      -0.349972        -9.5232
 257   2.0000      -0.347343        -9.4517
 258   2.0000      -0.346470        -9.4279
 259   2.0000      -0.344745        -9.3810
 260   2.0000      -0.342967        -9.3326
 261   2.0000      -0.338864        -9.2210
 262   2.0000      -0.336136        -9.1467
 263   2.0000      -0.333120        -9.0647
 264   2.0000      -0.330693        -8.9986
 265   2.0000      -0.329142        -8.9564
 266   2.0000      -0.328513        -8.9393
 267   2.0000      -0.322737        -8.7821
 268   2.0000      -0.320202        -8.7131
 269   2.0000      -0.317830        -8.6486
 270   2.0000      -0.310414        -8.4468
 271   2.0000      -0.301472        -8.2035
 272   2.0000      -0.298794        -8.1306
 273   2.0000      -0.292730        -7.9656
 274   2.0000      -0.286621        -7.7993
 275   2.0000      -0.271343        -7.3836
 276   2.0000      -0.202225        -5.5028
 277   0.0000      -0.103786        -2.8242
 278   0.0000      -0.089372        -2.4319
 279   0.0000      -0.060343        -1.6420
 280   0.0000      -0.053825        -1.4647
 281   0.0000      -0.040597        -1.1047

MULLIKEN ATOMIC CHARGES
-----------------------
   0 C :   -0.004559
   1 C :   -0.049884
   2 C :    0.186995
   3 C :   -0.035274
   4 C :    0.042942
   5 C :    0.038196
   6 O :   -0.197925
   7 C :    0.014075
   8 C :    0.114420
   9 C :   -0.126152
  10 C :    0.183065
  11 O :   -0.198603
  12 C :   -0.012978
  13 C :    0.058347
  14 C :    0.027337
  15 O :   -0.132510
  16 S :    0.009473
  17 C :    0.018527
  18 O :   -0.104588
  19 C :    0.054810
  20 C :   -0.013191
  21 C :    0.051891
  22 C :    0.046695
  23 C :    0.047122
  24 O :   -0.130427
  25 S :    0.013903
  26 C :    0.027119
  27 O :   -0.105126
  28 C :   -0.007042
  29 C :   -0.009636
  30 C :    0.036196
  31 C :    0.009680
  32 C :   -0.089588
  33 C :    0.152914
  34 N :   -0.228321
  35 C :    0.115409
  36 N :   -0.212332
  37 C :    0.075419
  38 C :   -0.068750
  39 C :    0.107700
  40 C :   -0.063937
  41 C :    0.019347
  42 C :    0.015172
  43 C :    0.042958
  44 C :   -0.018604
  45 C :    0.041728
  46 C :    0.011074
  47 C :   -0.037688
  48 C :    0.006256
  49 C :    0.046244
  50 C :    0.019591
  51 O :   -0.112316
  52 S :    0.018283
  53 C :    0.030444
  54 O :   -0.130177
  55 C :    0.064890
  56 C :   -0.010265
  57 C :    0.047895
  58 C :    0.042006
  59 C :    0.042736
  60 O :   -0.134642
  61 S :    0.026635
  62 C :    0.049097
  63 O :   -0.121266
  64 C :   -0.127358
  65 C :    0.016772
  66 O :   -0.197182
  67 C :    0.189041
  68 C :   -0.035514
  69 C :    0.042676
  70 C :    0.037966
  71 C :   -0.006222
  72 C :   -0.052172
  73 C :    0.182130
  74 O :   -0.197814
  75 C :    0.111753
  76 H :   -0.001383
  77 H :   -0.015553
  78 H :   -0.003525
  79 H :   -0.009315
  80 H :    0.034556
  81 H :    0.030662
  82 H :    0.059353
  83 H :   -0.056874
  84 H :   -0.026121
  85 H :   -0.001028
  86 H :   -0.004385
  87 H :    0.098033
  88 H :    0.091420
  89 H :    0.001151
  90 H :    0.005717
  91 H :    0.089704
  92 H :    0.090085
  93 H :   -0.018961
  94 H :    0.066578
  95 H :   -0.012404
  96 H :   -0.039073
  97 H :   -0.042517
  98 H :   -0.041055
  99 H :    0.009725
 100 H :    0.021341
 101 H :   -0.012650
 102 H :   -0.001533
 103 H :   -0.007156
 104 H :    0.001983
 105 H :    0.029738
 106 H :    0.061250
 107 H :    0.037353
Sum of atomic charges:   -0.0000000

LOEWDIN ATOMIC CHARGES
----------------------
   0 C :    0.024072
   1 C :   -0.079777
   2 C :    0.070238
   3 C :   -0.037977
   4 C :    0.001274
   5 C :   -0.029572
   6 O :    0.007331
   7 C :    0.106333
   8 C :   -0.052417
   9 C :   -0.128458
  10 C :    0.077790
  11 O :   -0.195030
  12 C :    0.039410
  13 C :   -0.052184
  14 C :   -0.043230
  15 O :   -0.118402
  16 S :    0.295848
  17 C :   -0.043492
  18 O :   -0.099887
  19 C :   -0.056552
  20 C :    0.049324
  21 C :   -0.050930
  22 C :   -0.034408
  23 C :   -0.038478
  24 O :   -0.112400
  25 S :    0.301334
  26 C :   -0.044241
  27 O :   -0.096495
  28 C :   -0.043218
  29 C :    0.006803
  30 C :   -0.024933
  31 C :   -0.021511
  32 C :   -0.041455
  33 C :    0.028582
  34 N :   -0.106336
  35 C :    0.024358
  36 N :   -0.115016
  37 C :   -0.021829
  38 C :    0.094626
  39 C :   -0.033694
  40 C :   -0.050309
  41 C :   -0.012131
  42 C :   -0.045300
  43 C :   -0.026336
  44 C :   -0.007709
  45 C :   -0.026790
  46 C :    0.036688
  47 C :   -0.044236
  48 C :    0.040911
  49 C :   -0.057437
  50 C :   -0.043259
  51 O :   -0.106377
  52 S :    0.303519
  53 C :   -0.042401
  54 O :   -0.114744
  55 C :   -0.048675
  56 C :    0.041749
  57 C :   -0.033179
  58 C :   -0.053540
  59 C :   -0.036902
  60 O :   -0.124343
  61 S :    0.311352
  62 C :   -0.033058
  63 O :   -0.103159
  64 C :   -0.130886
  65 C :    0.108028
  66 O :    0.008250
  67 C :    0.069762
  68 C :   -0.037432
  69 C :    0.002876
  70 C :   -0.027961
  71 C :    0.024430
  72 C :   -0.080325
  73 C :    0.077831
  74 O :   -0.194789
  75 C :   -0.052341
  76 H :    0.038902
  77 H :    0.035924
  78 H :    0.033437
  79 H :    0.031043
  80 H :    0.043811
  81 H :    0.038980
  82 H :    0.049518
  83 H :    0.019401
  84 H :    0.021593
  85 H :    0.000905
  86 H :    0.018794
  87 H :    0.050319
  88 H :    0.054219
  89 H :    0.004808
  90 H :    0.015618
  91 H :    0.051465
  92 H :    0.054593
  93 H :    0.025252
  94 H :    0.076839
  95 H :    0.024086
  96 H :    0.027722
  97 H :    0.025636
  98 H :    0.019941
  99 H :    0.028631
 100 H :    0.035354
 101 H :    0.036712
 102 H :    0.034325
 103 H :    0.031947
 104 H :    0.039648
 105 H :    0.038335
 106 H :    0.050209
 107 H :    0.044858

  Mayer bond orders larger than 0.100000
B(  0-C ,  1-C ) :   1.3378 B(  0-C ,  5-C ) :   1.3982 B(  0-C , 76-H ) :   0.9984
B(  1-C ,  2-C ) :   1.3389 B(  1-C , 10-C ) :   0.9877 B(  2-C ,  3-C ) :   1.3526
B(  2-C ,  6-O ) :   1.0815 B(  3-C ,  4-C ) :   1.4151 B(  3-C , 77-H ) :   0.9941
B(  4-C ,  5-C ) :   1.3280 B(  4-C , 78-H ) :   0.9896 B(  5-C , 79-H ) :   0.9936
B(  6-O ,  7-C ) :   1.1560 B(  7-C ,  8-C ) :   1.1258 B(  7-C ,  9-C ) :   1.6030
B(  8-C , 80-H ) :   0.9339 B(  8-C , 81-H ) :   0.9422 B(  8-C , 82-H ) :   0.9277
B(  9-C , 10-C ) :   1.0267 B(  9-C , 12-C ) :   0.9522 B( 10-C , 11-O ) :   2.1758
B( 12-C , 13-C ) :   1.4377 B( 12-C , 22-C ) :   1.4038 B( 13-C , 14-C ) :   0.8400
B( 13-C , 19-C ) :   1.2857 B( 14-C , 15-O ) :   2.1620 B( 14-C , 16-S ) :   1.0331
B( 15-O , 16-S ) :   0.1096 B( 16-S , 17-C ) :   1.0140 B( 16-S , 18-O ) :   0.1065
B( 17-C , 18-O ) :   2.1978 B( 17-C , 19-C ) :   0.8341 B( 19-C , 20-C ) :   1.4283
B( 20-C , 21-C ) :   1.3898 B( 20-C , 28-C ) :   0.9814 B( 21-C , 22-C ) :   1.3193
B( 21-C , 26-C ) :   0.8397 B( 22-C , 23-C ) :   0.8403 B( 23-C , 24-O ) :   2.1767
B( 23-C , 25-S ) :   1.0282 B( 24-O , 25-S ) :   0.1087 B( 25-S , 26-C ) :   1.0220
B( 25-S , 27-O ) :   0.1088 B( 26-C , 27-O ) :   2.1984 B( 28-C , 29-C ) :   1.5502
B( 28-C , 45-C ) :   1.1560 B( 29-C , 30-C ) :   1.1472 B( 29-C , 83-H ) :   0.9864
B( 30-C , 31-C ) :   1.4586 B( 30-C , 43-C ) :   1.1383 B( 31-C , 32-C ) :   1.0141
B( 31-C , 37-C ) :   1.1376 B( 32-C , 33-C ) :   1.0123 B( 32-C , 35-C ) :   1.0397
B( 32-C , 84-H ) :   0.9001 B( 33-C , 34-N ) :   1.1078 B( 33-C , 85-H ) :   0.9391
B( 33-C , 86-H ) :   0.9314 B( 34-N , 87-H ) :   0.9596 B( 34-N , 88-H ) :   0.9694
B( 35-C , 36-N ) :   1.0662 B( 35-C , 89-H ) :   0.9543 B( 35-C , 90-H ) :   0.9228
B( 36-N , 91-H ) :   0.9706 B( 36-N , 92-H ) :   0.9673 B( 37-C , 38-C ) :   1.6295
B( 37-C , 42-C ) :   1.0626 B( 38-C , 39-C ) :   0.9885 B( 38-C , 93-H ) :   0.9502
B( 39-C , 40-C ) :   0.9735 B( 39-C , 46-C ) :   0.9822 B( 39-C , 94-H ) :   0.8415
B( 40-C , 41-C ) :   1.6946 B( 40-C , 95-H ) :   0.9846 B( 41-C , 42-C ) :   1.1370
B( 41-C , 96-H ) :   0.9902 B( 42-C , 43-C ) :   1.3986 B( 43-C , 44-C ) :   1.1644
B( 44-C , 45-C ) :   1.5815 B( 44-C , 97-H ) :   0.9924 B( 45-C , 98-H ) :   0.9812
B( 46-C , 47-C ) :   1.8645 B( 46-C , 99-H ) :   0.9838 B( 47-C , 48-C ) :   1.0435
B( 47-C ,100-H ) :   0.9321 B( 48-C , 49-C ) :   1.3985 B( 48-C , 58-C ) :   1.3681
B( 49-C , 50-C ) :   0.8384 B( 49-C , 55-C ) :   1.2847 B( 50-C , 51-O ) :   2.2009
B( 50-C , 52-S ) :   1.0217 B( 51-O , 52-S ) :   0.1070 B( 52-S , 53-C ) :   1.0325
B( 52-S , 54-O ) :   0.1097 B( 53-C , 54-O ) :   2.1624 B( 53-C , 55-C ) :   0.8402
B( 55-C , 56-C ) :   1.4381 B( 56-C , 57-C ) :   1.4056 B( 56-C , 64-C ) :   0.9509
B( 57-C , 58-C ) :   1.3216 B( 57-C , 62-C ) :   0.8428 B( 58-C , 59-C ) :   0.8559
B( 59-C , 60-O ) :   2.1148 B( 59-C , 61-S ) :   1.0508 B( 60-O , 61-S ) :   0.1073
B( 61-S , 62-C ) :   1.0142 B( 61-S , 63-O ) :   0.1060 B( 62-C , 63-O ) :   2.1866
B( 64-C , 65-C ) :   1.5999 B( 64-C , 73-C ) :   1.0240 B( 65-C , 66-O ) :   1.1593
B( 65-C , 75-C ) :   1.1245 B( 66-O , 67-C ) :   1.0803 B( 67-C , 68-C ) :   1.3535
B( 67-C , 72-C ) :   1.3376 B( 68-C , 69-C ) :   1.4139 B( 68-C ,101-H ) :   0.9951
B( 69-C , 70-C ) :   1.3261 B( 69-C ,102-H ) :   0.9906 B( 70-C , 71-C ) :   1.3998
B( 70-C ,103-H ) :   0.9941 B( 71-C , 72-C ) :   1.3351 B( 71-C ,104-H ) :   0.9994
B( 72-C , 73-C ) :   0.9894 B( 73-C , 74-O ) :   2.1766 B( 75-C ,105-H ) :   0.9426
B( 75-C ,106-H ) :   0.9275 B( 75-C ,107-H ) :   0.9346

-----------------------------------------------------------------------------
         ABSORPTION SPECTRUM VIA TRANSITION ELECTRIC DIPOLE MOMENTS
-----------------------------------------------------------------------------
State   Energy  Wavelength   fosc         T2         TX        TY        TZ
        (cm-1)    (nm)                  (au**2)     (au)      (au)      (au)
-----------------------------------------------------------------------------
   0    8145.2   1227.7   0.000990721   0.04004   0.09873   0.13256  -0.11280
   1    8692.0   1150.5   0.000181894   0.00689   0.00211  -0.00153   0.08296
   2   13862.2    721.4   0.040069596   0.95161  -0.69634   0.46846  -0.49726
   3   17424.4    573.9   0.019401507   0.36657  -0.33587   0.27173   0.42417
   4   18049.1    554.0   0.129593735   2.36377   0.15604  -0.37501  -1.48283
   5   21308.2    469.3   0.003286456   0.05078  -0.19388   0.09912  -0.05798
   6   21568.7    463.6   0.000616042   0.00940  -0.01651   0.01931   0.09358
   7   22746.9    439.6   0.000531103   0.00769   0.00091  -0.01283  -0.08672
   8   23228.9    430.5   0.016638461   0.23581   0.09555   0.47606   0.00682
   9   23482.8    425.8   0.032719809   0.45871  -0.34406   0.26842  -0.51796
  10   23800.3    420.2   0.003858329   0.05337   0.01744  -0.13962  -0.18323
  11   24046.2    415.9   0.000719942   0.00986  -0.05236   0.06522   0.05350
  12   26792.4    373.2   0.004677330   0.05747  -0.00713   0.23615   0.04066
  13   26847.0    372.5   0.021987459   0.26962  -0.43080   0.08076   0.27841
  14   27128.8    368.6   0.000256215   0.00311   0.03101  -0.04624  -0.00310
  15   27572.0    362.7   0.277200997   3.30980  -0.86353   1.30024   0.93461
  16   28078.6    356.1   0.014377129   0.16857   0.11564  -0.15880  -0.36052
  17   28460.5    351.4   0.019846454   0.22957  -0.43831   0.12200   0.15023
  18   28609.6    349.5   0.011341129   0.13050  -0.17768   0.21474  -0.22983
  19   30011.2    333.2   0.018115022   0.19871  -0.08636   0.12528   0.41900
  20   30093.8    332.3   0.010118069   0.11069   0.28654  -0.10873   0.12945
  21   30180.3    331.3   0.000533114   0.00582   0.04502   0.00137  -0.06154
  22   30246.8    330.6   0.000052047   0.00057  -0.00655   0.02020   0.01075
  23   30293.9    330.1   0.009465467   0.10286   0.31511  -0.04019  -0.04418
  24   30405.2    328.9   0.006193965   0.06707   0.18854   0.17751  -0.00240
  25   30660.8    326.1   0.007711355   0.08280   0.10057   0.16519  -0.21307
  26   31044.4    322.1   0.066587939   0.70613   0.31472  -0.34011  -0.70101
  27   31183.6    320.7   0.037495625   0.39585  -0.49930   0.09382   0.37114
  28   31506.6    317.4   0.045825306   0.47883   0.30777  -0.33884  -0.51893
  29   31876.2    313.7   0.058268262   0.60178  -0.28558   0.16125   0.70301
  30   31900.7    313.5   0.002417414   0.02495   0.04583  -0.06668  -0.13565
  31   32115.1    311.4   0.029290888   0.30026   0.31772  -0.26349   0.36040
  32   32278.5    309.8   0.022129339   0.22570   0.09886   0.30118  -0.35386
  33   32672.8    306.1   0.136472749   1.37510  -0.00860   0.33184   1.12468
  34   33019.2    302.9   0.130629076   1.30241   0.78120  -0.42912  -0.71274
  35   33290.5    300.4   0.045029094   0.44530   0.55905  -0.36411   0.01350
  36   33445.2    299.0   0.003807483   0.03748  -0.14935  -0.00290   0.12315
  37   33880.2    295.2   0.021202992   0.20603   0.12926   0.36341  -0.23928
  38   34027.8    293.9   0.010964939   0.10608  -0.13150  -0.27614   0.11198
  39   34256.7    291.9   0.009413070   0.09046  -0.03661   0.08030  -0.28753
  40   34277.7    291.7   0.009283880   0.08916  -0.28343   0.08790  -0.03330
  41   34544.9    289.5   0.020514979   0.19551  -0.02316  -0.34354   0.27740
  42   34670.8    288.4   0.142597681   1.35402  -0.77080   0.57758   0.65291
  43   34775.1    287.6   0.007083343   0.06706   0.23434  -0.03883   0.10313
  44   34898.7    286.5   0.048771572   0.46008  -0.13444  -0.29195  -0.59730
  45   34935.7    286.2   0.000243507   0.00229   0.03509  -0.00718   0.03181
  46   35120.9    284.7   0.014136570   0.13251   0.09606  -0.16150  -0.31177
  47   35854.1    278.9   0.030525309   0.28028  -0.00379  -0.39503  -0.35245
  48   35952.3    278.1   0.000102165   0.00094   0.00452   0.01415   0.02674
  49   36127.5    276.8   0.027074551   0.24672  -0.05360  -0.40574  -0.28146
  50   36149.1    276.6   0.001721192   0.01567  -0.11177   0.05623  -0.00468
  51   36702.0    272.5   0.022924243   0.20563  -0.04516   0.29472   0.34165
  52   36991.6    270.3   0.007702958   0.06855  -0.23642  -0.05173  -0.09991
  53   37383.0    267.5   0.039682622   0.34946   0.25440  -0.05623  -0.53065
  54   37483.7    266.8   0.103572741   0.90966  -0.35348   0.47281   0.74910
  55   37885.4    264.0   0.010994830   0.09554  -0.13392  -0.24609  -0.13056
  56   38086.6    262.6   0.025194431   0.21777  -0.33146   0.32236   0.06318
  57   38337.3    260.8   0.270983205   2.32700   0.38471  -0.66694  -1.31688
  58   38448.5    260.1   0.000139183   0.00119  -0.00753   0.02309  -0.02453
  59   38556.1    259.4   0.020346052   0.17373  -0.10203   0.27136   0.29947
  60   38603.1    259.0   0.001501705   0.01281   0.01349  -0.05344  -0.09884
  61   38627.5    258.9   0.000615556   0.00525  -0.04048   0.04555   0.03915
  62   38717.3    258.3   0.002712734   0.02307  -0.06697   0.03616   0.13143
  63   39189.1    255.2   0.065485035   0.55011  -0.48592   0.11430   0.54858
  64   39300.1    254.5   0.007247299   0.06071   0.18337   0.01547  -0.16384
  65   39530.2    253.0   0.276193722   2.30017   0.57706  -0.74156  -1.19049
  66   39659.6    252.1   0.001792095   0.01488   0.07494   0.00111   0.09622
  67   39798.6    251.3   0.437151593   3.61610  -0.59916   0.75896   1.63740
  68   39834.1    251.0   0.246582266   2.03790   0.49420  -0.59769  -1.19851
  69   40035.4    249.8   0.003691597   0.03036  -0.04365   0.05240   0.16033
  70   40048.8    249.7   0.141084826   1.15976  -0.24305   0.35244   0.98817

FINAL SINGLE POINT ENERGY     -4829.965976118564

DIPOLE MOMENT
-------------
                                X             Y             Z
Electronic contribution:      6.63144      -9.84423      10.01454
Nuclear contribution   :     -7.19447      11.68243      -9.25640
                        -----------------------------------------
Total Dipole Moment    :     -0.56303       1.83820       0.75814
                        -----------------------------------------
Magnitude (a.u.)       :      2.06658
Magnitude (Debye)      :      5.25284

Rotational constants in cm-1:     0.002228     0.000232     0.000226
Rotational constants in MHz :    66.794293     6.948689     6.772129

                             ****ORCA TERMINATED NORMALLY****
TOTAL RUN TIME: 0 days 0 hours 21 minutes 25 seconds 680 msec
