                         Program Version 4.2.0 -  RELEASE  -
|  1> # ORCA input file
|  2> # SCF done       -186.326406826583          0.000722346777
|  3> ! CAM-B3LYP def2-SVP def2/J RIJCOSX Grid4 TightSCF
|  4> %maxcore 5000
|  5> %tddft
|  6>     Mode sTDDFT
|  7>     Ethresh 5.0
|  8>     maxcore 5000
|  9> end
| 10>
| 11> %pal
| 12>   nprocs 6
| 13>   end
| 14> * xyz 0 1
| 15>    C        1.26463        -0.63053        -1.12428
| 16>    C        0.13085        -1.08970        -1.80047
| 17>    C        0.19312        -1.26764        -3.18331
| 18>    C        1.36915        -0.99115        -3.88090
| 19>    C        2.47406        -0.53992        -3.19287
| 20>    C        2.42431        -0.35852        -1.81250
| 21>    O       -0.87369        -1.70847        -3.89380
| 22>    C       -2.02485        -2.00298        -3.26949
| 23>    C       -3.06382        -2.45962        -4.24273
| 24>    C       -2.20714        -1.87477        -1.92431
| 25>    C       -1.10691        -1.38639        -1.06644
| 26>    O       -1.19586        -1.25851         0.14094
| 27>    C       -3.43833        -2.22667        -1.24794
| 28>    C       -3.94116        -1.61390        -0.12242
| 29>    C       -5.08207        -2.25790         0.36649
| 30>    C       -5.44088        -3.38509        -0.39147
| 31>    S       -4.38932        -3.63352        -1.71167
| 32>    C       -6.57065        -4.00080         0.19957
| 33>    C       -6.92521        -3.25612         1.34332
| 34>    C       -6.01488        -2.12667         1.47177
| 35>    C       -6.04896        -1.14760         2.42046
| 36>    C       -7.00869        -1.13627         3.45498
| 37>    N       -7.78149        -1.11442         4.30188
| 38>    C       -5.14892        -0.06050         2.42648
| 39>    N       -4.44439         0.84384         2.43862
| 40>    C       -8.00600        -3.79770         2.02357
| 41>    C       -8.48281        -4.95082         1.41025
| 42>    S       -7.58306        -5.35683        -0.04481
| 43>    C       -9.53771        -5.78303         1.86029
| 44>    C       -9.92465        -6.92980         1.13228
| 45>    C      -10.95029        -7.83141         1.59588
| 46>    N      -11.26601        -8.90311         0.86273
| 47>    C      -10.64621        -9.12916        -0.27173
| 48>    C       -9.62717        -8.23427        -0.73193
| 49>    N       -9.30223        -7.17821        -0.02433
| 50>    C       -8.95840        -8.47550        -1.95629
| 51>    N       -8.43432        -8.69287        -2.95156
| 52>    C      -10.99349       -10.26747        -1.03865
| 53>    N      -11.24793       -11.17762        -1.68614
| 54>    C      -11.63329        -7.63394         2.81748
| 55>    C      -11.27486        -6.46391         3.53151
| 56>    C      -10.25225        -5.55633         3.06151
| 57>    N      -10.08628        -4.53265         3.89842
| 58>    S      -11.09634        -4.68130         5.13517
| 59>    N      -11.79907        -6.05082         4.68513
| 60>    C      -12.58798        -8.56950         3.28582
| 61>    C      -13.27384        -8.52658         4.49517
| 62>    C      -14.11015        -9.62022         4.65545
| 63>    C      -14.07458       -10.50813         3.55775
| 64>    S      -12.99925        -9.99222         2.33492
| 65>    C      -14.94645       -11.59343         3.82748
| 66>    C      -15.53174       -11.38287         5.08985
| 67>    C      -15.02613       -10.14627         5.65414
| 68>    C      -15.33088        -9.60516         6.87077
| 69>    C      -16.22548       -10.24009         7.75514
| 70>    N      -16.95365       -10.76969         8.46675
| 71>    C      -14.76924        -8.39465         7.32554
| 72>    N      -14.31930        -7.41222         7.70994
| 73>    C      -16.41431       -12.39975         5.45021
| 74>    C      -16.50845       -13.37540         4.47558
| 75>    S      -15.51987       -13.01551         3.06959
| 76>    C      -17.30904       -14.57264         4.45181
| 77>    C      -17.88164       -15.16752         5.54577
| 78>    O      -18.66200       -16.25576         5.45580
| 79>    C      -18.94531       -16.81070         4.25574
| 80>    C      -19.81587       -17.90133         4.22700
| 81>    C      -20.11321       -18.49604         3.02127
| 82>    C      -19.55097       -18.02256         1.83623
| 83>    C      -18.68802       -16.95263         1.86195
| 84>    C      -18.37522       -16.32881         3.07439
| 85>    C      -17.45820       -15.19630         3.13263
| 86>    O      -16.84026       -14.78983         2.15496
| 87>    C      -17.70658       -14.75958         6.97097
| 88>    H        1.19189        -0.50072        -0.05527
| 89>    H        1.38826        -1.13790        -4.94920
| 90>    H        3.38533        -0.32604        -3.73032
| 91>    H        3.29716        -0.00472        -1.28607
| 92>    H       -2.77982        -2.12936        -5.23901
| 93>    H       -4.04209        -2.06005        -3.98941
| 94>    H       -3.12843        -3.54714        -4.24925
| 95>    H       -3.48811        -0.74594         0.31895
| 96>    H       -8.44599        -3.41020         2.92383
| 97>    H      -13.13996        -7.72435         5.19719
| 98>    H      -16.97910       -12.39666         6.36048
| 99>    H      -20.23918       -18.25517         5.15353
|100>    H      -20.78794       -19.33796         2.99514
|101>    H      -19.79465       -18.50015         0.90005
|102>    H      -18.23377       -16.56452         0.96327
|103>    H      -16.67477       -14.48310         7.17181
|104>    H      -17.99252       -15.59365         7.60785
|105>    H      -18.34778       -13.91401         7.21712
|106> *
|107>
|108>                          ****END OF INPUT****

CARTESIAN COORDINATES (ANGSTROEM)
---------------------------------
  C      1.264630   -0.630530   -1.124280
  C      0.130850   -1.089700   -1.800470
  C      0.193120   -1.267640   -3.183310
  C      1.369150   -0.991150   -3.880900
  C      2.474060   -0.539920   -3.192870
  C      2.424310   -0.358520   -1.812500
  O     -0.873690   -1.708470   -3.893800
  C     -2.024850   -2.002980   -3.269490
  C     -3.063820   -2.459620   -4.242730
  C     -2.207140   -1.874770   -1.924310
  C     -1.106910   -1.386390   -1.066440
  O     -1.195860   -1.258510    0.140940
  C     -3.438330   -2.226670   -1.247940
  C     -3.941160   -1.613900   -0.122420
  C     -5.082070   -2.257900    0.366490
  C     -5.440880   -3.385090   -0.391470
  S     -4.389320   -3.633520   -1.711670
  C     -6.570650   -4.000800    0.199570
  C     -6.925210   -3.256120    1.343320
  C     -6.014880   -2.126670    1.471770
  C     -6.048960   -1.147600    2.420460
  C     -7.008690   -1.136270    3.454980
  N     -7.781490   -1.114420    4.301880
  C     -5.148920   -0.060500    2.426480
  N     -4.444390    0.843840    2.438620
  C     -8.006000   -3.797700    2.023570
  C     -8.482810   -4.950820    1.410250
  S     -7.583060   -5.356830   -0.044810
  C     -9.537710   -5.783030    1.860290
  C     -9.924650   -6.929800    1.132280
  C    -10.950290   -7.831410    1.595880
  N    -11.266010   -8.903110    0.862730
  C    -10.646210   -9.129160   -0.271730
  C     -9.627170   -8.234270   -0.731930
  N     -9.302230   -7.178210   -0.024330
  C     -8.958400   -8.475500   -1.956290
  N     -8.434320   -8.692870   -2.951560
  C    -10.993490  -10.267470   -1.038650
  N    -11.247930  -11.177620   -1.686140
  C    -11.633290   -7.633940    2.817480
  C    -11.274860   -6.463910    3.531510
  C    -10.252250   -5.556330    3.061510
  N    -10.086280   -4.532650    3.898420
  S    -11.096340   -4.681300    5.135170
  N    -11.799070   -6.050820    4.685130
  C    -12.587980   -8.569500    3.285820
  C    -13.273840   -8.526580    4.495170
  C    -14.110150   -9.620220    4.655450
  C    -14.074580  -10.508130    3.557750
  S    -12.999250   -9.992220    2.334920
  C    -14.946450  -11.593430    3.827480
  C    -15.531740  -11.382870    5.089850
  C    -15.026130  -10.146270    5.654140
  C    -15.330880   -9.605160    6.870770
  C    -16.225480  -10.240090    7.755140
  N    -16.953650  -10.769690    8.466750
  C    -14.769240   -8.394650    7.325540
  N    -14.319300   -7.412220    7.709940
  C    -16.414310  -12.399750    5.450210
  C    -16.508450  -13.375400    4.475580
  S    -15.519870  -13.015510    3.069590
  C    -17.309040  -14.572640    4.451810
  C    -17.881640  -15.167520    5.545770
  O    -18.662000  -16.255760    5.455800
  C    -18.945310  -16.810700    4.255740
  C    -19.815870  -17.901330    4.227000
  C    -20.113210  -18.496040    3.021270
  C    -19.550970  -18.022560    1.836230
  C    -18.688020  -16.952630    1.861950
  C    -18.375220  -16.328810    3.074390
  C    -17.458200  -15.196300    3.132630
  O    -16.840260  -14.789830    2.154960
  C    -17.706580  -14.759580    6.970970
  H      1.191890   -0.500720   -0.055270
  H      1.388260   -1.137900   -4.949200
  H      3.385330   -0.326040   -3.730320
  H      3.297160   -0.004720   -1.286070
  H     -2.779820   -2.129360   -5.239010
  H     -4.042090   -2.060050   -3.989410
  H     -3.128430   -3.547140   -4.249250
  H     -3.488110   -0.745940    0.318950
  H     -8.445990   -3.410200    2.923830
  H    -13.139960   -7.724350    5.197190
  H    -16.979100  -12.396660    6.360480
  H    -20.239180  -18.255170    5.153530
  H    -20.787940  -19.337960    2.995140
  H    -19.794650  -18.500150    0.900050
  H    -18.233770  -16.564520    0.963270
  H    -16.674770  -14.483100    7.171810
  H    -17.992520  -15.593650    7.607850
  H    -18.347780  -13.914010    7.217120

 Total Charge           Charge          ....    0
 Multiplicity           Mult            ....    1
 Number of Electrons    NEL             ....  524
 Basis Dimension        Dim             .... 1132

ORBITAL ENERGIES
----------------

  NO   OCC          E(Eh)            E(eV)
   0   2.0000     -89.045221     -2423.0437
   1   2.0000     -88.980110     -2421.2719
   2   2.0000     -88.976932     -2421.1854
   3   2.0000     -88.976238     -2421.1665
   4   2.0000     -88.972491     -2421.0646
   5   2.0000     -19.313991      -525.5604
   6   2.0000     -19.304464      -525.3012
   7   2.0000     -19.208458      -522.6887
   8   2.0000     -19.191523      -522.2279
   9   2.0000     -14.470331      -393.7577
  10   2.0000     -14.470084      -393.7510
  11   2.0000     -14.454340      -393.3226
  12   2.0000     -14.453860      -393.3095
  13   2.0000     -14.434121      -392.7724
  14   2.0000     -14.432608      -392.7312
  15   2.0000     -14.423417      -392.4811
  16   2.0000     -14.420092      -392.3907
  17   2.0000     -14.419539      -392.3756
  18   2.0000     -14.417232      -392.3128
  19   2.0000     -10.387473      -282.6575
  20   2.0000     -10.386656      -282.6353
  21   2.0000     -10.381924      -282.5065
  22   2.0000     -10.373143      -282.2676
  23   2.0000     -10.367922      -282.1255
  24   2.0000     -10.364448      -282.0310
  25   2.0000     -10.356749      -281.8215
  26   2.0000     -10.355707      -281.7931
  27   2.0000     -10.352577      -281.7079
  28   2.0000     -10.351893      -281.6893
  29   2.0000     -10.349748      -281.6310
  30   2.0000     -10.349496      -281.6241
  31   2.0000     -10.345665      -281.5198
  32   2.0000     -10.345391      -281.5124
  33   2.0000     -10.341629      -281.4100
  34   2.0000     -10.340081      -281.3679
  35   2.0000     -10.327840      -281.0348
  36   2.0000     -10.326152      -280.9889
  37   2.0000     -10.325038      -280.9586
  38   2.0000     -10.322262      -280.8830
  39   2.0000     -10.321200      -280.8541
  40   2.0000     -10.320777      -280.8426
  41   2.0000     -10.320128      -280.8250
  42   2.0000     -10.319838      -280.8171
  43   2.0000     -10.318338      -280.7762
  44   2.0000     -10.317878      -280.7637
  45   2.0000     -10.317426      -280.7514
  46   2.0000     -10.316926      -280.7378
  47   2.0000     -10.315958      -280.7115
  48   2.0000     -10.315647      -280.7030
  49   2.0000     -10.314791      -280.6797
  50   2.0000     -10.307437      -280.4796
  51   2.0000     -10.300589      -280.2933
  52   2.0000     -10.297305      -280.2039
  53   2.0000     -10.295061      -280.1428
  54   2.0000     -10.294002      -280.1140
  55   2.0000     -10.292546      -280.0744
  56   2.0000     -10.292084      -280.0618
  57   2.0000     -10.292043      -280.0607
  58   2.0000     -10.291116      -280.0355
  59   2.0000     -10.290673      -280.0234
  60   2.0000     -10.289993      -280.0049
  61   2.0000     -10.289582      -279.9938
  62   2.0000     -10.289429      -279.9896
  63   2.0000     -10.289419      -279.9893
  64   2.0000     -10.289134      -279.9816
  65   2.0000     -10.288991      -279.9777
  66   2.0000     -10.288932      -279.9761
  67   2.0000     -10.286987      -279.9232
  68   2.0000     -10.286274      -279.9037
  69   2.0000     -10.285115      -279.8722
  70   2.0000     -10.284359      -279.8516
  71   2.0000     -10.282820      -279.8098
  72   2.0000     -10.279053      -279.7073
  73   2.0000      -8.136232      -221.3981
  74   2.0000      -8.074456      -219.7171
  75   2.0000      -8.069477      -219.5816
  76   2.0000      -8.068954      -219.5674
  77   2.0000      -8.064723      -219.4523
  78   2.0000      -6.107327      -166.1888
  79   2.0000      -6.099420      -165.9737
  80   2.0000      -6.099112      -165.9653
  81   2.0000      -6.043713      -164.4578
  82   2.0000      -6.039459      -164.3420
  83   2.0000      -6.039062      -164.3312
  84   2.0000      -6.038449      -164.3145
  85   2.0000      -6.036953      -164.2739
  86   2.0000      -6.034286      -164.2013
  87   2.0000      -6.034242      -164.2001
  88   2.0000      -6.033698      -164.1853
  89   2.0000      -6.031916      -164.1368
  90   2.0000      -6.031447      -164.1240
  91   2.0000      -6.029276      -164.0649
  92   2.0000      -6.027373      -164.0132
  93   2.0000      -1.228219       -33.4215
  94   2.0000      -1.218646       -33.1610
  95   2.0000      -1.143248       -31.1094
  96   2.0000      -1.130266       -30.7561
  97   2.0000      -1.128462       -30.7070
  98   2.0000      -1.112379       -30.2694
  99   2.0000      -1.057582       -28.7783
 100   2.0000      -1.032436       -28.0940
 101   2.0000      -1.031105       -28.0578
 102   2.0000      -1.018406       -27.7122
 103   2.0000      -1.012621       -27.5548
 104   2.0000      -1.010357       -27.4932
 105   2.0000      -1.008115       -27.4322
 106   2.0000      -0.999705       -27.2034
 107   2.0000      -0.999192       -27.1894
 108   2.0000      -0.995762       -27.0961
 109   2.0000      -0.992529       -27.0081
 110   2.0000      -0.982864       -26.7451
 111   2.0000      -0.976139       -26.5621
 112   2.0000      -0.972602       -26.4658
 113   2.0000      -0.966771       -26.3072
 114   2.0000      -0.950455       -25.8632
 115   2.0000      -0.946080       -25.7441
 116   2.0000      -0.928951       -25.2780
 117   2.0000      -0.923934       -25.1415
 118   2.0000      -0.912619       -24.8336
 119   2.0000      -0.908813       -24.7301
 120   2.0000      -0.895163       -24.3586
 121   2.0000      -0.886035       -24.1102
 122   2.0000      -0.879876       -23.9426
 123   2.0000      -0.875338       -23.8191
 124   2.0000      -0.860982       -23.4285
 125   2.0000      -0.858494       -23.3608
 126   2.0000      -0.852269       -23.1914
 127   2.0000      -0.847866       -23.0716
 128   2.0000      -0.842907       -22.9367
 129   2.0000      -0.842300       -22.9201
 130   2.0000      -0.837648       -22.7936
 131   2.0000      -0.826485       -22.4898
 132   2.0000      -0.821289       -22.3484
 133   2.0000      -0.809488       -22.0273
 134   2.0000      -0.802613       -21.8402
 135   2.0000      -0.779634       -21.2149
 136   2.0000      -0.772696       -21.0261
 137   2.0000      -0.766457       -20.8563
 138   2.0000      -0.760060       -20.6823
 139   2.0000      -0.745477       -20.2855
 140   2.0000      -0.740825       -20.1589
 141   2.0000      -0.732052       -19.9201
 142   2.0000      -0.725188       -19.7334
 143   2.0000      -0.719653       -19.5827
 144   2.0000      -0.709340       -19.3021
 145   2.0000      -0.702293       -19.1104
 146   2.0000      -0.698053       -18.9950
 147   2.0000      -0.691707       -18.8223
 148   2.0000      -0.690662       -18.7939
 149   2.0000      -0.688208       -18.7271
 150   2.0000      -0.684118       -18.6158
 151   2.0000      -0.675482       -18.3808
 152   2.0000      -0.671321       -18.2676
 153   2.0000      -0.662314       -18.0225
 154   2.0000      -0.655933       -17.8488
 155   2.0000      -0.653765       -17.7899
 156   2.0000      -0.648559       -17.6482
 157   2.0000      -0.642672       -17.4880
 158   2.0000      -0.627359       -17.0713
 159   2.0000      -0.625028       -17.0079
 160   2.0000      -0.623050       -16.9541
 161   2.0000      -0.615135       -16.7387
 162   2.0000      -0.607707       -16.5366
 163   2.0000      -0.607128       -16.5208
 164   2.0000      -0.600976       -16.3534
 165   2.0000      -0.599211       -16.3054
 166   2.0000      -0.596788       -16.2394
 167   2.0000      -0.592622       -16.1261
 168   2.0000      -0.588187       -16.0054
 169   2.0000      -0.585718       -15.9382
 170   2.0000      -0.585489       -15.9320
 171   2.0000      -0.579053       -15.7568
 172   2.0000      -0.568316       -15.4647
 173   2.0000      -0.563273       -15.3274
 174   2.0000      -0.559768       -15.2321
 175   2.0000      -0.557448       -15.1689
 176   2.0000      -0.545001       -14.8302
 177   2.0000      -0.542104       -14.7514
 178   2.0000      -0.536044       -14.5865
 179   2.0000      -0.534741       -14.5510
 180   2.0000      -0.534364       -14.5408
 181   2.0000      -0.532873       -14.5002
 182   2.0000      -0.528259       -14.3747
 183   2.0000      -0.525574       -14.3016
 184   2.0000      -0.522764       -14.2251
 185   2.0000      -0.521300       -14.1853
 186   2.0000      -0.520333       -14.1590
 187   2.0000      -0.515796       -14.0355
 188   2.0000      -0.514392       -13.9973
 189   2.0000      -0.514137       -13.9904
 190   2.0000      -0.509643       -13.8681
 191   2.0000      -0.508270       -13.8307
 192   2.0000      -0.503301       -13.6955
 193   2.0000      -0.502228       -13.6663
 194   2.0000      -0.497819       -13.5464
 195   2.0000      -0.497434       -13.5359
 196   2.0000      -0.495604       -13.4861
 197   2.0000      -0.489571       -13.3219
 198   2.0000      -0.487541       -13.2667
 199   2.0000      -0.486771       -13.2457
 200   2.0000      -0.485582       -13.2134
 201   2.0000      -0.484459       -13.1828
 202   2.0000      -0.483877       -13.1670
 203   2.0000      -0.480410       -13.0726
 204   2.0000      -0.479235       -13.0406
 205   2.0000      -0.476269       -12.9599
 206   2.0000      -0.471535       -12.8311
 207   2.0000      -0.468834       -12.7576
 208   2.0000      -0.466917       -12.7054
 209   2.0000      -0.465063       -12.6550
 210   2.0000      -0.461963       -12.5707
 211   2.0000      -0.460844       -12.5402
 212   2.0000      -0.459514       -12.5040
 213   2.0000      -0.459102       -12.4928
 214   2.0000      -0.456945       -12.4341
 215   2.0000      -0.455257       -12.3882
 216   2.0000      -0.454196       -12.3593
 217   2.0000      -0.451661       -12.2903
 218   2.0000      -0.450703       -12.2642
 219   2.0000      -0.450036       -12.2461
 220   2.0000      -0.448932       -12.2161
 221   2.0000      -0.448061       -12.1924
 222   2.0000      -0.446379       -12.1466
 223   2.0000      -0.444120       -12.0851
 224   2.0000      -0.439107       -11.9487
 225   2.0000      -0.435514       -11.8509
 226   2.0000      -0.433769       -11.8034
 227   2.0000      -0.432799       -11.7771
 228   2.0000      -0.430523       -11.7151
 229   2.0000      -0.429711       -11.6930
 230   2.0000      -0.428721       -11.6661
 231   2.0000      -0.428075       -11.6485
 232   2.0000      -0.428001       -11.6465
 233   2.0000      -0.427232       -11.6256
 234   2.0000      -0.422544       -11.4980
 235   2.0000      -0.419868       -11.4252
 236   2.0000      -0.418835       -11.3971
 237   2.0000      -0.415826       -11.3152
 238   2.0000      -0.408503       -11.1159
 239   2.0000      -0.399994       -10.8844
 240   2.0000      -0.398133       -10.8337
 241   2.0000      -0.387470       -10.5436
 242   2.0000      -0.379650       -10.3308
 243   2.0000      -0.378981       -10.3126
 244   2.0000      -0.372892       -10.1469
 245   2.0000      -0.354795        -9.6545
 246   2.0000      -0.353217        -9.6115
 247   2.0000      -0.352038        -9.5794
 248   2.0000      -0.345890        -9.4121
 249   2.0000      -0.341547        -9.2940
 250   2.0000      -0.338228        -9.2037
 251   2.0000      -0.337767        -9.1911
 252   2.0000      -0.334402        -9.0995
 253   2.0000      -0.328337        -8.9345
 254   2.0000      -0.326290        -8.8788
 255   2.0000      -0.324292        -8.8244
 256   2.0000      -0.315953        -8.5975
 257   2.0000      -0.309716        -8.4278
 258   2.0000      -0.308301        -8.3893
 259   2.0000      -0.295456        -8.0398
 260   2.0000      -0.265557        -7.2262
 261   2.0000      -0.229615        -6.2481
 262   0.0000      -0.128746        -3.5034
 263   0.0000      -0.092142        -2.5073
 264   0.0000      -0.088681        -2.4131
 265   0.0000      -0.056247        -1.5306
 266   0.0000      -0.041947        -1.1414

MULLIKEN ATOMIC CHARGES
-----------------------
   0 C :   -0.006103
   1 C :   -0.061907
   2 C :    0.181810
   3 C :   -0.032441
   4 C :    0.041067
   5 C :    0.039010
   6 O :   -0.199865
   7 C :   -0.052191
   8 C :    0.089802
   9 C :   -0.006021
  10 C :    0.163237
  11 O :   -0.182001
  12 C :   -0.146284
  13 C :    0.013006
  14 C :    0.008305
  15 C :   -0.112202
  16 S :    0.161016
  17 C :   -0.056810
  18 C :    0.035357
  19 C :    0.305972
  20 C :   -0.305901
  21 C :   -0.190357
  22 N :    0.170205
  23 C :   -0.193833
  24 N :    0.181148
  25 C :   -0.063592
  26 C :   -0.182478
  27 S :    0.194678
  28 C :    0.192899
  29 C :   -0.065537
  30 C :   -0.067664
  31 N :    0.005202
  32 C :   -0.102602
  33 C :   -0.107301
  34 N :   -0.002983
  35 C :   -0.241885
  36 N :    0.249004
  37 C :   -0.243332
  38 N :    0.245823
  39 C :    0.193589
  40 C :   -0.016468
  41 C :   -0.016571
  42 N :   -0.279497
  43 S :    0.578662
  44 N :   -0.281145
  45 C :   -0.186913
  46 C :   -0.062932
  47 C :    0.030106
  48 C :   -0.063170
  49 S :    0.202352
  50 C :   -0.091715
  51 C :    0.011267
  52 C :    0.317314
  53 C :   -0.313425
  54 C :   -0.184787
  55 N :    0.147790
  56 C :   -0.190248
  57 N :    0.172445
  58 C :   -0.074255
  59 C :   -0.094124
  60 S :    0.234706
  61 C :    0.020430
  62 C :   -0.068436
  63 O :   -0.190480
  64 C :    0.174585
  65 C :   -0.028137
  66 C :    0.038583
  67 C :    0.037736
  68 C :    0.001509
  69 C :   -0.041682
  70 C :    0.164193
  71 O :   -0.227176
  72 C :    0.096634
  73 H :    0.005490
  74 H :   -0.013504
  75 H :   -0.001373
  76 H :   -0.006292
  77 H :    0.038548
  78 H :    0.053649
  79 H :    0.057982
  80 H :    0.019542
  81 H :    0.020247
  82 H :    0.020200
  83 H :   -0.017550
  84 H :   -0.010950
  85 H :    0.003710
  86 H :   -0.003252
  87 H :    0.004629
  88 H :    0.054826
  89 H :    0.036374
  90 H :    0.072735
Sum of atomic charges:   -0.0000000

LOEWDIN ATOMIC CHARGES
----------------------
   0 C :    0.024311
   1 C :   -0.085849
   2 C :    0.062555
   3 C :   -0.038813
   4 C :    0.002084
   5 C :   -0.027649
   6 O :    0.001836
   7 C :    0.085136
   8 C :   -0.062193
   9 C :   -0.137877
  10 C :    0.076559
  11 O :   -0.170819
  12 C :   -0.155379
  13 C :   -0.011705
  14 C :   -0.065053
  15 C :   -0.187747
  16 S :    0.477453
  17 C :   -0.172803
  18 C :   -0.077590
  19 C :    0.081514
  20 C :   -0.103285
  21 C :   -0.015522
  22 N :   -0.038004
  23 C :   -0.018855
  24 N :   -0.029947
  25 C :   -0.007421
  26 C :   -0.171357
  27 S :    0.501732
  28 C :   -0.041531
  29 C :   -0.017192
  30 C :   -0.018250
  31 N :   -0.015293
  32 C :   -0.027021
  33 C :   -0.025546
  34 N :   -0.017254
  35 C :   -0.038330
  36 N :   -0.005165
  37 C :   -0.039232
  38 N :   -0.003223
  39 C :   -0.037554
  40 C :   -0.037967
  41 C :   -0.037352
  42 N :   -0.270734
  43 S :    0.697808
  44 N :   -0.270289
  45 C :   -0.173761
  46 C :   -0.005421
  47 C :   -0.081572
  48 C :   -0.164068
  49 S :    0.507911
  50 C :   -0.200360
  51 C :   -0.071098
  52 C :    0.086737
  53 C :   -0.116490
  54 C :   -0.011804
  55 N :   -0.051403
  56 C :   -0.018146
  57 N :   -0.040110
  58 C :   -0.044394
  59 C :   -0.154431
  60 S :    0.535919
  61 C :   -0.132191
  62 C :    0.098231
  63 O :    0.010340
  64 C :    0.064074
  65 C :   -0.035957
  66 C :    0.004829
  67 C :   -0.025554
  68 C :    0.025080
  69 C :   -0.084770
  70 C :    0.075229
  71 O :   -0.198576
  72 C :   -0.050685
  73 H :    0.040616
  74 H :    0.036435
  75 H :    0.034288
  76 H :    0.032312
  77 H :    0.044010
  78 H :    0.041754
  79 H :    0.043713
  80 H :    0.043507
  81 H :    0.037681
  82 H :    0.037572
  83 H :    0.032600
  84 H :    0.037843
  85 H :    0.036015
  86 H :    0.033606
  87 H :    0.041160
  88 H :    0.049557
  89 H :    0.044688
  90 H :    0.053894

  Mayer bond orders larger than 0.100000
B(  0-C ,  1-C ) :   1.3394 B(  0-C ,  5-C ) :   1.4012 B(  0-C , 73-H ) :   0.9976
B(  1-C ,  2-C ) :   1.3349 B(  1-C , 10-C ) :   0.9826 B(  2-C ,  3-C ) :   1.3505
B(  2-C ,  6-O ) :   1.0775 B(  3-C ,  4-C ) :   1.4161 B(  3-C , 74-H ) :   0.9951
B(  4-C ,  5-C ) :   1.3259 B(  4-C , 75-H ) :   0.9899 B(  5-C , 76-H ) :   0.9940
B(  6-O ,  7-C ) :   1.1540 B(  7-C ,  8-C ) :   1.1113 B(  7-C ,  9-C ) :   1.5525
B(  8-C , 77-H ) :   0.9352 B(  8-C , 78-H ) :   0.9442 B(  8-C , 79-H ) :   0.9372
B(  9-C , 10-C ) :   1.0091 B(  9-C , 12-C ) :   1.0091 B( 10-C , 11-O ) :   2.1698
B( 12-C , 13-C ) :   1.5104 B( 12-C , 16-S ) :   1.1103 B( 13-C , 14-C ) :   1.2725
B( 13-C , 80-H ) :   0.9935 B( 14-C , 15-C ) :   1.4243 B( 14-C , 19-C ) :   0.9922
B( 15-C , 16-S ) :   1.1211 B( 15-C , 17-C ) :   1.1989 B( 17-C , 18-C ) :   1.4003
B( 17-C , 27-S ) :   1.0896 B( 18-C , 19-C ) :   0.9890 B( 18-C , 25-C ) :   1.2822
B( 19-C , 20-C ) :   1.7109 B( 20-C , 21-C ) :   1.1413 B( 20-C , 23-C ) :   1.1350
B( 21-C , 22-N ) :   2.9877 B( 23-C , 24-N ) :   2.9992 B( 25-C , 26-C ) :   1.4103
B( 25-C , 81-H ) :   0.9819 B( 26-C , 27-S ) :   1.0782 B( 26-C , 28-C ) :   1.2144
B( 28-C , 29-C ) :   1.2539 B( 28-C , 39-C ) :   0.1183 B( 28-C , 41-C ) :   1.1904
B( 29-C , 30-C ) :   1.1002 B( 29-C , 34-N ) :   1.4057 B( 30-C , 31-N ) :   1.4143
B( 30-C , 39-C ) :   1.2489 B( 31-N , 32-C ) :   1.6916 B( 32-C , 33-C ) :   1.2206
B( 32-C , 37-C ) :   1.1664 B( 33-C , 34-N ) :   1.6916 B( 33-C , 35-C ) :   1.1682
B( 35-C , 36-N ) :   3.0406 B( 37-C , 38-N ) :   3.0376 B( 39-C , 40-C ) :   1.1886
B( 39-C , 45-C ) :   1.2220 B( 40-C , 41-C ) :   1.0995 B( 40-C , 44-N ) :   1.5228
B( 41-C , 42-N ) :   1.5242 B( 42-N , 43-S ) :   1.2797 B( 42-N , 44-N ) :   0.1458
B( 43-S , 44-N ) :   1.2809 B( 45-C , 46-C ) :   1.4016 B( 45-C , 49-S ) :   1.0765
B( 46-C , 47-C ) :   1.2859 B( 46-C , 82-H ) :   0.9820 B( 47-C , 48-C ) :   1.3931
B( 47-C , 52-C ) :   0.9878 B( 48-C , 49-S ) :   1.1018 B( 48-C , 50-C ) :   1.1993
B( 50-C , 51-C ) :   1.4124 B( 50-C , 60-S ) :   1.0728 B( 51-C , 52-C ) :   1.0030
B( 51-C , 58-C ) :   1.2932 B( 52-C , 53-C ) :   1.6923 B( 53-C , 54-C ) :   1.1392
B( 53-C , 56-C ) :   1.1398 B( 54-C , 55-N ) :   2.9799 B( 56-C , 57-N ) :   2.9895
B( 58-C , 59-C ) :   1.4418 B( 58-C , 83-H ) :   0.9882 B( 59-C , 60-S ) :   1.1343
B( 59-C , 61-C ) :   1.0887 B( 60-S , 71-O ) :   0.1042 B( 61-C , 62-C ) :   1.5125
B( 61-C , 70-C ) :   1.0058 B( 62-C , 63-O ) :   1.1616 B( 62-C , 72-C ) :   1.1212
B( 63-O , 64-C ) :   1.0853 B( 64-C , 65-C ) :   1.3463 B( 64-C , 69-C ) :   1.3318
B( 65-C , 66-C ) :   1.4199 B( 65-C , 84-H ) :   0.9957 B( 66-C , 67-C ) :   1.3191
B( 66-C , 85-H ) :   0.9913 B( 67-C , 68-C ) :   1.4084 B( 67-C , 86-H ) :   0.9944
B( 68-C , 69-C ) :   1.3256 B( 68-C , 87-H ) :   1.0006 B( 69-C , 70-C ) :   1.0226
B( 70-C , 71-O ) :   2.0519 B( 72-C , 88-H ) :   0.9424 B( 72-C , 89-H ) :   0.9322
B( 72-C , 90-H ) :   0.9279

-----------------------------------------------------------------------------
         ABSORPTION SPECTRUM VIA TRANSITION ELECTRIC DIPOLE MOMENTS
-----------------------------------------------------------------------------
State   Energy  Wavelength   fosc         T2         TX        TY        TZ
        (cm-1)    (nm)                  (au**2)     (au)      (au)      (au)
-----------------------------------------------------------------------------
   0    6560.7   1524.2   0.450322822  22.59689   3.40160   2.96242  -1.50004
   1   12869.8    777.0   0.001881355   0.04813   0.02391  -0.21068   0.05628
   2   13414.6    745.5   0.024218154   0.59435  -0.61182  -0.41129   0.22551
   3   15909.4    628.6   0.004039926   0.08360  -0.07891   0.21278  -0.17915
   4   21600.3    463.0   0.069880530   1.06505   0.40767  -0.15431  -0.93544
   5   21850.5    457.7   0.270278543   4.07218  -1.46586  -1.29856   0.48700
   6   23096.6    433.0   0.231492817   3.29963  -1.25945  -1.21734   0.48116
   7   23413.5    427.1   0.005238333   0.07366  -0.16368  -0.14692   0.15899
   8   23712.1    421.7   0.012842059   0.17830   0.04359  -0.24853  -0.33857
   9   24375.7    410.2   0.011236465   0.15176  -0.01987  -0.25961  -0.28977
  10   24737.0    404.3   0.084463018   1.12407   0.79955   0.64821  -0.25421
  11   25292.1    395.4   0.002293174   0.02985   0.00181   0.16721  -0.04343
  12   27897.3    358.5   0.036373053   0.42923   0.29572  -0.09064  -0.57755
  13   28337.3    352.9   0.093333926   1.08432   0.22467  -0.68848  -0.74822
  14   28675.5    348.7   1.240213952  14.23842   2.64463   2.44518  -1.12490
  15   29163.3    342.9   0.331362776   3.74061   1.30572   1.36159  -0.42636
  16   29700.4    336.7   0.234235620   2.59637  -1.27228  -0.97208   0.18094
  17   30408.8    328.9   0.023656398   0.25611  -0.09301   0.22929   0.44146
  18   30778.7    324.9   0.004365265   0.04669  -0.10653  -0.18463  -0.03542
  19   30944.3    323.2   0.024910829   0.26502   0.11277   0.28843   0.41123
  20   31120.7    321.3   0.002892671   0.03060  -0.12341  -0.12094  -0.02729
  21   31166.5    320.9   0.014080111   0.14873  -0.27762  -0.26722  -0.01577
  22   31277.8    319.7   0.035156602   0.37004   0.20975  -0.04327  -0.56936
  23   31449.5    318.0   0.066538914   0.69653  -0.12203  -0.54639  -0.61895
  24   32110.5    311.4   0.085293546   0.87447  -0.30043  -0.60646  -0.64531
  25   32171.8    310.8   0.150272096   1.53772   0.26405  -0.59230  -1.05697
  26   32316.9    309.4   0.358431461   3.65134   0.20028  -0.98375  -1.62587
  27   32589.1    306.9   0.863353821   8.72151   0.01852  -2.13788  -2.03731
  28   33098.4    302.1   0.673755811   6.70149   0.92029  -1.07083  -2.16977
  29   33307.3    300.2   0.030666622   0.30311  -0.51333   0.18854   0.06370
  30   33573.7    297.9   0.209517087   2.05445   0.85421   1.14552  -0.11201
  31   33636.5    297.3   0.126557859   1.23867  -0.66515  -0.14696   0.88014
  32   34047.1    293.7   0.016618835   0.16069  -0.30266  -0.22775   0.13123
  33   34484.9    290.0   0.013985975   0.13352  -0.23746  -0.25149   0.11784
  34   35399.6    282.5   0.007412262   0.06893   0.22523   0.05146   0.12473
  35   35575.8    281.1   0.012701256   0.11753   0.10583   0.09281   0.31261
  36   35895.6    278.6   0.000281979   0.00259  -0.03860   0.02513   0.02155
  37   36081.1    277.2   0.039844387   0.36355   0.46737   0.37753   0.05079
  38   36320.3    275.3   0.137167311   1.24330  -0.76246   0.05501   0.81175
  39   36614.3    273.1   0.133011134   1.19595  -0.93087  -0.54905   0.16726
  40   37453.6    267.0   0.174957020   1.53785  -0.03740  -0.97242  -0.76867
  41   37674.2    265.4   0.029719267   0.25970  -0.09169   0.35378   0.35515
  42   37906.4    263.8   0.010658309   0.09257  -0.05097  -0.23456  -0.18695
  43   38220.0    261.6   0.004700824   0.04049  -0.10156   0.11097   0.13365
  44   38400.4    260.4   0.046347918   0.39735  -0.12471  -0.61778  -0.01191
  45   38794.8    257.8   0.381430784   3.23681  -0.39089   0.80778   1.55933
  46   39042.8    256.1   0.013635483   0.11498   0.06215  -0.13738  -0.30371
  47   39204.6    255.1   0.037913856   0.31837  -0.29178   0.15286   0.45812
  48   39403.2    253.8   0.010712207   0.08950   0.08276   0.00827  -0.28737
  49   39606.7    252.5   0.015105452   0.12556  -0.25618  -0.21406   0.11877
  50   39827.6    251.1   0.033050618   0.27319  -0.09624  -0.41846  -0.29802

FINAL SINGLE POINT ENERGY     -4903.558350250098

DIPOLE MOMENT
-------------
                                X             Y             Z
Electronic contribution:     -7.11474      13.19105       8.35586
Nuclear contribution   :      6.53586     -15.63052      -9.89144
                        -----------------------------------------
Total Dipole Moment    :     -0.57888      -2.43947      -1.53558
                        -----------------------------------------
Magnitude (a.u.)       :      2.94009
Magnitude (Debye)      :      7.47310

Rotational constants in cm-1:     0.002215     0.000244     0.000223
Rotational constants in MHz :    66.411520     7.329091     6.696114

                             ****ORCA TERMINATED NORMALLY****
TOTAL RUN TIME: 0 days 0 hours 9 minutes 31 seconds 531 msec
