                         Program Version 4.2.0 -  RELEASE  -
|  1> # ORCA input file
|  2> # SCF done       -177.302108421390          0.000702061833
|  3> ! CAM-B3LYP def2-SVP def2/J RIJCOSX Grid4 TightSCF
|  4> %maxcore 5000
|  5> %tddft
|  6>     Mode sTDDFT
|  7>     Ethresh 5.0
|  8>     maxcore 5000
|  9> end
| 10>
| 11> %pal
| 12>   nprocs 6
| 13>   end
| 14> * xyz 0 1
| 15>    C       -2.02035        -1.33570        -5.68589
| 16>    C       -2.42666        -0.63645        -4.54432
| 17>    C       -1.94838         0.65919        -4.33327
| 18>    C       -1.07455         1.24822        -5.24915
| 19>    C       -0.68542         0.53925        -6.36310
| 20>    C       -1.15720        -0.75451        -6.58399
| 21>    O       -2.32508         1.38444        -3.25794
| 22>    C       -3.12685         0.85850        -2.31562
| 23>    C       -3.41324         1.86661        -1.25230
| 24>    C       -3.61955        -0.41872        -2.38617
| 25>    C       -3.34720        -1.22735        -3.57918
| 26>    O       -3.87203        -2.32204        -3.75275
| 27>    C       -4.44638        -1.05044        -1.38924
| 28>    C       -4.68486        -0.68629        -0.07854
| 29>    C       -5.55899        -1.56502         0.56198
| 30>    C       -5.98665        -2.61119        -0.27316
| 31>    S       -5.28626        -2.53188        -1.82959
| 32>    C       -6.87062        -3.43990         0.46768
| 33>    C       -7.00414        -2.90162         1.76355
| 34>    C       -6.18094        -1.70757         1.86440
| 35>    C       -6.03356        -0.88533         2.94580
| 36>    C       -6.69415        -1.11102         4.17019
| 37>    N       -7.22285        -1.27707         5.17468
| 38>    C       -5.20702         0.25428         2.89673
| 39>    N       -4.53561         1.18400         2.84490
| 40>    C       -7.87478        -3.62899         2.56408
| 41>    C       -8.40713        -4.72122         1.89124
| 42>    S       -7.81099        -4.85238         0.24415
| 43>    C       -9.35018        -5.65374         2.39112
| 44>    C       -9.81284        -6.72369         1.58741
| 45>    C      -10.80487        -7.66552         2.02092
| 46>    N      -11.17573        -8.65343         1.18346
| 47>    C      -10.63229        -8.72653         0.00028
| 48>    C       -9.66793        -7.79480        -0.42945
| 49>    N       -9.28116        -6.82952         0.35651
| 50>    C      -11.40048        -7.56462         3.30607
| 51>    C      -10.91425        -6.51781         4.11831
| 52>    C       -9.90907        -5.57854         3.68423
| 53>    N       -9.63079        -4.68596         4.63641
| 54>    S      -10.52505        -4.98787         5.93116
| 55>    N      -11.32035        -6.26350         5.36369
| 56>    C      -12.43726        -8.41492         3.77673
| 57>    C      -13.04787        -9.47599         3.12090
| 58>    C      -14.05759       -10.04939         3.88260
| 59>    C      -14.22578        -9.42579         5.13492
| 60>    S      -13.13090        -8.13942         5.37284
| 61>    C      -15.29699       -10.06105         5.81692
| 62>    C      -15.79084       -11.08932         4.99611
| 63>    C      -15.03507       -11.11918         3.75876
| 64>    C      -15.21472       -11.96303         2.69905
| 65>    C      -16.21872       -12.95113         2.70663
| 66>    N      -17.04365       -13.74936         2.71975
| 67>    C      -14.42335       -11.90231         1.53434
| 68>    N      -13.79151       -11.86906         0.57709
| 69>    C      -16.85859       -11.77539         5.57717
| 70>    C      -17.17849       -11.27974         6.82541
| 71>    S      -16.11389        -9.96855         7.31428
| 72>    C      -18.20316       -11.69774         7.74829
| 73>    C      -19.29569       -12.45934         7.42654
| 74>    O      -20.19933       -12.86040         8.33757
| 75>    C      -20.05682       -12.54057         9.64240
| 76>    C      -20.99697       -13.03828        10.54664
| 77>    C      -20.88681       -12.71732        11.88079
| 78>    C      -19.85112       -11.90018        12.33314
| 79>    C      -18.92697       -11.40426        11.44461
| 80>    C      -19.01552       -11.72050        10.08475
| 81>    C      -18.05208       -11.20156         9.12009
| 82>    O      -17.17988       -10.39514         9.42420
| 83>    C      -19.68671       -12.91740         6.06056
| 84>    H       -2.40535        -2.33370        -5.82874
| 85>    H       -0.72198         2.25021        -5.06288
| 86>    H       -0.00906         0.99118        -7.07249
| 87>    H       -0.84312        -1.29580        -7.46287
| 88>    H       -3.12987         2.84940        -1.62223
| 89>    H       -2.83253         1.66393        -0.35337
| 90>    H       -4.46860         1.86611        -0.99143
| 91>    H       -4.23007         0.15020         0.41179
| 92>    H       -8.13440        -3.40441         3.58224
| 93>    H      -10.96131        -9.54057        -0.63058
| 94>    H       -9.21405        -7.84212        -1.40906
| 95>    H      -12.74627        -9.78185         2.13672
| 96>    H      -17.34194       -12.61274         5.11574
| 97>    H      -21.79225       -13.66674        10.17846
| 98>    H      -21.61093       -13.10216        12.58256
| 99>    H      -19.77965       -11.65794        13.38209
|100>    H      -18.11563       -10.76712        11.76165
|101>    H      -19.52945       -12.12957         5.32831
|102>    H      -20.73756       -13.19771         6.07652
|103>    H      -19.10971       -13.79121         5.76036
|104> *
|105>
|106>                          ****END OF INPUT****

CARTESIAN COORDINATES (ANGSTROEM)
---------------------------------
  C     -2.020350   -1.335700   -5.685890
  C     -2.426660   -0.636450   -4.544320
  C     -1.948380    0.659190   -4.333270
  C     -1.074550    1.248220   -5.249150
  C     -0.685420    0.539250   -6.363100
  C     -1.157200   -0.754510   -6.583990
  O     -2.325080    1.384440   -3.257940
  C     -3.126850    0.858500   -2.315620
  C     -3.413240    1.866610   -1.252300
  C     -3.619550   -0.418720   -2.386170
  C     -3.347200   -1.227350   -3.579180
  O     -3.872030   -2.322040   -3.752750
  C     -4.446380   -1.050440   -1.389240
  C     -4.684860   -0.686290   -0.078540
  C     -5.558990   -1.565020    0.561980
  C     -5.986650   -2.611190   -0.273160
  S     -5.286260   -2.531880   -1.829590
  C     -6.870620   -3.439900    0.467680
  C     -7.004140   -2.901620    1.763550
  C     -6.180940   -1.707570    1.864400
  C     -6.033560   -0.885330    2.945800
  C     -6.694150   -1.111020    4.170190
  N     -7.222850   -1.277070    5.174680
  C     -5.207020    0.254280    2.896730
  N     -4.535610    1.184000    2.844900
  C     -7.874780   -3.628990    2.564080
  C     -8.407130   -4.721220    1.891240
  S     -7.810990   -4.852380    0.244150
  C     -9.350180   -5.653740    2.391120
  C     -9.812840   -6.723690    1.587410
  C    -10.804870   -7.665520    2.020920
  N    -11.175730   -8.653430    1.183460
  C    -10.632290   -8.726530    0.000280
  C     -9.667930   -7.794800   -0.429450
  N     -9.281160   -6.829520    0.356510
  C    -11.400480   -7.564620    3.306070
  C    -10.914250   -6.517810    4.118310
  C     -9.909070   -5.578540    3.684230
  N     -9.630790   -4.685960    4.636410
  S    -10.525050   -4.987870    5.931160
  N    -11.320350   -6.263500    5.363690
  C    -12.437260   -8.414920    3.776730
  C    -13.047870   -9.475990    3.120900
  C    -14.057590  -10.049390    3.882600
  C    -14.225780   -9.425790    5.134920
  S    -13.130900   -8.139420    5.372840
  C    -15.296990  -10.061050    5.816920
  C    -15.790840  -11.089320    4.996110
  C    -15.035070  -11.119180    3.758760
  C    -15.214720  -11.963030    2.699050
  C    -16.218720  -12.951130    2.706630
  N    -17.043650  -13.749360    2.719750
  C    -14.423350  -11.902310    1.534340
  N    -13.791510  -11.869060    0.577090
  C    -16.858590  -11.775390    5.577170
  C    -17.178490  -11.279740    6.825410
  S    -16.113890   -9.968550    7.314280
  C    -18.203160  -11.697740    7.748290
  C    -19.295690  -12.459340    7.426540
  O    -20.199330  -12.860400    8.337570
  C    -20.056820  -12.540570    9.642400
  C    -20.996970  -13.038280   10.546640
  C    -20.886810  -12.717320   11.880790
  C    -19.851120  -11.900180   12.333140
  C    -18.926970  -11.404260   11.444610
  C    -19.015520  -11.720500   10.084750
  C    -18.052080  -11.201560    9.120090
  O    -17.179880  -10.395140    9.424200
  C    -19.686710  -12.917400    6.060560
  H     -2.405350   -2.333700   -5.828740
  H     -0.721980    2.250210   -5.062880
  H     -0.009060    0.991180   -7.072490
  H     -0.843120   -1.295800   -7.462870
  H     -3.129870    2.849400   -1.622230
  H     -2.832530    1.663930   -0.353370
  H     -4.468600    1.866110   -0.991430
  H     -4.230070    0.150200    0.411790
  H     -8.134400   -3.404410    3.582240
  H    -10.961310   -9.540570   -0.630580
  H     -9.214050   -7.842120   -1.409060
  H    -12.746270   -9.781850    2.136720
  H    -17.341940  -12.612740    5.115740
  H    -21.792250  -13.666740   10.178460
  H    -21.610930  -13.102160   12.582560
  H    -19.779650  -11.657940   13.382090
  H    -18.115630  -10.767120   11.761650
  H    -19.529450  -12.129570    5.328310
  H    -20.737560  -13.197710    6.076520
  H    -19.109710  -13.791210    5.760360

 Total Charge           Charge          ....    0
 Multiplicity           Mult            ....    1
 Number of Electrons    NEL             ....  500
 Basis Dimension        Dim             .... 1086

ORBITAL ENERGIES
----------------

  NO   OCC          E(Eh)            E(eV)
   0   2.0000     -89.033691     -2422.7299
   1   2.0000     -88.963809     -2420.8283
   2   2.0000     -88.963595     -2420.8225
   3   2.0000     -88.962711     -2420.7984
   4   2.0000     -88.962466     -2420.7918
   5   2.0000     -19.307791      -525.3917
   6   2.0000     -19.307660      -525.3881
   7   2.0000     -19.202373      -522.5231
   8   2.0000     -19.202362      -522.5228
   9   2.0000     -14.442330      -392.9958
  10   2.0000     -14.442164      -392.9913
  11   2.0000     -14.435226      -392.8025
  12   2.0000     -14.429001      -392.6331
  13   2.0000     -14.415428      -392.2637
  14   2.0000     -14.414718      -392.2444
  15   2.0000     -14.412708      -392.1897
  16   2.0000     -14.410835      -392.1388
  17   2.0000     -10.374627      -282.3080
  18   2.0000     -10.374436      -282.3028
  19   2.0000     -10.362062      -281.9660
  20   2.0000     -10.362046      -281.9656
  21   2.0000     -10.359516      -281.8968
  22   2.0000     -10.359500      -281.8963
  23   2.0000     -10.342173      -281.4248
  24   2.0000     -10.341261      -281.4000
  25   2.0000     -10.332768      -281.1689
  26   2.0000     -10.331547      -281.1357
  27   2.0000     -10.329052      -281.0678
  28   2.0000     -10.328779      -281.0604
  29   2.0000     -10.327928      -281.0372
  30   2.0000     -10.325870      -280.9812
  31   2.0000     -10.324619      -280.9472
  32   2.0000     -10.323939      -280.9287
  33   2.0000     -10.317445      -280.7520
  34   2.0000     -10.316755      -280.7332
  35   2.0000     -10.314287      -280.6660
  36   2.0000     -10.312265      -280.6110
  37   2.0000     -10.306744      -280.4608
  38   2.0000     -10.306663      -280.4586
  39   2.0000     -10.304984      -280.4129
  40   2.0000     -10.302787      -280.3531
  41   2.0000     -10.301810      -280.3265
  42   2.0000     -10.301539      -280.3191
  43   2.0000     -10.300798      -280.2990
  44   2.0000     -10.300684      -280.2959
  45   2.0000     -10.299397      -280.2608
  46   2.0000     -10.297653      -280.2134
  47   2.0000     -10.294436      -280.1259
  48   2.0000     -10.294226      -280.1201
  49   2.0000     -10.293210      -280.0925
  50   2.0000     -10.293058      -280.0883
  51   2.0000     -10.289970      -280.0043
  52   2.0000     -10.289945      -280.0036
  53   2.0000     -10.289644      -279.9954
  54   2.0000     -10.289526      -279.9922
  55   2.0000     -10.287732      -279.9434
  56   2.0000     -10.287627      -279.9406
  57   2.0000     -10.285052      -279.8705
  58   2.0000     -10.284964      -279.8681
  59   2.0000     -10.282960      -279.8136
  60   2.0000     -10.282862      -279.8109
  61   2.0000     -10.280755      -279.7536
  62   2.0000     -10.279979      -279.7325
  63   2.0000     -10.278045      -279.6798
  64   2.0000     -10.277217      -279.6573
  65   2.0000     -10.276770      -279.6451
  66   2.0000     -10.275934      -279.6224
  67   2.0000     -10.275468      -279.6097
  68   2.0000     -10.273534      -279.5571
  69   2.0000      -8.124705      -221.0845
  70   2.0000      -8.056893      -219.2392
  71   2.0000      -8.055923      -219.2128
  72   2.0000      -8.054988      -219.1874
  73   2.0000      -8.054590      -219.1765
  74   2.0000      -6.095807      -165.8753
  75   2.0000      -6.088056      -165.6644
  76   2.0000      -6.087440      -165.6477
  77   2.0000      -6.026269      -163.9831
  78   2.0000      -6.025485      -163.9618
  79   2.0000      -6.024538      -163.9360
  80   2.0000      -6.024172      -163.9260
  81   2.0000      -6.021688      -163.8585
  82   2.0000      -6.020513      -163.8265
  83   2.0000      -6.019573      -163.8009
  84   2.0000      -6.019457      -163.7978
  85   2.0000      -6.019293      -163.7933
  86   2.0000      -6.018556      -163.7732
  87   2.0000      -6.017625      -163.7479
  88   2.0000      -6.017174      -163.7356
  89   2.0000      -1.221914       -33.2500
  90   2.0000      -1.221713       -33.2445
  91   2.0000      -1.130279       -30.7564
  92   2.0000      -1.123975       -30.5849
  93   2.0000      -1.123926       -30.5836
  94   2.0000      -1.089633       -29.6504
  95   2.0000      -1.021991       -27.8098
  96   2.0000      -1.020301       -27.7638
  97   2.0000      -1.014260       -27.5994
  98   2.0000      -1.004026       -27.3209
  99   2.0000      -1.002391       -27.2765
 100   2.0000      -0.991764       -26.9873
 101   2.0000      -0.990504       -26.9530
 102   2.0000      -0.987949       -26.8835
 103   2.0000      -0.977700       -26.6046
 104   2.0000      -0.972414       -26.4607
 105   2.0000      -0.970532       -26.4095
 106   2.0000      -0.967664       -26.3315
 107   2.0000      -0.956200       -26.0195
 108   2.0000      -0.939618       -25.5683
 109   2.0000      -0.934383       -25.4259
 110   2.0000      -0.921773       -25.0827
 111   2.0000      -0.921332       -25.0707
 112   2.0000      -0.894671       -24.3452
 113   2.0000      -0.886537       -24.1239
 114   2.0000      -0.880587       -23.9620
 115   2.0000      -0.879208       -23.9245
 116   2.0000      -0.873103       -23.7583
 117   2.0000      -0.864599       -23.5269
 118   2.0000      -0.854655       -23.2564
 119   2.0000      -0.853039       -23.2124
 120   2.0000      -0.841821       -22.9071
 121   2.0000      -0.835117       -22.7247
 122   2.0000      -0.831774       -22.6337
 123   2.0000      -0.830612       -22.6021
 124   2.0000      -0.819775       -22.3072
 125   2.0000      -0.818706       -22.2781
 126   2.0000      -0.801449       -21.8085
 127   2.0000      -0.783939       -21.3321
 128   2.0000      -0.776913       -21.1409
 129   2.0000      -0.765715       -20.8362
 130   2.0000      -0.756541       -20.5865
 131   2.0000      -0.752900       -20.4874
 132   2.0000      -0.746960       -20.3258
 133   2.0000      -0.737355       -20.0644
 134   2.0000      -0.728282       -19.8176
 135   2.0000      -0.724319       -19.7097
 136   2.0000      -0.713547       -19.4166
 137   2.0000      -0.701046       -19.0764
 138   2.0000      -0.695393       -18.9226
 139   2.0000      -0.693541       -18.8722
 140   2.0000      -0.685018       -18.6403
 141   2.0000      -0.683897       -18.6098
 142   2.0000      -0.682141       -18.5620
 143   2.0000      -0.667450       -18.1622
 144   2.0000      -0.666384       -18.1332
 145   2.0000      -0.656523       -17.8649
 146   2.0000      -0.653105       -17.7719
 147   2.0000      -0.648569       -17.6485
 148   2.0000      -0.646160       -17.5829
 149   2.0000      -0.632611       -17.2142
 150   2.0000      -0.626614       -17.0510
 151   2.0000      -0.622863       -16.9490
 152   2.0000      -0.615650       -16.7527
 153   2.0000      -0.614490       -16.7211
 154   2.0000      -0.603345       -16.4179
 155   2.0000      -0.594137       -16.1673
 156   2.0000      -0.593119       -16.1396
 157   2.0000      -0.592731       -16.1290
 158   2.0000      -0.590387       -16.0653
 159   2.0000      -0.588395       -16.0110
 160   2.0000      -0.585164       -15.9231
 161   2.0000      -0.581992       -15.8368
 162   2.0000      -0.581501       -15.8235
 163   2.0000      -0.565939       -15.4000
 164   2.0000      -0.560630       -15.2555
 165   2.0000      -0.559634       -15.2284
 166   2.0000      -0.551693       -15.0123
 167   2.0000      -0.550489       -14.9796
 168   2.0000      -0.548092       -14.9143
 169   2.0000      -0.538028       -14.6405
 170   2.0000      -0.528646       -14.3852
 171   2.0000      -0.528575       -14.3833
 172   2.0000      -0.528130       -14.3711
 173   2.0000      -0.527819       -14.3627
 174   2.0000      -0.526791       -14.3347
 175   2.0000      -0.525459       -14.2985
 176   2.0000      -0.523558       -14.2468
 177   2.0000      -0.519602       -14.1391
 178   2.0000      -0.519237       -14.1292
 179   2.0000      -0.514008       -13.9869
 180   2.0000      -0.511145       -13.9090
 181   2.0000      -0.508906       -13.8480
 182   2.0000      -0.508857       -13.8467
 183   2.0000      -0.507355       -13.8058
 184   2.0000      -0.505000       -13.7418
 185   2.0000      -0.496439       -13.5088
 186   2.0000      -0.496413       -13.5081
 187   2.0000      -0.491980       -13.3875
 188   2.0000      -0.488407       -13.2902
 189   2.0000      -0.486043       -13.2259
 190   2.0000      -0.485308       -13.2059
 191   2.0000      -0.481949       -13.1145
 192   2.0000      -0.478019       -13.0076
 193   2.0000      -0.476266       -12.9599
 194   2.0000      -0.474579       -12.9139
 195   2.0000      -0.469928       -12.7874
 196   2.0000      -0.469312       -12.7706
 197   2.0000      -0.468272       -12.7423
 198   2.0000      -0.467784       -12.7291
 199   2.0000      -0.466161       -12.6849
 200   2.0000      -0.460461       -12.5298
 201   2.0000      -0.455285       -12.3889
 202   2.0000      -0.454648       -12.3716
 203   2.0000      -0.452297       -12.3076
 204   2.0000      -0.449955       -12.2439
 205   2.0000      -0.448592       -12.2068
 206   2.0000      -0.448501       -12.2043
 207   2.0000      -0.447435       -12.1753
 208   2.0000      -0.446839       -12.1591
 209   2.0000      -0.443806       -12.0766
 210   2.0000      -0.441603       -12.0166
 211   2.0000      -0.439843       -11.9687
 212   2.0000      -0.432788       -11.7768
 213   2.0000      -0.431989       -11.7550
 214   2.0000      -0.429994       -11.7007
 215   2.0000      -0.429132       -11.6773
 216   2.0000      -0.426587       -11.6080
 217   2.0000      -0.424847       -11.5607
 218   2.0000      -0.423283       -11.5181
 219   2.0000      -0.422057       -11.4848
 220   2.0000      -0.420775       -11.4499
 221   2.0000      -0.420015       -11.4292
 222   2.0000      -0.419439       -11.4135
 223   2.0000      -0.410941       -11.1823
 224   2.0000      -0.410158       -11.1610
 225   2.0000      -0.409534       -11.1440
 226   2.0000      -0.392316       -10.6755
 227   2.0000      -0.389299       -10.5934
 228   2.0000      -0.388288       -10.5659
 229   2.0000      -0.371612       -10.1121
 230   2.0000      -0.370041       -10.0693
 231   2.0000      -0.369967       -10.0673
 232   2.0000      -0.359399        -9.7797
 233   2.0000      -0.347721        -9.4620
 234   2.0000      -0.341814        -9.3012
 235   2.0000      -0.339380        -9.2350
 236   2.0000      -0.338184        -9.2025
 237   2.0000      -0.334882        -9.1126
 238   2.0000      -0.331173        -9.0117
 239   2.0000      -0.329661        -8.9705
 240   2.0000      -0.323076        -8.7914
 241   2.0000      -0.320870        -8.7313
 242   2.0000      -0.317837        -8.6488
 243   2.0000      -0.316671        -8.6171
 244   2.0000      -0.313080        -8.5193
 245   2.0000      -0.299451        -8.1485
 246   2.0000      -0.298271        -8.1164
 247   2.0000      -0.285057        -7.7568
 248   2.0000      -0.253684        -6.9031
 249   2.0000      -0.216654        -5.8954
 250   0.0000      -0.105781        -2.8784
 251   0.0000      -0.080636        -2.1942
 252   0.0000      -0.076396        -2.0788
 253   0.0000      -0.031133        -0.8472
 254   0.0000      -0.030974        -0.8428

MULLIKEN ATOMIC CHARGES
-----------------------
   0 C :   -0.001682
   1 C :   -0.047160
   2 C :    0.177971
   3 C :   -0.027129
   4 C :    0.038518
   5 C :    0.037924
   6 O :   -0.191961
   7 C :   -0.078040
   8 C :    0.101767
   9 C :    0.031705
  10 C :    0.162900
  11 O :   -0.230670
  12 C :   -0.096074
  13 C :   -0.076090
  14 C :    0.006811
  15 C :   -0.090076
  16 S :    0.217623
  17 C :   -0.070791
  18 C :    0.030479
  19 C :    0.316010
  20 C :   -0.319390
  21 C :   -0.187741
  22 N :    0.164352
  23 C :   -0.185438
  24 N :    0.144611
  25 C :   -0.069816
  26 C :   -0.177828
  27 S :    0.193971
  28 C :    0.169842
  29 C :   -0.048770
  30 C :   -0.071627
  31 N :   -0.020618
  32 C :    0.034973
  33 C :    0.050052
  34 N :   -0.090378
  35 C :    0.199502
  36 C :   -0.026879
  37 C :   -0.000621
  38 N :   -0.282792
  39 S :    0.558825
  40 N :   -0.339692
  41 C :   -0.193587
  42 C :   -0.068951
  43 C :    0.041554
  44 C :   -0.078428
  45 S :    0.199795
  46 C :   -0.087737
  47 C :    0.006590
  48 C :    0.315050
  49 C :   -0.319905
  50 C :   -0.188258
  51 N :    0.148418
  52 C :   -0.186649
  53 N :    0.160720
  54 C :   -0.072089
  55 C :   -0.097600
  56 S :    0.220999
  57 C :    0.023891
  58 C :   -0.072990
  59 O :   -0.193545
  60 C :    0.173567
  61 C :   -0.029661
  62 C :    0.040009
  63 C :    0.038064
  64 C :   -0.002384
  65 C :   -0.041581
  66 C :    0.163545
  67 O :   -0.229917
  68 C :    0.098360
  69 H :    0.001847
  70 H :   -0.012576
  71 H :    0.001081
  72 H :   -0.005582
  73 H :    0.032687
  74 H :    0.071192
  75 H :    0.055493
  76 H :   -0.021735
  77 H :    0.014858
  78 H :    0.029144
  79 H :    0.017061
  80 H :    0.015076
  81 H :   -0.019696
  82 H :   -0.011658
  83 H :    0.000939
  84 H :   -0.004942
  85 H :    0.002687
  86 H :    0.055059
  87 H :    0.033649
  88 H :    0.071566
Sum of atomic charges:   -0.0000000

LOEWDIN ATOMIC CHARGES
----------------------
   0 C :    0.023708
   1 C :   -0.085224
   2 C :    0.063739
   3 C :   -0.036822
   4 C :    0.003279
   5 C :   -0.027476
   6 O :    0.008556
   7 C :    0.095231
   8 C :   -0.050781
   9 C :   -0.129379
  10 C :    0.074565
  11 O :   -0.201433
  12 C :   -0.161425
  13 C :   -0.044446
  14 C :   -0.078536
  15 C :   -0.195014
  16 S :    0.524866
  17 C :   -0.178638
  18 C :   -0.082416
  19 C :    0.089542
  20 C :   -0.121770
  21 C :   -0.017663
  22 N :   -0.044778
  23 C :   -0.011610
  24 N :   -0.057115
  25 C :   -0.014513
  26 C :   -0.169762
  27 S :    0.505320
  28 C :   -0.043959
  29 C :   -0.018229
  30 C :   -0.009186
  31 N :   -0.018984
  32 C :    0.016794
  33 C :    0.018680
  34 N :   -0.050258
  35 C :   -0.048375
  36 C :   -0.048724
  37 C :   -0.040674
  38 N :   -0.273201
  39 S :    0.678456
  40 N :   -0.308277
  41 C :   -0.166959
  42 C :   -0.014843
  43 C :   -0.081735
  44 C :   -0.178569
  45 S :    0.507885
  46 C :   -0.193959
  47 C :   -0.079665
  48 C :    0.090266
  49 C :   -0.122300
  50 C :   -0.012070
  51 N :   -0.056457
  52 C :   -0.015157
  53 N :   -0.048628
  54 C :   -0.043569
  55 C :   -0.162027
  56 S :    0.526537
  57 C :   -0.129870
  58 C :    0.094955
  59 O :    0.007954
  60 C :    0.063844
  61 C :   -0.037119
  62 C :    0.003373
  63 C :   -0.027472
  64 C :    0.023771
  65 C :   -0.085048
  66 C :    0.074731
  67 O :   -0.200945
  68 C :   -0.051179
  69 H :    0.040024
  70 H :    0.037306
  71 H :    0.035134
  72 H :    0.032621
  73 H :    0.043281
  74 H :    0.053138
  75 H :    0.049839
  76 H :    0.031355
  77 H :    0.036141
  78 H :    0.033482
  79 H :    0.029641
  80 H :    0.034697
  81 H :    0.031719
  82 H :    0.037413
  83 H :    0.035167
  84 H :    0.032773
  85 H :    0.040277
  86 H :    0.049494
  87 H :    0.043466
  88 H :    0.053223

  Mayer bond orders larger than 0.100000
B(  0-C ,  1-C ) :   1.3257 B(  0-C ,  5-C ) :   1.4097 B(  0-C , 69-H ) :   0.9994
B(  1-C ,  2-C ) :   1.3325 B(  1-C , 10-C ) :   1.0221 B(  2-C ,  3-C ) :   1.3431
B(  2-C ,  6-O ) :   1.0911 B(  3-C ,  4-C ) :   1.4208 B(  3-C , 70-H ) :   0.9951
B(  4-C ,  5-C ) :   1.3185 B(  4-C , 71-H ) :   0.9908 B(  5-C , 72-H ) :   0.9941
B(  6-O ,  7-C ) :   1.1547 B(  7-C ,  8-C ) :   1.1212 B(  7-C ,  9-C ) :   1.5124
B(  8-C , 73-H ) :   0.9322 B(  8-C , 74-H ) :   0.9279 B(  8-C , 75-H ) :   0.9407
B(  9-C , 10-C ) :   1.0058 B(  9-C , 12-C ) :   1.0912 B( 10-C , 11-O ) :   2.0497
B( 11-O , 16-S ) :   0.1016 B( 12-C , 13-C ) :   1.4490 B( 12-C , 16-S ) :   1.1241
B( 13-C , 14-C ) :   1.2850 B( 13-C , 76-H ) :   0.9874 B( 14-C , 15-C ) :   1.4236
B( 14-C , 19-C ) :   1.0022 B( 15-C , 16-S ) :   1.0751 B( 15-C , 17-C ) :   1.1863
B( 17-C , 18-C ) :   1.4101 B( 17-C , 27-S ) :   1.0834 B( 18-C , 19-C ) :   0.9871
B( 18-C , 25-C ) :   1.2715 B( 19-C , 20-C ) :   1.6882 B( 20-C , 21-C ) :   1.1383
B( 20-C , 23-C ) :   1.1393 B( 21-C , 22-N ) :   2.9896 B( 23-C , 24-N ) :   2.9791
B( 25-C , 26-C ) :   1.4249 B( 25-C , 77-H ) :   0.9837 B( 26-C , 27-S ) :   1.0818
B( 26-C , 28-C ) :   1.2001 B( 28-C , 29-C ) :   1.2677 B( 28-C , 35-C ) :   0.1327
B( 28-C , 37-C ) :   1.2061 B( 29-C , 30-C ) :   1.1209 B( 29-C , 34-N ) :   1.3931
B( 30-C , 31-N ) :   1.4687 B( 30-C , 35-C ) :   1.2710 B( 31-N , 32-C ) :   1.6693
B( 32-C , 33-C ) :   1.1928 B( 32-C , 78-H ) :   0.9754 B( 33-C , 34-N ) :   1.6540
B( 33-C , 79-H ) :   0.9733 B( 35-C , 36-C ) :   1.1956 B( 35-C , 41-C ) :   1.1864
B( 36-C , 37-C ) :   1.1071 B( 36-C , 40-N ) :   1.4651 B( 37-C , 38-N ) :   1.5067
B( 38-N , 39-S ) :   1.2858 B( 38-N , 40-N ) :   0.1543 B( 39-S , 40-N ) :   1.2684
B( 41-C , 42-C ) :   1.4215 B( 41-C , 45-S ) :   1.0918 B( 42-C , 43-C ) :   1.2556
B( 42-C , 80-H ) :   0.9818 B( 43-C , 44-C ) :   1.4051 B( 43-C , 48-C ) :   0.9899
B( 44-C , 45-S ) :   1.1089 B( 44-C , 46-C ) :   1.1836 B( 46-C , 47-C ) :   1.4242
B( 46-C , 56-S ) :   1.0793 B( 47-C , 48-C ) :   1.0022 B( 47-C , 54-C ) :   1.2845
B( 48-C , 49-C ) :   1.6886 B( 49-C , 50-C ) :   1.1389 B( 49-C , 52-C ) :   1.1397
B( 50-C , 51-N ) :   2.9826 B( 52-C , 53-N ) :   2.9912 B( 54-C , 55-C ) :   1.4509
B( 54-C , 81-H ) :   0.9891 B( 55-C , 56-S ) :   1.1230 B( 55-C , 57-C ) :   1.0877
B( 56-S , 67-O ) :   0.1005 B( 57-C , 58-C ) :   1.5174 B( 57-C , 66-C ) :   1.0056
B( 58-C , 59-O ) :   1.1514 B( 58-C , 68-C ) :   1.1215 B( 59-O , 60-C ) :   1.0921
B( 60-C , 61-C ) :   1.3460 B( 60-C , 65-C ) :   1.3317 B( 61-C , 62-C ) :   1.4208
B( 61-C , 82-H ) :   0.9948 B( 62-C , 63-C ) :   1.3201 B( 62-C , 83-H ) :   0.9901
B( 63-C , 64-C ) :   1.4084 B( 63-C , 84-H ) :   0.9938 B( 64-C , 65-C ) :   1.3243
B( 64-C , 85-H ) :   1.0001 B( 65-C , 66-C ) :   1.0217 B( 66-C , 67-O ) :   2.0521
B( 68-C , 86-H ) :   0.9416 B( 68-C , 87-H ) :   0.9320 B( 68-C , 88-H ) :   0.9285

-----------------------------------------------------------------------------
         ABSORPTION SPECTRUM VIA TRANSITION ELECTRIC DIPOLE MOMENTS
-----------------------------------------------------------------------------
State   Energy  Wavelength   fosc         T2         TX        TY        TZ
        (cm-1)    (nm)                  (au**2)     (au)      (au)      (au)
-----------------------------------------------------------------------------
   0    8899.4   1123.7   0.699431081  25.87375  -3.55283  -3.11716   1.88002
   1   12350.3    809.7   0.000726956   0.01938  -0.10870   0.08367   0.02366
   2   13023.2    767.9   0.007314166   0.18489   0.28809   0.31922   0.00007
   3   17888.2    559.0   0.003102298   0.05709  -0.10232   0.21052  -0.04799
   4   22592.5    442.6   0.018187109   0.26502   0.36415   0.32277  -0.16803
   5   23719.9    421.6   0.001460847   0.02028  -0.08441   0.01486   0.11371
   6   23763.8    420.8   0.003240598   0.04489  -0.20318   0.05686  -0.01949
   7   25383.6    394.0   0.297869257   3.86320  -1.36096  -1.10470   0.88917
   8   25964.5    385.1   0.039821334   0.50491   0.49483   0.39804  -0.31877
   9   26587.8    376.1   0.112174632   1.38895   0.68251   0.30179  -0.91217
  10   26880.7    372.0   0.068089545   0.83390  -0.54938  -0.15094   0.71365
  11   27887.1    358.6   0.708013135   8.35823  -1.99975  -1.93175   0.79220
  12   28167.7    355.0   0.030928023   0.36147  -0.58586  -0.11435   0.07188
  13   28921.5    345.8   0.707788761   8.05673   1.97074   1.61408  -1.25207
  14   29560.1    338.3   0.140146822   1.56082  -0.70620  -0.46101   0.92172
  15   30177.8    331.4   0.158698116   1.73125   0.69312   0.35213  -1.06153
  16   30288.6    330.2   0.459100907   4.99004   1.30872   0.41002  -1.76328
  17   31006.0    322.5   0.001738068   0.01845  -0.05511   0.05992   0.10875
  18   31501.5    317.4   0.004116836   0.04302   0.14123  -0.14686   0.03885
  19   31599.4    316.5   0.016444038   0.17132   0.18457   0.34867   0.12521
  20   31851.7    314.0   0.183619839   1.89785  -0.11904   0.61268   1.22813
  21   32261.6    310.0   0.024509945   0.25011   0.00002   0.30098   0.39940
  22   32348.0    309.1   0.864207242   8.79521  -0.48500  -1.89282  -2.23097
  23   32877.6    304.2   0.008302464   0.08313  -0.17189   0.11197   0.20261
  24   33079.3    302.3   0.121176145   1.20597   0.38868   0.90058   0.49381
  25   33328.1    300.0   0.194758304   1.92380   0.82215   0.20305  -1.09847
  26   33538.6    298.2   0.023071229   0.22647  -0.27327  -0.29191   0.25803
  27   33911.3    294.9   0.007179375   0.06970   0.03186  -0.24801  -0.08470
  28   35007.7    285.7   0.010959819   0.10307   0.18728   0.08807   0.24543
  29   35262.0    283.6   0.130970182   1.22276  -0.73109  -0.46568   0.68659
  30   35651.1    280.5   0.731375630   6.75372   0.15705  -1.15410  -2.32317
  31   36015.4    277.7   0.079878529   0.73016  -0.36469  -0.66737  -0.38959
  32   36099.7    277.0   0.074500940   0.67941  -0.00537  -0.48821  -0.66410
  33   36410.1    274.6   0.000937238   0.00847   0.05472  -0.00768   0.07363
  34   37138.2    269.3   0.018277486   0.16202  -0.17244   0.29849   0.20781
  35   37288.6    268.2   0.046165947   0.40759   0.29947   0.14642  -0.54449
  36   37351.4    267.7   0.181310655   1.59806  -0.40177  -0.88002  -0.81376
  37   37576.0    266.1   0.059197734   0.51865  -0.45785  -0.00618   0.55586
  38   37685.4    265.4   0.033841953   0.29564  -0.21643  -0.48958  -0.09543
  39   38384.5    260.5   0.008143874   0.06985  -0.14674  -0.12153  -0.18315
  40   38498.8    259.7   0.004043851   0.03458   0.07774  -0.07457   0.15158
  41   38613.4    259.0   0.043199188   0.36831  -0.10677   0.24656   0.54417
  42   38802.2    257.7   0.000308597   0.00262  -0.04908  -0.01292   0.00655
  43   38911.4    257.0   0.003717506   0.03145   0.09618   0.07112  -0.13094
  44   39102.2    255.7   0.014998675   0.12628   0.03640  -0.17415  -0.30761
  45   39338.6    254.2   0.065391754   0.54724   0.17943  -0.16097  -0.69938
  46   39966.6    250.2   0.327239895   2.69553  -0.93791  -0.32182   1.30854

FINAL SINGLE POINT ENERGY     -4719.317468848848

DIPOLE MOMENT
-------------
                                X             Y             Z
Electronic contribution:      3.88257      -0.52257       8.91298
Nuclear contribution   :     -4.32797       0.78959      -9.46185
                        -----------------------------------------
Total Dipole Moment    :     -0.44540       0.26702      -0.54886
                        -----------------------------------------
Magnitude (a.u.)       :      0.75560
Magnitude (Debye)      :      1.92059

Rotational constants in cm-1:     0.002872     0.000245     0.000226
Rotational constants in MHz :    86.089029     7.333073     6.787687

                             ****ORCA TERMINATED NORMALLY****
TOTAL RUN TIME: 0 days 0 hours 8 minutes 41 seconds 473 msec
