                         Program Version 4.2.0 -  RELEASE  -
|  1> # ORCA input file
|  2> # SCF done       -179.484700074835          0.000614424837
|  3> ! CAM-B3LYP def2-SVP def2/J RIJCOSX Grid4 TightSCF
|  4> %maxcore 5000
|  5> %tddft
|  6>     Mode sTDDFT
|  7>     Ethresh 5.0
|  8>     maxcore 5000
|  9> end
| 10>
| 11> %pal
| 12>   nprocs 6
| 13>   end
| 14> * xyz 0 1
| 15>    C        0.39223         1.64871        -0.48333
| 16>    O        1.67757         1.18410        -0.10088
| 17>    C        2.54496         2.18545         0.26297
| 18>    C        2.67226         2.66712         1.55144
| 19>    C        2.01320         2.24010         2.74821
| 20>    C        1.31493         1.09652         2.84484
| 21>    N        0.68106         0.68261         3.97765
| 22>    S        0.38056         1.62879         5.33923
| 23>    N       -1.24324         1.03305         5.29760
| 24>    C       -2.34572         1.67002         5.75525
| 25>    S       -3.58735         0.81449         6.63244
| 26>    C       -4.52170         2.26639         6.84219
| 27>    C       -5.76638         2.27868         7.60504
| 28>    C       -6.84963         1.56119         7.21526
| 29>    C       -6.88402         0.70303         5.99181
| 30>    O       -8.01009         1.54448         7.88982
| 31>    C       -8.14013         2.29345         9.01383
| 32>    C       -9.37042         2.26199         9.67089
| 33>    C       -9.54726         3.00414        10.81794
| 34>    C       -8.50920         3.78201        11.32525
| 35>    C       -7.29484         3.81263        10.67942
| 36>    C       -7.09176         3.07035         9.51299
| 37>    C       -5.79033         3.08820         8.82914
| 38>    O       -4.82365         3.69600         9.25731
| 39>    C       -3.89603         3.34541         6.28333
| 40>    O       -4.47893         4.57084         6.26235
| 41>    C       -3.81672         5.58277         7.01351
| 42>    C       -2.66799         3.00369         5.62716
| 43>    C       -1.88589         3.94393         4.77961
| 44>    F       -1.36629         3.33822         3.69035
| 45>    F       -2.61536         4.95909         4.30388
| 46>    F       -0.83477         4.50944         5.41677
| 47>    C       -1.15249        -0.40195         5.10994
| 48>    C       -0.89652        -1.15752         6.41589
| 49>    C       -0.75659        -2.64729         6.13678
| 50>    N       -0.36439        -3.37307         7.33406
| 51>    S        0.39080        -4.79223         6.79261
| 52>    N        1.24350        -3.86889         5.57453
| 53>    C        0.27821        -2.94286         4.99899
| 54>    C        1.00759        -1.67435         4.56171
| 55>    C        0.01823        -0.59962         4.10157
| 56>    S        3.86941         3.91598         1.61862
| 57>    C        4.15993         3.83944        -0.08364
| 58>    C        5.18021         4.70579        -0.64911
| 59>    C        4.98542         5.49998        -1.73492
| 60>    C        3.68502         5.68735        -2.44398
| 61>    O        5.95561         6.25633        -2.27408
| 62>    C        7.20865         6.21529        -1.76025
| 63>    C        8.20262         6.94179        -2.41668
| 64>    C        9.48642         6.93991        -1.91726
| 65>    C        9.79733         6.22475        -0.76292
| 66>    C        8.81725         5.51366        -0.10996
| 67>    C        7.50897         5.49634        -0.60086
| 68>    C        6.45343         4.74792         0.08993
| 69>    O        6.60667         4.21870         1.17707
| 70>    C        3.39965         2.84650        -0.66074
| 71>    C        3.48558         2.39878        -2.07882
| 72>    F        3.44665         1.06796        -2.20919
| 73>    F        2.46757         2.86978        -2.84407
| 74>    F        4.60990         2.79479        -2.70355
| 75>    H       -0.18110         0.76079        -0.74213
| 76>    H        0.44898         2.30907        -1.35342
| 77>    H       -0.09304         2.17917         0.34267
| 78>    H        2.11340         2.88238         3.61190
| 79>    H        1.25267         0.40779         2.01558
| 80>    H       -6.35227        -0.23071         6.17181
| 81>    H       -6.40513         1.21340         5.15981
| 82>    H       -7.91633         0.47459         5.74094
| 83>    H      -10.16243         1.65348         9.26362
| 84>    H      -10.49932         2.98061        11.32605
| 85>    H       -8.66026         4.35797        12.22516
| 86>    H       -6.46929         4.40236        11.04807
| 87>    H       -4.38159         6.49357         6.82991
| 88>    H       -2.78233         5.72328         6.69256
| 89>    H       -3.83942         5.33188         8.07716
| 90>    H       -2.09707        -0.74299         4.67349
| 91>    H       -1.72553        -0.99890         7.10597
| 92>    H        0.01095        -0.76986         6.88284
| 93>    H       -1.72836        -3.05449         5.83221
| 94>    H        0.28182        -2.82855         7.89987
| 95>    H        1.67160        -4.48512         4.89585
| 96>    H       -0.25524        -3.36931         4.13574
| 97>    H        1.69330        -1.90410         3.74501
| 98>    H        1.60610        -1.29750         5.39189
| 99>    H       -0.38518        -0.87238         3.11981
|100>    H        2.85393         5.36528        -1.82447
|101>    H        3.67566         5.11957        -3.37321
|102>    H        3.56942         6.73862        -2.69991
|103>    H        7.94300         7.49023        -3.30829
|104>    H       10.25681         7.49858        -2.42682
|105>    H       10.80722         6.23228        -0.38279
|106>    H        9.02338         4.95299         0.78898
|107> *
|108>
|109>                          ****END OF INPUT****

CARTESIAN COORDINATES (ANGSTROEM)
---------------------------------
  C      0.392230    1.648710   -0.483330
  O      1.677570    1.184100   -0.100880
  C      2.544960    2.185450    0.262970
  C      2.672260    2.667120    1.551440
  C      2.013200    2.240100    2.748210
  C      1.314930    1.096520    2.844840
  N      0.681060    0.682610    3.977650
  S      0.380560    1.628790    5.339230
  N     -1.243240    1.033050    5.297600
  C     -2.345720    1.670020    5.755250
  S     -3.587350    0.814490    6.632440
  C     -4.521700    2.266390    6.842190
  C     -5.766380    2.278680    7.605040
  C     -6.849630    1.561190    7.215260
  C     -6.884020    0.703030    5.991810
  O     -8.010090    1.544480    7.889820
  C     -8.140130    2.293450    9.013830
  C     -9.370420    2.261990    9.670890
  C     -9.547260    3.004140   10.817940
  C     -8.509200    3.782010   11.325250
  C     -7.294840    3.812630   10.679420
  C     -7.091760    3.070350    9.512990
  C     -5.790330    3.088200    8.829140
  O     -4.823650    3.696000    9.257310
  C     -3.896030    3.345410    6.283330
  O     -4.478930    4.570840    6.262350
  C     -3.816720    5.582770    7.013510
  C     -2.667990    3.003690    5.627160
  C     -1.885890    3.943930    4.779610
  F     -1.366290    3.338220    3.690350
  F     -2.615360    4.959090    4.303880
  F     -0.834770    4.509440    5.416770
  C     -1.152490   -0.401950    5.109940
  C     -0.896520   -1.157520    6.415890
  C     -0.756590   -2.647290    6.136780
  N     -0.364390   -3.373070    7.334060
  S      0.390800   -4.792230    6.792610
  N      1.243500   -3.868890    5.574530
  C      0.278210   -2.942860    4.998990
  C      1.007590   -1.674350    4.561710
  C      0.018230   -0.599620    4.101570
  S      3.869410    3.915980    1.618620
  C      4.159930    3.839440   -0.083640
  C      5.180210    4.705790   -0.649110
  C      4.985420    5.499980   -1.734920
  C      3.685020    5.687350   -2.443980
  O      5.955610    6.256330   -2.274080
  C      7.208650    6.215290   -1.760250
  C      8.202620    6.941790   -2.416680
  C      9.486420    6.939910   -1.917260
  C      9.797330    6.224750   -0.762920
  C      8.817250    5.513660   -0.109960
  C      7.508970    5.496340   -0.600860
  C      6.453430    4.747920    0.089930
  O      6.606670    4.218700    1.177070
  C      3.399650    2.846500   -0.660740
  C      3.485580    2.398780   -2.078820
  F      3.446650    1.067960   -2.209190
  F      2.467570    2.869780   -2.844070
  F      4.609900    2.794790   -2.703550
  H     -0.181100    0.760790   -0.742130
  H      0.448980    2.309070   -1.353420
  H     -0.093040    2.179170    0.342670
  H      2.113400    2.882380    3.611900
  H      1.252670    0.407790    2.015580
  H     -6.352270   -0.230710    6.171810
  H     -6.405130    1.213400    5.159810
  H     -7.916330    0.474590    5.740940
  H    -10.162430    1.653480    9.263620
  H    -10.499320    2.980610   11.326050
  H     -8.660260    4.357970   12.225160
  H     -6.469290    4.402360   11.048070
  H     -4.381590    6.493570    6.829910
  H     -2.782330    5.723280    6.692560
  H     -3.839420    5.331880    8.077160
  H     -2.097070   -0.742990    4.673490
  H     -1.725530   -0.998900    7.105970
  H      0.010950   -0.769860    6.882840
  H     -1.728360   -3.054490    5.832210
  H      0.281820   -2.828550    7.899870
  H      1.671600   -4.485120    4.895850
  H     -0.255240   -3.369310    4.135740
  H      1.693300   -1.904100    3.745010
  H      1.606100   -1.297500    5.391890
  H     -0.385180   -0.872380    3.119810
  H      2.853930    5.365280   -1.824470
  H      3.675660    5.119570   -3.373210
  H      3.569420    6.738620   -2.699910
  H      7.943000    7.490230   -3.308290
  H     10.256810    7.498580   -2.426820
  H     10.807220    6.232280   -0.382790
  H      9.023380    4.952990    0.788980

 Total Charge           Charge          ....    0
 Multiplicity           Mult            ....    1
 Number of Electrons    NEL             ....  466
 Basis Dimension        Dim             .... 1016

ORBITAL ENERGIES
----------------

  NO   OCC          E(Eh)            E(eV)
   0   2.0000     -88.987893     -2421.4837
   1   2.0000     -88.960406     -2420.7357
   2   2.0000     -88.949032     -2420.4262
   3   2.0000     -88.941482     -2420.2208
   4   2.0000     -24.786953      -674.4873
   5   2.0000     -24.783781      -674.4010
   6   2.0000     -24.783441      -674.3917
   7   2.0000     -24.780037      -674.2991
   8   2.0000     -24.779166      -674.2754
   9   2.0000     -24.779010      -674.2711
  10   2.0000     -19.296522      -525.0851
  11   2.0000     -19.291868      -524.9584
  12   2.0000     -19.226219      -523.1720
  13   2.0000     -19.224071      -523.1136
  14   2.0000     -19.183338      -522.0052
  15   2.0000     -19.181466      -521.9542
  16   2.0000     -14.457769      -393.4159
  17   2.0000     -14.448133      -393.1537
  18   2.0000     -14.418484      -392.3469
  19   2.0000     -14.408623      -392.0786
  20   2.0000     -10.504706      -285.8476
  21   2.0000     -10.504194      -285.8337
  22   2.0000     -10.361692      -281.9560
  23   2.0000     -10.358676      -281.8739
  24   2.0000     -10.353443      -281.7315
  25   2.0000     -10.350247      -281.6445
  26   2.0000     -10.347192      -281.5614
  27   2.0000     -10.346663      -281.5470
  28   2.0000     -10.344931      -281.4999
  29   2.0000     -10.330136      -281.0973
  30   2.0000     -10.328712      -281.0585
  31   2.0000     -10.324437      -280.9422
  32   2.0000     -10.310348      -280.5588
  33   2.0000     -10.307364      -280.4776
  34   2.0000     -10.307156      -280.4720
  35   2.0000     -10.305464      -280.4259
  36   2.0000     -10.303077      -280.3610
  37   2.0000     -10.298780      -280.2440
  38   2.0000     -10.293388      -280.0973
  39   2.0000     -10.286269      -279.9036
  40   2.0000     -10.285000      -279.8691
  41   2.0000     -10.284830      -279.8644
  42   2.0000     -10.281766      -279.7811
  43   2.0000     -10.281395      -279.7710
  44   2.0000     -10.279957      -279.7319
  45   2.0000     -10.279530      -279.7202
  46   2.0000     -10.279490      -279.7192
  47   2.0000     -10.278346      -279.6880
  48   2.0000     -10.277981      -279.6781
  49   2.0000     -10.277832      -279.6740
  50   2.0000     -10.277479      -279.6644
  51   2.0000     -10.276801      -279.6460
  52   2.0000     -10.276671      -279.6424
  53   2.0000     -10.276274      -279.6316
  54   2.0000     -10.275433      -279.6087
  55   2.0000     -10.274930      -279.5951
  56   2.0000     -10.271454      -279.5005
  57   2.0000     -10.270122      -279.4642
  58   2.0000     -10.268462      -279.4190
  59   2.0000     -10.253455      -279.0107
  60   2.0000      -8.077836      -219.8091
  61   2.0000      -8.055749      -219.2081
  62   2.0000      -8.041335      -218.8158
  63   2.0000      -8.036684      -218.6893
  64   2.0000      -6.050361      -164.6387
  65   2.0000      -6.045822      -164.5152
  66   2.0000      -6.034258      -164.2005
  67   2.0000      -6.025209      -163.9543
  68   2.0000      -6.021183      -163.8447
  69   2.0000      -6.017388      -163.7415
  70   2.0000      -6.014079      -163.6514
  71   2.0000      -6.008645      -163.5035
  72   2.0000      -6.005870      -163.4280
  73   2.0000      -6.001794      -163.3171
  74   2.0000      -5.998865      -163.2374
  75   2.0000      -5.998156      -163.2181
  76   2.0000      -1.373132       -37.3648
  77   2.0000      -1.370746       -37.2999
  78   2.0000      -1.275842       -34.7174
  79   2.0000      -1.273679       -34.6586
  80   2.0000      -1.272056       -34.6144
  81   2.0000      -1.269035       -34.5322
  82   2.0000      -1.210371       -32.9359
  83   2.0000      -1.206382       -32.8273
  84   2.0000      -1.128879       -30.7184
  85   2.0000      -1.127924       -30.6924
  86   2.0000      -1.103623       -30.0311
  87   2.0000      -1.102321       -29.9957
  88   2.0000      -1.101422       -29.9712
  89   2.0000      -1.054595       -28.6970
  90   2.0000      -1.034056       -28.1381
  91   2.0000      -0.975055       -26.5326
  92   2.0000      -0.971090       -26.4247
  93   2.0000      -0.961062       -26.1518
  94   2.0000      -0.957798       -26.0630
  95   2.0000      -0.952924       -25.9304
  96   2.0000      -0.927546       -25.2398
  97   2.0000      -0.914201       -24.8767
  98   2.0000      -0.910870       -24.7860
  99   2.0000      -0.879499       -23.9324
 100   2.0000      -0.871015       -23.7015
 101   2.0000      -0.866074       -23.5671
 102   2.0000      -0.863231       -23.4897
 103   2.0000      -0.853091       -23.2138
 104   2.0000      -0.847679       -23.0665
 105   2.0000      -0.845403       -23.0046
 106   2.0000      -0.839738       -22.8504
 107   2.0000      -0.835022       -22.7221
 108   2.0000      -0.822248       -22.3745
 109   2.0000      -0.813464       -22.1355
 110   2.0000      -0.803004       -21.8509
 111   2.0000      -0.797256       -21.6944
 112   2.0000      -0.785823       -21.3833
 113   2.0000      -0.763116       -20.7654
 114   2.0000      -0.758204       -20.6318
 115   2.0000      -0.749662       -20.3993
 116   2.0000      -0.749159       -20.3856
 117   2.0000      -0.741724       -20.1833
 118   2.0000      -0.733780       -19.9672
 119   2.0000      -0.721787       -19.6408
 120   2.0000      -0.719008       -19.5652
 121   2.0000      -0.714349       -19.4384
 122   2.0000      -0.709301       -19.3011
 123   2.0000      -0.702963       -19.1286
 124   2.0000      -0.685716       -18.6593
 125   2.0000      -0.682050       -18.5595
 126   2.0000      -0.678735       -18.4693
 127   2.0000      -0.675667       -18.3858
 128   2.0000      -0.669568       -18.2199
 129   2.0000      -0.663892       -18.0654
 130   2.0000      -0.656646       -17.8683
 131   2.0000      -0.654858       -17.8196
 132   2.0000      -0.653864       -17.7925
 133   2.0000      -0.647585       -17.6217
 134   2.0000      -0.644613       -17.5408
 135   2.0000      -0.642402       -17.4806
 136   2.0000      -0.640895       -17.4396
 137   2.0000      -0.626501       -17.0480
 138   2.0000      -0.623558       -16.9679
 139   2.0000      -0.615084       -16.7373
 140   2.0000      -0.603730       -16.4283
 141   2.0000      -0.599107       -16.3025
 142   2.0000      -0.589935       -16.0529
 143   2.0000      -0.587566       -15.9885
 144   2.0000      -0.586821       -15.9682
 145   2.0000      -0.582977       -15.8636
 146   2.0000      -0.577524       -15.7152
 147   2.0000      -0.572243       -15.5715
 148   2.0000      -0.569669       -15.5015
 149   2.0000      -0.567449       -15.4411
 150   2.0000      -0.565361       -15.3843
 151   2.0000      -0.559279       -15.2188
 152   2.0000      -0.558128       -15.1874
 153   2.0000      -0.552061       -15.0223
 154   2.0000      -0.550416       -14.9776
 155   2.0000      -0.540528       -14.7085
 156   2.0000      -0.538726       -14.6595
 157   2.0000      -0.536771       -14.6063
 158   2.0000      -0.536483       -14.5984
 159   2.0000      -0.530865       -14.4456
 160   2.0000      -0.529985       -14.4216
 161   2.0000      -0.528614       -14.3843
 162   2.0000      -0.524872       -14.2825
 163   2.0000      -0.522456       -14.2167
 164   2.0000      -0.519986       -14.1495
 165   2.0000      -0.516562       -14.0564
 166   2.0000      -0.515142       -14.0177
 167   2.0000      -0.512262       -13.9394
 168   2.0000      -0.510223       -13.8839
 169   2.0000      -0.505002       -13.7418
 170   2.0000      -0.503060       -13.6890
 171   2.0000      -0.500271       -13.6131
 172   2.0000      -0.499175       -13.5833
 173   2.0000      -0.497787       -13.5455
 174   2.0000      -0.496767       -13.5177
 175   2.0000      -0.494233       -13.4488
 176   2.0000      -0.491224       -13.3669
 177   2.0000      -0.490224       -13.3397
 178   2.0000      -0.488327       -13.2880
 179   2.0000      -0.485814       -13.2197
 180   2.0000      -0.484239       -13.1768
 181   2.0000      -0.482076       -13.1180
 182   2.0000      -0.481670       -13.1069
 183   2.0000      -0.476498       -12.9662
 184   2.0000      -0.475556       -12.9405
 185   2.0000      -0.474301       -12.9064
 186   2.0000      -0.473787       -12.8924
 187   2.0000      -0.472180       -12.8487
 188   2.0000      -0.470797       -12.8110
 189   2.0000      -0.468563       -12.7502
 190   2.0000      -0.468221       -12.7409
 191   2.0000      -0.467742       -12.7279
 192   2.0000      -0.464536       -12.6407
 193   2.0000      -0.460926       -12.5424
 194   2.0000      -0.459733       -12.5100
 195   2.0000      -0.456582       -12.4242
 196   2.0000      -0.453264       -12.3339
 197   2.0000      -0.449599       -12.2342
 198   2.0000      -0.445993       -12.1361
 199   2.0000      -0.441900       -12.0247
 200   2.0000      -0.439520       -11.9600
 201   2.0000      -0.439068       -11.9477
 202   2.0000      -0.435148       -11.8410
 203   2.0000      -0.432713       -11.7747
 204   2.0000      -0.426362       -11.6019
 205   2.0000      -0.423246       -11.5171
 206   2.0000      -0.420660       -11.4467
 207   2.0000      -0.419851       -11.4247
 208   2.0000      -0.417470       -11.3599
 209   2.0000      -0.413833       -11.2610
 210   2.0000      -0.406521       -11.0620
 211   2.0000      -0.402811       -10.9610
 212   2.0000      -0.398344       -10.8395
 213   2.0000      -0.379185       -10.3181
 214   2.0000      -0.362409        -9.8617
 215   2.0000      -0.351601        -9.5676
 216   2.0000      -0.348143        -9.4734
 217   2.0000      -0.342959        -9.3324
 218   2.0000      -0.340028        -9.2526
 219   2.0000      -0.331530        -9.0214
 220   2.0000      -0.330238        -8.9862
 221   2.0000      -0.329143        -8.9564
 222   2.0000      -0.325776        -8.8648
 223   2.0000      -0.324613        -8.8332
 224   2.0000      -0.319485        -8.6936
 225   2.0000      -0.313997        -8.5443
 226   2.0000      -0.307665        -8.3720
 227   2.0000      -0.301242        -8.1972
 228   2.0000      -0.296393        -8.0653
 229   2.0000      -0.286638        -7.7998
 230   2.0000      -0.261566        -7.1176
 231   2.0000      -0.251758        -6.8507
 232   2.0000      -0.230805        -6.2805
 233   0.0000      -0.017483        -0.4757
 234   0.0000      -0.013799        -0.3755
 235   0.0000      -0.004894        -0.1332
 236   0.0000       0.001759         0.0479
 237   0.0000       0.012551         0.3415

MULLIKEN ATOMIC CHARGES
-----------------------
   0 C :    0.200019
   1 O :   -0.349877
   2 C :    0.073999
   3 C :   -0.101995
   4 C :   -0.033185
   5 C :    0.131673
   6 N :   -0.376434
   7 S :    0.366485
   8 N :   -0.350637
   9 C :   -0.014619
  10 S :    0.104981
  11 C :   -0.229151
  12 C :   -0.044220
  13 C :   -0.040490
  14 C :    0.119989
  15 O :   -0.202099
  16 C :    0.183271
  17 C :   -0.032191
  18 C :    0.039472
  19 C :    0.037405
  20 C :   -0.007397
  21 C :   -0.064956
  22 C :    0.185981
  23 O :   -0.191731
  24 C :    0.200805
  25 O :   -0.321803
  26 C :    0.185376
  27 C :   -0.139856
  28 C :    0.529319
  29 F :   -0.170905
  30 F :   -0.152231
  31 F :   -0.180210
  32 C :   -0.012680
  33 C :    0.214301
  34 C :    0.002432
  35 N :   -0.308239
  36 S :    0.210553
  37 N :   -0.368293
  38 C :    0.034250
  39 C :    0.254502
  40 C :    0.081599
  41 S :    0.199151
  42 C :   -0.180340
  43 C :   -0.071670
  44 C :   -0.030149
  45 C :    0.131681
  46 O :   -0.204059
  47 C :    0.184078
  48 C :   -0.032459
  49 C :    0.039482
  50 C :    0.035212
  51 C :   -0.004557
  52 C :   -0.054139
  53 C :    0.149394
  54 O :   -0.187912
  55 C :   -0.053603
  56 C :    0.511912
  57 F :   -0.148155
  58 F :   -0.183699
  59 F :   -0.165006
  60 H :    0.026151
  61 H :    0.016072
  62 H :    0.022979
  63 H :   -0.019419
  64 H :    0.029810
  65 H :    0.040955
  66 H :    0.056532
  67 H :    0.030493
  68 H :   -0.016353
  69 H :   -0.003812
  70 H :   -0.009178
  71 H :   -0.001726
  72 H :    0.024267
  73 H :    0.010190
  74 H :    0.039823
  75 H :    0.017810
  76 H :    0.031755
  77 H :   -0.021900
  78 H :   -0.000642
  79 H :    0.134965
  80 H :    0.126875
  81 H :   -0.015521
  82 H :    0.005950
  83 H :   -0.025687
  84 H :    0.010629
  85 H :    0.037651
  86 H :    0.052113
  87 H :    0.030424
  88 H :   -0.015500
  89 H :   -0.003786
  90 H :   -0.009858
  91 H :   -0.000436
Sum of atomic charges:   -0.0000000

LOEWDIN ATOMIC CHARGES
----------------------
   0 C :    0.077503
   1 O :   -0.136688
   2 C :   -0.012958
   3 C :   -0.182610
   4 C :   -0.132075
   5 C :    0.027002
   6 N :   -0.165225
   7 S :    0.458351
   8 N :   -0.184475
   9 C :   -0.115982
  10 S :    0.424825
  11 C :   -0.217184
  12 C :   -0.133063
  13 C :    0.086837
  14 C :   -0.054647
  15 O :   -0.001591
  16 C :    0.064496
  17 C :   -0.039342
  18 C :   -0.000534
  19 C :   -0.030046
  20 C :    0.021156
  21 C :   -0.084141
  22 C :    0.077323
  23 O :   -0.183091
  24 C :    0.038746
  25 O :   -0.120224
  26 C :    0.077991
  27 C :   -0.190816
  28 C :    0.165338
  29 F :   -0.071140
  30 F :   -0.049311
  31 F :   -0.078321
  32 C :    0.010318
  33 C :   -0.042560
  34 C :   -0.002955
  35 N :   -0.215148
  36 S :    0.344542
  37 N :   -0.246063
  38 C :   -0.012768
  39 C :   -0.035387
  40 C :    0.023662
  41 S :    0.497537
  42 C :   -0.158931
  43 C :   -0.145887
  44 C :    0.094426
  45 C :   -0.055263
  46 O :   -0.000060
  47 C :    0.065350
  48 C :   -0.039332
  49 C :   -0.000435
  50 C :   -0.030972
  51 C :    0.022212
  52 C :   -0.084986
  53 C :    0.066915
  54 O :   -0.187695
  55 C :   -0.140349
  56 C :    0.176859
  57 F :   -0.050083
  58 F :   -0.078489
  59 F :   -0.059348
  60 H :    0.021357
  61 H :    0.010212
  62 H :    0.014291
  63 H :    0.018167
  64 H :    0.031258
  65 H :    0.041272
  66 H :    0.049317
  67 H :    0.039491
  68 H :    0.035472
  69 H :    0.033222
  70 H :    0.030945
  71 H :    0.038071
  72 H :    0.022775
  73 H :    0.004293
  74 H :    0.016342
  75 H :    0.025722
  76 H :    0.021777
  77 H :    0.019855
  78 H :    0.020016
  79 H :    0.050483
  80 H :    0.051389
  81 H :    0.004202
  82 H :    0.028047
  83 H :    0.026143
  84 H :    0.027494
  85 H :    0.042268
  86 H :    0.044977
  87 H :    0.041643
  88 H :    0.035634
  89 H :    0.033077
  90 H :    0.030700
  91 H :    0.038874

  Mayer bond orders larger than 0.100000
B(  0-C ,  1-O ) :   0.9285 B(  0-C , 60-H ) :   0.9824 B(  0-C , 61-H ) :   0.9673
B(  0-C , 62-H ) :   0.9679 B(  1-O ,  2-C ) :   1.1272 B(  2-C ,  3-C ) :   1.5233
B(  2-C , 55-C ) :   1.2392 B(  3-C ,  4-C ) :   1.1217 B(  3-C , 41-S ) :   1.1274
B(  3-C , 42-C ) :   0.1031 B(  4-C ,  5-C ) :   1.6991 B(  4-C , 63-H ) :   0.9415
B(  5-C ,  6-N ) :   1.0758 B(  5-C , 64-H ) :   0.9536 B(  6-N ,  7-S ) :   0.9794
B(  6-N , 40-C ) :   0.9342 B(  7-S ,  8-N ) :   0.9006 B(  8-N ,  9-C ) :   1.1315
B(  8-N , 32-C ) :   0.9544 B(  9-C , 10-S ) :   1.1437 B(  9-C , 27-C ) :   1.4987
B( 10-S , 11-C ) :   1.0656 B( 11-C , 12-C ) :   0.9293 B( 11-C , 24-C ) :   1.6388
B( 12-C , 13-C ) :   1.6102 B( 12-C , 22-C ) :   1.0343 B( 13-C , 14-C ) :   1.1085
B( 13-C , 15-O ) :   1.1493 B( 14-C , 65-H ) :   0.9365 B( 14-C , 66-H ) :   0.9400
B( 14-C , 67-H ) :   0.9382 B( 15-O , 16-C ) :   1.0830 B( 16-C , 17-C ) :   1.3526
B( 16-C , 21-C ) :   1.3385 B( 17-C , 18-C ) :   1.4137 B( 17-C , 68-H ) :   0.9950
B( 18-C , 19-C ) :   1.3267 B( 18-C , 69-H ) :   0.9905 B( 19-C , 20-C ) :   1.4004
B( 19-C , 70-H ) :   0.9949 B( 20-C , 21-C ) :   1.3360 B( 20-C , 71-H ) :   0.9975
B( 21-C , 22-C ) :   0.9776 B( 22-C , 23-O ) :   2.1516 B( 24-C , 25-O ) :   1.2247
B( 24-C , 27-C ) :   1.1878 B( 25-O , 26-C ) :   0.9199 B( 26-C , 72-H ) :   0.9822
B( 26-C , 73-H ) :   0.9635 B( 26-C , 74-H ) :   0.9560 B( 27-C , 28-C ) :   0.9506
B( 28-C , 29-F ) :   1.1457 B( 28-C , 30-F ) :   1.1750 B( 28-C , 31-F ) :   1.1238
B( 32-C , 33-C ) :   1.0955 B( 32-C , 40-C ) :   0.9845 B( 32-C , 75-H ) :   0.9058
B( 33-C , 34-C ) :   1.1091 B( 33-C , 39-C ) :   0.1186 B( 33-C , 76-H ) :   0.9248
B( 33-C , 77-H ) :   0.8389 B( 34-C , 35-N ) :   1.0357 B( 34-C , 38-C ) :   0.9689
B( 34-C , 78-H ) :   0.9062 B( 35-N , 36-S ) :   1.0355 B( 35-N , 79-H ) :   0.9317
B( 36-S , 37-N ) :   0.9279 B( 37-N , 38-C ) :   0.9904 B( 37-N , 80-H ) :   0.9393
B( 38-C , 39-C ) :   1.0980 B( 38-C , 81-H ) :   0.9101 B( 39-C , 40-C ) :   1.0957
B( 39-C , 82-H ) :   0.9290 B( 39-C , 83-H ) :   0.8440 B( 40-C , 84-H ) :   0.9045
B( 41-S , 42-C ) :   1.1760 B( 42-C , 43-C ) :   0.9830 B( 42-C , 55-C ) :   1.5713
B( 43-C , 44-C ) :   1.5939 B( 43-C , 53-C ) :   1.0120 B( 44-C , 45-C ) :   1.1275
B( 44-C , 46-O ) :   1.1354 B( 45-C , 85-H ) :   0.9387 B( 45-C , 86-H ) :   0.9234
B( 45-C , 87-H ) :   0.9342 B( 46-O , 47-C ) :   1.0881 B( 47-C , 48-C ) :   1.3514
B( 47-C , 52-C ) :   1.3367 B( 48-C , 49-C ) :   1.4155 B( 48-C , 88-H ) :   0.9947
B( 49-C , 50-C ) :   1.3259 B( 49-C , 89-H ) :   0.9909 B( 50-C , 51-C ) :   1.3991
B( 50-C , 90-H ) :   0.9949 B( 51-C , 52-C ) :   1.3384 B( 51-C , 91-H ) :   0.9987
B( 52-C , 53-C ) :   0.9831 B( 53-C , 54-O ) :   2.1824 B( 55-C , 56-C ) :   0.9442
B( 56-C , 57-F ) :   1.1958 B( 56-C , 58-F ) :   1.1091 B( 56-C , 59-F ) :   1.1356

-----------------------------------------------------------------------------
         ABSORPTION SPECTRUM VIA TRANSITION ELECTRIC DIPOLE MOMENTS
-----------------------------------------------------------------------------
State   Energy  Wavelength   fosc         T2         TX        TY        TZ
        (cm-1)    (nm)                  (au**2)     (au)      (au)      (au)
-----------------------------------------------------------------------------
   0   28576.2    349.9   0.438216071   5.04847   1.75478   0.39026  -1.34793
   1   31278.2    319.7   0.052400479   0.55153  -0.13818   0.47754  -0.55171
   2   32282.3    309.8   0.030381474   0.30983  -0.41496  -0.28101  -0.24222
   3   33395.5    299.4   0.295232637   2.91040   1.41137   0.57825  -0.76424
   4   33443.4    299.0   0.313742922   3.08844   0.69242   1.35087  -0.88552
   5   35854.1    278.9   0.000807823   0.00742   0.07969   0.00827  -0.03160
   6   37109.1    269.5   0.004966273   0.04406   0.03974  -0.11786  -0.16908
   7   37959.4    263.4   0.217780095   1.88875   1.08757  -0.16388  -0.82406
   8   38413.9    260.3   0.030767849   0.26368  -0.21876  -0.18075   0.42797
   9   38560.6    259.3   0.021901274   0.18698  -0.11051   0.19568  -0.36943
  10   39871.5    250.8   0.016946343   0.13992  -0.06542   0.04465   0.36558
  11   40327.3    248.0   0.028941317   0.23626   0.32084  -0.12638   0.34256

FINAL SINGLE POINT ENERGY     -4401.823143480306

DIPOLE MOMENT
-------------
                                X             Y             Z
Electronic contribution:     20.06687      14.33141     -23.33429
Nuclear contribution   :    -21.74768     -14.73230      23.10321
                        -----------------------------------------
Total Dipole Moment    :     -1.68081      -0.40089      -0.23108
                        -----------------------------------------
Magnitude (a.u.)       :      1.74334
Magnitude (Debye)      :      4.43121

Rotational constants in cm-1:     0.002043     0.000466     0.000416
Rotational constants in MHz :    61.247392    13.985114    12.485094

                             ****ORCA TERMINATED NORMALLY****
TOTAL RUN TIME: 0 days 0 hours 7 minutes 4 seconds 772 msec
