                         Program Version 4.2.0 -  RELEASE  -
|  1> # ORCA input file
|  2> # SCF done       -155.596439649028          0.000208717096
|  3> ! CAM-B3LYP def2-SVP def2/J RIJCOSX Grid4 TightSCF
|  4> %maxcore 5000
|  5> %tddft
|  6>     Mode sTDDFT
|  7>     Ethresh 5.0
|  8>     maxcore 5000
|  9> end
| 10>
| 11> %pal
| 12>   nprocs 6
| 13>   end
| 14> * xyz 0 1
| 15>    C       -0.41469         1.56664        -1.18912
| 16>    C       -0.10117         0.11812        -1.60223
| 17>    C        0.04545         0.04511        -3.12061
| 18>    C       -1.18270        -0.79011        -1.05447
| 19>    C       -2.49792        -0.89625        -1.43853
| 20>    C       -3.36753        -1.74033        -0.73311
| 21>    C       -4.77596        -1.86686        -1.12312
| 22>    C       -5.59195        -2.86087        -0.61549
| 23>    C       -6.94178        -3.02412        -0.96777
| 24>    C       -7.55733        -2.20296        -1.86795
| 25>    C       -6.78493        -1.17421        -2.42630
| 26>    N       -7.19888        -0.27259        -3.31675
| 27>    S       -5.97939         0.70809        -3.66465
| 28>    N       -4.86660         0.04448        -2.71080
| 29>    C       -5.39906        -0.99375        -2.06267
| 30>    C       -2.86124        -2.45571         0.35912
| 31>    C       -1.53614        -2.37273         0.73386
| 32>    C       -0.68978        -1.54293         0.01977
| 33>    C        0.72152        -1.25989         0.17705
| 34>    C        1.63284        -1.72069         1.10836
| 35>    C        2.94259        -1.28171         1.03106
| 36>    C        3.34973        -0.42059         0.02237
| 37>    C        4.80330         0.02130        -0.09454
| 38>    C        5.37031        -0.48242        -1.38480
| 39>    N        5.32281         0.17017        -2.52187
| 40>    S        6.07485        -0.70512        -3.67021
| 41>    N        6.48479        -1.95622        -2.71285
| 42>    C        6.04712        -1.72961        -1.49684
| 43>    C        6.18777        -2.67028        -0.34247
| 44>    C        4.92538        -3.51801        -0.21802
| 45>    C        4.53528        -4.03057         1.01458
| 46>    C        3.30143        -4.63908         1.18000
| 47>    C        2.44964        -4.73192         0.09085
| 48>    C        2.89412        -4.32290        -1.17447
| 49>    C        4.11943        -3.72197        -1.33300
| 50>    C        1.83483        -4.55418        -2.22229
| 51>    C        1.53984        -3.28107        -3.01148
| 52>    C        2.24248        -5.69386        -3.16454
| 53>    C        0.66397        -4.96937        -1.36485
| 54>    C       -0.63871        -5.16218        -1.74932
| 55>    C       -1.59478        -5.51029        -0.79144
| 56>    C       -2.99479        -5.65712        -1.19210
| 57>    C       -3.84675        -6.57026        -0.60906
| 58>    C       -5.18594        -6.72783        -1.00842
| 59>    C       -5.73707        -5.97482        -2.00829
| 60>    C       -4.91950        -5.01512        -2.62538
| 61>    N       -5.26316        -4.16853        -3.59922
| 62>    S       -3.99295        -3.25277        -3.95203
| 63>    N       -2.94164        -3.88776        -2.91938
| 64>    C       -3.54513        -4.85456        -2.22520
| 65>    C       -1.19338        -5.69856         0.53280
| 66>    C        0.12099        -5.51029         0.92311
| 67>    C        1.05488        -5.12528        -0.02587
| 68>    C        6.33071        -1.79990         0.86534
| 69>    N        7.05469        -2.08871         1.92066
| 70>    S        6.93145        -0.87545         2.99986
| 71>    N        5.93442         0.05921         2.11730
| 72>    C        5.67076        -0.54324         0.98205
| 73>    C        2.42457         0.06077        -0.90440
| 74>    C        1.11058        -0.34519        -0.81662
| 75>    H       -1.35526         1.88458        -1.63244
| 76>    H        0.37769         2.23169        -1.52447
| 77>    H       -0.49800         1.64203        -0.10695
| 78>    H       -0.82370         0.49392        -3.59567
| 79>    H        0.12408        -0.98470        -3.45434
| 80>    H        0.93271         0.58678        -3.44028
| 81>    H       -2.87248        -0.32862        -2.27365
| 82>    H       -5.18616        -3.57826         0.08003
| 83>    H       -7.49210        -3.83458        -0.51351
| 84>    H       -8.58782        -2.31962        -2.15863
| 85>    H       -3.51182        -3.08359         0.94708
| 86>    H       -1.17116        -2.94033         1.57611
| 87>    H        1.33029        -2.40091         1.88914
| 88>    H        3.64984        -1.61366         1.77478
| 89>    H        4.83791         1.11538        -0.07202
| 90>    H        7.06347        -3.31507        -0.46393
| 91>    H        5.19601        -3.92473         1.86322
| 92>    H        3.00186        -4.99909         2.15313
| 93>    H        4.44015        -3.38981        -2.30808
| 94>    H        2.38936        -3.01169        -3.63527
| 95>    H        1.34228        -2.46724        -2.31891
| 96>    H        0.67074        -3.42607        -3.64866
| 97>    H        3.14458        -5.42600        -3.70986
| 98>    H        1.44584        -5.89156        -3.87785
| 99>    H        2.43597        -6.60209        -2.59756
|100>    H       -0.93715        -5.03559        -2.77699
|101>    H       -3.46866        -7.21553         0.17007
|102>    H       -5.78609        -7.47452        -0.50916
|103>    H       -6.75972        -6.09172        -2.32720
|104>    H       -1.93141        -5.95785         1.27814
|105>    H        0.40552        -5.64177         1.95724
|106>    H        2.75286         0.74565        -1.67319
|107> *
|108>
|109>                          ****END OF INPUT****

CARTESIAN COORDINATES (ANGSTROEM)
---------------------------------
  C     -0.414690    1.566640   -1.189120
  C     -0.101170    0.118120   -1.602230
  C      0.045450    0.045110   -3.120610
  C     -1.182700   -0.790110   -1.054470
  C     -2.497920   -0.896250   -1.438530
  C     -3.367530   -1.740330   -0.733110
  C     -4.775960   -1.866860   -1.123120
  C     -5.591950   -2.860870   -0.615490
  C     -6.941780   -3.024120   -0.967770
  C     -7.557330   -2.202960   -1.867950
  C     -6.784930   -1.174210   -2.426300
  N     -7.198880   -0.272590   -3.316750
  S     -5.979390    0.708090   -3.664650
  N     -4.866600    0.044480   -2.710800
  C     -5.399060   -0.993750   -2.062670
  C     -2.861240   -2.455710    0.359120
  C     -1.536140   -2.372730    0.733860
  C     -0.689780   -1.542930    0.019770
  C      0.721520   -1.259890    0.177050
  C      1.632840   -1.720690    1.108360
  C      2.942590   -1.281710    1.031060
  C      3.349730   -0.420590    0.022370
  C      4.803300    0.021300   -0.094540
  C      5.370310   -0.482420   -1.384800
  N      5.322810    0.170170   -2.521870
  S      6.074850   -0.705120   -3.670210
  N      6.484790   -1.956220   -2.712850
  C      6.047120   -1.729610   -1.496840
  C      6.187770   -2.670280   -0.342470
  C      4.925380   -3.518010   -0.218020
  C      4.535280   -4.030570    1.014580
  C      3.301430   -4.639080    1.180000
  C      2.449640   -4.731920    0.090850
  C      2.894120   -4.322900   -1.174470
  C      4.119430   -3.721970   -1.333000
  C      1.834830   -4.554180   -2.222290
  C      1.539840   -3.281070   -3.011480
  C      2.242480   -5.693860   -3.164540
  C      0.663970   -4.969370   -1.364850
  C     -0.638710   -5.162180   -1.749320
  C     -1.594780   -5.510290   -0.791440
  C     -2.994790   -5.657120   -1.192100
  C     -3.846750   -6.570260   -0.609060
  C     -5.185940   -6.727830   -1.008420
  C     -5.737070   -5.974820   -2.008290
  C     -4.919500   -5.015120   -2.625380
  N     -5.263160   -4.168530   -3.599220
  S     -3.992950   -3.252770   -3.952030
  N     -2.941640   -3.887760   -2.919380
  C     -3.545130   -4.854560   -2.225200
  C     -1.193380   -5.698560    0.532800
  C      0.120990   -5.510290    0.923110
  C      1.054880   -5.125280   -0.025870
  C      6.330710   -1.799900    0.865340
  N      7.054690   -2.088710    1.920660
  S      6.931450   -0.875450    2.999860
  N      5.934420    0.059210    2.117300
  C      5.670760   -0.543240    0.982050
  C      2.424570    0.060770   -0.904400
  C      1.110580   -0.345190   -0.816620
  H     -1.355260    1.884580   -1.632440
  H      0.377690    2.231690   -1.524470
  H     -0.498000    1.642030   -0.106950
  H     -0.823700    0.493920   -3.595670
  H      0.124080   -0.984700   -3.454340
  H      0.932710    0.586780   -3.440280
  H     -2.872480   -0.328620   -2.273650
  H     -5.186160   -3.578260    0.080030
  H     -7.492100   -3.834580   -0.513510
  H     -8.587820   -2.319620   -2.158630
  H     -3.511820   -3.083590    0.947080
  H     -1.171160   -2.940330    1.576110
  H      1.330290   -2.400910    1.889140
  H      3.649840   -1.613660    1.774780
  H      4.837910    1.115380   -0.072020
  H      7.063470   -3.315070   -0.463930
  H      5.196010   -3.924730    1.863220
  H      3.001860   -4.999090    2.153130
  H      4.440150   -3.389810   -2.308080
  H      2.389360   -3.011690   -3.635270
  H      1.342280   -2.467240   -2.318910
  H      0.670740   -3.426070   -3.648660
  H      3.144580   -5.426000   -3.709860
  H      1.445840   -5.891560   -3.877850
  H      2.435970   -6.602090   -2.597560
  H     -0.937150   -5.035590   -2.776990
  H     -3.468660   -7.215530    0.170070
  H     -5.786090   -7.474520   -0.509160
  H     -6.759720   -6.091720   -2.327200
  H     -1.931410   -5.957850    1.278140
  H      0.405520   -5.641770    1.957240
  H      2.752860    0.745650   -1.673190

 Total Charge           Charge          ....    0
 Multiplicity           Mult            ....    1
 Number of Electrons    NEL             ....  440
 Basis Dimension        Dim             .... 1016

ORBITAL ENERGIES
----------------

  NO   OCC          E(Eh)            E(eV)
   0   2.0000     -89.015224     -2422.2274
   1   2.0000     -89.011946     -2422.1382
   2   2.0000     -89.002487     -2421.8808
   3   2.0000     -89.002336     -2421.8767
   4   2.0000     -14.432977      -392.7413
   5   2.0000     -14.432719      -392.7342
   6   2.0000     -14.432614      -392.7314
   7   2.0000     -14.432341      -392.7240
   8   2.0000     -14.427543      -392.5934
   9   2.0000     -14.426370      -392.5615
  10   2.0000     -14.425691      -392.5430
  11   2.0000     -14.425349      -392.5337
  12   2.0000     -10.321589      -280.8647
  13   2.0000     -10.321473      -280.8615
  14   2.0000     -10.321239      -280.8552
  15   2.0000     -10.320195      -280.8268
  16   2.0000     -10.313115      -280.6341
  17   2.0000     -10.312663      -280.6218
  18   2.0000     -10.311318      -280.5852
  19   2.0000     -10.309071      -280.5241
  20   2.0000     -10.299258      -280.2571
  21   2.0000     -10.296811      -280.1905
  22   2.0000     -10.288916      -279.9756
  23   2.0000     -10.286077      -279.8984
  24   2.0000     -10.282676      -279.8058
  25   2.0000     -10.279191      -279.7110
  26   2.0000     -10.278989      -279.7055
  27   2.0000     -10.278297      -279.6867
  28   2.0000     -10.275425      -279.6085
  29   2.0000     -10.274766      -279.5906
  30   2.0000     -10.274268      -279.5770
  31   2.0000     -10.273502      -279.5562
  32   2.0000     -10.273336      -279.5517
  33   2.0000     -10.272768      -279.5362
  34   2.0000     -10.272334      -279.5244
  35   2.0000     -10.267874      -279.4030
  36   2.0000     -10.266918      -279.3770
  37   2.0000     -10.266505      -279.3658
  38   2.0000     -10.266045      -279.3533
  39   2.0000     -10.265665      -279.3429
  40   2.0000     -10.265428      -279.3365
  41   2.0000     -10.263499      -279.2840
  42   2.0000     -10.262167      -279.2478
  43   2.0000     -10.261396      -279.2268
  44   2.0000     -10.260147      -279.1928
  45   2.0000     -10.259997      -279.1887
  46   2.0000     -10.259427      -279.1732
  47   2.0000     -10.259253      -279.1685
  48   2.0000     -10.258500      -279.1480
  49   2.0000     -10.258402      -279.1453
  50   2.0000     -10.258266      -279.1416
  51   2.0000     -10.256903      -279.1045
  52   2.0000     -10.255908      -279.0774
  53   2.0000     -10.255442      -279.0648
  54   2.0000     -10.253263      -279.0055
  55   2.0000     -10.251859      -278.9673
  56   2.0000     -10.248717      -278.8818
  57   2.0000     -10.248569      -278.8777
  58   2.0000     -10.247725      -278.8548
  59   2.0000     -10.247228      -278.8412
  60   2.0000      -8.106246      -220.5822
  61   2.0000      -8.104040      -220.5221
  62   2.0000      -8.095259      -220.2832
  63   2.0000      -8.095213      -220.2819
  64   2.0000      -6.077376      -165.3738
  65   2.0000      -6.075253      -165.3160
  66   2.0000      -6.069753      -165.1664
  67   2.0000      -6.068831      -165.1413
  68   2.0000      -6.067506      -165.1052
  69   2.0000      -6.066959      -165.0903
  70   2.0000      -6.066957      -165.0903
  71   2.0000      -6.066395      -165.0750
  72   2.0000      -6.059352      -164.8833
  73   2.0000      -6.059318      -164.8824
  74   2.0000      -6.056321      -164.8009
  75   2.0000      -6.056158      -164.7964
  76   2.0000      -1.117267       -30.4024
  77   2.0000      -1.113606       -30.3028
  78   2.0000      -1.112002       -30.2591
  79   2.0000      -1.111592       -30.2480
  80   2.0000      -0.983795       -26.7704
  81   2.0000      -0.980263       -26.6743
  82   2.0000      -0.974146       -26.5079
  83   2.0000      -0.968516       -26.3547
  84   2.0000      -0.967128       -26.3169
  85   2.0000      -0.966288       -26.2940
  86   2.0000      -0.959301       -26.1039
  87   2.0000      -0.953734       -25.9524
  88   2.0000      -0.949917       -25.8486
  89   2.0000      -0.930845       -25.3296
  90   2.0000      -0.923269       -25.1234
  91   2.0000      -0.903285       -24.5796
  92   2.0000      -0.897387       -24.4191
  93   2.0000      -0.873097       -23.7582
  94   2.0000      -0.866515       -23.5791
  95   2.0000      -0.855656       -23.2836
  96   2.0000      -0.855087       -23.2681
  97   2.0000      -0.850267       -23.1369
  98   2.0000      -0.845468       -23.0064
  99   2.0000      -0.838941       -22.8288
 100   2.0000      -0.825374       -22.4596
 101   2.0000      -0.821736       -22.3606
 102   2.0000      -0.818903       -22.2835
 103   2.0000      -0.812628       -22.1127
 104   2.0000      -0.807313       -21.9681
 105   2.0000      -0.798383       -21.7251
 106   2.0000      -0.775014       -21.0892
 107   2.0000      -0.766456       -20.8563
 108   2.0000      -0.765414       -20.8280
 109   2.0000      -0.759074       -20.6555
 110   2.0000      -0.733061       -19.9476
 111   2.0000      -0.729558       -19.8523
 112   2.0000      -0.728303       -19.8181
 113   2.0000      -0.723404       -19.6848
 114   2.0000      -0.713268       -19.4090
 115   2.0000      -0.700938       -19.0735
 116   2.0000      -0.696450       -18.9514
 117   2.0000      -0.694712       -18.9041
 118   2.0000      -0.689923       -18.7738
 119   2.0000      -0.681686       -18.5496
 120   2.0000      -0.670325       -18.2405
 121   2.0000      -0.665630       -18.1127
 122   2.0000      -0.663359       -18.0509
 123   2.0000      -0.657306       -17.8862
 124   2.0000      -0.652582       -17.7577
 125   2.0000      -0.649990       -17.6871
 126   2.0000      -0.646559       -17.5938
 127   2.0000      -0.630541       -17.1579
 128   2.0000      -0.624915       -17.0048
 129   2.0000      -0.610465       -16.6116
 130   2.0000      -0.595602       -16.2071
 131   2.0000      -0.592754       -16.1297
 132   2.0000      -0.588668       -16.0185
 133   2.0000      -0.584559       -15.9066
 134   2.0000      -0.583517       -15.8783
 135   2.0000      -0.581004       -15.8099
 136   2.0000      -0.577696       -15.7199
 137   2.0000      -0.571559       -15.5529
 138   2.0000      -0.562249       -15.2996
 139   2.0000      -0.557135       -15.1604
 140   2.0000      -0.553472       -15.0607
 141   2.0000      -0.550670       -14.9845
 142   2.0000      -0.547476       -14.8976
 143   2.0000      -0.546271       -14.8648
 144   2.0000      -0.539944       -14.6926
 145   2.0000      -0.532671       -14.4947
 146   2.0000      -0.529488       -14.4081
 147   2.0000      -0.527873       -14.3642
 148   2.0000      -0.524869       -14.2824
 149   2.0000      -0.521407       -14.1882
 150   2.0000      -0.520188       -14.1550
 151   2.0000      -0.519176       -14.1275
 152   2.0000      -0.515606       -14.0303
 153   2.0000      -0.510303       -13.8861
 154   2.0000      -0.509216       -13.8565
 155   2.0000      -0.506776       -13.7901
 156   2.0000      -0.505755       -13.7623
 157   2.0000      -0.502919       -13.6851
 158   2.0000      -0.499974       -13.6050
 159   2.0000      -0.497385       -13.5345
 160   2.0000      -0.495065       -13.4714
 161   2.0000      -0.491237       -13.3672
 162   2.0000      -0.488418       -13.2905
 163   2.0000      -0.477570       -12.9953
 164   2.0000      -0.474536       -12.9128
 165   2.0000      -0.469283       -12.7699
 166   2.0000      -0.465625       -12.6703
 167   2.0000      -0.463655       -12.6167
 168   2.0000      -0.461039       -12.5455
 169   2.0000      -0.459527       -12.5044
 170   2.0000      -0.457584       -12.4515
 171   2.0000      -0.456837       -12.4312
 172   2.0000      -0.454915       -12.3789
 173   2.0000      -0.453820       -12.3491
 174   2.0000      -0.452955       -12.3255
 175   2.0000      -0.451133       -12.2760
 176   2.0000      -0.449999       -12.2451
 177   2.0000      -0.445857       -12.1324
 178   2.0000      -0.445228       -12.1153
 179   2.0000      -0.440465       -11.9857
 180   2.0000      -0.437286       -11.8991
 181   2.0000      -0.434048       -11.8110
 182   2.0000      -0.432468       -11.7681
 183   2.0000      -0.425151       -11.5690
 184   2.0000      -0.424192       -11.5429
 185   2.0000      -0.420122       -11.4321
 186   2.0000      -0.414999       -11.2927
 187   2.0000      -0.414423       -11.2770
 188   2.0000      -0.413010       -11.2386
 189   2.0000      -0.402311       -10.9474
 190   2.0000      -0.398233       -10.8365
 191   2.0000      -0.397500       -10.8165
 192   2.0000      -0.396833       -10.7984
 193   2.0000      -0.388912       -10.5828
 194   2.0000      -0.387454       -10.5432
 195   2.0000      -0.386989       -10.5305
 196   2.0000      -0.385465       -10.4890
 197   2.0000      -0.381580       -10.3833
 198   2.0000      -0.381019       -10.3681
 199   2.0000      -0.379405       -10.3241
 200   2.0000      -0.376524       -10.2457
 201   2.0000      -0.374647       -10.1947
 202   2.0000      -0.360330        -9.8051
 203   2.0000      -0.358689        -9.7604
 204   2.0000      -0.358119        -9.7449
 205   2.0000      -0.350865        -9.5475
 206   2.0000      -0.348963        -9.4958
 207   2.0000      -0.343945        -9.3592
 208   2.0000      -0.334545        -9.1034
 209   2.0000      -0.329732        -8.9725
 210   2.0000      -0.328080        -8.9275
 211   2.0000      -0.314022        -8.5450
 212   2.0000      -0.310940        -8.4611
 213   2.0000      -0.308692        -8.3999
 214   2.0000      -0.304372        -8.2824
 215   2.0000      -0.302903        -8.2424
 216   2.0000      -0.296465        -8.0672
 217   2.0000      -0.295543        -8.0421
 218   2.0000      -0.261122        -7.1055
 219   2.0000      -0.249226        -6.7818
 220   0.0000      -0.055646        -1.5142
 221   0.0000      -0.048782        -1.3274
 222   0.0000      -0.025746        -0.7006
 223   0.0000      -0.004291        -0.1168
 224   0.0000       0.000057         0.0016

MULLIKEN ATOMIC CHARGES
-----------------------
   0 C :    0.129607
   1 C :   -0.167839
   2 C :    0.102877
   3 C :    0.041905
   4 C :   -0.111326
   5 C :    0.120113
   6 C :    0.108325
   7 C :   -0.059561
   8 C :    0.062920
   9 C :   -0.020025
  10 C :    0.060829
  11 N :   -0.268781
  12 S :    0.491210
  13 N :   -0.300180
  14 C :   -0.029877
  15 C :   -0.043817
  16 C :   -0.037415
  17 C :    0.109508
  18 C :    0.100388
  19 C :   -0.032023
  20 C :    0.056489
  21 C :   -0.043432
  22 C :    0.338737
  23 C :   -0.078993
  24 N :   -0.274824
  25 S :    0.438848
  26 N :   -0.267707
  27 C :   -0.171424
  28 C :    0.416959
  29 C :   -0.081153
  30 C :   -0.001886
  31 C :   -0.072555
  32 C :    0.139027
  33 C :    0.020887
  34 C :   -0.032585
  35 C :   -0.139196
  36 C :    0.076545
  37 C :    0.128576
  38 C :    0.024261
  39 C :   -0.061360
  40 C :    0.087617
  41 C :    0.090253
  42 C :   -0.060725
  43 C :    0.036242
  44 C :   -0.030785
  45 C :    0.068807
  46 N :   -0.267149
  47 S :    0.491549
  48 N :   -0.271962
  49 C :   -0.010927
  50 C :   -0.035678
  51 C :   -0.067783
  52 C :    0.099170
  53 C :   -0.123776
  54 N :   -0.270241
  55 S :    0.439667
  56 N :   -0.249743
  57 C :   -0.172603
  58 C :   -0.096206
  59 C :    0.026920
  60 H :    0.009495
  61 H :    0.003506
  62 H :    0.013468
  63 H :    0.007054
  64 H :    0.007323
  65 H :    0.006309
  66 H :   -0.034838
  67 H :   -0.022081
  68 H :   -0.015705
  69 H :   -0.024691
  70 H :   -0.040609
  71 H :   -0.046184
  72 H :   -0.045650
  73 H :   -0.018597
  74 H :    0.020462
  75 H :    0.020445
  76 H :   -0.019423
  77 H :   -0.038836
  78 H :   -0.036446
  79 H :    0.002800
  80 H :    0.041277
  81 H :    0.020766
  82 H :    0.006339
  83 H :    0.006146
  84 H :    0.012153
  85 H :   -0.028880
  86 H :   -0.020565
  87 H :   -0.008192
  88 H :   -0.022339
  89 H :   -0.033768
  90 H :   -0.041173
  91 H :   -0.034262
Sum of atomic charges:   -0.0000000

LOEWDIN ATOMIC CHARGES
----------------------
   0 C :   -0.022451
   1 C :   -0.035126
   2 C :   -0.032748
   3 C :    0.000090
   4 C :   -0.016327
   5 C :   -0.023439
   6 C :   -0.028434
   7 C :   -0.013585
   8 C :   -0.012712
   9 C :   -0.018659
  10 C :   -0.052091
  11 N :   -0.285847
  12 S :    0.626291
  13 N :   -0.291573
  14 C :   -0.050636
  15 C :   -0.015425
  16 C :   -0.015304
  17 C :   -0.015029
  18 C :   -0.019760
  19 C :   -0.011667
  20 C :   -0.020009
  21 C :   -0.016508
  22 C :   -0.016210
  23 C :   -0.040641
  24 N :   -0.270832
  25 S :    0.569459
  26 N :   -0.270182
  27 C :   -0.046725
  28 C :   -0.010868
  29 C :   -0.016255
  30 C :   -0.026715
  31 C :   -0.019951
  32 C :   -0.014858
  33 C :    0.010821
  34 C :   -0.022528
  35 C :   -0.036606
  36 C :   -0.031684
  37 C :   -0.023963
  38 C :    0.004932
  39 C :   -0.001189
  40 C :   -0.016386
  41 C :   -0.012205
  42 C :   -0.023614
  43 C :   -0.018863
  44 C :   -0.025376
  45 C :   -0.051733
  46 N :   -0.286908
  47 S :    0.655964
  48 N :   -0.274277
  49 C :   -0.046005
  50 C :   -0.018603
  51 C :   -0.028086
  52 C :   -0.014569
  53 C :   -0.047588
  54 N :   -0.271442
  55 S :    0.571180
  56 N :   -0.262991
  57 C :   -0.048664
  58 C :   -0.025779
  59 C :    0.000833
  60 H :    0.023214
  61 H :    0.020573
  62 H :    0.027758
  63 H :    0.023907
  64 H :    0.026804
  65 H :    0.023258
  66 H :    0.018513
  67 H :    0.028343
  68 H :    0.029734
  69 H :    0.035787
  70 H :    0.021147
  71 H :    0.022844
  72 H :    0.023920
  73 H :    0.023489
  74 H :    0.057650
  75 H :    0.057371
  76 H :    0.026484
  77 H :    0.024284
  78 H :    0.024479
  79 H :    0.020251
  80 H :    0.031800
  81 H :    0.023651
  82 H :    0.022535
  83 H :    0.022645
  84 H :    0.027265
  85 H :    0.024362
  86 H :    0.030037
  87 H :    0.031927
  88 H :    0.034715
  89 H :    0.022463
  90 H :    0.023666
  91 H :    0.025177

  Mayer bond orders larger than 0.100000
B(  0-C ,  1-C ) :   1.0324 B(  0-C , 60-H ) :   0.9616 B(  0-C , 61-H ) :   0.9624
B(  0-C , 62-H ) :   0.9604 B(  1-C ,  2-C ) :   1.0482 B(  1-C ,  3-C ) :   0.9322
B(  1-C , 59-C ) :   0.9330 B(  2-C , 63-H ) :   0.9575 B(  2-C , 64-H ) :   0.9603
B(  2-C , 65-H ) :   0.9606 B(  3-C ,  4-C ) :   1.3747 B(  3-C , 17-C ) :   1.3879
B(  4-C ,  5-C ) :   1.3216 B(  4-C , 66-H ) :   0.9804 B(  5-C ,  6-C ) :   1.0066
B(  5-C , 15-C ) :   1.3488 B(  6-C ,  7-C ) :   1.5319 B(  6-C ,  9-C ) :   0.1055
B(  6-C , 14-C ) :   1.1566 B(  7-C ,  8-C ) :   1.1955 B(  7-C , 67-H ) :   0.9869
B(  8-C ,  9-C ) :   1.4912 B(  8-C , 68-H ) :   0.9793 B(  9-C , 10-C ) :   1.2054
B(  9-C , 69-H ) :   1.0184 B( 10-C , 11-N ) :   1.5160 B( 10-C , 14-C ) :   1.1550
B( 11-N , 12-S ) :   1.2724 B( 11-N , 13-N ) :   0.1495 B( 12-S , 13-N ) :   1.2477
B( 13-N , 14-C ) :   1.5130 B( 15-C , 16-C ) :   1.3870 B( 15-C , 70-H ) :   0.9820
B( 16-C , 17-C ) :   1.3461 B( 16-C , 71-H ) :   0.9825 B( 17-C , 18-C ) :   0.9873
B( 18-C , 19-C ) :   1.3704 B( 18-C , 59-C ) :   1.3712 B( 19-C , 20-C ) :   1.3474
B( 19-C , 72-H ) :   0.9837 B( 20-C , 21-C ) :   1.4442 B( 20-C , 73-H ) :   0.9486
B( 21-C , 22-C ) :   1.0047 B( 21-C , 58-C ) :   1.3366 B( 22-C , 23-C ) :   0.9791
B( 22-C , 57-C ) :   0.9609 B( 22-C , 74-H ) :   0.8363 B( 23-C , 24-N ) :   1.6730
B( 23-C , 27-C ) :   1.2119 B( 24-N , 25-S ) :   1.1901 B( 24-N , 26-N ) :   0.1192
B( 25-S , 26-N ) :   1.1889 B( 26-N , 27-C ) :   1.6621 B( 27-C , 28-C ) :   0.9768
B( 28-C , 29-C ) :   0.9921 B( 28-C , 53-C ) :   0.9806 B( 28-C , 75-H ) :   0.7985
B( 29-C , 30-C ) :   1.4097 B( 29-C , 34-C ) :   1.3722 B( 30-C , 31-C ) :   1.3642
B( 30-C , 76-H ) :   0.9720 B( 31-C , 32-C ) :   1.3355 B( 31-C , 77-H ) :   0.9947
B( 32-C , 33-C ) :   1.3962 B( 32-C , 52-C ) :   0.9731 B( 33-C , 34-C ) :   1.3619
B( 33-C , 35-C ) :   0.9375 B( 34-C , 78-H ) :   0.9858 B( 35-C , 36-C ) :   1.0501
B( 35-C , 37-C ) :   1.0204 B( 35-C , 38-C ) :   0.9267 B( 36-C , 79-H ) :   0.9520
B( 36-C , 80-H ) :   0.9677 B( 36-C , 81-H ) :   0.9530 B( 37-C , 82-H ) :   0.9632
B( 37-C , 83-H ) :   0.9635 B( 37-C , 84-H ) :   0.9614 B( 38-C , 39-C ) :   1.3990
B( 38-C , 52-C ) :   1.3875 B( 39-C , 40-C ) :   1.3356 B( 39-C , 85-H ) :   0.9896
B( 40-C , 41-C ) :   0.9709 B( 40-C , 50-C ) :   1.3763 B( 41-C , 42-C ) :   1.5223
B( 41-C , 44-C ) :   0.1078 B( 41-C , 49-C ) :   1.2075 B( 42-C , 43-C ) :   1.1875
B( 42-C , 86-H ) :   0.9979 B( 43-C , 44-C ) :   1.4845 B( 43-C , 87-H ) :   0.9877
B( 44-C , 45-C ) :   1.2070 B( 44-C , 88-H ) :   1.0214 B( 45-C , 46-N ) :   1.4944
B( 45-C , 49-C ) :   1.1669 B( 46-N , 47-S ) :   1.2838 B( 46-N , 48-N ) :   0.1481
B( 47-S , 48-N ) :   1.2733 B( 48-N , 49-C ) :   1.4952 B( 50-C , 51-C ) :   1.3675
B( 50-C , 89-H ) :   0.9848 B( 51-C , 52-C ) :   1.3482 B( 51-C , 90-H ) :   0.9943
B( 53-C , 54-N ) :   1.6542 B( 53-C , 57-C ) :   1.2042 B( 54-N , 55-S ) :   1.1918
B( 54-N , 56-N ) :   0.1196 B( 55-S , 56-N ) :   1.1966 B( 56-N , 57-C ) :   1.6992
B( 58-C , 59-C ) :   1.3687 B( 58-C , 91-H ) :   1.0061

-----------------------------------------------------------------------------
         ABSORPTION SPECTRUM VIA TRANSITION ELECTRIC DIPOLE MOMENTS
-----------------------------------------------------------------------------
State   Energy  Wavelength   fosc         T2         TX        TY        TZ
        (cm-1)    (nm)                  (au**2)     (au)      (au)      (au)
-----------------------------------------------------------------------------
   0   24149.7    414.1   0.079854027   1.08858   0.92433   0.20699   0.43744
   1   26607.9    375.8   0.202128367   2.50088  -1.54401  -0.06262  -0.33613
   2   27916.4    358.2   0.440910285   5.19956  -2.18963  -0.08880  -0.63023
   3   30433.7    328.6   0.116013103   1.25495   1.01384   0.41022   0.24249
   4   32928.9    303.7   0.006337691   0.06336  -0.24906   0.02118   0.02972
   5   33457.8    298.9   0.007548463   0.07427   0.22819   0.14800  -0.01727
   6   34607.7    289.0   0.007673250   0.07299  -0.23986   0.07323   0.10049
   7   34814.0    287.2   0.007478721   0.07072  -0.24663   0.09108  -0.03998
   8   35550.0    281.3   0.093445667   0.86536   0.82425   0.24478   0.35504
   9   35997.8    277.8   0.160094320   1.46412  -1.14243  -0.39830   0.01844
  10   36177.3    276.4   0.005073750   0.04617   0.21073  -0.03212  -0.02708
  11   36665.1    272.7   0.107936697   0.96915   0.97671   0.02242   0.12115
  12   37539.3    266.4   0.133970408   1.17489   1.04892  -0.08439   0.25989
  13   37730.9    265.0   0.106020085   0.92505  -0.73777  -0.57281   0.22946
  14   38187.8    261.9   0.087302526   0.75262   0.64944  -0.21367   0.53404
  15   38327.3    260.9   0.021494095   0.18462  -0.12569  -0.40242   0.08297
  16   38482.4    259.9   0.264951271   2.26663  -1.25089   0.54516  -0.63616
  17   38806.6    257.7   0.080247459   0.68077  -0.37669   0.56379  -0.47013
  18   39098.7    255.8   0.109895021   0.92532  -0.73162  -0.62360   0.03419
  19   39312.7    254.4   0.009483869   0.07942   0.23902   0.10684  -0.10427
  20   39600.1    252.5   0.128509805   1.06835  -0.94569  -0.01342  -0.41695
  21   40246.6    248.5   0.518609408   4.24216   1.97279   0.46153   0.37046
  22   40316.8    248.0   0.091967630   0.75097  -0.82369   0.04054  -0.26619

FINAL SINGLE POINT ENERGY     -3875.767587061086

DIPOLE MOMENT
-------------
                                X             Y             Z
Electronic contribution:      8.21396      13.43991      -1.01526
Nuclear contribution   :     -8.81191     -14.26458       1.28854
                        -----------------------------------------
Total Dipole Moment    :     -0.59794      -0.82467       0.27328
                        -----------------------------------------
Magnitude (a.u.)       :      1.05466
Magnitude (Debye)      :      2.68073

Rotational constants in cm-1:     0.002861     0.000842     0.000771
Rotational constants in MHz :    85.776213    25.230111    23.113293

                             ****ORCA TERMINATED NORMALLY****
TOTAL RUN TIME: 0 days 0 hours 11 minutes 11 seconds 967 msec
