                         Program Version 4.2.0 -  RELEASE  -
|  1> # ORCA input file
|  2> # SCF done       -166.449870299829          0.000916119291
|  3> ! CAM-B3LYP def2-SVP def2/J RIJCOSX Grid4 TightSCF
|  4> %maxcore 5000
|  5> %tddft
|  6>     Mode sTDDFT
|  7>     Ethresh 5.0
|  8>     maxcore 5000
|  9> end
| 10>
| 11> %pal
| 12>   nprocs 6
| 13>   end
| 14> * xyz 0 1
| 15>    C       -1.57635        -0.49550         3.47440
| 16>    C       -1.05559         0.62514         4.06631
| 17>    C       -1.05657         1.86978         3.42308
| 18>    C       -1.57772         2.05969         2.15431
| 19>    C       -2.12508         0.91298         1.51574
| 20>    C       -2.11880        -0.36121         2.18726
| 21>    N       -2.67156        -1.32040         1.44118
| 22>    S       -3.14644        -0.68556         0.04788
| 23>    N       -2.68184         0.83059         0.30868
| 24>    C       -1.57141         3.34127         1.50755
| 25>    C       -2.04752         3.65563         0.25051
| 26>    C       -1.87641         5.00621        -0.05490
| 27>    C       -1.26247         5.72997         0.98385
| 28>    S       -0.89880         4.74557         2.32831
| 29>    C       -1.13027         7.08243         0.58796
| 30>    C       -1.66424         7.21343        -0.71125
| 31>    C       -2.14928         5.91524        -1.15513
| 32>    C       -2.73498         5.61709        -2.35047
| 33>    C       -2.94746         6.59186        -3.34845
| 34>    N       -3.12753         7.37410        -4.16769
| 35>    C       -3.16821         4.31425        -2.67627
| 36>    N       -3.52867         3.26170        -2.95427
| 37>    C       -1.58284         8.51066        -1.19682
| 38>    C       -0.99245         9.37538        -0.28187
| 39>    S       -0.53257         8.55956         1.20423
| 40>    C       -0.75511        10.76422        -0.45344
| 41>    C       -0.15040        11.54403         0.55622
| 42>    C        0.09566        12.94917         0.40345
| 43>    N        0.67588        13.62850         1.41193
| 44>    C        1.00292        13.00946         2.50046
| 45>    C        0.76006        11.62120         2.65130
| 46>    N        0.20460        10.93543         1.70458
| 47>    F        1.09541        10.98233         3.76942
| 48>    F        1.57376        13.71687         3.47235
| 49>    C       -0.24702        13.65769        -0.76863
| 50>    C       -0.85276        12.88271        -1.78784
| 51>    C       -1.10198        11.46691        -1.63336
| 52>    N       -1.67960        10.95299        -2.71967
| 53>    S       -1.88942        12.10598        -3.81307
| 54>    N       -1.26281        13.32210        -2.97806
| 55>    C        0.00221        15.04891        -0.89918
| 56>    C       -0.28552        15.84839        -1.99985
| 57>    C        0.08274        17.17039        -1.79507
| 58>    C        0.65802        17.38626        -0.52514
| 59>    S        0.74428        15.95777         0.40807
| 60>    C        0.98830        18.75847        -0.41902
| 61>    C        0.62650        19.41062        -1.61217
| 62>    C        0.04695        18.43306        -2.51759
| 63>    C       -0.43009        18.65079        -3.77687
| 64>    C       -0.41293        19.92538        -4.38211
| 65>    N       -0.40797        20.95501        -4.88688
| 66>    C       -0.97346        17.61454        -4.56565
| 67>    N       -1.41980        16.78245        -5.21655
| 68>    C        0.91117        20.77635        -1.59341
| 69>    C        1.48437        21.17284        -0.40181
| 70>    S        1.67716        19.82785         0.71708
| 71>    C        1.90056        22.49365        -0.02366
| 72>    C        2.46927        22.76446         1.20950
| 73>    C        2.87546        24.04899         1.59397
| 74>    C        2.73409        25.13083         0.76510
| 75>    C        2.16388        24.91434        -0.49863
| 76>    C        1.74290        23.59829        -0.90528
| 77>    N        1.22894        23.60354        -2.13392
| 78>    S        1.27138        25.10176        -2.71370
| 79>    N        1.93916        25.82507        -1.44852
| 80>    H       -1.58094        -1.45734         3.95969
| 81>    H       -0.62990         0.55854         5.05610
| 82>    H       -0.63147         2.71815         3.94022
| 83>    H       -2.49288         2.91741        -0.39089
| 84>    H       -1.92352         8.84733        -2.15838
| 85>    H       -0.74192        15.45042        -2.88717
| 86>    H        0.71989        21.46960        -2.39187
| 87>    H        2.60554        21.94997         1.90660
| 88>    H        3.31035        24.17881         2.57344
| 89>    H        3.04195        26.12294         1.05074
| 90> *
| 91>
| 92>                          ****END OF INPUT****

CARTESIAN COORDINATES (ANGSTROEM)
---------------------------------
  C     -1.576350   -0.495500    3.474400
  C     -1.055590    0.625140    4.066310
  C     -1.056570    1.869780    3.423080
  C     -1.577720    2.059690    2.154310
  C     -2.125080    0.912980    1.515740
  C     -2.118800   -0.361210    2.187260
  N     -2.671560   -1.320400    1.441180
  S     -3.146440   -0.685560    0.047880
  N     -2.681840    0.830590    0.308680
  C     -1.571410    3.341270    1.507550
  C     -2.047520    3.655630    0.250510
  C     -1.876410    5.006210   -0.054900
  C     -1.262470    5.729970    0.983850
  S     -0.898800    4.745570    2.328310
  C     -1.130270    7.082430    0.587960
  C     -1.664240    7.213430   -0.711250
  C     -2.149280    5.915240   -1.155130
  C     -2.734980    5.617090   -2.350470
  C     -2.947460    6.591860   -3.348450
  N     -3.127530    7.374100   -4.167690
  C     -3.168210    4.314250   -2.676270
  N     -3.528670    3.261700   -2.954270
  C     -1.582840    8.510660   -1.196820
  C     -0.992450    9.375380   -0.281870
  S     -0.532570    8.559560    1.204230
  C     -0.755110   10.764220   -0.453440
  C     -0.150400   11.544030    0.556220
  C      0.095660   12.949170    0.403450
  N      0.675880   13.628500    1.411930
  C      1.002920   13.009460    2.500460
  C      0.760060   11.621200    2.651300
  N      0.204600   10.935430    1.704580
  F      1.095410   10.982330    3.769420
  F      1.573760   13.716870    3.472350
  C     -0.247020   13.657690   -0.768630
  C     -0.852760   12.882710   -1.787840
  C     -1.101980   11.466910   -1.633360
  N     -1.679600   10.952990   -2.719670
  S     -1.889420   12.105980   -3.813070
  N     -1.262810   13.322100   -2.978060
  C      0.002210   15.048910   -0.899180
  C     -0.285520   15.848390   -1.999850
  C      0.082740   17.170390   -1.795070
  C      0.658020   17.386260   -0.525140
  S      0.744280   15.957770    0.408070
  C      0.988300   18.758470   -0.419020
  C      0.626500   19.410620   -1.612170
  C      0.046950   18.433060   -2.517590
  C     -0.430090   18.650790   -3.776870
  C     -0.412930   19.925380   -4.382110
  N     -0.407970   20.955010   -4.886880
  C     -0.973460   17.614540   -4.565650
  N     -1.419800   16.782450   -5.216550
  C      0.911170   20.776350   -1.593410
  C      1.484370   21.172840   -0.401810
  S      1.677160   19.827850    0.717080
  C      1.900560   22.493650   -0.023660
  C      2.469270   22.764460    1.209500
  C      2.875460   24.048990    1.593970
  C      2.734090   25.130830    0.765100
  C      2.163880   24.914340   -0.498630
  C      1.742900   23.598290   -0.905280
  N      1.228940   23.603540   -2.133920
  S      1.271380   25.101760   -2.713700
  N      1.939160   25.825070   -1.448520
  H     -1.580940   -1.457340    3.959690
  H     -0.629900    0.558540    5.056100
  H     -0.631470    2.718150    3.940220
  H     -2.492880    2.917410   -0.390890
  H     -1.923520    8.847330   -2.158380
  H     -0.741920   15.450420   -2.887170
  H      0.719890   21.469600   -2.391870
  H      2.605540   21.949970    1.906600
  H      3.310350   24.178810    2.573440
  H      3.041950   26.122940    1.050740

 Total Charge           Charge          ....    0
 Multiplicity           Mult            ....    1
 Number of Electrons    NEL             ....  488
 Basis Dimension        Dim             ....  988

ORBITAL ENERGIES
----------------

  NO   OCC          E(Eh)            E(eV)
   0   2.0000     -89.042174     -2422.9607
   1   2.0000     -89.022614     -2422.4285
   2   2.0000     -89.022364     -2422.4217
   3   2.0000     -88.981216     -2421.3020
   4   2.0000     -88.981130     -2421.2996
   5   2.0000     -88.978213     -2421.2203
   6   2.0000     -88.978050     -2421.2158
   7   2.0000     -24.824636      -675.5127
   8   2.0000     -24.824511      -675.5093
   9   2.0000     -14.466153      -393.6440
  10   2.0000     -14.465995      -393.6397
  11   2.0000     -14.450943      -393.2302
  12   2.0000     -14.450872      -393.2282
  13   2.0000     -14.436918      -392.8485
  14   2.0000     -14.436879      -392.8475
  15   2.0000     -14.435197      -392.8017
  16   2.0000     -14.435138      -392.8001
  17   2.0000     -14.421515      -392.4294
  18   2.0000     -14.421508      -392.4292
  19   2.0000     -14.420625      -392.4052
  20   2.0000     -14.420568      -392.4036
  21   2.0000     -10.440795      -284.1085
  22   2.0000     -10.440500      -284.1005
  23   2.0000     -10.354960      -281.7728
  24   2.0000     -10.354909      -281.7714
  25   2.0000     -10.349700      -281.6297
  26   2.0000     -10.349431      -281.6223
  27   2.0000     -10.342321      -281.4289
  28   2.0000     -10.342282      -281.4278
  29   2.0000     -10.342216      -281.4260
  30   2.0000     -10.341971      -281.4193
  31   2.0000     -10.324407      -280.9414
  32   2.0000     -10.324257      -280.9373
  33   2.0000     -10.323865      -280.9266
  34   2.0000     -10.323845      -280.9261
  35   2.0000     -10.322046      -280.8771
  36   2.0000     -10.322042      -280.8770
  37   2.0000     -10.320996      -280.8486
  38   2.0000     -10.320945      -280.8472
  39   2.0000     -10.320121      -280.8248
  40   2.0000     -10.320050      -280.8228
  41   2.0000     -10.319134      -280.7979
  42   2.0000     -10.318965      -280.7933
  43   2.0000     -10.318264      -280.7742
  44   2.0000     -10.318173      -280.7718
  45   2.0000     -10.317495      -280.7533
  46   2.0000     -10.317373      -280.7500
  47   2.0000     -10.315706      -280.7046
  48   2.0000     -10.315652      -280.7032
  49   2.0000     -10.306261      -280.4476
  50   2.0000     -10.306231      -280.4468
  51   2.0000     -10.293643      -280.1043
  52   2.0000     -10.293542      -280.1015
  53   2.0000     -10.291574      -280.0480
  54   2.0000     -10.291555      -280.0474
  55   2.0000     -10.291303      -280.0406
  56   2.0000     -10.291185      -280.0374
  57   2.0000     -10.289419      -279.9893
  58   2.0000     -10.289335      -279.9870
  59   2.0000     -10.289272      -279.9853
  60   2.0000     -10.289170      -279.9826
  61   2.0000     -10.285755      -279.8896
  62   2.0000     -10.285727      -279.8888
  63   2.0000     -10.285632      -279.8863
  64   2.0000     -10.285579      -279.8848
  65   2.0000      -8.133211      -221.3159
  66   2.0000      -8.114348      -220.8026
  67   2.0000      -8.114244      -220.7998
  68   2.0000      -8.075766      -219.7528
  69   2.0000      -8.075695      -219.7508
  70   2.0000      -8.071013      -219.6234
  71   2.0000      -8.070936      -219.6213
  72   2.0000      -6.104327      -166.1072
  73   2.0000      -6.096388      -165.8912
  74   2.0000      -6.096082      -165.8828
  75   2.0000      -6.085476      -165.5942
  76   2.0000      -6.085398      -165.5921
  77   2.0000      -6.077731      -165.3835
  78   2.0000      -6.077595      -165.3798
  79   2.0000      -6.076919      -165.3614
  80   2.0000      -6.076757      -165.3570
  81   2.0000      -6.044970      -164.4920
  82   2.0000      -6.044888      -164.4898
  83   2.0000      -6.040813      -164.3789
  84   2.0000      -6.040759      -164.3774
  85   2.0000      -6.040493      -164.3702
  86   2.0000      -6.040403      -164.3677
  87   2.0000      -6.038237      -164.3088
  88   2.0000      -6.038159      -164.3067
  89   2.0000      -6.035780      -164.2419
  90   2.0000      -6.035712      -164.2401
  91   2.0000      -6.033527      -164.1806
  92   2.0000      -6.033412      -164.1775
  93   2.0000      -1.352587       -36.8058
  94   2.0000      -1.338617       -36.4256
  95   2.0000      -1.140332       -31.0300
  96   2.0000      -1.124244       -30.5922
  97   2.0000      -1.122594       -30.5473
  98   2.0000      -1.122569       -30.5466
  99   2.0000      -1.051681       -28.6177
 100   2.0000      -1.034544       -28.1514
 101   2.0000      -1.033926       -28.1346
 102   2.0000      -1.012730       -27.5578
 103   2.0000      -1.012608       -27.5545
 104   2.0000      -0.999138       -27.1879
 105   2.0000      -0.998595       -27.1731
 106   2.0000      -0.997621       -27.1467
 107   2.0000      -0.995310       -27.0838
 108   2.0000      -0.987305       -26.8659
 109   2.0000      -0.979152       -26.6441
 110   2.0000      -0.974514       -26.5179
 111   2.0000      -0.971211       -26.4280
 112   2.0000      -0.961877       -26.1740
 113   2.0000      -0.958244       -26.0752
 114   2.0000      -0.945824       -25.7372
 115   2.0000      -0.943469       -25.6731
 116   2.0000      -0.911205       -24.7951
 117   2.0000      -0.901370       -24.5275
 118   2.0000      -0.890524       -24.2324
 119   2.0000      -0.881913       -23.9981
 120   2.0000      -0.864142       -23.5145
 121   2.0000      -0.864024       -23.5113
 122   2.0000      -0.860571       -23.4173
 123   2.0000      -0.859380       -23.3849
 124   2.0000      -0.851739       -23.1770
 125   2.0000      -0.844774       -22.9875
 126   2.0000      -0.842909       -22.9367
 127   2.0000      -0.842317       -22.9206
 128   2.0000      -0.821461       -22.3531
 129   2.0000      -0.804038       -21.8790
 130   2.0000      -0.787002       -21.4154
 131   2.0000      -0.770757       -20.9734
 132   2.0000      -0.769887       -20.9497
 133   2.0000      -0.764513       -20.8035
 134   2.0000      -0.759684       -20.6720
 135   2.0000      -0.746340       -20.3089
 136   2.0000      -0.739471       -20.1220
 137   2.0000      -0.728337       -19.8191
 138   2.0000      -0.711031       -19.3481
 139   2.0000      -0.707974       -19.2650
 140   2.0000      -0.706414       -19.2225
 141   2.0000      -0.699722       -19.0404
 142   2.0000      -0.696434       -18.9509
 143   2.0000      -0.686035       -18.6680
 144   2.0000      -0.685571       -18.6553
 145   2.0000      -0.677054       -18.4236
 146   2.0000      -0.676199       -18.4003
 147   2.0000      -0.668354       -18.1868
 148   2.0000      -0.661460       -17.9992
 149   2.0000      -0.659650       -17.9500
 150   2.0000      -0.638583       -17.3767
 151   2.0000      -0.638003       -17.3610
 152   2.0000      -0.630117       -17.1464
 153   2.0000      -0.627965       -17.0878
 154   2.0000      -0.626791       -17.0558
 155   2.0000      -0.621106       -16.9011
 156   2.0000      -0.617607       -16.8060
 157   2.0000      -0.604305       -16.4440
 158   2.0000      -0.603527       -16.4228
 159   2.0000      -0.598698       -16.2914
 160   2.0000      -0.596424       -16.2295
 161   2.0000      -0.593980       -16.1630
 162   2.0000      -0.582210       -15.8427
 163   2.0000      -0.579870       -15.7791
 164   2.0000      -0.574422       -15.6308
 165   2.0000      -0.570242       -15.5171
 166   2.0000      -0.567874       -15.4526
 167   2.0000      -0.566354       -15.4113
 168   2.0000      -0.560241       -15.2449
 169   2.0000      -0.552458       -15.0331
 170   2.0000      -0.551680       -15.0120
 171   2.0000      -0.547191       -14.8898
 172   2.0000      -0.547148       -14.8887
 173   2.0000      -0.537412       -14.6237
 174   2.0000      -0.537088       -14.6149
 175   2.0000      -0.536640       -14.6027
 176   2.0000      -0.535133       -14.5617
 177   2.0000      -0.527401       -14.3513
 178   2.0000      -0.521022       -14.1777
 179   2.0000      -0.520723       -14.1696
 180   2.0000      -0.517279       -14.0759
 181   2.0000      -0.514769       -14.0076
 182   2.0000      -0.498303       -13.5595
 183   2.0000      -0.495510       -13.4835
 184   2.0000      -0.492942       -13.4136
 185   2.0000      -0.492133       -13.3916
 186   2.0000      -0.490027       -13.3343
 187   2.0000      -0.486305       -13.2330
 188   2.0000      -0.484955       -13.1963
 189   2.0000      -0.482087       -13.1182
 190   2.0000      -0.478516       -13.0211
 191   2.0000      -0.476991       -12.9796
 192   2.0000      -0.475848       -12.9485
 193   2.0000      -0.473541       -12.8857
 194   2.0000      -0.473505       -12.8847
 195   2.0000      -0.464782       -12.6473
 196   2.0000      -0.464606       -12.6426
 197   2.0000      -0.461748       -12.5648
 198   2.0000      -0.461323       -12.5532
 199   2.0000      -0.461045       -12.5457
 200   2.0000      -0.456889       -12.4326
 201   2.0000      -0.454059       -12.3556
 202   2.0000      -0.452929       -12.3248
 203   2.0000      -0.452866       -12.3231
 204   2.0000      -0.449181       -12.2228
 205   2.0000      -0.447346       -12.1729
 206   2.0000      -0.446668       -12.1545
 207   2.0000      -0.441455       -12.0126
 208   2.0000      -0.434012       -11.8101
 209   2.0000      -0.433083       -11.7848
 210   2.0000      -0.432503       -11.7690
 211   2.0000      -0.431255       -11.7350
 212   2.0000      -0.430519       -11.7150
 213   2.0000      -0.429464       -11.6863
 214   2.0000      -0.429441       -11.6857
 215   2.0000      -0.425010       -11.5651
 216   2.0000      -0.418340       -11.3836
 217   2.0000      -0.418204       -11.3799
 218   2.0000      -0.414162       -11.2699
 219   2.0000      -0.413832       -11.2609
 220   2.0000      -0.406807       -11.0698
 221   2.0000      -0.398110       -10.8331
 222   2.0000      -0.397695       -10.8218
 223   2.0000      -0.393626       -10.7111
 224   2.0000      -0.393546       -10.7089
 225   2.0000      -0.389808       -10.6072
 226   2.0000      -0.376146       -10.2355
 227   2.0000      -0.371382       -10.1058
 228   2.0000      -0.366835        -9.9821
 229   2.0000      -0.365007        -9.9323
 230   2.0000      -0.364491        -9.9183
 231   2.0000      -0.363666        -9.8959
 232   2.0000      -0.347193        -9.4476
 233   2.0000      -0.339185        -9.2297
 234   2.0000      -0.339075        -9.2267
 235   2.0000      -0.336690        -9.1618
 236   2.0000      -0.333029        -9.0622
 237   2.0000      -0.332208        -9.0398
 238   2.0000      -0.318296        -8.6613
 239   2.0000      -0.313111        -8.5202
 240   2.0000      -0.311700        -8.4818
 241   2.0000      -0.289997        -7.8912
 242   2.0000      -0.261796        -7.1238
 243   2.0000      -0.230556        -6.2738
 244   0.0000      -0.121075        -3.2946
 245   0.0000      -0.094932        -2.5832
 246   0.0000      -0.089569        -2.4373
 247   0.0000      -0.062756        -1.7077
 248   0.0000      -0.062578        -1.7028

MULLIKEN ATOMIC CHARGES
-----------------------
   0 C :   -0.028452
   1 C :    0.043696
   2 C :   -0.076286
   3 C :    0.160727
   4 C :   -0.012793
   5 C :    0.054747
   6 N :   -0.266749
   7 S :    0.520268
   8 N :   -0.286322
   9 C :   -0.118141
  10 C :   -0.051327
  11 C :    0.026024
  12 C :   -0.095039
  13 S :    0.157597
  14 C :   -0.065938
  15 C :    0.037082
  16 C :    0.314438
  17 C :   -0.313818
  18 C :   -0.187690
  19 N :    0.169420
  20 C :   -0.190153
  21 N :    0.177136
  22 C :   -0.066533
  23 C :   -0.182146
  24 S :    0.195590
  25 C :    0.188024
  26 C :   -0.064315
  27 C :   -0.062868
  28 N :   -0.044927
  29 C :    0.147433
  30 C :    0.147434
  31 N :   -0.044615
  32 F :   -0.138151
  33 F :   -0.138377
  34 C :    0.185404
  35 C :   -0.015845
  36 C :   -0.013835
  37 N :   -0.287004
  38 S :    0.574956
  39 N :   -0.287362
  40 C :   -0.180716
  41 C :   -0.065525
  42 C :    0.035531
  43 C :   -0.065588
  44 S :    0.195869
  45 C :   -0.093724
  46 C :    0.025816
  47 C :    0.314219
  48 C :   -0.313478
  49 C :   -0.188226
  50 N :    0.173153
  51 C :   -0.187635
  52 N :    0.170664
  53 C :   -0.053107
  54 C :   -0.118148
  55 S :    0.157402
  56 C :    0.162170
  57 C :   -0.077689
  58 C :    0.044129
  59 C :   -0.027448
  60 C :    0.056785
  61 C :   -0.013797
  62 N :   -0.287391
  63 S :    0.521197
  64 N :   -0.268050
  65 H :   -0.016147
  66 H :   -0.004356
  67 H :   -0.009620
  68 H :    0.021519
  69 H :    0.019307
  70 H :    0.019831
  71 H :    0.021334
  72 H :   -0.008643
  73 H :   -0.004402
  74 H :   -0.016523
Sum of atomic charges:    0.0000000

LOEWDIN ATOMIC CHARGES
----------------------
   0 C :   -0.020235
   1 C :   -0.013785
   2 C :   -0.026857
   3 C :   -0.038562
   4 C :   -0.042236
   5 C :   -0.051552
   6 N :   -0.284246
   7 S :    0.653854
   8 N :   -0.282036
   9 C :   -0.158438
  10 C :   -0.019738
  11 C :   -0.069346
  12 C :   -0.177400
  13 S :    0.469356
  14 C :   -0.181543
  15 C :   -0.074771
  16 C :    0.082160
  17 C :   -0.104314
  18 C :   -0.016148
  19 N :   -0.036666
  20 C :   -0.017804
  21 N :   -0.033404
  22 C :   -0.011627
  23 C :   -0.169396
  24 S :    0.503708
  25 C :   -0.044083
  26 C :   -0.019280
  27 C :   -0.019304
  28 N :   -0.054830
  29 C :    0.061327
  30 C :    0.061234
  31 N :   -0.054899
  32 F :   -0.027714
  33 F :   -0.027837
  34 C :   -0.044215
  35 C :   -0.038869
  36 C :   -0.038885
  37 N :   -0.273598
  38 S :    0.694129
  39 N :   -0.273718
  40 C :   -0.169231
  41 C :   -0.011779
  42 C :   -0.074708
  43 C :   -0.181743
  44 S :    0.503713
  45 C :   -0.177340
  46 C :   -0.069359
  47 C :    0.082147
  48 C :   -0.104271
  49 C :   -0.017620
  50 N :   -0.033511
  51 C :   -0.016294
  52 N :   -0.036517
  53 C :   -0.019862
  54 C :   -0.158591
  55 S :    0.469382
  56 C :   -0.038493
  57 C :   -0.027097
  58 C :   -0.013811
  59 C :   -0.020030
  60 C :   -0.051469
  61 C :   -0.042273
  62 N :   -0.282171
  63 S :    0.654060
  64 N :   -0.284300
  65 H :    0.038096
  66 H :    0.034538
  67 H :    0.022441
  68 H :    0.039080
  69 H :    0.037193
  70 H :    0.037270
  71 H :    0.039051
  72 H :    0.022603
  73 H :    0.034527
  74 H :    0.037934

  Mayer bond orders larger than 0.100000
B(  0-C ,  1-C ) :   1.4881 B(  0-C ,  3-C ) :   0.1082 B(  0-C ,  5-C ) :   1.2083
B(  0-C , 65-H ) :   1.0204 B(  1-C ,  2-C ) :   1.2297 B(  1-C , 66-H ) :   0.9814
B(  2-C ,  3-C ) :   1.4838 B(  2-C , 67-H ) :   0.9866 B(  3-C ,  4-C ) :   1.1862
B(  3-C ,  9-C ) :   1.1040 B(  4-C ,  5-C ) :   1.1669 B(  4-C ,  8-N ) :   1.5245
B(  5-C ,  6-N ) :   1.5064 B(  6-N ,  7-S ) :   1.2848 B(  6-N ,  8-N ) :   0.1493
B(  7-S ,  8-N ) :   1.2580 B(  9-C , 10-C ) :   1.4936 B(  9-C , 13-S ) :   1.0887
B( 10-C , 11-C ) :   1.2370 B( 10-C , 68-H ) :   0.9811 B( 11-C , 12-C ) :   1.4339
B( 11-C , 16-C ) :   0.9949 B( 12-C , 13-S ) :   1.1225 B( 12-C , 14-C ) :   1.1917
B( 14-C , 15-C ) :   1.4071 B( 14-C , 24-S ) :   1.0898 B( 15-C , 16-C ) :   0.9856
B( 15-C , 22-C ) :   1.2758 B( 16-C , 17-C ) :   1.7084 B( 17-C , 18-C ) :   1.1393
B( 17-C , 20-C ) :   1.1376 B( 18-C , 19-N ) :   2.9865 B( 20-C , 21-N ) :   2.9912
B( 22-C , 23-C ) :   1.4202 B( 22-C , 69-H ) :   0.9807 B( 23-C , 24-S ) :   1.0842
B( 23-C , 25-C ) :   1.1929 B( 25-C , 26-C ) :   1.2945 B( 25-C , 34-C ) :   0.1274
B( 25-C , 36-C ) :   1.1919 B( 26-C , 27-C ) :   1.1156 B( 26-C , 31-N ) :   1.3817
B( 27-C , 28-N ) :   1.3810 B( 27-C , 34-C ) :   1.2943 B( 28-N , 29-C ) :   1.6538
B( 29-C , 30-C ) :   1.1122 B( 29-C , 33-F ) :   1.1834 B( 30-C , 31-N ) :   1.6525
B( 30-C , 32-F ) :   1.1842 B( 34-C , 35-C ) :   1.1933 B( 34-C , 40-C ) :   1.1934
B( 35-C , 36-C ) :   1.1010 B( 35-C , 39-N ) :   1.5147 B( 36-C , 37-N ) :   1.5139
B( 37-N , 38-S ) :   1.2814 B( 37-N , 39-N ) :   0.1488 B( 38-S , 39-N ) :   1.2809
B( 40-C , 41-C ) :   1.4194 B( 40-C , 44-S ) :   1.0847 B( 41-C , 42-C ) :   1.2753
B( 41-C , 70-H ) :   0.9805 B( 42-C , 43-C ) :   1.4076 B( 42-C , 47-C ) :   0.9868
B( 43-C , 44-S ) :   1.0900 B( 43-C , 45-C ) :   1.1903 B( 45-C , 46-C ) :   1.4333
B( 45-C , 55-S ) :   1.1227 B( 46-C , 47-C ) :   0.9960 B( 46-C , 53-C ) :   1.2349
B( 47-C , 48-C ) :   1.7073 B( 48-C , 49-C ) :   1.1368 B( 48-C , 51-C ) :   1.1394
B( 49-C , 50-N ) :   2.9891 B( 51-C , 52-N ) :   2.9863 B( 53-C , 54-C ) :   1.4950
B( 53-C , 71-H ) :   0.9813 B( 54-C , 55-S ) :   1.0886 B( 54-C , 56-C ) :   1.1033
B( 56-C , 57-C ) :   1.4847 B( 56-C , 59-C ) :   0.1080 B( 56-C , 61-C ) :   1.1869
B( 57-C , 58-C ) :   1.2278 B( 57-C , 72-H ) :   0.9867 B( 58-C , 59-C ) :   1.4895
B( 58-C , 73-H ) :   0.9815 B( 59-C , 60-C ) :   1.2091 B( 59-C , 74-H ) :   1.0200
B( 60-C , 61-C ) :   1.1665 B( 60-C , 64-N ) :   1.5052 B( 61-C , 62-N ) :   1.5242
B( 62-N , 63-S ) :   1.2571 B( 62-N , 64-N ) :   0.1492 B( 63-S , 64-N ) :   1.2849

-----------------------------------------------------------------------------
         ABSORPTION SPECTRUM VIA TRANSITION ELECTRIC DIPOLE MOMENTS
-----------------------------------------------------------------------------
State   Energy  Wavelength   fosc         T2         TX        TY        TZ
        (cm-1)    (nm)                  (au**2)     (au)      (au)      (au)
-----------------------------------------------------------------------------
   0    8917.5   1121.4   0.801566721  29.59181   0.91778   5.33112  -0.57331
   1   12622.6    792.2   0.002415609   0.06300  -0.08663  -0.01049  -0.23534
   2   13502.2    740.6   0.002952876   0.07200   0.05091   0.26164  -0.03083
   3   17219.5    580.7   0.001188655   0.02273   0.04237   0.00580   0.14456
   4   21954.7    455.5   0.068332228   1.02465  -0.17197  -0.99174   0.10738
   5   22945.1    435.8   0.030350167   0.43546  -0.20616   0.12441  -0.61439
   6   23039.6    434.0   1.125087707  16.07637  -0.66218  -3.93481   0.39391
   7   24087.9    415.1   0.047845562   0.65391  -0.30292  -0.04561  -0.74838
   8   24462.1    408.8   0.008054294   0.10840   0.05864   0.32125  -0.04188
   9   25552.2    391.4   0.000808246   0.01041   0.00998   0.10132  -0.00693
  10   26329.5    379.8   0.030858935   0.38585   0.25006   0.01761   0.56834
  11   26488.7    377.5   0.000022229   0.00028   0.00447  -0.01601  -0.00028
  12   28643.9    349.1   0.042168684   0.48466   0.26486   0.02597   0.64330
  13   29813.8    335.4   0.268248875   2.96208  -0.29240  -1.68668   0.17801
  14   30043.5    332.9   0.020521435   0.22487  -0.18808   0.00347  -0.43530
  15   30365.9    329.3   0.343705691   3.72628   0.34731   1.88742  -0.20812
  16   30672.5    326.0   0.049029043   0.52624  -0.28472  -0.02011  -0.66691
  17   30988.4    322.7   0.000291449   0.00310   0.03619   0.03905  -0.01618
  18   31199.1    320.5   0.300435629   3.17019   0.69380   0.04978   1.63901
  19   31692.0    315.5   0.442656477   4.59826  -0.34993  -2.10419   0.21951
  20   31962.9    312.9   0.000777970   0.00801   0.03273  -0.01507   0.08194
  21   31988.5    312.6   0.047007014   0.48378  -0.29410  -0.10133  -0.62210
  22   32069.1    311.8   0.215815275   2.21550   0.24403   1.45731  -0.17940
  23   32397.4    308.7   0.604452651   6.14225   0.98370   0.06631   2.27380
  24   32716.1    305.7   0.000603631   0.00607  -0.00367   0.07635   0.01524
  25   33311.8    300.2   0.192275254   1.90021   0.23475   1.35083  -0.14267
  26   33916.4    294.8   0.055991026   0.54348  -0.30973  -0.01957  -0.66870
  27   34846.0    287.0   0.163171568   1.54158   0.49508   0.03162   1.13819
  28   35027.9    285.5   0.086801075   0.81581   0.16570   0.88548  -0.06535
  29   35123.0    284.7   0.090260155   0.84602  -0.36937   0.00308  -0.84236
  30   35186.6    284.2   0.000480861   0.00450  -0.01835  -0.05294  -0.03687
  31   35582.8    281.0   0.247195899   2.28705   0.60086   0.05360   1.38678
  32   35785.5    279.4   0.108325378   0.99655  -0.40157  -0.03660  -0.91321
  33   35876.9    278.7   0.100890928   0.92579  -0.14986  -0.94269   0.12113
  34   37025.8    270.1   0.000154091   0.00137   0.01528   0.01029   0.03211
  35   37120.5    269.4   0.397390934   3.52436  -0.72249  -0.05020  -1.73201
  36   37317.5    268.0   0.000033233   0.00029   0.00279  -0.01220  -0.01168
  37   37663.0    265.5   0.209674448   1.83276   0.21903   1.33031  -0.12273
  38   37966.6    263.4   0.059408533   0.51514  -0.28713  -0.02132  -0.65745
  39   38007.4    263.1   0.000592115   0.00513  -0.00946  -0.06379   0.03115
  40   38431.4    260.2   0.017183304   0.14720   0.14400   0.00410   0.35559
  41   38566.7    259.3   0.021942293   0.18730   0.07397   0.42477  -0.03749
  42   38665.1    258.6   0.003451753   0.02939  -0.06719  -0.00113  -0.15772
  43   39120.0    255.6   0.000876960   0.00738   0.00796  -0.05114   0.06857
  44   39171.4    255.3   0.008394803   0.07055  -0.04837  -0.26094   0.01111
  45   39868.7    250.8   0.000780743   0.00645   0.00792   0.07770  -0.01861
  46   39878.3    250.8   0.000774229   0.00639   0.03360   0.01414   0.07115

FINAL SINGLE POINT ENERGY     -5322.611615208154

DIPOLE MOMENT
-------------
                                X             Y             Z
Electronic contribution:     -0.78417      -0.12265      -2.39633
Nuclear contribution   :      2.33485       0.23918       5.99493
                        -----------------------------------------
Total Dipole Moment    :      1.55069       0.11653       3.59860
                        -----------------------------------------
Magnitude (a.u.)       :      3.92022
Magnitude (Debye)      :      9.96441

Rotational constants in cm-1:     0.003213     0.000273     0.000252
Rotational constants in MHz :    96.331625     8.199298     7.556598

                             ****ORCA TERMINATED NORMALLY****
TOTAL RUN TIME: 0 days 0 hours 7 minutes 11 seconds 7 msec
