                         Program Version 4.2.0 -  RELEASE  -
|  1> # ORCA input file
|  2> # SCF done       -144.765719676700          0.000815392895
|  3> ! CAM-B3LYP def2-SVP def2/J RIJCOSX Grid4 TightSCF
|  4> %maxcore 5000
|  5> %tddft
|  6>     Mode sTDDFT
|  7>     Ethresh 5.0
|  8>     maxcore 5000
|  9> end
| 10>
| 11> %pal
| 12>   nprocs 6
| 13>   end
| 14> * xyz 0 1
| 15>    C        2.06926         1.77348        -3.96249
| 16>    O        3.36027         1.60557        -3.40226
| 17>    C        3.42738         1.63311        -2.06193
| 18>    O        2.46469         1.79041        -1.34728
| 19>    C        4.80693         1.44197        -1.57477
| 20>    C        5.82339         1.38628        -2.54100
| 21>    N        6.64789         1.40167        -3.34153
| 22>    C        5.01897         1.42899        -0.22363
| 23>    C        6.23067         1.27365         0.47722
| 24>    C        7.33335         0.58213         0.04432
| 25>    O        7.31619        -0.19516        -1.05335
| 26>    C        8.48189        -0.96506        -1.26617
| 27>    C        9.70926        -0.12814        -0.93272
| 28>    O        9.69762         0.20806         0.43968
| 29>    C        8.49947         0.62578         0.90247
| 30>    C        8.31128         1.17806         2.14410
| 31>    C        9.23035         1.18671         3.21682
| 32>    C       10.26931         0.24006         3.43293
| 33>    N       10.26827        -0.88685         2.69756
| 34>    C       11.20614        -1.76929         2.90163
| 35>    C       12.16540        -1.60127         3.91716
| 36>    N       12.15970        -0.55441         4.69374
| 37>    C       11.25282         0.41493         4.46800
| 38>    C       11.24653         1.54482         5.32980
| 39>    C       12.25686         1.88447         6.26235
| 40>    C       13.58601         1.55856         6.19013
| 41>    O       14.16820         1.01951         5.09219
| 42>    C       15.43359         0.44292         5.34392
| 43>    C       16.31342         1.43243         6.09579
| 44>    O       15.72591         1.76439         7.33878
| 45>    C       14.38675         1.88549         7.34827
| 46>    C       13.71060         2.40505         8.42678
| 47>    C       14.24455         2.66715         9.69882
| 48>    C       15.26974         2.02530        10.34239
| 49>    C       15.94738         0.90623         9.83580
| 50>    N       16.47755        -0.04063         9.45660
| 51>    C       15.63008         2.47413        11.69870
| 52>    O       15.08422         3.37745        12.29007
| 53>    O       16.65076         1.76486        12.20831
| 54>    C       17.07005         2.12999        13.51152
| 55>   Si       11.95030         2.85847         7.85820
| 56>    C       11.92642         4.75890         7.71249
| 57>    C       10.60735         2.13156         8.98666
| 58>    C       10.07701         2.32775         5.26794
| 59>    N        9.74992         3.31540         6.10077
| 60>    S        8.33752         3.93964         5.64718
| 61>    N        8.07753         3.00604         4.36064
| 62>    C        9.08837         2.14831         4.23685
| 63>   Si        6.61043         2.02352         2.18598
| 64>    C        6.56996         3.91580         1.96115
| 65>    C        5.42269         1.34911         3.50687
| 66>    H        2.20111         1.74250        -5.04089
| 67>    H        1.64244         2.73065        -3.65432
| 68>    H        1.40438         0.97156        -3.63335
| 69>    H        4.13848         1.63033         0.37675
| 70>    H        8.46355        -1.25743        -2.31665
| 71>    H        8.45996        -1.85675        -0.62493
| 72>    H        9.69885         0.78382        -1.54583
| 73>    H       10.63456        -0.67922        -1.10539
| 74>    H       11.17128        -2.66569         2.29629
| 75>    H       12.90247        -2.36342         4.13369
| 76>    H       15.85667         0.19381         4.37001
| 77>    H       15.31286        -0.46932         5.94225
| 78>    H       16.44059         2.34532         5.49743
| 79>    H       17.28983         1.00539         6.32976
| 80>    H       13.74099         3.42428        10.28966
| 81>    H       17.88878         1.46131        13.76439
| 82>    H       16.24756         2.01626        14.22154
| 83>    H       17.40424         3.17003        13.52701
| 84>    H       12.60826         5.10379         6.94128
| 85>    H       12.23578         5.20504         8.65238
| 86>    H       10.93494         5.12410         7.47505
| 87>    H       10.72224         1.05759         9.09732
| 88>    H        9.61877         2.32633         8.58757
| 89>    H       10.66065         2.57600         9.97488
| 90>    H        7.46372         4.27417         1.45954
| 91>    H        6.49127         4.42832         2.91208
| 92>    H        5.71476         4.19598         1.35329
| 93>    H        5.42115         0.26363         3.52393
| 94>    H        4.40931         1.68190         3.30932
| 95>    H        5.70197         1.70210         4.49262
| 96> *
| 97>
| 98>                          ****END OF INPUT****

CARTESIAN COORDINATES (ANGSTROEM)
---------------------------------
  C      2.069260    1.773480   -3.962490
  O      3.360270    1.605570   -3.402260
  C      3.427380    1.633110   -2.061930
  O      2.464690    1.790410   -1.347280
  C      4.806930    1.441970   -1.574770
  C      5.823390    1.386280   -2.541000
  N      6.647890    1.401670   -3.341530
  C      5.018970    1.428990   -0.223630
  C      6.230670    1.273650    0.477220
  C      7.333350    0.582130    0.044320
  O      7.316190   -0.195160   -1.053350
  C      8.481890   -0.965060   -1.266170
  C      9.709260   -0.128140   -0.932720
  O      9.697620    0.208060    0.439680
  C      8.499470    0.625780    0.902470
  C      8.311280    1.178060    2.144100
  C      9.230350    1.186710    3.216820
  C     10.269310    0.240060    3.432930
  N     10.268270   -0.886850    2.697560
  C     11.206140   -1.769290    2.901630
  C     12.165400   -1.601270    3.917160
  N     12.159700   -0.554410    4.693740
  C     11.252820    0.414930    4.468000
  C     11.246530    1.544820    5.329800
  C     12.256860    1.884470    6.262350
  C     13.586010    1.558560    6.190130
  O     14.168200    1.019510    5.092190
  C     15.433590    0.442920    5.343920
  C     16.313420    1.432430    6.095790
  O     15.725910    1.764390    7.338780
  C     14.386750    1.885490    7.348270
  C     13.710600    2.405050    8.426780
  C     14.244550    2.667150    9.698820
  C     15.269740    2.025300   10.342390
  C     15.947380    0.906230    9.835800
  N     16.477550   -0.040630    9.456600
  C     15.630080    2.474130   11.698700
  O     15.084220    3.377450   12.290070
  O     16.650760    1.764860   12.208310
  C     17.070050    2.129990   13.511520
  Si    11.950300    2.858470    7.858200
  C     11.926420    4.758900    7.712490
  C     10.607350    2.131560    8.986660
  C     10.077010    2.327750    5.267940
  N      9.749920    3.315400    6.100770
  S      8.337520    3.939640    5.647180
  N      8.077530    3.006040    4.360640
  C      9.088370    2.148310    4.236850
  Si     6.610430    2.023520    2.185980
  C      6.569960    3.915800    1.961150
  C      5.422690    1.349110    3.506870
  H      2.201110    1.742500   -5.040890
  H      1.642440    2.730650   -3.654320
  H      1.404380    0.971560   -3.633350
  H      4.138480    1.630330    0.376750
  H      8.463550   -1.257430   -2.316650
  H      8.459960   -1.856750   -0.624930
  H      9.698850    0.783820   -1.545830
  H     10.634560   -0.679220   -1.105390
  H     11.171280   -2.665690    2.296290
  H     12.902470   -2.363420    4.133690
  H     15.856670    0.193810    4.370010
  H     15.312860   -0.469320    5.942250
  H     16.440590    2.345320    5.497430
  H     17.289830    1.005390    6.329760
  H     13.740990    3.424280   10.289660
  H     17.888780    1.461310   13.764390
  H     16.247560    2.016260   14.221540
  H     17.404240    3.170030   13.527010
  H     12.608260    5.103790    6.941280
  H     12.235780    5.205040    8.652380
  H     10.934940    5.124100    7.475050
  H     10.722240    1.057590    9.097320
  H      9.618770    2.326330    8.587570
  H     10.660650    2.576000    9.974880
  H      7.463720    4.274170    1.459540
  H      6.491270    4.428320    2.912080
  H      5.714760    4.195980    1.353290
  H      5.421150    0.263630    3.523930
  H      4.409310    1.681900    3.309320
  H      5.701970    1.702100    4.492620

 Total Charge           Charge          ....    0
 Multiplicity           Mult            ....    1
 Number of Electrons    NEL             ....  384
 Basis Dimension        Dim             ....  876

ORBITAL ENERGIES
----------------

  NO   OCC          E(Eh)            E(eV)
   0   2.0000     -89.040123     -2422.9049
   1   2.0000     -66.195066     -1801.2593
   2   2.0000     -66.193107     -1801.2060
   3   2.0000     -19.267773      -524.3028
   4   2.0000     -19.265190      -524.2325
   5   2.0000     -19.263486      -524.1861
   6   2.0000     -19.257967      -524.0359
   7   2.0000     -19.247982      -523.7642
   8   2.0000     -19.244016      -523.6563
   9   2.0000     -19.189255      -522.1662
  10   2.0000     -19.185090      -522.0528
  11   2.0000     -14.451880      -393.2556
  12   2.0000     -14.450793      -393.2261
  13   2.0000     -14.420001      -392.3882
  14   2.0000     -14.419626      -392.3780
  15   2.0000     -14.379456      -391.2849
  16   2.0000     -14.374825      -391.1589
  17   2.0000     -10.389060      -282.7007
  18   2.0000     -10.384860      -282.5864
  19   2.0000     -10.355177      -281.7787
  20   2.0000     -10.353293      -281.7274
  21   2.0000     -10.352896      -281.7166
  22   2.0000     -10.347807      -281.5781
  23   2.0000     -10.340366      -281.3757
  24   2.0000     -10.340280      -281.3733
  25   2.0000     -10.337963      -281.3103
  26   2.0000     -10.337321      -281.2928
  27   2.0000     -10.329392      -281.0770
  28   2.0000     -10.329134      -281.0700
  29   2.0000     -10.318248      -280.7738
  30   2.0000     -10.318050      -280.7684
  31   2.0000     -10.317849      -280.7629
  32   2.0000     -10.317756      -280.7604
  33   2.0000     -10.311939      -280.6021
  34   2.0000     -10.308993      -280.5220
  35   2.0000     -10.297121      -280.1989
  36   2.0000     -10.296787      -280.1898
  37   2.0000     -10.294293      -280.1219
  38   2.0000     -10.293361      -280.0966
  39   2.0000     -10.289866      -280.0015
  40   2.0000     -10.284301      -279.8500
  41   2.0000     -10.283381      -279.8250
  42   2.0000     -10.278901      -279.7031
  43   2.0000     -10.261705      -279.2352
  44   2.0000     -10.261074      -279.2180
  45   2.0000     -10.251300      -278.9521
  46   2.0000     -10.249266      -278.8967
  47   2.0000     -10.244822      -278.7758
  48   2.0000     -10.242106      -278.7019
  49   2.0000     -10.241224      -278.6779
  50   2.0000     -10.240239      -278.6511
  51   2.0000      -8.130901      -221.2531
  52   2.0000      -6.101968      -166.0430
  53   2.0000      -6.094536      -165.8407
  54   2.0000      -6.093458      -165.8114
  55   2.0000      -5.358806      -145.8205
  56   2.0000      -5.357150      -145.7755
  57   2.0000      -3.722897      -101.3052
  58   2.0000      -3.721220      -101.2596
  59   2.0000      -3.720805      -101.2482
  60   2.0000      -3.719688      -101.2179
  61   2.0000      -3.719075      -101.2012
  62   2.0000      -3.718073      -101.1739
  63   2.0000      -1.196550       -32.5598
  64   2.0000      -1.191860       -32.4321
  65   2.0000      -1.178843       -32.0780
  66   2.0000      -1.174659       -31.9641
  67   2.0000      -1.156244       -31.4630
  68   2.0000      -1.151652       -31.3380
  69   2.0000      -1.136107       -30.9151
  70   2.0000      -1.083169       -29.4745
  71   2.0000      -1.078876       -29.3577
  72   2.0000      -1.078246       -29.3406
  73   2.0000      -1.002901       -27.2903
  74   2.0000      -0.991312       -26.9750
  75   2.0000      -0.966854       -26.3094
  76   2.0000      -0.962417       -26.1887
  77   2.0000      -0.959871       -26.1194
  78   2.0000      -0.937085       -25.4994
  79   2.0000      -0.931579       -25.3496
  80   2.0000      -0.900131       -24.4938
  81   2.0000      -0.894757       -24.3476
  82   2.0000      -0.872767       -23.7492
  83   2.0000      -0.868691       -23.6383
  84   2.0000      -0.845940       -23.0192
  85   2.0000      -0.843240       -22.9457
  86   2.0000      -0.838415       -22.8144
  87   2.0000      -0.821757       -22.3611
  88   2.0000      -0.804827       -21.9005
  89   2.0000      -0.796672       -21.6785
  90   2.0000      -0.788620       -21.4594
  91   2.0000      -0.785638       -21.3783
  92   2.0000      -0.783891       -21.3308
  93   2.0000      -0.760056       -20.6822
  94   2.0000      -0.759315       -20.6620
  95   2.0000      -0.756128       -20.5753
  96   2.0000      -0.755365       -20.5545
  97   2.0000      -0.752730       -20.4828
  98   2.0000      -0.745325       -20.2813
  99   2.0000      -0.713116       -19.4049
 100   2.0000      -0.701148       -19.0792
 101   2.0000      -0.688398       -18.7323
 102   2.0000      -0.685144       -18.6437
 103   2.0000      -0.668943       -18.2029
 104   2.0000      -0.658288       -17.9129
 105   2.0000      -0.655192       -17.8287
 106   2.0000      -0.650782       -17.7087
 107   2.0000      -0.644010       -17.5244
 108   2.0000      -0.636906       -17.3311
 109   2.0000      -0.632624       -17.2146
 110   2.0000      -0.628442       -17.1008
 111   2.0000      -0.621999       -16.9255
 112   2.0000      -0.614764       -16.7286
 113   2.0000      -0.611124       -16.6295
 114   2.0000      -0.604793       -16.4572
 115   2.0000      -0.594401       -16.1745
 116   2.0000      -0.587917       -15.9980
 117   2.0000      -0.579207       -15.7610
 118   2.0000      -0.565412       -15.3856
 119   2.0000      -0.561891       -15.2898
 120   2.0000      -0.559300       -15.2193
 121   2.0000      -0.555625       -15.1193
 122   2.0000      -0.555535       -15.1169
 123   2.0000      -0.555025       -15.1030
 124   2.0000      -0.546614       -14.8741
 125   2.0000      -0.538878       -14.6636
 126   2.0000      -0.537444       -14.6246
 127   2.0000      -0.534213       -14.5367
 128   2.0000      -0.533686       -14.5223
 129   2.0000      -0.531426       -14.4608
 130   2.0000      -0.523294       -14.2396
 131   2.0000      -0.521790       -14.1986
 132   2.0000      -0.519457       -14.1351
 133   2.0000      -0.517501       -14.0819
 134   2.0000      -0.514685       -14.0053
 135   2.0000      -0.503940       -13.7129
 136   2.0000      -0.501326       -13.6418
 137   2.0000      -0.499652       -13.5962
 138   2.0000      -0.493882       -13.4392
 139   2.0000      -0.488408       -13.2903
 140   2.0000      -0.485831       -13.2201
 141   2.0000      -0.483557       -13.1583
 142   2.0000      -0.482232       -13.1222
 143   2.0000      -0.481760       -13.1094
 144   2.0000      -0.480423       -13.0730
 145   2.0000      -0.476343       -12.9620
 146   2.0000      -0.475168       -12.9300
 147   2.0000      -0.474782       -12.9195
 148   2.0000      -0.471856       -12.8399
 149   2.0000      -0.470867       -12.8129
 150   2.0000      -0.468813       -12.7570
 151   2.0000      -0.466158       -12.6848
 152   2.0000      -0.463703       -12.6180
 153   2.0000      -0.462852       -12.5948
 154   2.0000      -0.461485       -12.5577
 155   2.0000      -0.440820       -11.9953
 156   2.0000      -0.434117       -11.8129
 157   2.0000      -0.426782       -11.6133
 158   2.0000      -0.426175       -11.5968
 159   2.0000      -0.423979       -11.5371
 160   2.0000      -0.422591       -11.4993
 161   2.0000      -0.420976       -11.4553
 162   2.0000      -0.420235       -11.4352
 163   2.0000      -0.413785       -11.2597
 164   2.0000      -0.411544       -11.1987
 165   2.0000      -0.409430       -11.1411
 166   2.0000      -0.405819       -11.0429
 167   2.0000      -0.394485       -10.7345
 168   2.0000      -0.393337       -10.7032
 169   2.0000      -0.392811       -10.6889
 170   2.0000      -0.390783       -10.6338
 171   2.0000      -0.388930       -10.5833
 172   2.0000      -0.385585       -10.4923
 173   2.0000      -0.384292       -10.4571
 174   2.0000      -0.382866       -10.4183
 175   2.0000      -0.379462       -10.3257
 176   2.0000      -0.376512       -10.2454
 177   2.0000      -0.369073       -10.0430
 178   2.0000      -0.366125        -9.9628
 179   2.0000      -0.366070        -9.9613
 180   2.0000      -0.362453        -9.8629
 181   2.0000      -0.349994        -9.5238
 182   2.0000      -0.345399        -9.3988
 183   2.0000      -0.338796        -9.2191
 184   2.0000      -0.335777        -9.1370
 185   2.0000      -0.335363        -9.1257
 186   2.0000      -0.331469        -9.0197
 187   2.0000      -0.323777        -8.8104
 188   2.0000      -0.311729        -8.4826
 189   2.0000      -0.292624        -7.9627
 190   2.0000      -0.267377        -7.2757
 191   2.0000      -0.224166        -6.0999
 192   0.0000      -0.104866        -2.8535
 193   0.0000      -0.047660        -1.2969
 194   0.0000      -0.044522        -1.2115
 195   0.0000      -0.005856        -0.1594
 196   0.0000       0.015249         0.4149

MULLIKEN ATOMIC CHARGES
-----------------------
   0 C :    0.188544
   1 O :   -0.292190
   2 C :    0.207163
   3 O :   -0.222568
   4 C :   -0.246937
   5 C :   -0.128662
   6 N :    0.097544
   7 C :    0.103441
   8 C :   -0.222239
   9 C :    0.135695
  10 O :   -0.269405
  11 C :    0.185046
  12 C :    0.167642
  13 O :   -0.266925
  14 C :    0.138064
  15 C :   -0.330015
  16 C :    0.181318
  17 C :   -0.088062
  18 N :   -0.005478
  19 C :    0.019314
  20 C :    0.020531
  21 N :   -0.005522
  22 C :   -0.083226
  23 C :    0.164489
  24 C :   -0.321430
  25 C :    0.143041
  26 O :   -0.276596
  27 C :    0.167453
  28 C :    0.192148
  29 O :   -0.268417
  30 C :    0.150199
  31 C :   -0.236107
  32 C :    0.107198
  33 C :   -0.254467
  34 C :   -0.130618
  35 N :    0.097229
  36 C :    0.207150
  37 O :   -0.226995
  38 O :   -0.292684
  39 C :    0.189133
  40 Si:    0.513272
  41 C :   -0.152947
  42 C :   -0.176605
  43 C :    0.030805
  44 N :   -0.330552
  45 S :    0.533030
  46 N :   -0.341244
  47 C :    0.033983
  48 Si:    0.525749
  49 C :   -0.157762
  50 C :   -0.176197
  51 H :    0.036677
  52 H :    0.029677
  53 H :    0.030016
  54 H :    0.010823
  55 H :    0.047364
  56 H :    0.035329
  57 H :    0.048604
  58 H :    0.032852
  59 H :    0.003773
  60 H :    0.007138
  61 H :    0.031821
  62 H :    0.046003
  63 H :    0.030475
  64 H :    0.045562
  65 H :    0.009820
  66 H :    0.034570
  67 H :    0.029475
  68 H :    0.028348
  69 H :    0.043179
  70 H :    0.035585
  71 H :    0.028327
  72 H :    0.052573
  73 H :    0.030324
  74 H :    0.043177
  75 H :    0.043181
  76 H :    0.024595
  77 H :    0.038274
  78 H :    0.050277
  79 H :    0.043710
  80 H :    0.033139
Sum of atomic charges:    0.0000000

LOEWDIN ATOMIC CHARGES
----------------------
   0 C :    0.081510
   1 O :   -0.085199
   2 C :    0.092476
   3 O :   -0.192313
   4 C :   -0.147306
   5 C :   -0.028330
   6 N :   -0.091218
   7 C :    0.066430
   8 C :   -0.227134
   9 C :    0.055718
  10 O :   -0.050501
  11 C :    0.076043
  12 C :    0.070995
  13 O :   -0.065544
  14 C :    0.046657
  15 C :   -0.196940
  16 C :   -0.029695
  17 C :   -0.015872
  18 N :   -0.025540
  19 C :   -0.001453
  20 C :    0.001080
  21 N :   -0.025504
  22 C :   -0.010684
  23 C :   -0.037012
  24 C :   -0.189369
  25 C :    0.041441
  26 O :   -0.075418
  27 C :    0.071500
  28 C :    0.076461
  29 O :   -0.051516
  30 C :    0.058470
  31 C :   -0.226336
  32 C :    0.064967
  33 C :   -0.152785
  34 C :   -0.028700
  35 N :   -0.093825
  36 C :    0.092469
  37 O :   -0.195764
  38 O :   -0.086304
  39 C :    0.080803
  40 Si:    0.686573
  41 C :   -0.235983
  42 C :   -0.243322
  43 C :   -0.038803
  44 N :   -0.272748
  45 S :    0.651914
  46 N :   -0.269482
  47 C :   -0.040023
  48 Si:    0.686758
  49 C :   -0.239031
  50 C :   -0.241188
  51 H :    0.026635
  52 H :    0.022153
  53 H :    0.022206
  54 H :    0.040196
  55 H :    0.039796
  56 H :    0.025117
  57 H :    0.030140
  58 H :    0.033392
  59 H :    0.022239
  60 H :    0.023533
  61 H :    0.033243
  62 H :    0.029065
  63 H :    0.023036
  64 H :    0.039046
  65 H :    0.039013
  66 H :    0.025887
  67 H :    0.021832
  68 H :    0.021508
  69 H :    0.036633
  70 H :    0.031739
  71 H :    0.023502
  72 H :    0.039500
  73 H :    0.028238
  74 H :    0.036056
  75 H :    0.037459
  76 H :    0.022154
  77 H :    0.031853
  78 H :    0.038400
  79 H :    0.035124
  80 H :    0.029883

  Mayer bond orders larger than 0.100000
B(  0-C ,  1-O ) :   0.9253 B(  0-C , 51-H ) :   0.9812 B(  0-C , 52-H ) :   0.9762
B(  0-C , 53-H ) :   0.9763 B(  1-O ,  2-C ) :   1.2352 B(  2-C ,  3-O ) :   2.0960
B(  2-C ,  4-C ) :   0.9695 B(  4-C ,  5-C ) :   1.1032 B(  4-C ,  7-C ) :   1.7009
B(  5-C ,  6-N ) :   2.9996 B(  7-C ,  8-C ) :   1.1344 B(  7-C , 54-H ) :   0.9346
B(  8-C ,  9-C ) :   1.6109 B(  8-C , 48-Si) :   0.8361 B(  9-C , 10-O ) :   1.1884
B(  9-C , 14-C ) :   1.0196 B( 10-O , 11-C ) :   0.9315 B( 11-C , 12-C ) :   1.0798
B( 11-C , 55-H ) :   0.9490 B( 11-C , 56-H ) :   0.9446 B( 12-C , 13-O ) :   0.9412
B( 12-C , 57-H ) :   0.9430 B( 12-C , 58-H ) :   0.9515 B( 13-O , 14-C ) :   1.1823
B( 14-C , 15-C ) :   1.6145 B( 15-C , 16-C ) :   1.1719 B( 15-C , 48-Si) :   0.8646
B( 16-C , 17-C ) :   1.2319 B( 16-C , 23-C ) :   0.1307 B( 16-C , 47-C ) :   1.2127
B( 17-C , 18-N ) :   1.4635 B( 17-C , 22-C ) :   1.0892 B( 18-N , 19-C ) :   1.6896
B( 19-C , 20-C ) :   1.1837 B( 19-C , 59-H ) :   0.9729 B( 20-C , 21-N ) :   1.6882
B( 20-C , 60-H ) :   0.9730 B( 21-N , 22-C ) :   1.4614 B( 22-C , 23-C ) :   1.2390
B( 23-C , 24-C ) :   1.1552 B( 23-C , 43-C ) :   1.2165 B( 24-C , 25-C ) :   1.6323
B( 24-C , 40-Si) :   0.8658 B( 25-C , 26-O ) :   1.1721 B( 25-C , 30-C ) :   1.0296
B( 26-O , 27-C ) :   0.9386 B( 27-C , 28-C ) :   1.0829 B( 27-C , 61-H ) :   0.9521
B( 27-C , 62-H ) :   0.9408 B( 28-C , 29-O ) :   0.9302 B( 28-C , 63-H ) :   0.9444
B( 28-C , 64-H ) :   0.9497 B( 29-O , 30-C ) :   1.1968 B( 30-C , 31-C ) :   1.5889
B( 31-C , 32-C ) :   1.1541 B( 31-C , 40-Si) :   0.8406 B( 32-C , 33-C ) :   1.6832
B( 32-C , 65-H ) :   0.9340 B( 33-C , 34-C ) :   1.1070 B( 33-C , 36-C ) :   0.9757
B( 34-C , 35-N ) :   3.0012 B( 36-C , 37-O ) :   2.0895 B( 36-C , 38-O ) :   1.2326
B( 38-O , 39-C ) :   0.9285 B( 39-C , 66-H ) :   0.9812 B( 39-C , 67-H ) :   0.9762
B( 39-C , 68-H ) :   0.9761 B( 40-Si, 41-C ) :   1.0573 B( 40-Si, 42-C ) :   1.0642
B( 41-C , 69-H ) :   0.9444 B( 41-C , 70-H ) :   0.9521 B( 41-C , 71-H ) :   0.9547
B( 42-C , 72-H ) :   0.9498 B( 42-C , 73-H ) :   0.9498 B( 42-C , 74-H ) :   0.9501
B( 43-C , 44-N ) :   1.4450 B( 43-C , 47-C ) :   1.1122 B( 44-N , 45-S ) :   1.2593
B( 44-N , 46-N ) :   0.1589 B( 45-S , 46-N ) :   1.2590 B( 46-N , 47-C ) :   1.4401
B( 48-Si, 49-C ) :   1.0514 B( 48-Si, 50-C ) :   1.0644 B( 49-C , 75-H ) :   0.9477
B( 49-C , 76-H ) :   0.9571 B( 49-C , 77-H ) :   0.9521 B( 50-C , 78-H ) :   0.9490
B( 50-C , 79-H ) :   0.9517 B( 50-C , 80-H ) :   0.9487

-----------------------------------------------------------------------------
         ABSORPTION SPECTRUM VIA TRANSITION ELECTRIC DIPOLE MOMENTS
-----------------------------------------------------------------------------
State   Energy  Wavelength   fosc         T2         TX        TY        TZ
        (cm-1)    (nm)                  (au**2)     (au)      (au)      (au)
-----------------------------------------------------------------------------
   0   10045.6    995.5   0.533120033  17.47135  -2.76741  -0.28119  -3.11989
   1   19338.7    517.1   0.003295096   0.05609   0.09147  -0.15159   0.15731
   2   21187.9    472.0   0.733469009  11.39642   2.19258   0.05841   2.56624
   3   22042.7    453.7   0.001689080   0.02523   0.15110   0.04857  -0.00606
   4   23256.1    430.0   0.016744020   0.23703   0.06787   0.38336   0.29233
   5   25110.4    398.2   0.086505795   1.13414  -0.61988   0.18659  -0.84562
   6   27366.5    365.4   0.022608143   0.27197  -0.32400  -0.00247  -0.40864
   7   29182.0    342.7   0.017005873   0.19185   0.04324   0.42196  -0.10920
   8   30689.1    325.8   0.137885415   1.47914  -0.68499   0.81807   0.58370
   9   31962.1    312.9   0.009827145   0.10122  -0.04106   0.05025   0.31146
  10   32506.0    307.6   0.022861773   0.23154  -0.39956  -0.04975   0.26347
  11   33268.9    300.6   0.008413636   0.08326   0.18393  -0.13936  -0.17322
  12   33681.4    296.9   0.090182424   0.88147  -0.50226   0.39162  -0.68981
  13   34354.4    291.1   0.058898566   0.56441  -0.18068   0.24869  -0.68551
  14   34737.6    287.9   0.005392757   0.05111  -0.16417  -0.11272   0.10701
  15   35739.7    279.8   0.012188281   0.11227  -0.25939   0.15195  -0.14798
  16   36135.4    276.7   0.425594367   3.87738  -0.97462   1.67179   0.36417
  17   36412.8    274.6   0.011884218   0.10745   0.11075  -0.30842   0.00770
  18   37149.9    269.2   0.081105957   0.71874   0.39087  -0.74649  -0.09329
  19   37505.2    266.6   0.139456996   1.22412   0.65618  -0.69276  -0.56003
  20   37535.3    266.4   0.031676990   0.27783  -0.13658   0.46317   0.21130
  21   38109.4    262.4   0.016557153   0.14303   0.32133  -0.12509   0.15534
  22   39081.3    255.9   0.045750805   0.38539  -0.32248   0.03048   0.52960
  23   39175.5    255.3   0.011899925   0.10000  -0.02205  -0.21437  -0.23143
  24   39606.7    252.5   0.014810076   0.12310  -0.00873  -0.34684  -0.05223
  25   40193.8    248.8   0.034140855   0.27963   0.33073  -0.21507  -0.35213

FINAL SINGLE POINT ENERGY     -3218.055630179686

DIPOLE MOMENT
-------------
                                X             Y             Z
Electronic contribution:      4.27327      -3.66082      -4.03936
Nuclear contribution   :     -3.92668       3.26236       3.30457
                        -----------------------------------------
Total Dipole Moment    :      0.34659      -0.39846      -0.73479
                        -----------------------------------------
Magnitude (a.u.)       :      0.90489
Magnitude (Debye)      :      2.30004

Rotational constants in cm-1:     0.005042     0.000664     0.000609
Rotational constants in MHz :   151.151457    19.912123    18.246854

                             ****ORCA TERMINATED NORMALLY****
TOTAL RUN TIME: 0 days 0 hours 11 minutes 29 seconds 868 msec
