                         Program Version 4.2.0 -  RELEASE  -
|  1> # ORCA input file
|  2> # SCF done       -167.568467007257          0.000349039956
|  3> ! CAM-B3LYP def2-SVP def2/J RIJCOSX Grid4 TightSCF
|  4> %maxcore 5000
|  5> %tddft
|  6>     Mode sTDDFT
|  7>     Ethresh 5.0
|  8>     maxcore 5000
|  9> end
| 10>
| 11> %pal
| 12>   nprocs 6
| 13>   end
| 14> * xyz 0 1
| 15>    C        1.55854        -1.23266        -2.57742
| 16>    C        0.35734        -1.28920        -1.95693
| 17>    C        0.13710        -0.99412        -0.49656
| 18>    O        0.56117        -1.68974         0.38735
| 19>    O       -0.59866         0.09771        -0.33498
| 20>    C       -0.89316         0.48068         1.00828
| 21>    C       -0.79425        -1.71979        -2.63834
| 22>    N       -1.74669        -2.06325        -3.17849
| 23>    C        2.76693        -0.74641        -2.00529
| 24>    C        2.95953        -0.02252        -0.84125
| 25>    C        4.30026         0.27669        -0.62537
| 26>    C        5.14687        -0.21893        -1.63841
| 27>    S        4.27993        -1.04000        -2.85385
| 28>    C        6.48189         0.13289        -1.32639
| 29>    C        6.47672         0.85002        -0.10972
| 30>    C        5.10712         0.96800         0.36482
| 31>    C        4.66466         1.60179         1.48900
| 32>    C        5.54417         2.24393         2.38679
| 33>    N        6.25408         2.76849         3.11824
| 34>    C        3.29325         1.66813         1.81237
| 35>    N        2.17585         1.73496         2.06223
| 36>    C        7.74473         1.25010         0.28403
| 37>    C        8.72052         0.84989        -0.62292
| 38>    S        8.05119        -0.03996        -1.98206
| 39>    C       10.11259         1.10483        -0.54150
| 40>    C       10.99359         0.66800        -1.55682
| 41>    C       12.40724         0.93787        -1.52037
| 42>    N       13.18689         0.50414        -2.51621
| 43>    C       12.66501        -0.16339        -3.51683
| 44>    C       11.25835        -0.43182        -3.55318
| 45>    N       10.47866        -0.01285        -2.58576
| 46>    C       10.69099        -1.15148        -4.63385
| 47>    N       10.25634        -1.73322        -5.51926
| 48>    C       13.50972        -0.61515        -4.56093
| 49>    N       14.16972        -0.99026        -5.41818
| 50>    C       13.01411         1.65461        -0.46407
| 51>    C       12.13880         2.07680         0.56485
| 52>    C       10.71806         1.80935         0.52604
| 53>    N       10.10023         2.30713         1.59802
| 54>    S       11.16966         3.02687         2.54897
| 55>    N       12.47562         2.75449         1.66285
| 56>    C       14.40545         1.92649        -0.46949
| 57>    C       15.12365         2.61410         0.50381
| 58>    C       16.46718         2.71954         0.17865
| 59>    C       16.78018         2.10942        -1.05589
| 60>    S       15.41586         1.40082        -1.80633
| 61>    C       18.16180         2.28277        -1.29635
| 62>    C       18.72814         2.99564        -0.21484
| 63>    C       17.67579         3.30570         0.73857
| 64>    C       17.78324         4.02120         1.89393
| 65>    C       18.99337         4.61157         2.32007
| 66>    N       19.95553         5.12439         2.67332
| 67>    C       16.67312         4.25032         2.73582
| 68>    N       15.77570         4.44074         3.42340
| 69>    C       20.09605         3.19551        -0.34734
| 70>    C       20.59161         2.65897        -1.52710
| 71>    S       19.31701         1.88784        -2.47941
| 72>    C       21.88690         2.65631        -2.09996
| 73>    C       23.07929         3.08989        -1.60299
| 74>    C       23.37744         3.56851        -0.22830
| 75>    O       22.73959         3.30658         0.76138
| 76>    O       24.49028         4.30488        -0.22083
| 77>    C       24.91272         4.78605         1.04721
| 78>    C       24.20039         3.04049        -2.46071
| 79>    N       25.10282         2.98915        -3.16669
| 80>    H        1.62143        -1.57577        -3.60315
| 81>    H       -1.18737        -0.39304         1.59160
| 82>    H       -1.70785         1.19675         0.94474
| 83>    H       -0.01548         0.94082         1.46774
| 84>    H        2.16209         0.28736        -0.19456
| 85>    H        7.98648         1.80463         1.17208
| 86>    H       14.65355         3.00226         1.38851
| 87>    H       20.71728         3.68631         0.37814
| 88>    H       21.91858         2.26479        -3.11237
| 89>    H       25.14393         3.94988         1.71021
| 90>    H       24.12635         5.39008         1.50489
| 91>    H       25.80014         5.38454         0.86107
| 92> *
| 93>
| 94>                          ****END OF INPUT****

CARTESIAN COORDINATES (ANGSTROEM)
---------------------------------
  C      1.558540   -1.232660   -2.577420
  C      0.357340   -1.289200   -1.956930
  C      0.137100   -0.994120   -0.496560
  O      0.561170   -1.689740    0.387350
  O     -0.598660    0.097710   -0.334980
  C     -0.893160    0.480680    1.008280
  C     -0.794250   -1.719790   -2.638340
  N     -1.746690   -2.063250   -3.178490
  C      2.766930   -0.746410   -2.005290
  C      2.959530   -0.022520   -0.841250
  C      4.300260    0.276690   -0.625370
  C      5.146870   -0.218930   -1.638410
  S      4.279930   -1.040000   -2.853850
  C      6.481890    0.132890   -1.326390
  C      6.476720    0.850020   -0.109720
  C      5.107120    0.968000    0.364820
  C      4.664660    1.601790    1.489000
  C      5.544170    2.243930    2.386790
  N      6.254080    2.768490    3.118240
  C      3.293250    1.668130    1.812370
  N      2.175850    1.734960    2.062230
  C      7.744730    1.250100    0.284030
  C      8.720520    0.849890   -0.622920
  S      8.051190   -0.039960   -1.982060
  C     10.112590    1.104830   -0.541500
  C     10.993590    0.668000   -1.556820
  C     12.407240    0.937870   -1.520370
  N     13.186890    0.504140   -2.516210
  C     12.665010   -0.163390   -3.516830
  C     11.258350   -0.431820   -3.553180
  N     10.478660   -0.012850   -2.585760
  C     10.690990   -1.151480   -4.633850
  N     10.256340   -1.733220   -5.519260
  C     13.509720   -0.615150   -4.560930
  N     14.169720   -0.990260   -5.418180
  C     13.014110    1.654610   -0.464070
  C     12.138800    2.076800    0.564850
  C     10.718060    1.809350    0.526040
  N     10.100230    2.307130    1.598020
  S     11.169660    3.026870    2.548970
  N     12.475620    2.754490    1.662850
  C     14.405450    1.926490   -0.469490
  C     15.123650    2.614100    0.503810
  C     16.467180    2.719540    0.178650
  C     16.780180    2.109420   -1.055890
  S     15.415860    1.400820   -1.806330
  C     18.161800    2.282770   -1.296350
  C     18.728140    2.995640   -0.214840
  C     17.675790    3.305700    0.738570
  C     17.783240    4.021200    1.893930
  C     18.993370    4.611570    2.320070
  N     19.955530    5.124390    2.673320
  C     16.673120    4.250320    2.735820
  N     15.775700    4.440740    3.423400
  C     20.096050    3.195510   -0.347340
  C     20.591610    2.658970   -1.527100
  S     19.317010    1.887840   -2.479410
  C     21.886900    2.656310   -2.099960
  C     23.079290    3.089890   -1.602990
  C     23.377440    3.568510   -0.228300
  O     22.739590    3.306580    0.761380
  O     24.490280    4.304880   -0.220830
  C     24.912720    4.786050    1.047210
  C     24.200390    3.040490   -2.460710
  N     25.102820    2.989150   -3.166690
  H      1.621430   -1.575770   -3.603150
  H     -1.187370   -0.393040    1.591600
  H     -1.707850    1.196750    0.944740
  H     -0.015480    0.940820    1.467740
  H      2.162090    0.287360   -0.194560
  H      7.986480    1.804630    1.172080
  H     14.653550    3.002260    1.388510
  H     20.717280    3.686310    0.378140
  H     21.918580    2.264790   -3.112370
  H     25.143930    3.949880    1.710210
  H     24.126350    5.390080    1.504890
  H     25.800140    5.384540    0.861070

 Total Charge           Charge          ....    0
 Multiplicity           Mult            ....    1
 Number of Electrons    NEL             ....  472
 Basis Dimension        Dim             ....  990

ORBITAL ENERGIES
----------------

  NO   OCC          E(Eh)            E(eV)
   0   2.0000     -89.066005     -2423.6092
   1   2.0000     -89.005519     -2421.9633
   2   2.0000     -89.002463     -2421.8801
   3   2.0000     -88.999847     -2421.8089
   4   2.0000     -88.998265     -2421.7659
   5   2.0000     -19.275004      -524.4995
   6   2.0000     -19.272166      -524.4223
   7   2.0000     -19.220190      -523.0080
   8   2.0000     -19.219731      -522.9955
   9   2.0000     -14.490963      -394.3191
  10   2.0000     -14.490656      -394.3108
  11   2.0000     -14.473987      -393.8572
  12   2.0000     -14.473645      -393.8479
  13   2.0000     -14.451126      -393.2351
  14   2.0000     -14.451058      -393.2333
  15   2.0000     -14.446038      -393.0967
  16   2.0000     -14.440958      -392.9584
  17   2.0000     -14.437734      -392.8707
  18   2.0000     -14.435342      -392.8056
  19   2.0000     -14.410575      -392.1317
  20   2.0000     -14.401107      -391.8741
  21   2.0000     -10.419695      -283.5343
  22   2.0000     -10.419312      -283.5239
  23   2.0000     -10.408342      -283.2254
  24   2.0000     -10.408098      -283.2187
  25   2.0000     -10.377059      -282.3741
  26   2.0000     -10.373249      -282.2704
  27   2.0000     -10.371441      -282.2213
  28   2.0000     -10.371183      -282.2142
  29   2.0000     -10.366414      -282.0845
  30   2.0000     -10.366165      -282.0777
  31   2.0000     -10.364919      -282.0438
  32   2.0000     -10.359930      -281.9080
  33   2.0000     -10.348796      -281.6051
  34   2.0000     -10.348793      -281.6050
  35   2.0000     -10.346966      -281.5552
  36   2.0000     -10.344205      -281.4801
  37   2.0000     -10.344182      -281.4795
  38   2.0000     -10.344072      -281.4765
  39   2.0000     -10.343280      -281.4550
  40   2.0000     -10.341151      -281.3970
  41   2.0000     -10.341090      -281.3954
  42   2.0000     -10.339920      -281.3635
  43   2.0000     -10.339664      -281.3566
  44   2.0000     -10.339433      -281.3503
  45   2.0000     -10.338381      -281.3217
  46   2.0000     -10.337818      -281.3063
  47   2.0000     -10.337007      -281.2843
  48   2.0000     -10.336300      -281.2650
  49   2.0000     -10.334744      -281.2227
  50   2.0000     -10.332436      -281.1599
  51   2.0000     -10.331422      -281.1323
  52   2.0000     -10.327244      -281.0186
  53   2.0000     -10.327058      -281.0135
  54   2.0000     -10.321098      -280.8513
  55   2.0000     -10.319340      -280.8035
  56   2.0000     -10.317709      -280.7591
  57   2.0000     -10.315859      -280.7088
  58   2.0000     -10.314675      -280.6766
  59   2.0000     -10.313816      -280.6532
  60   2.0000     -10.312862      -280.6272
  61   2.0000     -10.311907      -280.6013
  62   2.0000     -10.311126      -280.5800
  63   2.0000     -10.310923      -280.5745
  64   2.0000     -10.302940      -280.3573
  65   2.0000      -8.156908      -221.9607
  66   2.0000      -8.100212      -220.4180
  67   2.0000      -8.097280      -220.3382
  68   2.0000      -8.092431      -220.2062
  69   2.0000      -8.090896      -220.1645
  70   2.0000      -6.127967      -166.7505
  71   2.0000      -6.120017      -166.5341
  72   2.0000      -6.119894      -166.5308
  73   2.0000      -6.069344      -165.1553
  74   2.0000      -6.066337      -165.0734
  75   2.0000      -6.065172      -165.0417
  76   2.0000      -6.062762      -164.9761
  77   2.0000      -6.062260      -164.9625
  78   2.0000      -6.061993      -164.9552
  79   2.0000      -6.060462      -164.9136
  80   2.0000      -6.059859      -164.8972
  81   2.0000      -6.057162      -164.8238
  82   2.0000      -6.055634      -164.7822
  83   2.0000      -6.054868      -164.7613
  84   2.0000      -6.053314      -164.7191
  85   2.0000      -1.207501       -32.8578
  86   2.0000      -1.206823       -32.8393
  87   2.0000      -1.163806       -31.6688
  88   2.0000      -1.149718       -31.2854
  89   2.0000      -1.113894       -30.3106
  90   2.0000      -1.112517       -30.2731
  91   2.0000      -1.078632       -29.3511
  92   2.0000      -1.057794       -28.7840
  93   2.0000      -1.054778       -28.7020
  94   2.0000      -1.036848       -28.2141
  95   2.0000      -1.034987       -28.1634
  96   2.0000      -1.028984       -28.0001
  97   2.0000      -1.026473       -27.9317
  98   2.0000      -1.020939       -27.7812
  99   2.0000      -1.019884       -27.7525
 100   2.0000      -1.016155       -27.6510
 101   2.0000      -1.013331       -27.5741
 102   2.0000      -1.006789       -27.3961
 103   2.0000      -0.998094       -27.1595
 104   2.0000      -0.995039       -27.0764
 105   2.0000      -0.989271       -26.9194
 106   2.0000      -0.972614       -26.4662
 107   2.0000      -0.966856       -26.3095
 108   2.0000      -0.941704       -25.6251
 109   2.0000      -0.937257       -25.5041
 110   2.0000      -0.932549       -25.3760
 111   2.0000      -0.926167       -25.2023
 112   2.0000      -0.912849       -24.8399
 113   2.0000      -0.899543       -24.4778
 114   2.0000      -0.880433       -23.9578
 115   2.0000      -0.877772       -23.8854
 116   2.0000      -0.868941       -23.6451
 117   2.0000      -0.866412       -23.5763
 118   2.0000      -0.859599       -23.3909
 119   2.0000      -0.848219       -23.0812
 120   2.0000      -0.844600       -22.9827
 121   2.0000      -0.828084       -22.5333
 122   2.0000      -0.822009       -22.3680
 123   2.0000      -0.803028       -21.8515
 124   2.0000      -0.797749       -21.7079
 125   2.0000      -0.789922       -21.4949
 126   2.0000      -0.780466       -21.2376
 127   2.0000      -0.759860       -20.6768
 128   2.0000      -0.757272       -20.6064
 129   2.0000      -0.738335       -20.0911
 130   2.0000      -0.729773       -19.8581
 131   2.0000      -0.716872       -19.5071
 132   2.0000      -0.712559       -19.3897
 133   2.0000      -0.706238       -19.2177
 134   2.0000      -0.701309       -19.0836
 135   2.0000      -0.697050       -18.9677
 136   2.0000      -0.692187       -18.8354
 137   2.0000      -0.683712       -18.6048
 138   2.0000      -0.678908       -18.4740
 139   2.0000      -0.673824       -18.3357
 140   2.0000      -0.657452       -17.8902
 141   2.0000      -0.652168       -17.7464
 142   2.0000      -0.650284       -17.6951
 143   2.0000      -0.649753       -17.6807
 144   2.0000      -0.645539       -17.5660
 145   2.0000      -0.640286       -17.4231
 146   2.0000      -0.637015       -17.3341
 147   2.0000      -0.633512       -17.2387
 148   2.0000      -0.627694       -17.0804
 149   2.0000      -0.622615       -16.9422
 150   2.0000      -0.618068       -16.8185
 151   2.0000      -0.606213       -16.4959
 152   2.0000      -0.593956       -16.1624
 153   2.0000      -0.587380       -15.9834
 154   2.0000      -0.582519       -15.8511
 155   2.0000      -0.580566       -15.7980
 156   2.0000      -0.579694       -15.7743
 157   2.0000      -0.576629       -15.6909
 158   2.0000      -0.572653       -15.5827
 159   2.0000      -0.563567       -15.3354
 160   2.0000      -0.560177       -15.2432
 161   2.0000      -0.559130       -15.2147
 162   2.0000      -0.556997       -15.1567
 163   2.0000      -0.551127       -14.9969
 164   2.0000      -0.545822       -14.8526
 165   2.0000      -0.540349       -14.7036
 166   2.0000      -0.534441       -14.5429
 167   2.0000      -0.531457       -14.4617
 168   2.0000      -0.523237       -14.2380
 169   2.0000      -0.517326       -14.0772
 170   2.0000      -0.514508       -14.0005
 171   2.0000      -0.513575       -13.9751
 172   2.0000      -0.512753       -13.9527
 173   2.0000      -0.511365       -13.9150
 174   2.0000      -0.509723       -13.8703
 175   2.0000      -0.505363       -13.7516
 176   2.0000      -0.504561       -13.7298
 177   2.0000      -0.498720       -13.5709
 178   2.0000      -0.498584       -13.5672
 179   2.0000      -0.497170       -13.5287
 180   2.0000      -0.496395       -13.5076
 181   2.0000      -0.494014       -13.4428
 182   2.0000      -0.488502       -13.2928
 183   2.0000      -0.486504       -13.2384
 184   2.0000      -0.484537       -13.1849
 185   2.0000      -0.479832       -13.0569
 186   2.0000      -0.476623       -12.9696
 187   2.0000      -0.473709       -12.8903
 188   2.0000      -0.473076       -12.8731
 189   2.0000      -0.470557       -12.8045
 190   2.0000      -0.469886       -12.7862
 191   2.0000      -0.468081       -12.7371
 192   2.0000      -0.467619       -12.7245
 193   2.0000      -0.464464       -12.6387
 194   2.0000      -0.462992       -12.5986
 195   2.0000      -0.460365       -12.5272
 196   2.0000      -0.458872       -12.4865
 197   2.0000      -0.456362       -12.4182
 198   2.0000      -0.453461       -12.3393
 199   2.0000      -0.450711       -12.2645
 200   2.0000      -0.449770       -12.2389
 201   2.0000      -0.448518       -12.2048
 202   2.0000      -0.446294       -12.1443
 203   2.0000      -0.445168       -12.1136
 204   2.0000      -0.444102       -12.0846
 205   2.0000      -0.442294       -12.0354
 206   2.0000      -0.441648       -12.0179
 207   2.0000      -0.440122       -11.9763
 208   2.0000      -0.439192       -11.9510
 209   2.0000      -0.436768       -11.8850
 210   2.0000      -0.433702       -11.8016
 211   2.0000      -0.431355       -11.7378
 212   2.0000      -0.429137       -11.6774
 213   2.0000      -0.424211       -11.5434
 214   2.0000      -0.420848       -11.4518
 215   2.0000      -0.420611       -11.4454
 216   2.0000      -0.416048       -11.3212
 217   2.0000      -0.408101       -11.1050
 218   2.0000      -0.404215       -10.9993
 219   2.0000      -0.400127       -10.8880
 220   2.0000      -0.398864       -10.8536
 221   2.0000      -0.388342       -10.5673
 222   2.0000      -0.387186       -10.5359
 223   2.0000      -0.374942       -10.2027
 224   2.0000      -0.373280       -10.1575
 225   2.0000      -0.371759       -10.1161
 226   2.0000      -0.367261        -9.9937
 227   2.0000      -0.365149        -9.9362
 228   2.0000      -0.360518        -9.8102
 229   2.0000      -0.357807        -9.7364
 230   2.0000      -0.352317        -9.5870
 231   2.0000      -0.335014        -9.1162
 232   2.0000      -0.330975        -9.0063
 233   2.0000      -0.319392        -8.6911
 234   2.0000      -0.289100        -7.8668
 235   2.0000      -0.254657        -6.9296
 236   0.0000      -0.151591        -4.1250
 237   0.0000      -0.116397        -3.1673
 238   0.0000      -0.111000        -3.0205
 239   0.0000      -0.077224        -2.1014
 240   0.0000      -0.072387        -1.9698

MULLIKEN ATOMIC CHARGES
-----------------------
   0 C :    0.135876
   1 C :   -0.182651
   2 C :    0.182328
   3 O :   -0.193574
   4 O :   -0.284334
   5 C :    0.166329
   6 C :   -0.130879
   7 N :    0.115909
   8 C :   -0.111949
   9 C :   -0.004486
  10 C :    0.002940
  11 C :   -0.100537
  12 S :    0.218410
  13 C :   -0.060617
  14 C :    0.035714
  15 C :    0.314023
  16 C :   -0.301654
  17 C :   -0.189053
  18 N :    0.179155
  19 C :   -0.169983
  20 N :    0.177542
  21 C :   -0.058497
  22 C :   -0.176554
  23 S :    0.210961
  24 C :    0.190532
  25 C :   -0.058951
  26 C :   -0.059998
  27 N :   -0.002838
  28 C :   -0.099097
  29 C :   -0.097131
  30 N :   -0.003650
  31 C :   -0.242616
  32 N :    0.256360
  33 C :   -0.241771
  34 N :    0.255894
  35 C :    0.190551
  36 C :   -0.007459
  37 C :   -0.011960
  38 N :   -0.283677
  39 S :    0.594814
  40 N :   -0.284798
  41 C :   -0.172914
  42 C :   -0.068393
  43 C :    0.043162
  44 C :   -0.060147
  45 S :    0.209137
  46 C :   -0.096254
  47 C :   -0.011851
  48 C :    0.315079
  49 C :   -0.299059
  50 C :   -0.187650
  51 N :    0.186882
  52 C :   -0.186696
  53 N :    0.169120
  54 C :    0.011869
  55 C :   -0.119466
  56 S :    0.205521
  57 C :    0.115294
  58 C :   -0.175888
  59 C :    0.215553
  60 O :   -0.212533
  61 O :   -0.278466
  62 C :    0.182468
  63 C :   -0.133838
  64 N :    0.092572
  65 H :    0.012144
  66 H :    0.041083
  67 H :    0.041224
  68 H :    0.043218
  69 H :    0.022950
  70 H :    0.024460
  71 H :    0.023354
  72 H :    0.033891
  73 H :    0.019591
  74 H :    0.037909
  75 H :    0.043164
  76 H :    0.044886
Sum of atomic charges:   -0.0000000

LOEWDIN ATOMIC CHARGES
----------------------
   0 C :    0.020005
   1 C :   -0.089826
   2 C :    0.079546
   3 O :   -0.153993
   4 O :   -0.073194
   5 C :    0.081183
   6 C :   -0.032349
   7 N :   -0.045895
   8 C :   -0.171133
   9 C :   -0.006005
  10 C :   -0.062309
  11 C :   -0.174989
  12 S :    0.498908
  13 C :   -0.174805
  14 C :   -0.071972
  15 C :    0.083094
  16 C :   -0.101346
  17 C :   -0.017331
  18 N :   -0.028418
  19 C :   -0.001181
  20 N :   -0.030002
  21 C :   -0.004123
  22 C :   -0.166524
  23 S :    0.514627
  24 C :   -0.035462
  25 C :   -0.015018
  26 C :   -0.014212
  27 N :   -0.016060
  28 C :   -0.019529
  29 C :   -0.020282
  30 N :   -0.016211
  31 C :   -0.040296
  32 N :    0.005344
  33 C :   -0.040002
  34 N :    0.005700
  35 C :   -0.037408
  36 C :   -0.035738
  37 C :   -0.036841
  38 N :   -0.270591
  39 S :    0.712416
  40 N :   -0.269979
  41 C :   -0.163787
  42 C :   -0.007089
  43 C :   -0.065742
  44 C :   -0.180115
  45 S :    0.511956
  46 C :   -0.169069
  47 C :   -0.065994
  48 C :    0.076652
  49 C :   -0.095272
  50 C :   -0.020460
  51 N :   -0.020782
  52 C :   -0.015174
  53 N :   -0.031522
  54 C :    0.009785
  55 C :   -0.176408
  56 S :    0.493573
  57 C :    0.038615
  58 C :   -0.118302
  59 C :    0.095088
  60 O :   -0.164920
  61 O :   -0.069774
  62 C :    0.085143
  63 C :   -0.038148
  64 N :   -0.058351
  65 H :    0.046694
  66 H :    0.026311
  67 H :    0.029551
  68 H :    0.021694
  69 H :    0.041869
  70 H :    0.039328
  71 H :    0.038903
  72 H :    0.043272
  73 H :    0.049320
  74 H :    0.026665
  75 H :    0.027956
  76 H :    0.030736

  Mayer bond orders larger than 0.100000
B(  0-C ,  1-C ) :   1.8251 B(  0-C ,  8-C ) :   1.1103 B(  0-C , 65-H ) :   0.9496
B(  1-C ,  2-C ) :   0.8426 B(  1-C ,  6-C ) :   1.1590 B(  2-C ,  3-O ) :   2.1216
B(  2-C ,  4-O ) :   1.2478 B(  4-O ,  5-C ) :   0.8947 B(  5-C , 66-H ) :   0.9671
B(  5-C , 67-H ) :   0.9779 B(  5-C , 68-H ) :   0.9666 B(  6-C ,  7-N ) :   3.0193
B(  8-C ,  9-C ) :   1.4494 B(  8-C , 12-S ) :   1.1018 B(  9-C , 10-C ) :   1.3143
B(  9-C , 69-H ) :   0.9709 B( 10-C , 11-C ) :   1.4098 B( 10-C , 15-C ) :   1.0009
B( 11-C , 12-S ) :   1.1411 B( 11-C , 13-C ) :   1.2015 B( 13-C , 14-C ) :   1.4004
B( 13-C , 23-S ) :   1.0923 B( 14-C , 15-C ) :   0.9895 B( 14-C , 21-C ) :   1.2829
B( 15-C , 16-C ) :   1.7073 B( 16-C , 17-C ) :   1.1385 B( 16-C , 19-C ) :   1.1363
B( 17-C , 18-N ) :   2.9883 B( 19-C , 20-N ) :   2.9713 B( 21-C , 22-C ) :   1.4075
B( 21-C , 70-H ) :   0.9817 B( 22-C , 23-S ) :   1.0862 B( 22-C , 24-C ) :   1.2144
B( 24-C , 25-C ) :   1.2508 B( 24-C , 35-C ) :   0.1226 B( 24-C , 37-C ) :   1.1964
B( 25-C , 26-C ) :   1.1071 B( 25-C , 30-N ) :   1.4037 B( 26-C , 27-N ) :   1.4049
B( 26-C , 35-C ) :   1.2535 B( 27-N , 28-C ) :   1.6935 B( 28-C , 29-C ) :   1.2190
B( 28-C , 33-C ) :   1.1689 B( 29-C , 30-N ) :   1.6936 B( 29-C , 31-C ) :   1.1654
B( 31-C , 32-N ) :   3.0403 B( 33-C , 34-N ) :   3.0384 B( 35-C , 36-C ) :   1.1954
B( 35-C , 41-C ) :   1.2119 B( 36-C , 37-C ) :   1.0980 B( 36-C , 40-N ) :   1.5139
B( 37-C , 38-N ) :   1.5160 B( 38-N , 39-S ) :   1.2878 B( 38-N , 40-N ) :   0.1461
B( 39-S , 40-N ) :   1.2874 B( 41-C , 42-C ) :   1.4065 B( 41-C , 45-S ) :   1.0895
B( 42-C , 43-C ) :   1.2839 B( 42-C , 71-H ) :   0.9815 B( 43-C , 44-C ) :   1.3983
B( 43-C , 48-C ) :   0.9889 B( 44-C , 45-S ) :   1.0850 B( 44-C , 46-C ) :   1.2079
B( 46-C , 47-C ) :   1.3884 B( 46-C , 56-S ) :   1.1529 B( 47-C , 48-C ) :   0.9934
B( 47-C , 54-C ) :   1.3234 B( 48-C , 49-C ) :   1.7150 B( 49-C , 50-C ) :   1.1321
B( 49-C , 52-C ) :   1.1405 B( 50-C , 51-N ) :   2.9934 B( 52-C , 53-N ) :   2.9824
B( 54-C , 55-C ) :   1.4217 B( 54-C , 72-H ) :   0.9716 B( 55-C , 56-S ) :   1.0880
B( 55-C , 57-C ) :   1.1581 B( 57-C , 58-C ) :   1.7460 B( 57-C , 73-H ) :   0.9357
B( 58-C , 59-C ) :   0.9238 B( 58-C , 63-C ) :   1.0737 B( 59-C , 60-O ) :   2.0347
B( 59-C , 61-O ) :   1.2589 B( 61-O , 62-C ) :   0.9133 B( 62-C , 74-H ) :   0.9767
B( 62-C , 75-H ) :   0.9752 B( 62-C , 76-H ) :   0.9805 B( 63-C , 64-N ) :   3.0303

-----------------------------------------------------------------------------
         ABSORPTION SPECTRUM VIA TRANSITION ELECTRIC DIPOLE MOMENTS
-----------------------------------------------------------------------------
State   Energy  Wavelength   fosc         T2         TX        TY        TZ
        (cm-1)    (nm)                  (au**2)     (au)      (au)      (au)
-----------------------------------------------------------------------------
   0    7424.8   1346.8   0.589082224  26.11949  -5.02006  -0.95201  -0.11050
   1   13370.1    747.9   0.002495546   0.06145  -0.22028  -0.04802  -0.10304
   2   14319.2    698.4   0.034708882   0.79799   0.87414   0.18258  -0.02295
   3   16352.4    611.5   0.000487358   0.00981   0.06136  -0.07771  -0.00291
   4   22209.2    450.3   0.085106290   1.26155  -1.08200  -0.27768  -0.11717
   5   22482.4    444.8   0.028065096   0.41096  -0.10498  -0.36892  -0.51365
   6   23128.2    432.4   0.704318769  10.02541  -3.09561  -0.64532  -0.16183
   7   23536.7    424.9   0.269134999   3.76445   1.89675   0.10223  -0.39541
   8   23917.4    418.1   0.091779304   1.26330  -1.04835  -0.34724  -0.20900
   9   24718.4    404.6   0.019147998   0.25502   0.23472  -0.19244  -0.40360
  10   25113.3    398.2   0.013843997   0.18148  -0.40851  -0.10173   0.06522
  11   25182.9    397.1   0.002917428   0.03814   0.17429  -0.03347   0.08150
  12   26632.6    375.5   0.761455385   9.41253  -3.02805  -0.39455   0.29626
  13   28113.1    355.7   0.299543074   3.50773   1.74203   0.53848   0.42792
  14   29361.3    340.6   0.080116567   0.89830   0.78235  -0.11597  -0.52229
  15   29719.6    336.5   0.088428339   0.97954  -0.75244   0.23850   0.59708
  16   30002.2    333.3   0.308582589   3.38606   0.89400   0.95111   1.29700
  17   30813.4    324.5   0.001326657   0.01417   0.02560   0.05621   0.10178
  18   30995.2    322.6   0.293785128   3.12040  -0.48432   0.79331   1.50216
  19   31124.7    321.3   0.155958106   1.64960   0.39408   0.65334   1.03317
  20   31726.8    315.2   0.271900142   2.82136  -1.66712  -0.16415   0.12300
  21   31847.8    314.0   0.002005763   0.02073   0.00236   0.04887   0.13542
  22   32253.1    310.0   0.114068728   1.16432  -0.58498   0.34879   0.83693
  23   32428.8    308.4   1.139965889  11.57274   0.29416  -1.73574  -2.91091
  24   33187.9    301.3   0.006064798   0.06016  -0.04102  -0.16133  -0.18014
  25   33596.2    297.7   0.002399531   0.02351   0.13404   0.00773  -0.07407
  26   33775.6    296.1   0.052154994   0.50836  -0.52790   0.12946   0.46143
  27   33880.9    295.2   0.044472592   0.43213   0.43657  -0.19045  -0.45306
  28   34046.4    293.7   0.131131062   1.26797   0.30854   0.64052   0.87322
  29   34237.5    292.1   0.037152445   0.35724   0.10976  -0.17356  -0.56131
  30   34458.6    290.2   0.316940210   3.02799   1.70672   0.32275   0.10452
  31   35163.3    284.4   0.035395714   0.33139   0.34841   0.19776   0.41339
  32   35962.6    278.1   0.024621090   0.22539   0.43368  -0.06441  -0.18210
  33   36900.6    271.0   0.102646375   0.91577  -0.55967  -0.49903  -0.59457
  34   37495.0    266.7   0.160638177   1.41043  -1.06854  -0.41342  -0.31263
  35   37614.9    265.9   0.015635665   0.13685   0.36615   0.05112   0.01297
  36   37673.9    265.4   0.142584945   1.24597   0.73094  -0.32848  -0.77705
  37   38557.4    259.4   0.003154154   0.02693   0.08120   0.07569   0.12086
  38   38613.0    259.0   0.020326976   0.17331  -0.17885  -0.24431  -0.28571
  39   38882.7    257.2   0.024257448   0.20538   0.21666   0.25280   0.30747
  40   39422.1    253.7   0.013458438   0.11239  -0.18115   0.19614   0.20274
  41   39579.7    252.7   0.052310715   0.43510  -0.02161   0.14586   0.64293
  42   39721.8    251.8   0.139754723   1.15828  -0.05054   0.58044   0.90488
  43   39903.8    250.6   0.115711013   0.95463   0.25456  -0.43218  -0.83848
  44   40018.1    249.9   0.005034760   0.04142  -0.10121  -0.11117  -0.13717

FINAL SINGLE POINT ENERGY     -4628.663359341350

DIPOLE MOMENT
-------------
                                X             Y             Z
Electronic contribution:     -1.70090      -7.79004     -11.25495
Nuclear contribution   :      1.85292       8.63212      11.85196
                        -----------------------------------------
Total Dipole Moment    :      0.15201       0.84207       0.59700
                        -----------------------------------------
Magnitude (a.u.)       :      1.04336
Magnitude (Debye)      :      2.65202

Rotational constants in cm-1:     0.003067     0.000315     0.000286
Rotational constants in MHz :    91.955545     9.437320     8.581367

                             ****ORCA TERMINATED NORMALLY****
TOTAL RUN TIME: 0 days 0 hours 6 minutes 49 seconds 869 msec
