                         Program Version 4.2.0 -  RELEASE  -
|  1> # ORCA input file
|  2> # SCF done       -186.329068720447          0.000416217938
|  3> ! CAM-B3LYP def2-SVP def2/J RIJCOSX Grid4 TightSCF
|  4> %maxcore 5000
|  5> %tddft
|  6>     Mode sTDDFT
|  7>     Ethresh 5.0
|  8>     maxcore 5000
|  9> end
| 10>
| 11> %pal
| 12>   nprocs 6
| 13>   end
| 14> * xyz 0 1
| 15>    C       -2.72347        -4.05621        13.85090
| 16>    C       -3.61847        -3.26727        13.18463
| 17>    C       -3.52878        -3.08714        11.79273
| 18>    F       -4.46198        -2.29845        11.22058
| 19>    C       -2.57886        -3.68460        10.99280
| 20>    C       -1.63239        -4.48940        11.67598
| 21>    C       -1.70968        -4.67683        13.10105
| 22>    N       -0.73372        -5.46788        13.54977
| 23>    S        0.17947        -5.91873        12.31220
| 24>    N       -0.59984        -5.14177        11.14071
| 25>    C       -2.46742        -3.43653         9.56334
| 26>    C       -2.43487        -2.20233         9.00576
| 27>    C       -2.08946        -2.34106         7.60014
| 28>    C       -1.94326        -1.26979         6.71073
| 29>    N       -1.82015        -0.38971         5.98344
| 30>    C       -1.91056        -3.66378         7.31734
| 31>    C       -2.20690        -4.42988         8.50296
| 32>    C       -2.35306        -5.78852         8.61666
| 33>    C       -1.90889        -6.84512         7.67175
| 34>    C       -1.95698        -8.03174         8.34515
| 35>    C       -2.53450        -7.80866         9.65003
| 36>    C       -2.80193        -6.47525         9.79722
| 37>    C       -2.78063        -8.81260        10.59484
| 38>    N       -2.96343        -9.63429        11.37586
| 39>    C       -1.54050        -6.68628         6.30010
| 40>    C       -0.70182        -7.51569         5.64068
| 41>    C       -0.34591        -7.43304         4.24998
| 42>    C        0.71080        -8.19678         3.78630
| 43>    C        1.11369        -8.11652         2.44394
| 44>    C        2.14827        -8.75042         1.75503
| 45>    C        3.08060        -9.75478         2.33481
| 46>    C        2.61326       -11.19916         2.03349
| 47>    N        2.41919       -11.40407         0.60718
| 48>    C        4.54596        -9.58987         1.89791
| 49>    N        5.40293       -10.22797         2.88342
| 50>    C        2.08977        -8.27745         0.39205
| 51>    C        2.83600        -8.56888        -0.69258
| 52>    C        2.57680        -7.93789        -2.01071
| 53>    C        1.43473        -6.96775        -2.03040
| 54>    C        0.68386        -6.70251        -0.94542
| 55>    C        0.97518        -7.32580         0.29011
| 56>    C        0.39125        -7.23630         1.54106
| 57>    C       -0.70194        -6.48702         2.02702
| 58>    C       -1.05040        -6.58374         3.33631
| 59>    C        2.32391        -8.94451        -3.10917
| 60>    C        2.12252       -10.25023        -2.93225
| 61>    C        1.80566       -11.15901        -4.00837
| 62>    C        2.23774       -12.44247        -4.12133
| 63>    C        1.83764       -12.95441        -5.41951
| 64>    C        2.08374       -14.25894        -5.86278
| 65>    N        2.29549       -15.33126        -6.21521
| 66>    C        1.19154       -11.96482        -6.11095
| 67>    C        1.08573       -10.81952        -5.25001
| 68>    C        0.27873        -9.72561        -5.46190
| 69>    C       -0.26244        -9.24065        -6.74860
| 70>    C       -1.23248        -8.32092        -6.46289
| 71>    C       -1.31461        -8.16356        -5.03050
| 72>    C       -0.37938        -8.97254        -4.43462
| 73>    C       -2.19359        -7.30428        -4.36019
| 74>    N       -2.89660        -6.58948        -3.80002
| 75>    C        0.23350        -9.51330        -8.06016
| 76>    C        1.48713        -9.92274        -8.34826
| 77>    C        2.00109       -10.16721        -9.66796
| 78>    C        3.32982       -10.52011        -9.83438
| 79>    C        3.88083       -10.76225       -11.09850
| 80>    F        5.18608       -11.09162       -11.14803
| 81>    C        3.17248       -10.67819       -12.26640
| 82>    C        1.81946       -10.32888       -12.14552
| 83>    C        1.22252       -10.07269       -10.85697
| 84>    N       -0.06728        -9.76168       -10.97061
| 85>    S       -0.48106        -9.78749       -12.52554
| 86>    N        0.94285       -10.19184       -13.14095
| 87>    H       -2.77456        -4.20905        14.91567
| 88>    H       -4.41780        -2.76380        13.70545
| 89>    H       -2.58193        -1.26081         9.50079
| 90>    H       -1.62851        -4.05264         6.36071
| 91>    H       -1.69624        -9.00171         7.96557
| 92>    H       -3.29082        -6.02441        10.63777
| 93>    H       -2.00512        -5.87084         5.76866
| 94>    H       -0.20033        -8.29313         6.20293
| 95>    H        1.23831        -8.84729         4.46996
| 96>    H        3.05789        -9.64640         3.42456
| 97>    H        1.70289       -11.39914         2.61992
| 98>    H        3.40425       -11.86877         2.37636
| 99>    H        2.36282       -12.39534         0.40258
|100>    H        1.54687       -10.97465         0.31450
|101>    H        4.76601        -8.51870         1.75264
|102>    H        4.70073       -10.11155         0.95275
|103>    H        5.38574        -9.71373         3.75823
|104>    H        6.36276       -10.25434         2.55918
|105>    H        3.64361        -9.28182        -0.65084
|106>    H        3.49215        -7.39015        -2.29336
|107>    H        1.22217        -6.50122        -2.98042
|108>    H       -0.14390        -6.01144        -1.00559
|109>    H       -1.25094        -5.84613         1.35350
|110>    H       -1.89474        -6.01971         3.69981
|111>    H        2.25097        -8.51081        -4.09732
|112>    H        2.25717       -10.70111        -1.95771
|113>    H        2.81006       -12.99996        -3.40347
|114>    H        0.72420       -12.06315        -7.07144
|115>    H       -1.81637        -7.76157        -7.16956
|116>    H       -0.25664        -9.11749        -3.37895
|117>    H       -0.43985        -9.29168        -8.87721
|118>    H        2.20240       -10.06524        -7.54801
|119>    H        3.97548       -10.61584        -8.97463
|120>    H        3.61861       -10.86915       -13.22693
|121> *
|122>
|123>                          ****END OF INPUT****

CARTESIAN COORDINATES (ANGSTROEM)
---------------------------------
  C     -2.723470   -4.056210   13.850900
  C     -3.618470   -3.267270   13.184630
  C     -3.528780   -3.087140   11.792730
  F     -4.461980   -2.298450   11.220580
  C     -2.578860   -3.684600   10.992800
  C     -1.632390   -4.489400   11.675980
  C     -1.709680   -4.676830   13.101050
  N     -0.733720   -5.467880   13.549770
  S      0.179470   -5.918730   12.312200
  N     -0.599840   -5.141770   11.140710
  C     -2.467420   -3.436530    9.563340
  C     -2.434870   -2.202330    9.005760
  C     -2.089460   -2.341060    7.600140
  C     -1.943260   -1.269790    6.710730
  N     -1.820150   -0.389710    5.983440
  C     -1.910560   -3.663780    7.317340
  C     -2.206900   -4.429880    8.502960
  C     -2.353060   -5.788520    8.616660
  C     -1.908890   -6.845120    7.671750
  C     -1.956980   -8.031740    8.345150
  C     -2.534500   -7.808660    9.650030
  C     -2.801930   -6.475250    9.797220
  C     -2.780630   -8.812600   10.594840
  N     -2.963430   -9.634290   11.375860
  C     -1.540500   -6.686280    6.300100
  C     -0.701820   -7.515690    5.640680
  C     -0.345910   -7.433040    4.249980
  C      0.710800   -8.196780    3.786300
  C      1.113690   -8.116520    2.443940
  C      2.148270   -8.750420    1.755030
  C      3.080600   -9.754780    2.334810
  C      2.613260  -11.199160    2.033490
  N      2.419190  -11.404070    0.607180
  C      4.545960   -9.589870    1.897910
  N      5.402930  -10.227970    2.883420
  C      2.089770   -8.277450    0.392050
  C      2.836000   -8.568880   -0.692580
  C      2.576800   -7.937890   -2.010710
  C      1.434730   -6.967750   -2.030400
  C      0.683860   -6.702510   -0.945420
  C      0.975180   -7.325800    0.290110
  C      0.391250   -7.236300    1.541060
  C     -0.701940   -6.487020    2.027020
  C     -1.050400   -6.583740    3.336310
  C      2.323910   -8.944510   -3.109170
  C      2.122520  -10.250230   -2.932250
  C      1.805660  -11.159010   -4.008370
  C      2.237740  -12.442470   -4.121330
  C      1.837640  -12.954410   -5.419510
  C      2.083740  -14.258940   -5.862780
  N      2.295490  -15.331260   -6.215210
  C      1.191540  -11.964820   -6.110950
  C      1.085730  -10.819520   -5.250010
  C      0.278730   -9.725610   -5.461900
  C     -0.262440   -9.240650   -6.748600
  C     -1.232480   -8.320920   -6.462890
  C     -1.314610   -8.163560   -5.030500
  C     -0.379380   -8.972540   -4.434620
  C     -2.193590   -7.304280   -4.360190
  N     -2.896600   -6.589480   -3.800020
  C      0.233500   -9.513300   -8.060160
  C      1.487130   -9.922740   -8.348260
  C      2.001090  -10.167210   -9.667960
  C      3.329820  -10.520110   -9.834380
  C      3.880830  -10.762250  -11.098500
  F      5.186080  -11.091620  -11.148030
  C      3.172480  -10.678190  -12.266400
  C      1.819460  -10.328880  -12.145520
  C      1.222520  -10.072690  -10.856970
  N     -0.067280   -9.761680  -10.970610
  S     -0.481060   -9.787490  -12.525540
  N      0.942850  -10.191840  -13.140950
  H     -2.774560   -4.209050   14.915670
  H     -4.417800   -2.763800   13.705450
  H     -2.581930   -1.260810    9.500790
  H     -1.628510   -4.052640    6.360710
  H     -1.696240   -9.001710    7.965570
  H     -3.290820   -6.024410   10.637770
  H     -2.005120   -5.870840    5.768660
  H     -0.200330   -8.293130    6.202930
  H      1.238310   -8.847290    4.469960
  H      3.057890   -9.646400    3.424560
  H      1.702890  -11.399140    2.619920
  H      3.404250  -11.868770    2.376360
  H      2.362820  -12.395340    0.402580
  H      1.546870  -10.974650    0.314500
  H      4.766010   -8.518700    1.752640
  H      4.700730  -10.111550    0.952750
  H      5.385740   -9.713730    3.758230
  H      6.362760  -10.254340    2.559180
  H      3.643610   -9.281820   -0.650840
  H      3.492150   -7.390150   -2.293360
  H      1.222170   -6.501220   -2.980420
  H     -0.143900   -6.011440   -1.005590
  H     -1.250940   -5.846130    1.353500
  H     -1.894740   -6.019710    3.699810
  H      2.250970   -8.510810   -4.097320
  H      2.257170  -10.701110   -1.957710
  H      2.810060  -12.999960   -3.403470
  H      0.724200  -12.063150   -7.071440
  H     -1.816370   -7.761570   -7.169560
  H     -0.256640   -9.117490   -3.378950
  H     -0.439850   -9.291680   -8.877210
  H      2.202400  -10.065240   -7.548010
  H      3.975480  -10.615840   -8.974630
  H      3.618610  -10.869150  -13.226930

 Total Charge           Charge          ....    0
 Multiplicity           Mult            ....    1
 Number of Electrons    NEL             ....  502
 Basis Dimension        Dim             .... 1186

ORBITAL ENERGIES
----------------

  NO   OCC          E(Eh)            E(eV)
   0   2.0000     -89.029124     -2422.6056
   1   2.0000     -89.027766     -2422.5687
   2   2.0000     -24.794616      -674.6958
   3   2.0000     -24.787662      -674.5066
   4   2.0000     -14.446329      -393.1046
   5   2.0000     -14.441872      -392.9833
   6   2.0000     -14.441419      -392.9710
   7   2.0000     -14.440212      -392.9381
   8   2.0000     -14.414460      -392.2374
   9   2.0000     -14.414415      -392.2362
  10   2.0000     -14.408788      -392.0831
  11   2.0000     -14.408628      -392.0787
  12   2.0000     -14.391997      -391.6261
  13   2.0000     -14.382426      -391.3657
  14   2.0000     -10.378019      -282.4003
  15   2.0000     -10.374263      -282.2980
  16   2.0000     -10.331477      -281.1338
  17   2.0000     -10.331377      -281.1311
  18   2.0000     -10.331131      -281.1244
  19   2.0000     -10.330688      -281.1123
  20   2.0000     -10.329963      -281.0926
  21   2.0000     -10.327632      -281.0291
  22   2.0000     -10.325302      -280.9657
  23   2.0000     -10.324663      -280.9483
  24   2.0000     -10.320514      -280.8355
  25   2.0000     -10.319926      -280.8194
  26   2.0000     -10.318494      -280.7805
  27   2.0000     -10.316150      -280.7167
  28   2.0000     -10.313088      -280.6334
  29   2.0000     -10.312833      -280.6265
  30   2.0000     -10.312579      -280.6195
  31   2.0000     -10.308243      -280.5015
  32   2.0000     -10.307404      -280.4787
  33   2.0000     -10.307348      -280.4772
  34   2.0000     -10.302339      -280.3409
  35   2.0000     -10.301980      -280.3311
  36   2.0000     -10.301589      -280.3205
  37   2.0000     -10.301240      -280.3110
  38   2.0000     -10.301191      -280.3097
  39   2.0000     -10.301115      -280.3076
  40   2.0000     -10.300971      -280.3037
  41   2.0000     -10.300738      -280.2973
  42   2.0000     -10.300029      -280.2780
  43   2.0000     -10.299251      -280.2569
  44   2.0000     -10.298730      -280.2427
  45   2.0000     -10.297828      -280.2182
  46   2.0000     -10.297040      -280.1967
  47   2.0000     -10.296709      -280.1877
  48   2.0000     -10.295488      -280.1545
  49   2.0000     -10.293066      -280.0886
  50   2.0000     -10.292988      -280.0865
  51   2.0000     -10.291560      -280.0476
  52   2.0000     -10.291288      -280.0402
  53   2.0000     -10.291132      -280.0359
  54   2.0000     -10.288998      -279.9779
  55   2.0000     -10.286480      -279.9093
  56   2.0000     -10.282651      -279.8052
  57   2.0000     -10.281823      -279.7826
  58   2.0000     -10.281205      -279.7658
  59   2.0000     -10.279975      -279.7323
  60   2.0000     -10.279812      -279.7279
  61   2.0000     -10.276417      -279.6355
  62   2.0000     -10.274974      -279.5963
  63   2.0000     -10.274140      -279.5736
  64   2.0000     -10.272164      -279.5198
  65   2.0000     -10.270672      -279.4792
  66   2.0000     -10.267613      -279.3960
  67   2.0000     -10.266742      -279.3723
  68   2.0000     -10.265235      -279.3312
  69   2.0000     -10.264743      -279.3179
  70   2.0000     -10.262620      -279.2601
  71   2.0000     -10.262178      -279.2481
  72   2.0000      -8.121087      -220.9860
  73   2.0000      -8.119568      -220.9447
  74   2.0000      -6.092322      -165.7805
  75   2.0000      -6.090686      -165.7360
  76   2.0000      -6.084501      -165.5677
  77   2.0000      -6.083466      -165.5395
  78   2.0000      -6.082986      -165.5265
  79   2.0000      -6.082085      -165.5019
  80   2.0000      -1.308109       -35.5955
  81   2.0000      -1.302393       -35.4399
  82   2.0000      -1.130065       -30.7506
  83   2.0000      -1.128356       -30.7041
  84   2.0000      -1.018984       -27.7280
  85   2.0000      -1.011809       -27.5327
  86   2.0000      -1.004952       -27.3461
  87   2.0000      -0.998759       -27.1776
  88   2.0000      -0.992666       -27.0118
  89   2.0000      -0.988185       -26.8899
  90   2.0000      -0.987398       -26.8685
  91   2.0000      -0.985847       -26.8263
  92   2.0000      -0.981483       -26.7075
  93   2.0000      -0.980361       -26.6770
  94   2.0000      -0.976536       -26.5729
  95   2.0000      -0.972282       -26.4571
  96   2.0000      -0.971180       -26.4272
  97   2.0000      -0.967149       -26.3175
  98   2.0000      -0.955943       -26.0125
  99   2.0000      -0.949962       -25.8498
 100   2.0000      -0.923164       -25.1206
 101   2.0000      -0.909723       -24.7548
 102   2.0000      -0.896009       -24.3816
 103   2.0000      -0.886091       -24.1118
 104   2.0000      -0.883713       -24.0471
 105   2.0000      -0.879744       -23.9390
 106   2.0000      -0.872799       -23.7501
 107   2.0000      -0.869312       -23.6552
 108   2.0000      -0.865041       -23.5390
 109   2.0000      -0.862813       -23.4783
 110   2.0000      -0.858570       -23.3629
 111   2.0000      -0.841860       -22.9082
 112   2.0000      -0.837512       -22.7899
 113   2.0000      -0.831290       -22.6206
 114   2.0000      -0.820458       -22.3258
 115   2.0000      -0.817142       -22.2356
 116   2.0000      -0.812040       -22.0967
 117   2.0000      -0.802200       -21.8290
 118   2.0000      -0.795218       -21.6390
 119   2.0000      -0.786557       -21.4033
 120   2.0000      -0.759140       -20.6573
 121   2.0000      -0.757201       -20.6045
 122   2.0000      -0.753720       -20.5098
 123   2.0000      -0.744578       -20.2610
 124   2.0000      -0.728584       -19.8258
 125   2.0000      -0.726702       -19.7746
 126   2.0000      -0.724470       -19.7138
 127   2.0000      -0.722651       -19.6643
 128   2.0000      -0.718249       -19.5446
 129   2.0000      -0.713748       -19.4221
 130   2.0000      -0.710206       -19.3257
 131   2.0000      -0.705800       -19.2058
 132   2.0000      -0.695238       -18.9184
 133   2.0000      -0.689281       -18.7563
 134   2.0000      -0.679169       -18.4811
 135   2.0000      -0.676674       -18.4132
 136   2.0000      -0.670528       -18.2460
 137   2.0000      -0.664151       -18.0725
 138   2.0000      -0.650158       -17.6917
 139   2.0000      -0.646945       -17.6043
 140   2.0000      -0.639986       -17.4149
 141   2.0000      -0.637274       -17.3411
 142   2.0000      -0.635923       -17.3043
 143   2.0000      -0.630366       -17.1531
 144   2.0000      -0.627410       -17.0727
 145   2.0000      -0.626891       -17.0586
 146   2.0000      -0.621991       -16.9252
 147   2.0000      -0.618436       -16.8285
 148   2.0000      -0.610451       -16.6112
 149   2.0000      -0.600399       -16.3377
 150   2.0000      -0.599702       -16.3187
 151   2.0000      -0.596711       -16.2373
 152   2.0000      -0.592903       -16.1337
 153   2.0000      -0.586817       -15.9681
 154   2.0000      -0.585888       -15.9428
 155   2.0000      -0.583566       -15.8796
 156   2.0000      -0.577802       -15.7228
 157   2.0000      -0.569201       -15.4888
 158   2.0000      -0.566140       -15.4054
 159   2.0000      -0.565323       -15.3832
 160   2.0000      -0.564951       -15.3731
 161   2.0000      -0.561139       -15.2694
 162   2.0000      -0.554230       -15.0814
 163   2.0000      -0.546951       -14.8833
 164   2.0000      -0.546453       -14.8698
 165   2.0000      -0.545298       -14.8383
 166   2.0000      -0.543251       -14.7826
 167   2.0000      -0.538373       -14.6499
 168   2.0000      -0.535484       -14.5713
 169   2.0000      -0.533387       -14.5142
 170   2.0000      -0.527189       -14.3455
 171   2.0000      -0.526763       -14.3340
 172   2.0000      -0.522504       -14.2181
 173   2.0000      -0.521531       -14.1916
 174   2.0000      -0.520325       -14.1588
 175   2.0000      -0.518424       -14.1070
 176   2.0000      -0.516173       -14.0458
 177   2.0000      -0.515965       -14.0401
 178   2.0000      -0.514797       -14.0083
 179   2.0000      -0.512086       -13.9346
 180   2.0000      -0.509947       -13.8764
 181   2.0000      -0.505672       -13.7600
 182   2.0000      -0.503637       -13.7047
 183   2.0000      -0.502552       -13.6751
 184   2.0000      -0.499694       -13.5974
 185   2.0000      -0.497519       -13.5382
 186   2.0000      -0.496272       -13.5042
 187   2.0000      -0.495541       -13.4844
 188   2.0000      -0.494722       -13.4621
 189   2.0000      -0.493946       -13.4410
 190   2.0000      -0.491074       -13.3628
 191   2.0000      -0.487338       -13.2611
 192   2.0000      -0.483612       -13.1598
 193   2.0000      -0.482090       -13.1183
 194   2.0000      -0.479320       -13.0430
 195   2.0000      -0.473878       -12.8949
 196   2.0000      -0.471886       -12.8407
 197   2.0000      -0.468842       -12.7579
 198   2.0000      -0.465129       -12.6568
 199   2.0000      -0.462828       -12.5942
 200   2.0000      -0.459420       -12.5015
 201   2.0000      -0.458509       -12.4767
 202   2.0000      -0.455305       -12.3895
 203   2.0000      -0.453043       -12.3279
 204   2.0000      -0.449435       -12.2298
 205   2.0000      -0.444238       -12.0883
 206   2.0000      -0.443125       -12.0580
 207   2.0000      -0.442690       -12.0462
 208   2.0000      -0.441565       -12.0156
 209   2.0000      -0.440196       -11.9784
 210   2.0000      -0.439696       -11.9647
 211   2.0000      -0.437188       -11.8965
 212   2.0000      -0.436774       -11.8852
 213   2.0000      -0.435855       -11.8602
 214   2.0000      -0.433594       -11.7987
 215   2.0000      -0.430819       -11.7232
 216   2.0000      -0.425939       -11.5904
 217   2.0000      -0.422766       -11.5040
 218   2.0000      -0.419122       -11.4049
 219   2.0000      -0.418507       -11.3882
 220   2.0000      -0.414351       -11.2751
 221   2.0000      -0.412395       -11.2218
 222   2.0000      -0.411359       -11.1937
 223   2.0000      -0.410145       -11.1606
 224   2.0000      -0.407360       -11.0848
 225   2.0000      -0.404305       -11.0017
 226   2.0000      -0.401547       -10.9266
 227   2.0000      -0.401507       -10.9256
 228   2.0000      -0.394243       -10.7279
 229   2.0000      -0.387708       -10.5501
 230   2.0000      -0.381995       -10.3946
 231   2.0000      -0.375110       -10.2073
 232   2.0000      -0.372724       -10.1423
 233   2.0000      -0.369063       -10.0427
 234   2.0000      -0.366342        -9.9687
 235   2.0000      -0.364339        -9.9142
 236   2.0000      -0.339301        -9.2328
 237   2.0000      -0.338101        -9.2002
 238   2.0000      -0.334159        -9.0929
 239   2.0000      -0.332458        -9.0466
 240   2.0000      -0.330006        -8.9799
 241   2.0000      -0.324472        -8.8293
 242   2.0000      -0.322761        -8.7828
 243   2.0000      -0.318898        -8.6777
 244   2.0000      -0.310588        -8.4515
 245   2.0000      -0.303821        -8.2674
 246   2.0000      -0.296040        -8.0557
 247   2.0000      -0.289772        -7.8851
 248   2.0000      -0.271595        -7.3905
 249   2.0000      -0.268161        -7.2970
 250   2.0000      -0.222754        -6.0614
 251   0.0000      -0.125119        -3.4047
 252   0.0000      -0.115880        -3.1532
 253   0.0000      -0.071879        -1.9559
 254   0.0000      -0.070738        -1.9249
 255   0.0000      -0.063710        -1.7336

MULLIKEN ATOMIC CHARGES
-----------------------
   0 C :   -0.020645
   1 C :   -0.024459
   2 C :    0.209055
   3 F :   -0.181868
   4 C :   -0.004602
   5 C :   -0.053070
   6 C :    0.076279
   7 N :   -0.259996
   8 S :    0.513347
   9 N :   -0.263908
  10 C :    0.033194
  11 C :    0.003582
  12 C :   -0.102198
  13 C :   -0.136714
  14 N :    0.140889
  15 C :   -0.026003
  16 C :    0.083516
  17 C :    0.049466
  18 C :    0.088025
  19 C :   -0.034084
  20 C :   -0.111006
  21 C :   -0.007711
  22 C :   -0.129484
  23 N :    0.138407
  24 C :   -0.027975
  25 C :   -0.003891
  26 C :    0.127244
  27 C :   -0.109843
  28 C :    0.060215
  29 C :   -0.057772
  30 C :   -0.018969
  31 C :    0.144494
  32 N :   -0.243261
  33 C :    0.114469
  34 N :   -0.218413
  35 C :    0.068951
  36 C :   -0.129213
  37 C :    0.196532
  38 C :   -0.064066
  39 C :    0.012748
  40 C :    0.011811
  41 C :    0.036104
  42 C :    0.001915
  43 C :   -0.015370
  44 C :   -0.117648
  45 C :    0.014216
  46 C :    0.089362
  47 C :   -0.009286
  48 C :   -0.105143
  49 C :   -0.125825
  50 N :    0.142980
  51 C :   -0.031024
  52 C :    0.033976
  53 C :    0.025113
  54 C :    0.088558
  55 C :   -0.004761
  56 C :   -0.110157
  57 C :   -0.022035
  58 C :   -0.121850
  59 N :    0.139911
  60 C :    0.018790
  61 C :   -0.072965
  62 C :    0.111790
  63 C :   -0.106439
  64 C :    0.321328
  65 F :   -0.193048
  66 C :   -0.102249
  67 C :    0.053347
  68 C :    0.019975
  69 N :   -0.291555
  70 S :    0.510121
  71 N :   -0.269232
  72 H :   -0.002872
  73 H :    0.009075
  74 H :   -0.005250
  75 H :   -0.009351
  76 H :   -0.011171
  77 H :    0.009321
  78 H :    0.002469
  79 H :   -0.018918
  80 H :   -0.041566
  81 H :   -0.028353
  82 H :   -0.013358
  83 H :    0.004399
  84 H :    0.100768
  85 H :    0.117734
  86 H :   -0.007687
  87 H :    0.002245
  88 H :    0.091514
  89 H :    0.091230
  90 H :    0.013018
  91 H :    0.042174
  92 H :   -0.007592
  93 H :   -0.022305
  94 H :   -0.030186
  95 H :   -0.029794
  96 H :    0.014289
  97 H :   -0.018465
  98 H :   -0.011423
  99 H :    0.012765
 100 H :   -0.006637
 101 H :    0.015182
 102 H :    0.012804
 103 H :   -0.010288
 104 H :   -0.005768
 105 H :   -0.009978
Sum of atomic charges:   -0.0000000

LOEWDIN ATOMIC CHARGES
----------------------
   0 C :   -0.000350
   1 C :   -0.034654
   2 C :    0.095196
   3 F :   -0.061660
   4 C :   -0.069472
   5 C :   -0.048611
   6 C :   -0.060812
   7 N :   -0.278802
   8 S :    0.653452
   9 N :   -0.289111
  10 C :   -0.021358
  11 C :    0.026011
  12 C :   -0.057547
  13 C :   -0.031388
  14 N :   -0.044862
  15 C :    0.010075
  16 C :    0.038808
  17 C :    0.049574
  18 C :   -0.019255
  19 C :   -0.001438
  20 C :   -0.055724
  21 C :    0.003382
  22 C :   -0.031833
  23 N :   -0.047725
  24 C :   -0.038626
  25 C :    0.004631
  26 C :   -0.028203
  27 C :   -0.011604
  28 C :   -0.021397
  29 C :   -0.041020
  30 C :   -0.039576
  31 C :    0.031336
  32 N :   -0.114426
  33 C :    0.022410
  34 N :   -0.116215
  35 C :   -0.021976
  36 C :    0.073019
  37 C :   -0.031336
  38 C :   -0.034915
  39 C :   -0.014547
  40 C :   -0.035020
  41 C :   -0.032477
  42 C :   -0.001826
  43 C :   -0.029889
  44 C :    0.008231
  45 C :   -0.038406
  46 C :   -0.026785
  47 C :    0.001039
  48 C :   -0.055306
  49 C :   -0.031622
  50 N :   -0.042534
  51 C :   -0.001316
  52 C :    0.040760
  53 C :    0.038758
  54 C :   -0.031343
  55 C :    0.010319
  56 C :   -0.058997
  57 C :    0.006186
  58 C :   -0.029960
  59 N :   -0.045395
  60 C :   -0.002305
  61 C :   -0.024454
  62 C :   -0.015125
  63 C :   -0.033404
  64 C :    0.092877
  65 F :   -0.065511
  66 C :   -0.053317
  67 C :   -0.046301
  68 C :   -0.047692
  69 N :   -0.284724
  70 S :    0.643456
  71 N :   -0.285274
  72 H :    0.043768
  73 H :    0.044693
  74 H :    0.034832
  75 H :    0.033315
  76 H :    0.030474
  77 H :    0.034031
  78 H :    0.024438
  79 H :    0.028441
  80 H :    0.022539
  81 H :    0.024795
  82 H :    0.001859
  83 H :    0.019129
  84 H :    0.057438
  85 H :    0.053512
  86 H :   -0.000499
  87 H :    0.015580
  88 H :    0.051928
  89 H :    0.054624
  90 H :    0.032418
  91 H :    0.063687
  92 H :    0.023847
  93 H :    0.034960
  94 H :    0.030251
  95 H :    0.024063
  96 H :    0.025536
  97 H :    0.032528
  98 H :    0.032848
  99 H :    0.037866
 100 H :    0.034667
 101 H :    0.037366
 102 H :    0.036330
 103 H :    0.028285
 104 H :    0.041111
 105 H :    0.047252

  Mayer bond orders larger than 0.100000
B(  0-C ,  1-C ) :   1.4693 B(  0-C ,  4-C ) :   0.1136 B(  0-C ,  6-C ) :   1.1917
B(  0-C , 72-H ) :   1.0239 B(  1-C ,  2-C ) :   1.1912 B(  1-C , 73-H ) :   0.9922
B(  2-C ,  3-F ) :   1.1319 B(  2-C ,  4-C ) :   1.4879 B(  4-C ,  5-C ) :   1.2100
B(  4-C , 10-C ) :   0.9061 B(  5-C ,  6-C ) :   1.1616 B(  5-C ,  9-N ) :   1.5411
B(  6-C ,  7-N ) :   1.5125 B(  7-N ,  8-S ) :   1.2902 B(  7-N ,  9-N ) :   0.1489
B(  8-S ,  9-N ) :   1.2588 B( 10-C , 11-C ) :   1.7021 B( 10-C , 16-C ) :   1.0919
B( 11-C , 12-C ) :   1.0747 B( 11-C , 74-H ) :   1.0211 B( 12-C , 13-C ) :   1.0596
B( 12-C , 15-C ) :   1.6600 B( 13-C , 14-N ) :   3.0407 B( 15-C , 16-C ) :   1.0486
B( 15-C , 75-H ) :   1.0186 B( 16-C , 17-C ) :   1.5309 B( 17-C , 18-C ) :   1.0388
B( 17-C , 21-C ) :   1.0732 B( 18-C , 19-C ) :   1.6324 B( 18-C , 24-C ) :   1.0626
B( 19-C , 20-C ) :   1.0873 B( 19-C , 76-H ) :   1.0162 B( 20-C , 21-C ) :   1.6520
B( 20-C , 22-C ) :   1.0537 B( 21-C , 77-H ) :   1.0014 B( 22-C , 23-N ) :   3.0418
B( 24-C , 25-C ) :   1.6889 B( 24-C , 78-H ) :   0.9530 B( 25-C , 26-C ) :   1.0791
B( 25-C , 79-H ) :   0.9877 B( 26-C , 27-C ) :   1.4879 B( 26-C , 43-C ) :   1.1228
B( 27-C , 28-C ) :   1.1321 B( 27-C , 80-H ) :   1.0015 B( 28-C , 29-C ) :   1.4791
B( 28-C , 41-C ) :   1.1219 B( 29-C , 30-C ) :   1.0183 B( 29-C , 35-C ) :   1.1002
B( 30-C , 31-C ) :   1.0266 B( 30-C , 33-C ) :   1.0314 B( 30-C , 81-H ) :   0.8923
B( 31-C , 32-N ) :   1.0826 B( 31-C , 82-H ) :   0.9413 B( 31-C , 83-H ) :   0.9325
B( 32-N , 84-H ) :   0.9666 B( 32-N , 85-H ) :   0.9414 B( 33-C , 34-N ) :   1.0880
B( 33-C , 86-H ) :   0.9565 B( 33-C , 87-H ) :   0.9193 B( 34-N , 88-H ) :   0.9702
B( 34-N , 89-H ) :   0.9683 B( 35-C , 36-C ) :   1.6552 B( 35-C , 40-C ) :   1.0595
B( 36-C , 37-C ) :   0.9721 B( 36-C , 90-H ) :   0.9636 B( 37-C , 38-C ) :   0.9765
B( 37-C , 44-C ) :   0.9551 B( 37-C , 91-H ) :   0.8436 B( 38-C , 39-C ) :   1.7257
B( 38-C , 92-H ) :   0.9679 B( 39-C , 40-C ) :   1.1293 B( 39-C , 93-H ) :   0.9922
B( 40-C , 41-C ) :   1.4307 B( 41-C , 42-C ) :   1.1416 B( 42-C , 43-C ) :   1.6163
B( 42-C , 94-H ) :   0.9915 B( 43-C , 95-H ) :   0.9814 B( 44-C , 45-C ) :   1.8490
B( 44-C , 96-H ) :   0.9654 B( 45-C , 46-C ) :   1.0418 B( 45-C , 97-H ) :   0.9333
B( 46-C , 47-C ) :   1.6257 B( 46-C , 52-C ) :   1.0541 B( 47-C , 48-C ) :   1.0825
B( 47-C , 98-H ) :   1.0223 B( 48-C , 49-C ) :   1.0645 B( 48-C , 51-C ) :   1.6208
B( 49-C , 50-N ) :   3.0393 B( 51-C , 52-C ) :   1.0985 B( 51-C , 99-H ) :   1.0165
B( 52-C , 53-C ) :   1.4765 B( 53-C , 54-C ) :   1.0319 B( 53-C , 57-C ) :   1.1095
B( 54-C , 55-C ) :   1.5849 B( 54-C , 60-C ) :   1.0859 B( 55-C , 56-C ) :   1.0949
B( 55-C ,100-H ) :   1.0216 B( 56-C , 57-C ) :   1.6098 B( 56-C , 58-C ) :   1.0635
B( 57-C ,101-H ) :   1.0092 B( 58-C , 59-N ) :   3.0351 B( 60-C , 61-C ) :   1.6681
B( 60-C ,102-H ) :   0.9447 B( 61-C , 62-C ) :   1.1233 B( 61-C ,103-H ) :   0.9677
B( 62-C , 63-C ) :   1.4372 B( 62-C , 66-C ) :   0.1085 B( 62-C , 68-C ) :   1.1531
B( 63-C , 64-C ) :   1.1885 B( 63-C ,104-H ) :   1.0056 B( 64-C , 65-F ) :   1.0708
B( 64-C , 66-C ) :   1.4461 B( 66-C , 67-C ) :   1.1509 B( 66-C ,105-H ) :   1.0371
B( 67-C , 68-C ) :   1.1653 B( 67-C , 71-N ) :   1.5148 B( 68-C , 69-N ) :   1.5211
B( 69-N , 70-S ) :   1.2538 B( 69-N , 71-N ) :   0.1484 B( 70-S , 71-N ) :   1.2756

-----------------------------------------------------------------------------
         ABSORPTION SPECTRUM VIA TRANSITION ELECTRIC DIPOLE MOMENTS
-----------------------------------------------------------------------------
State   Energy  Wavelength   fosc         T2         TX        TY        TZ
        (cm-1)    (nm)                  (au**2)     (au)      (au)      (au)
-----------------------------------------------------------------------------
   0    7471.5   1338.4   0.001738226   0.07659  -0.00916   0.12404   0.24723
   1    9503.5   1052.2   0.092581322   3.20711   0.77764  -0.73855  -1.43420
   2   11996.6    833.6   0.064086299   1.75866   0.02451   0.17378  -1.31448
   3   14441.7    692.4   0.034312805   0.78219  -0.30577   0.22819  -0.79789
   4   15817.9    632.2   0.027057438   0.56314  -0.40470   0.57551  -0.26104
   5   16255.8    615.2   0.007350129   0.14885   0.37377   0.06516  -0.07003
   6   17289.2    578.4   0.022334050   0.42527   0.12077  -0.35571  -0.53306
   7   20446.5    489.1   0.000372510   0.00600  -0.07030   0.00299   0.03235
   8   23270.0    429.7   0.020381677   0.28835   0.04782  -0.09917  -0.52557
   9   23782.6    420.5   0.017347594   0.24013  -0.17066   0.09956   0.44844
  10   25387.5    393.9   0.053181072   0.68962  -0.40001   0.27227   0.67490
  11   25478.8    392.5   0.328253923   4.24138   0.98972  -0.33746  -1.77425
  12   25849.6    386.9   0.272078346   3.46510  -0.23108  -0.33375   1.81668
  13   26053.7    383.8   0.056161843   0.70965   0.23078  -0.80574  -0.08468
  14   26320.0    379.9   0.003897572   0.04875  -0.05491   0.00210   0.21385
  15   26983.0    370.6   0.044341159   0.54099  -0.20642   0.53266   0.46331
  16   27067.5    369.4   0.016104403   0.19587   0.09529  -0.27542  -0.33307
  17   27890.2    358.5   0.005541192   0.06541   0.09745  -0.18565  -0.14644
  18   28519.3    350.6   0.550981189   6.36025   0.60128  -1.70857  -1.75485
  19   29002.9    344.8   0.427468454   4.85220  -1.28308   1.79039   0.02051
  20   29115.6    343.5   0.477650969   5.40083   0.80419  -0.92577  -1.97410
  21   29480.7    339.2   0.001166218   0.01302  -0.02243  -0.03048   0.10766
  22   29501.3    339.0   0.058723548   0.65531   0.33539  -0.08370  -0.73200
  23   29767.6    335.9   0.059940574   0.66291   0.47478  -0.55697  -0.35675
  24   29899.8    334.5   0.004454124   0.04904   0.08716  -0.10832  -0.17237
  25   29976.1    333.6   0.047690011   0.52375  -0.62905   0.12928   0.33367
  26   30078.6    332.5   0.067536730   0.73919  -0.52285   0.68232   0.01635
  27   30442.7    328.5   0.026197988   0.28331   0.00192  -0.53191   0.01941
  28   30769.8    325.0   0.140052394   1.49845   0.37731  -1.16432  -0.02123
  29   30974.0    322.9   0.021016312   0.22338   0.10070   0.36822  -0.27866
  30   31624.9    316.2   0.108896917   1.13360   0.40717   0.48947  -0.85337
  31   31966.0    312.8   0.218654325   2.25188   0.35601   0.65691  -1.30139
  32   32092.7    311.6   0.529593389   5.43265  -0.98283  -1.09604   1.80704
  33   32496.1    307.7   0.033268812   0.33704  -0.45945  -0.35478  -0.00878
  34   32643.5    306.3   0.103121247   1.03998  -0.10857  -0.80878   0.61162
  35   33065.0    302.4   0.008325693   0.08289  -0.09531  -0.01467  -0.27129
  36   33519.3    298.3   0.007132520   0.07005  -0.13149  -0.16293   0.16191
  37   34132.6    293.0   0.018511192   0.17854   0.19918   0.31887  -0.19285
  38   34616.7    288.9   0.017045277   0.16210   0.23566  -0.21670  -0.24415
  39   35317.2    283.1   0.002998448   0.02795  -0.10368   0.06730  -0.11257
  40   35672.0    280.3   0.055341272   0.51074  -0.11867  -0.68530   0.16437
  41   35779.6    279.5   0.001621227   0.01492   0.10023  -0.06848  -0.01346
  42   35847.9    279.0   0.003693791   0.03392   0.00644   0.04604  -0.17822
  43   36200.6    276.2   0.000001107   0.00001  -0.00132  -0.00286   0.00042
  44   36339.8    275.2   0.005805988   0.05260  -0.15858   0.15384   0.06151
  45   36479.9    274.1   0.008707194   0.07858  -0.01649   0.22160   0.17088
  46   36804.6    271.7   0.097366153   0.87093  -0.12221  -0.26920   0.88517
  47   36915.0    270.9   0.156892421   1.39918  -0.50183   0.36800   1.00595
  48   37173.3    269.0   0.009771531   0.08654   0.14624   0.11642  -0.22715
  49   37459.2    267.0   0.009715207   0.08538  -0.15390   0.18172   0.16935
  50   38087.6    262.6   0.160459866   1.38694   1.10304  -0.30999   0.27229
  51   38180.0    261.9   0.086779220   0.74826   0.10473   0.67406  -0.53192
  52   38330.2    260.9   0.004335646   0.03724  -0.07993  -0.10031   0.14418
  53   38389.1    260.5   0.016333131   0.14007  -0.29016   0.22136  -0.08289
  54   39017.4    256.3   0.029746971   0.25099   0.18517   0.02705  -0.46473
  55   39161.5    255.4   0.000563020   0.00473  -0.02455   0.00066   0.06427
  56   39560.6    252.8   0.654542532   5.44691   1.02797  -0.15952  -2.08920
  57   39962.2    250.2   0.000835696   0.00688   0.02478   0.04494   0.06520
  58   40017.8    249.9   0.000819972   0.00675   0.05811  -0.00815   0.05747
  59   40110.4    249.3   0.048779643   0.40037  -0.17529  -0.45911  -0.39857

FINAL SINGLE POINT ENERGY     -3769.888190614307

DIPOLE MOMENT
-------------
                                X             Y             Z
Electronic contribution:    -28.25088      21.21230      -1.19039
Nuclear contribution   :     29.68186     -20.86307       0.76403
                        -----------------------------------------
Total Dipole Moment    :      1.43097       0.34923      -0.42636
                        -----------------------------------------
Magnitude (a.u.)       :      1.53344
Magnitude (Debye)      :      3.89768

Rotational constants in cm-1:     0.002291     0.000227     0.000216
Rotational constants in MHz :    68.689712     6.792777     6.475551

                             ****ORCA TERMINATED NORMALLY****
TOTAL RUN TIME: 0 days 0 hours 11 minutes 33 seconds 320 msec
