                         Program Version 4.2.0 -  RELEASE  -
|  1> # ORCA input file
|  2> # SCF done       -175.474346043620          0.000783115688
|  3> ! CAM-B3LYP def2-SVP def2/J RIJCOSX Grid4 TightSCF
|  4> %maxcore 5000
|  5> %tddft
|  6>     Mode sTDDFT
|  7>     Ethresh 5.0
|  8>     maxcore 5000
|  9> end
| 10>
| 11> %pal
| 12>   nprocs 6
| 13>   end
| 14> * xyz 0 1
| 15>    C       -3.86342        -9.47885         6.31847
| 16>    C       -2.71633        -9.44861         5.57440
| 17>    C       -2.75630        -9.20709         4.19495
| 18>    F       -1.56709        -9.20127         3.55577
| 19>    C       -3.91267        -8.98125         3.46179
| 20>    C       -5.11184        -9.00854         4.23083
| 21>    C       -5.07797        -9.25749         5.64986
| 22>    N       -6.29913        -9.24624         6.18700
| 23>    S       -7.37268        -8.95456         5.03462
| 24>    N       -6.35725        -8.82708         3.79638
| 25>    C       -3.92974        -8.75066         2.04500
| 26>    C       -5.04945        -8.51867         1.26443
| 27>    C       -4.72643        -8.36215        -0.08014
| 28>    C       -3.34294        -8.47431        -0.32742
| 29>    S       -2.45138        -8.76466         1.09436
| 30>    C       -3.11673        -8.34136        -1.71713
| 31>    C       -4.36303        -8.14239        -2.35153
| 32>    C       -5.41079        -8.14078        -1.34212
| 33>    C       -6.75045        -7.97853        -1.54155
| 34>    C       -7.30068        -7.77690        -2.82519
| 35>    N       -7.75797        -7.61816        -3.86463
| 36>    C       -7.67942        -8.00386        -0.47966
| 37>    N       -8.44487        -8.02367         0.37392
| 38>    C       -4.25498        -8.04260        -3.72991
| 39>    C       -2.93715        -8.16670        -4.15893
| 40>    S       -1.81455        -8.38757        -2.82333
| 41>    C       -2.47665        -8.19311        -5.49776
| 42>    C       -1.10504        -8.36622        -5.79352
| 43>    C       -0.62212        -8.52708        -7.14110
| 44>    N        0.68511        -8.70688        -7.35588
| 45>    C        1.52019        -8.72864        -6.34436
| 46>    C        1.04006        -8.56825        -5.00491
| 47>    N       -0.24064        -8.39817        -4.77503
| 48>    C        1.94249        -8.58518        -3.91352
| 49>    N        2.69613        -8.60590        -3.05121
| 50>    C        2.90295        -8.90646        -6.59455
| 51>    N        4.02567        -9.05299        -6.76749
| 52>    C       -1.48519        -8.52297        -8.25966
| 53>    C       -2.84813        -8.26689        -7.97430
| 54>    C       -3.33354        -8.10495        -6.62181
| 55>    N       -4.64879        -7.89069        -6.59905
| 56>    S       -5.21839        -7.88558        -8.09759
| 57>    N       -3.83640        -8.16167        -8.86234
| 58>    C       -0.99747        -8.81061        -9.55862
| 59>    C       -1.73871        -8.88186       -10.73350
| 60>    C       -0.96145        -9.27100       -11.81409
| 61>    C        0.38745        -9.49573       -11.46478
| 62>    S        0.69549        -9.21195        -9.80691
| 63>    C        1.07643        -9.92630       -12.62257
| 64>    C        0.17226        -9.97643       -13.70150
| 65>    C       -1.13657        -9.55814       -13.23021
| 66>    C       -2.28829        -9.46567       -13.95500
| 67>    C       -3.50908        -9.05610       -13.37754
| 68>    N       -4.50701        -8.72544       -12.91981
| 69>    C       -2.34153        -9.77673       -15.33051
| 70>    N       -2.39834       -10.02688       -16.44806
| 71>    C        0.76026       -10.42878       -14.88185
| 72>    C        2.09910       -10.72525       -14.71558
| 73>    S        2.64286       -10.42976       -13.06827
| 74>    C        3.01181       -11.23612       -15.69769
| 75>    C        4.33914       -11.49269       -15.40335
| 76>    C        5.21844       -12.00465       -16.36520
| 77>    F        6.48925       -12.22141       -15.97978
| 78>    C        4.85696       -12.29296       -17.65391
| 79>    C        3.51919       -12.04579       -17.99369
| 80>    C        2.58846       -11.51764       -17.02737
| 81>    N        1.37504       -11.35953       -17.55168
| 82>    S        1.40112       -11.82275       -19.08938
| 83>    N        2.94389       -12.24931       -19.17998
| 84>    H       -3.85762        -9.66463         7.37893
| 85>    H       -1.75006        -9.61080         6.02535
| 86>    H       -6.03828        -8.47806         1.68228
| 87>    H       -5.06567        -7.89923        -4.42035
| 88>    H       -2.79067        -8.66430       -10.75521
| 89>    H        0.26203       -10.55219       -15.82591
| 90>    H        4.72564       -11.30212       -14.41351
| 91>    H        5.55412       -12.68840       -18.37207
| 92> *
| 93>
| 94>                          ****END OF INPUT****

CARTESIAN COORDINATES (ANGSTROEM)
---------------------------------
  C     -3.863420   -9.478850    6.318470
  C     -2.716330   -9.448610    5.574400
  C     -2.756300   -9.207090    4.194950
  F     -1.567090   -9.201270    3.555770
  C     -3.912670   -8.981250    3.461790
  C     -5.111840   -9.008540    4.230830
  C     -5.077970   -9.257490    5.649860
  N     -6.299130   -9.246240    6.187000
  S     -7.372680   -8.954560    5.034620
  N     -6.357250   -8.827080    3.796380
  C     -3.929740   -8.750660    2.045000
  C     -5.049450   -8.518670    1.264430
  C     -4.726430   -8.362150   -0.080140
  C     -3.342940   -8.474310   -0.327420
  S     -2.451380   -8.764660    1.094360
  C     -3.116730   -8.341360   -1.717130
  C     -4.363030   -8.142390   -2.351530
  C     -5.410790   -8.140780   -1.342120
  C     -6.750450   -7.978530   -1.541550
  C     -7.300680   -7.776900   -2.825190
  N     -7.757970   -7.618160   -3.864630
  C     -7.679420   -8.003860   -0.479660
  N     -8.444870   -8.023670    0.373920
  C     -4.254980   -8.042600   -3.729910
  C     -2.937150   -8.166700   -4.158930
  S     -1.814550   -8.387570   -2.823330
  C     -2.476650   -8.193110   -5.497760
  C     -1.105040   -8.366220   -5.793520
  C     -0.622120   -8.527080   -7.141100
  N      0.685110   -8.706880   -7.355880
  C      1.520190   -8.728640   -6.344360
  C      1.040060   -8.568250   -5.004910
  N     -0.240640   -8.398170   -4.775030
  C      1.942490   -8.585180   -3.913520
  N      2.696130   -8.605900   -3.051210
  C      2.902950   -8.906460   -6.594550
  N      4.025670   -9.052990   -6.767490
  C     -1.485190   -8.522970   -8.259660
  C     -2.848130   -8.266890   -7.974300
  C     -3.333540   -8.104950   -6.621810
  N     -4.648790   -7.890690   -6.599050
  S     -5.218390   -7.885580   -8.097590
  N     -3.836400   -8.161670   -8.862340
  C     -0.997470   -8.810610   -9.558620
  C     -1.738710   -8.881860  -10.733500
  C     -0.961450   -9.271000  -11.814090
  C      0.387450   -9.495730  -11.464780
  S      0.695490   -9.211950   -9.806910
  C      1.076430   -9.926300  -12.622570
  C      0.172260   -9.976430  -13.701500
  C     -1.136570   -9.558140  -13.230210
  C     -2.288290   -9.465670  -13.955000
  C     -3.509080   -9.056100  -13.377540
  N     -4.507010   -8.725440  -12.919810
  C     -2.341530   -9.776730  -15.330510
  N     -2.398340  -10.026880  -16.448060
  C      0.760260  -10.428780  -14.881850
  C      2.099100  -10.725250  -14.715580
  S      2.642860  -10.429760  -13.068270
  C      3.011810  -11.236120  -15.697690
  C      4.339140  -11.492690  -15.403350
  C      5.218440  -12.004650  -16.365200
  F      6.489250  -12.221410  -15.979780
  C      4.856960  -12.292960  -17.653910
  C      3.519190  -12.045790  -17.993690
  C      2.588460  -11.517640  -17.027370
  N      1.375040  -11.359530  -17.551680
  S      1.401120  -11.822750  -19.089380
  N      2.943890  -12.249310  -19.179980
  H     -3.857620   -9.664630    7.378930
  H     -1.750060   -9.610800    6.025350
  H     -6.038280   -8.478060    1.682280
  H     -5.065670   -7.899230   -4.420350
  H     -2.790670   -8.664300  -10.755210
  H      0.262030  -10.552190  -15.825910
  H      4.725640  -11.302120  -14.413510
  H      5.554120  -12.688400  -18.372070

 Total Charge           Charge          ....    0
 Multiplicity           Mult            ....    1
 Number of Electrons    NEL             ....  512
 Basis Dimension        Dim             .... 1034

ORBITAL ENERGIES
----------------

  NO   OCC          E(Eh)            E(eV)
   0   2.0000     -89.052757     -2423.2487
   1   2.0000     -89.032367     -2422.6939
   2   2.0000     -89.027292     -2422.5558
   3   2.0000     -88.989086     -2421.5161
   4   2.0000     -88.986170     -2421.4368
   5   2.0000     -88.985696     -2421.4239
   6   2.0000     -88.985514     -2421.4189
   7   2.0000     -24.808837      -675.0828
   8   2.0000     -24.787689      -674.5073
   9   2.0000     -14.478485      -393.9796
  10   2.0000     -14.478062      -393.9681
  11   2.0000     -14.461898      -393.5283
  12   2.0000     -14.461340      -393.5131
  13   2.0000     -14.446639      -393.1130
  14   2.0000     -14.445699      -393.0874
  15   2.0000     -14.443756      -393.0346
  16   2.0000     -14.440645      -392.9499
  17   2.0000     -14.439813      -392.9273
  18   2.0000     -14.438593      -392.8941
  19   2.0000     -14.427919      -392.6036
  20   2.0000     -14.427151      -392.5827
  21   2.0000     -14.426728      -392.5712
  22   2.0000     -14.425994      -392.5512
  23   2.0000     -10.395686      -282.8810
  24   2.0000     -10.394743      -282.8553
  25   2.0000     -10.383885      -282.5599
  26   2.0000     -10.374487      -282.3042
  27   2.0000     -10.361972      -281.9636
  28   2.0000     -10.360600      -281.9262
  29   2.0000     -10.358146      -281.8595
  30   2.0000     -10.357891      -281.8526
  31   2.0000     -10.353598      -281.7357
  32   2.0000     -10.353356      -281.7291
  33   2.0000     -10.349181      -281.6155
  34   2.0000     -10.348417      -281.5947
  35   2.0000     -10.338682      -281.3298
  36   2.0000     -10.334061      -281.2041
  37   2.0000     -10.333318      -281.1839
  38   2.0000     -10.332482      -281.1611
  39   2.0000     -10.332361      -281.1578
  40   2.0000     -10.330998      -281.1208
  41   2.0000     -10.330977      -281.1202
  42   2.0000     -10.329908      -281.0911
  43   2.0000     -10.328834      -281.0619
  44   2.0000     -10.328302      -281.0474
  45   2.0000     -10.327668      -281.0301
  46   2.0000     -10.327415      -281.0233
  47   2.0000     -10.326905      -281.0094
  48   2.0000     -10.326810      -281.0068
  49   2.0000     -10.326351      -280.9943
  50   2.0000     -10.326333      -280.9938
  51   2.0000     -10.326109      -280.9877
  52   2.0000     -10.325688      -280.9763
  53   2.0000     -10.325190      -280.9627
  54   2.0000     -10.324258      -280.9373
  55   2.0000     -10.320367      -280.8315
  56   2.0000     -10.319651      -280.8120
  57   2.0000     -10.305673      -280.4316
  58   2.0000     -10.304665      -280.4042
  59   2.0000     -10.301834      -280.3271
  60   2.0000     -10.301199      -280.3099
  61   2.0000     -10.300306      -280.2856
  62   2.0000     -10.299834      -280.2727
  63   2.0000     -10.299579      -280.2658
  64   2.0000     -10.298912      -280.2476
  65   2.0000     -10.298589      -280.2389
  66   2.0000     -10.294385      -280.1245
  67   2.0000     -10.291855      -280.0556
  68   2.0000     -10.289483      -279.9911
  69   2.0000      -8.143866      -221.6059
  70   2.0000      -8.124087      -221.0677
  71   2.0000      -8.119139      -220.9330
  72   2.0000      -8.083548      -219.9645
  73   2.0000      -8.080261      -219.8751
  74   2.0000      -8.078277      -219.8211
  75   2.0000      -8.078096      -219.8162
  76   2.0000      -6.114947      -166.3962
  77   2.0000      -6.107019      -166.1804
  78   2.0000      -6.106732      -166.1726
  79   2.0000      -6.095257      -165.8604
  80   2.0000      -6.090329      -165.7263
  81   2.0000      -6.087457      -165.6481
  82   2.0000      -6.086607      -165.6250
  83   2.0000      -6.082490      -165.5130
  84   2.0000      -6.081616      -165.4892
  85   2.0000      -6.052732      -164.7032
  86   2.0000      -6.049548      -164.6166
  87   2.0000      -6.048583      -164.5903
  88   2.0000      -6.047845      -164.5702
  89   2.0000      -6.047662      -164.5652
  90   2.0000      -6.046071      -164.5220
  91   2.0000      -6.045104      -164.4956
  92   2.0000      -6.043030      -164.4392
  93   2.0000      -6.042843      -164.4341
  94   2.0000      -6.042765      -164.4320
  95   2.0000      -6.040719      -164.3763
  96   2.0000      -6.040559      -164.3720
  97   2.0000      -1.322591       -35.9895
  98   2.0000      -1.302977       -35.4558
  99   2.0000      -1.151033       -31.3212
 100   2.0000      -1.136932       -30.9375
 101   2.0000      -1.133720       -30.8501
 102   2.0000      -1.128512       -30.7084
 103   2.0000      -1.065829       -29.0027
 104   2.0000      -1.042236       -28.3607
 105   2.0000      -1.040842       -28.3228
 106   2.0000      -1.025483       -27.9048
 107   2.0000      -1.019240       -27.7349
 108   2.0000      -1.018452       -27.7135
 109   2.0000      -1.015358       -27.6293
 110   2.0000      -1.007764       -27.4227
 111   2.0000      -1.004960       -27.3464
 112   2.0000      -1.004126       -27.3237
 113   2.0000      -1.002884       -27.2899
 114   2.0000      -0.996289       -27.1104
 115   2.0000      -0.989337       -26.9212
 116   2.0000      -0.983505       -26.7625
 117   2.0000      -0.979882       -26.6640
 118   2.0000      -0.973955       -26.5027
 119   2.0000      -0.969389       -26.3784
 120   2.0000      -0.953988       -25.9593
 121   2.0000      -0.951233       -25.8844
 122   2.0000      -0.920704       -25.0536
 123   2.0000      -0.920417       -25.0458
 124   2.0000      -0.909432       -24.7469
 125   2.0000      -0.893716       -24.3192
 126   2.0000      -0.876741       -23.8573
 127   2.0000      -0.872516       -23.7424
 128   2.0000      -0.868455       -23.6319
 129   2.0000      -0.867676       -23.6107
 130   2.0000      -0.860747       -23.4221
 131   2.0000      -0.855885       -23.2898
 132   2.0000      -0.851135       -23.1606
 133   2.0000      -0.850445       -23.1418
 134   2.0000      -0.845292       -23.0016
 135   2.0000      -0.818135       -22.2626
 136   2.0000      -0.812949       -22.1215
 137   2.0000      -0.786007       -21.3883
 138   2.0000      -0.779943       -21.2233
 139   2.0000      -0.776066       -21.1178
 140   2.0000      -0.767213       -20.8769
 141   2.0000      -0.753955       -20.5161
 142   2.0000      -0.748688       -20.3728
 143   2.0000      -0.737826       -20.0773
 144   2.0000      -0.722580       -19.6624
 145   2.0000      -0.720654       -19.6100
 146   2.0000      -0.717342       -19.5199
 147   2.0000      -0.715115       -19.4593
 148   2.0000      -0.712945       -19.4002
 149   2.0000      -0.699190       -19.0259
 150   2.0000      -0.697398       -18.9772
 151   2.0000      -0.686174       -18.6717
 152   2.0000      -0.681361       -18.5408
 153   2.0000      -0.677166       -18.4266
 154   2.0000      -0.671616       -18.2756
 155   2.0000      -0.665026       -18.0963
 156   2.0000      -0.651491       -17.7280
 157   2.0000      -0.646069       -17.5804
 158   2.0000      -0.640961       -17.4414
 159   2.0000      -0.637694       -17.3525
 160   2.0000      -0.635808       -17.3012
 161   2.0000      -0.631837       -17.1932
 162   2.0000      -0.628654       -17.1065
 163   2.0000      -0.621402       -16.9092
 164   2.0000      -0.618487       -16.8299
 165   2.0000      -0.611831       -16.6488
 166   2.0000      -0.609893       -16.5960
 167   2.0000      -0.606516       -16.5041
 168   2.0000      -0.598156       -16.2767
 169   2.0000      -0.593835       -16.1591
 170   2.0000      -0.593471       -16.1492
 171   2.0000      -0.587553       -15.9881
 172   2.0000      -0.581678       -15.8283
 173   2.0000      -0.570171       -15.5151
 174   2.0000      -0.567660       -15.4468
 175   2.0000      -0.565823       -15.3968
 176   2.0000      -0.561661       -15.2836
 177   2.0000      -0.556080       -15.1317
 178   2.0000      -0.552122       -15.0240
 179   2.0000      -0.546434       -14.8692
 180   2.0000      -0.544217       -14.8089
 181   2.0000      -0.543422       -14.7873
 182   2.0000      -0.542447       -14.7607
 183   2.0000      -0.539113       -14.6700
 184   2.0000      -0.536386       -14.5958
 185   2.0000      -0.531439       -14.4612
 186   2.0000      -0.529562       -14.4101
 187   2.0000      -0.520460       -14.1624
 188   2.0000      -0.514884       -14.0107
 189   2.0000      -0.511265       -13.9122
 190   2.0000      -0.510015       -13.8782
 191   2.0000      -0.503968       -13.7137
 192   2.0000      -0.499924       -13.6036
 193   2.0000      -0.498366       -13.5612
 194   2.0000      -0.497047       -13.5253
 195   2.0000      -0.494869       -13.4661
 196   2.0000      -0.492621       -13.4049
 197   2.0000      -0.490953       -13.3595
 198   2.0000      -0.490780       -13.3548
 199   2.0000      -0.483966       -13.1694
 200   2.0000      -0.481106       -13.0916
 201   2.0000      -0.479912       -13.0591
 202   2.0000      -0.476964       -12.9788
 203   2.0000      -0.475572       -12.9410
 204   2.0000      -0.473970       -12.8974
 205   2.0000      -0.472645       -12.8613
 206   2.0000      -0.468743       -12.7551
 207   2.0000      -0.467052       -12.7091
 208   2.0000      -0.463619       -12.6157
 209   2.0000      -0.460044       -12.5184
 210   2.0000      -0.459125       -12.4934
 211   2.0000      -0.458789       -12.4843
 212   2.0000      -0.458566       -12.4782
 213   2.0000      -0.458425       -12.4744
 214   2.0000      -0.454033       -12.3549
 215   2.0000      -0.453707       -12.3460
 216   2.0000      -0.452659       -12.3175
 217   2.0000      -0.447593       -12.1796
 218   2.0000      -0.443107       -12.0575
 219   2.0000      -0.440844       -11.9960
 220   2.0000      -0.437794       -11.9130
 221   2.0000      -0.437366       -11.9013
 222   2.0000      -0.436887       -11.8883
 223   2.0000      -0.435859       -11.8603
 224   2.0000      -0.435560       -11.8522
 225   2.0000      -0.433718       -11.8021
 226   2.0000      -0.431226       -11.7343
 227   2.0000      -0.427228       -11.6255
 228   2.0000      -0.424730       -11.5575
 229   2.0000      -0.423651       -11.5281
 230   2.0000      -0.423438       -11.5223
 231   2.0000      -0.418242       -11.3809
 232   2.0000      -0.416772       -11.3410
 233   2.0000      -0.406463       -11.0604
 234   2.0000      -0.404944       -11.0191
 235   2.0000      -0.404361       -11.0032
 236   2.0000      -0.401738       -10.9318
 237   2.0000      -0.395137       -10.7522
 238   2.0000      -0.386845       -10.5266
 239   2.0000      -0.379381       -10.3235
 240   2.0000      -0.374590       -10.1931
 241   2.0000      -0.371160       -10.0998
 242   2.0000      -0.370711       -10.0876
 243   2.0000      -0.361477        -9.8363
 244   2.0000      -0.359009        -9.7691
 245   2.0000      -0.346471        -9.4280
 246   2.0000      -0.346117        -9.4183
 247   2.0000      -0.343582        -9.3493
 248   2.0000      -0.340280        -9.2595
 249   2.0000      -0.335242        -9.1224
 250   2.0000      -0.324073        -8.8185
 251   2.0000      -0.319698        -8.6994
 252   2.0000      -0.317984        -8.6528
 253   2.0000      -0.298325        -8.1178
 254   2.0000      -0.270664        -7.3651
 255   2.0000      -0.237710        -6.4684
 256   0.0000      -0.138145        -3.7591
 257   0.0000      -0.102577        -2.7913
 258   0.0000      -0.097999        -2.6667
 259   0.0000      -0.072230        -1.9655
 260   0.0000      -0.069873        -1.9014

MULLIKEN ATOMIC CHARGES
-----------------------
   0 C :   -0.017066
   1 C :   -0.018250
   2 C :    0.170000
   3 F :   -0.189754
   4 C :    0.128709
   5 C :   -0.031254
   6 C :    0.060890
   7 N :   -0.262324
   8 S :    0.530058
   9 N :   -0.288403
  10 C :   -0.134230
  11 C :   -0.055051
  12 C :    0.032898
  13 C :   -0.099963
  14 S :    0.207268
  15 C :   -0.060928
  16 C :    0.034915
  17 C :    0.311290
  18 C :   -0.306315
  19 C :   -0.188675
  20 N :    0.168565
  21 C :   -0.190618
  22 N :    0.175818
  23 C :   -0.062012
  24 C :   -0.182588
  25 S :    0.202301
  26 C :    0.197963
  27 C :   -0.069939
  28 C :   -0.062679
  29 N :   -0.001369
  30 C :   -0.101753
  31 C :   -0.103779
  32 N :    0.001910
  33 C :   -0.246082
  34 N :    0.253644
  35 C :   -0.242046
  36 N :    0.250958
  37 C :    0.190830
  38 C :   -0.015889
  39 C :   -0.013638
  40 N :   -0.280985
  41 S :    0.583959
  42 N :   -0.281459
  43 C :   -0.178631
  44 C :   -0.064630
  45 C :    0.036005
  46 C :   -0.061321
  47 S :    0.202574
  48 C :   -0.091458
  49 C :    0.027114
  50 C :    0.313516
  51 C :   -0.309207
  52 C :   -0.187851
  53 N :    0.172915
  54 C :   -0.190428
  55 N :    0.176985
  56 C :   -0.048627
  57 C :   -0.121111
  58 S :    0.171022
  59 C :    0.167968
  60 C :   -0.130276
  61 C :    0.311652
  62 F :   -0.191370
  63 C :   -0.103627
  64 C :    0.051714
  65 C :   -0.003675
  66 N :   -0.284128
  67 S :    0.523980
  68 N :   -0.271834
  69 H :   -0.003911
  70 H :    0.010345
  71 H :    0.022770
  72 H :    0.021573
  73 H :    0.021651
  74 H :    0.023837
  75 H :    0.001596
  76 H :   -0.010060
Sum of atomic charges:   -0.0000000

LOEWDIN ATOMIC CHARGES
----------------------
   0 C :   -0.003667
   1 C :   -0.033455
   2 C :    0.086715
   3 F :   -0.062645
   4 C :   -0.072616
   5 C :   -0.036752
   6 C :   -0.057756
   7 N :   -0.277835
   8 S :    0.661026
   9 N :   -0.282192
  10 C :   -0.160135
  11 C :   -0.019859
  12 C :   -0.064406
  13 C :   -0.188128
  14 S :    0.494343
  15 C :   -0.169127
  16 C :   -0.075920
  17 C :    0.081279
  18 C :   -0.104058
  19 C :   -0.016241
  20 N :   -0.036179
  21 C :   -0.017694
  22 N :   -0.032889
  23 C :   -0.004306
  24 C :   -0.170357
  25 S :    0.507316
  26 C :   -0.035939
  27 C :   -0.017415
  28 C :   -0.015701
  29 N :   -0.017465
  30 C :   -0.022664
  31 C :   -0.025577
  32 N :   -0.015563
  33 C :   -0.039895
  34 N :   -0.000782
  35 C :   -0.039142
  36 N :   -0.000239
  37 C :   -0.042288
  38 C :   -0.036661
  39 C :   -0.038152
  40 N :   -0.269895
  41 S :    0.702324
  42 N :   -0.271305
  43 C :   -0.167409
  44 C :   -0.008111
  45 C :   -0.072985
  46 C :   -0.176949
  47 S :    0.507176
  48 C :   -0.175381
  49 C :   -0.067023
  50 C :    0.080697
  51 C :   -0.101830
  52 C :   -0.016153
  53 N :   -0.034639
  54 C :   -0.018090
  55 N :   -0.030434
  56 C :   -0.014944
  57 C :   -0.159674
  58 S :    0.479253
  59 C :   -0.026409
  60 C :   -0.049211
  61 C :    0.093810
  62 F :   -0.064017
  63 C :   -0.056518
  64 C :   -0.045452
  65 C :   -0.048487
  66 N :   -0.278536
  67 S :    0.656709
  68 N :   -0.287657
  69 H :    0.043568
  70 H :    0.045624
  71 H :    0.038121
  72 H :    0.038469
  73 H :    0.038358
  74 H :    0.039990
  75 H :    0.032822
  76 H :    0.047207

  Mayer bond orders larger than 0.100000
B(  0-C ,  1-C ) :   1.4649 B(  0-C ,  4-C ) :   0.1110 B(  0-C ,  6-C ) :   1.1959
B(  0-C , 69-H ) :   1.0247 B(  1-C ,  2-C ) :   1.2325 B(  1-C , 70-H ) :   0.9870
B(  2-C ,  3-F ) :   1.0850 B(  2-C ,  4-C ) :   1.4032 B(  4-C ,  5-C ) :   1.1740
B(  4-C , 10-C ) :   1.1139 B(  5-C ,  6-C ) :   1.1554 B(  5-C ,  9-N ) :   1.5350
B(  6-C ,  7-N ) :   1.5108 B(  7-N ,  8-S ) :   1.2910 B(  7-N ,  9-N ) :   0.1465
B(  8-S ,  9-N ) :   1.2519 B( 10-C , 11-C ) :   1.4682 B( 10-C , 14-S ) :   1.1027
B( 11-C , 12-C ) :   1.2580 B( 11-C , 71-H ) :   0.9800 B( 12-C , 13-C ) :   1.4135
B( 12-C , 17-C ) :   0.9973 B( 13-C , 14-S ) :   1.1026 B( 13-C , 15-C ) :   1.2076
B( 15-C , 16-C ) :   1.3925 B( 15-C , 25-S ) :   1.0950 B( 16-C , 17-C ) :   0.9872
B( 16-C , 23-C ) :   1.2910 B( 17-C , 18-C ) :   1.7077 B( 18-C , 19-C ) :   1.1382
B( 18-C , 21-C ) :   1.1380 B( 19-C , 20-N ) :   2.9861 B( 21-C , 22-N ) :   2.9894
B( 23-C , 24-C ) :   1.3993 B( 23-C , 72-H ) :   0.9819 B( 24-C , 25-S ) :   1.0776
B( 24-C , 26-C ) :   1.2257 B( 26-C , 27-C ) :   1.2463 B( 26-C , 37-C ) :   0.1180
B( 26-C , 39-C ) :   1.1895 B( 27-C , 28-C ) :   1.1042 B( 27-C , 32-N ) :   1.4133
B( 28-C , 29-N ) :   1.4036 B( 28-C , 37-C ) :   1.2574 B( 29-N , 30-C ) :   1.6927
B( 30-C , 31-C ) :   1.2203 B( 30-C , 35-C ) :   1.1658 B( 31-C , 32-N ) :   1.6874
B( 31-C , 33-C ) :   1.1702 B( 33-C , 34-N ) :   3.0411 B( 35-C , 36-N ) :   3.0405
B( 37-C , 38-C ) :   1.1910 B( 37-C , 43-C ) :   1.2123 B( 38-C , 39-C ) :   1.0978
B( 38-C , 42-N ) :   1.5234 B( 39-C , 40-N ) :   1.5222 B( 40-N , 41-S ) :   1.2830
B( 40-N , 42-N ) :   0.1454 B( 41-S , 42-N ) :   1.2807 B( 43-C , 44-C ) :   1.4074
B( 43-C , 47-S ) :   1.0856 B( 44-C , 45-C ) :   1.2832 B( 44-C , 73-H ) :   0.9823
B( 45-C , 46-C ) :   1.4006 B( 45-C , 50-C ) :   0.9864 B( 46-C , 47-S ) :   1.0871
B( 46-C , 48-C ) :   1.1982 B( 48-C , 49-C ) :   1.4246 B( 48-C , 58-S ) :   1.1287
B( 49-C , 50-C ) :   0.9960 B( 49-C , 56-C ) :   1.2440 B( 50-C , 51-C ) :   1.7091
B( 51-C , 52-C ) :   1.1404 B( 51-C , 54-C ) :   1.1369 B( 52-C , 53-N ) :   2.9869
B( 54-C , 55-N ) :   2.9899 B( 56-C , 57-C ) :   1.4839 B( 56-C , 74-H ) :   0.9816
B( 57-C , 58-S ) :   1.0912 B( 57-C , 59-C ) :   1.1162 B( 59-C , 60-C ) :   1.4377
B( 59-C , 63-C ) :   0.1080 B( 59-C , 65-C ) :   1.1818 B( 60-C , 61-C ) :   1.2127
B( 60-C , 75-H ) :   0.9904 B( 61-C , 62-F ) :   1.0729 B( 61-C , 63-C ) :   1.4467
B( 63-C , 64-C ) :   1.1579 B( 63-C , 76-H ) :   1.0348 B( 64-C , 65-C ) :   1.1635
B( 64-C , 68-N ) :   1.5096 B( 65-C , 66-N ) :   1.5288 B( 66-N , 67-S ) :   1.2613
B( 66-N , 68-N ) :   0.1480 B( 67-S , 68-N ) :   1.2769

-----------------------------------------------------------------------------
         ABSORPTION SPECTRUM VIA TRANSITION ELECTRIC DIPOLE MOMENTS
-----------------------------------------------------------------------------
State   Energy  Wavelength   fosc         T2         TX        TY        TZ
        (cm-1)    (nm)                  (au**2)     (au)      (au)      (au)
-----------------------------------------------------------------------------
   0    6649.0   1504.0   0.534120588  26.44590  -1.72710   0.55258   4.81224
   1   12792.5    781.7   0.009375456   0.24128  -0.15854   0.44649   0.12956
   2   13354.3    748.8   0.033656307   0.82970   0.25776  -0.01515  -0.87352
   3   15537.7    643.6   0.013696560   0.29020   0.05884   0.50979  -0.16388
   4   21172.1    472.3   0.193839176   3.01406   0.62014  -0.13200  -1.61619
   5   21592.8    463.1   0.030587143   0.46634   0.48791   0.38475   0.28330
   6   22142.1    451.6   1.010353216  15.02208  -1.20043   0.40795   3.66260
   7   23224.6    430.6   0.030261052   0.42895  -0.03921   0.04650   0.65212
   8   23361.5    428.1   0.009734470   0.13718  -0.23978   0.23852  -0.15098
   9   23740.8    421.2   0.115839212   1.60633   1.09170  -0.49652   0.40986
  10   24142.5    414.2   0.107116543   1.46066  -0.67373   0.23791   0.97476
  11   24264.5    412.1   0.036032821   0.48888  -0.46862   0.44824   0.26145
  12   24518.3    407.9   0.015180509   0.20383  -0.13989   0.11704   0.41299
  13   25238.5    396.2   0.001778318   0.02320  -0.04631   0.14406  -0.01726
  14   27670.9    361.4   0.071200365   0.84710   0.85431  -0.31074   0.14387
  15   28861.4    346.5   0.062051601   0.70780   0.35952  -0.07438   0.75698
  16   29111.3    343.5   0.049643166   0.56140   0.63207  -0.23300  -0.32801
  17   29646.0    337.3   0.346271065   3.84526   0.05291  -0.05152  -1.95954
  18   30068.7    332.6   0.176111968   1.92819  -1.10634   0.14724   0.82616
  19   30402.3    328.9   0.405867467   4.39495  -0.56540   0.23470   2.00504
  20   30885.3    323.8   0.032914297   0.35084   0.53335  -0.07470  -0.24657
  21   30961.6    323.0   0.017073328   0.18154  -0.41922   0.04921   0.05809
  22   31253.6    320.0   0.069157008   0.72847  -0.74774  -0.07790  -0.40409
  23   31621.0    316.2   0.060128555   0.62601   0.72805  -0.15945  -0.26558
  24   31695.9    315.5   0.031029283   0.32229  -0.47011   0.28296  -0.14566
  25   32046.6    312.0   0.369294403   3.79372   1.39627  -0.00517   1.35798
  26   32349.9    309.1   0.946882919   9.63604   3.00826  -0.26850   0.71716
  27   32686.5    305.9   0.038191138   0.38465   0.45714  -0.08146  -0.41114
  28   32780.5    305.1   0.295237535   2.96505   0.55255  -0.16315  -1.62269
  29   33384.7    299.5   0.030866570   0.30438   0.38604  -0.24333   0.31007
  30   33669.6    297.0   0.168410443   1.64667   1.25743  -0.25224   0.04367
  31   33710.2    296.6   0.054773044   0.53491  -0.48679   0.07131  -0.54117
  32   33751.4    296.3   0.004886575   0.04766   0.05475  -0.17461   0.11907
  33   33858.2    295.3   0.066976409   0.65123   0.11164  -0.05923   0.79703
  34   34911.9    286.4   0.018117653   0.17085   0.04722   0.16157  -0.37751
  35   35620.8    280.7   0.056434530   0.52158  -0.41428   0.31736   0.49923
  36   36429.5    274.5   0.000671645   0.00607   0.03077  -0.01127   0.07068
  37   36690.5    272.6   0.139510714   1.25178  -1.05199   0.26715   0.27152
  38   36772.6    271.9   0.266981793   2.39019  -1.00134   0.56148  -1.03549
  39   37082.7    269.7   0.082395352   0.73149   0.26325  -0.21395  -0.78512
  40   37234.0    268.6   0.017036924   0.15064  -0.26834  -0.24344  -0.13915
  41   37347.8    267.8   0.001099581   0.00969   0.05687   0.02776   0.07542
  42   37647.9    265.6   0.090853408   0.79447   0.87132  -0.06913   0.17460
  43   37822.5    264.4   0.024254331   0.21111  -0.19703  -0.11648  -0.39840
  44   37882.8    264.0   0.000563841   0.00490  -0.03827   0.00852  -0.05799
  45   38071.6    262.7   0.016231515   0.14036   0.36744  -0.02938   0.06694
  46   38248.5    261.4   0.063436631   0.54601   0.73032  -0.09534  -0.05960
  47   38547.8    259.4   0.254772349   2.17585  -1.38789   0.26383  -0.42426
  48   38685.9    258.5   0.006725532   0.05723  -0.18194  -0.01156  -0.15491
  49   38746.2    258.1   0.048670234   0.41353   0.55377  -0.11135   0.30737
  50   38865.1    257.3   0.086289986   0.73093   0.40611  -0.04348   0.75108
  51   39557.2    252.8   0.110573515   0.92024   0.07566  -0.04994  -0.95500
  52   39674.0    252.1   0.007960220   0.06605   0.02211   0.25452  -0.02799
  53   39999.8    250.0   0.000121192   0.00100  -0.00287   0.03127  -0.00335

FINAL SINGLE POINT ENERGY     -5506.839762167954

DIPOLE MOMENT
-------------
                                X             Y             Z
Electronic contribution:      4.49421       1.26273      -1.88349
Nuclear contribution   :     -3.98800      -1.60873       3.52069
                        -----------------------------------------
Total Dipole Moment    :      0.50621      -0.34600       1.63719
                        -----------------------------------------
Magnitude (a.u.)       :      1.74825
Magnitude (Debye)      :      4.44369

Rotational constants in cm-1:     0.002365     0.000260     0.000239
Rotational constants in MHz :    70.909515     7.808380     7.165092

                             ****ORCA TERMINATED NORMALLY****
TOTAL RUN TIME: 0 days 0 hours 7 minutes 24 seconds 32 msec
