                         Program Version 4.2.0 -  RELEASE  -
|  1> # ORCA input file
|  2> # SCF done       -192.063611044754          0.000991587710
|  3> ! CAM-B3LYP def2-SVP def2/J RIJCOSX Grid4 TightSCF
|  4> %maxcore 5000
|  5> %tddft
|  6>     Mode sTDDFT
|  7>     Ethresh 5.0
|  8>     maxcore 5000
|  9> end
| 10>
| 11> %pal
| 12>   nprocs 6
| 13>   end
| 14> * xyz 0 1
| 15>    C       -1.31364        -5.28137        -4.70778
| 16>    C       -0.75471        -5.43775        -5.98879
| 17>    C       -0.57270        -6.71812        -6.49459
| 18>    C       -0.98359        -7.83907        -5.77352
| 19>    C       -1.57144        -7.66300        -4.50051
| 20>    C       -1.71341        -6.37349        -3.97693
| 21>    N       -1.97386        -8.76054        -3.80209
| 22>    C       -1.86704       -10.08194        -4.20926
| 23>    O       -2.26643       -10.97246        -3.49465
| 24>    C       -1.24823       -10.23955        -5.53281
| 25>    C       -0.83407        -9.17000        -6.26143
| 26>    C       -1.09676       -11.55417        -6.03025
| 27>    N       -0.96164       -12.60915        -6.45515
| 28>    C       -0.30928        -4.31073        -6.78217
| 29>    N        0.76473        -4.42718        -7.53465
| 30>    C        0.95447        -3.21321        -8.10335
| 31>    C       -0.09021        -2.26771        -7.69434
| 32>    C        0.12991        -0.96261        -8.33071
| 33>    O       -0.52875         0.05475        -8.23275
| 34>    C        1.35469        -1.18554        -9.12179
| 35>    C        1.82380        -2.57557        -8.95253
| 36>    N        2.94413        -2.79505        -9.68466
| 37>    C        3.18887        -1.65713       -10.28532
| 38>    C        2.23300        -0.60934        -9.98137
| 39>    C       -0.93088        -2.96814        -6.85648
| 40>    C       -2.15191        -2.58095        -6.23677
| 41>    C       -2.60661        -1.30591        -6.27628
| 42>    C       -3.78718        -0.78094        -5.65268
| 43>    C       -4.06094         0.56365        -5.82437
| 44>    C       -5.16032         1.15969        -5.18521
| 45>    C       -5.61818         2.47395        -5.16447
| 46>    C       -5.11876         3.65114        -5.92844
| 47>    C       -3.60952         3.90127        -5.73509
| 48>    N       -3.34689         5.32655        -5.83874
| 49>    C       -5.47740         3.49751        -7.41835
| 50>    N       -6.92382         3.43282        -7.58083
| 51>    C       -6.77964         2.49528        -4.31211
| 52>    C       -7.58715         3.50644        -3.93901
| 53>    C       -8.81936         3.25331        -3.15255
| 54>    C       -8.93254         1.86979        -2.58616
| 55>    C       -8.09167         0.87575        -2.93993
| 56>    C       -7.01548         1.13040        -3.81871
| 57>    C       -6.01871         0.33133        -4.34766
| 58>    C       -5.73600        -1.04694        -4.21026
| 59>    C       -4.65806        -1.57961        -4.84028
| 60>    C      -10.02384         3.31236        -4.06431
| 61>    C       -9.98540         2.96169        -5.35977
| 62>    C      -11.14337         2.97840        -6.19091
| 63>    N      -12.31935         3.41673        -5.76472
| 64>    C      -13.15595         3.30214        -6.81334
| 65>    C      -12.46664         2.74912        -7.99305
| 66>    C      -13.40116         2.63365        -9.12297
| 67>    O      -13.18380         2.22447       -10.24562
| 68>    C      -14.66243         3.13958        -8.55543
| 69>    C      -14.46813         3.53702        -7.14633
| 70>    N      -15.62504         4.00345        -6.61686
| 71>    C      -16.50254         3.92320        -7.58861
| 72>    C      -15.97044         3.39022        -8.82457
| 73>    C      -11.16824         2.53519        -7.60563
| 74>    C      -10.04866         2.00170        -8.31181
| 75>    C      -10.12300         1.58952        -9.59366
| 76>    C       -9.04318         1.03132       -10.37373
| 77>    C       -7.76844         0.75011        -9.84029
| 78>    C       -6.77044         0.22049       -10.61929
| 79>    C       -7.00098        -0.05653       -11.97123
| 80>    C       -8.27078         0.21055       -12.52777
| 81>    C       -9.27075         0.74885       -11.71580
| 82>    C       -8.46988        -0.08952       -13.90583
| 83>    C       -7.47351        -0.61617       -14.66607
| 84>    C       -6.14477        -0.90310       -14.10937
| 85>    O       -5.20308        -1.37096       -14.70958
| 86>    N       -6.02746        -0.58343       -12.76684
| 87>    C       -7.68804        -0.90775       -16.03185
| 88>    N       -7.88686        -1.13246       -17.13753
| 89>    H       -1.38348        -4.29698        -4.27115
| 90>    H       -0.11338        -6.83662        -7.46336
| 91>    H       -2.13073        -6.24688        -2.98863
| 92>    H       -2.39199        -8.62823        -2.88747
| 93>    H       -0.38025        -9.31681        -7.23164
| 94>    H        4.04014        -1.55772       -10.93609
| 95>    H        2.25686         0.38821       -10.37377
| 96>    H       -2.71525        -3.36003        -5.74363
| 97>    H       -2.01225        -0.57793        -6.81326
| 98>    H       -3.40655         1.15574        -6.44524
| 99>    H       -5.62340         4.54772        -5.55435
|100>    H       -3.03266         3.30103        -6.45458
|101>    H       -3.32596         3.58780        -4.72708
|102>    H       -3.47506         5.64574        -6.79332
|103>    H       -2.39139         5.53370        -5.57232
|104>    H       -5.06216         2.56107        -7.80102
|105>    H       -5.02146         4.32960        -7.97945
|106>    H       -7.34563         4.29189        -7.23880
|107>    H       -7.15432         3.36185        -8.56738
|108>    H       -7.42123         4.52508        -4.26004
|109>    H       -8.93411         4.00790        -2.36690
|110>    H       -9.76548         1.69254        -1.92453
|111>    H       -8.22019        -0.11911        -2.53877
|112>    H       -6.37931        -1.66191        -3.59807
|113>    H       -4.44057        -2.63047        -4.72765
|114>    H      -10.96902         3.58795        -3.62040
|115>    H       -9.05260         2.66250        -5.81648
|116>    H      -17.51959         4.23662        -7.42810
|117>    H      -16.52434         3.24415        -9.73082
|118>    H       -9.11741         1.94551        -7.76680
|119>    H      -11.06906         1.67877       -10.11187
|120>    H       -7.56806         0.94613        -8.79866
|121>    H       -5.79975         0.00780       -10.19494
|122>    H      -10.24102         0.95011       -12.14534
|123>    H       -9.43796         0.10952       -14.34472
|124>    H       -5.11885        -0.77389       -12.35850
|125> *
|126>
|127>                          ****END OF INPUT****

CARTESIAN COORDINATES (ANGSTROEM)
---------------------------------
  C     -1.313640   -5.281370   -4.707780
  C     -0.754710   -5.437750   -5.988790
  C     -0.572700   -6.718120   -6.494590
  C     -0.983590   -7.839070   -5.773520
  C     -1.571440   -7.663000   -4.500510
  C     -1.713410   -6.373490   -3.976930
  N     -1.973860   -8.760540   -3.802090
  C     -1.867040  -10.081940   -4.209260
  O     -2.266430  -10.972460   -3.494650
  C     -1.248230  -10.239550   -5.532810
  C     -0.834070   -9.170000   -6.261430
  C     -1.096760  -11.554170   -6.030250
  N     -0.961640  -12.609150   -6.455150
  C     -0.309280   -4.310730   -6.782170
  N      0.764730   -4.427180   -7.534650
  C      0.954470   -3.213210   -8.103350
  C     -0.090210   -2.267710   -7.694340
  C      0.129910   -0.962610   -8.330710
  O     -0.528750    0.054750   -8.232750
  C      1.354690   -1.185540   -9.121790
  C      1.823800   -2.575570   -8.952530
  N      2.944130   -2.795050   -9.684660
  C      3.188870   -1.657130  -10.285320
  C      2.233000   -0.609340   -9.981370
  C     -0.930880   -2.968140   -6.856480
  C     -2.151910   -2.580950   -6.236770
  C     -2.606610   -1.305910   -6.276280
  C     -3.787180   -0.780940   -5.652680
  C     -4.060940    0.563650   -5.824370
  C     -5.160320    1.159690   -5.185210
  C     -5.618180    2.473950   -5.164470
  C     -5.118760    3.651140   -5.928440
  C     -3.609520    3.901270   -5.735090
  N     -3.346890    5.326550   -5.838740
  C     -5.477400    3.497510   -7.418350
  N     -6.923820    3.432820   -7.580830
  C     -6.779640    2.495280   -4.312110
  C     -7.587150    3.506440   -3.939010
  C     -8.819360    3.253310   -3.152550
  C     -8.932540    1.869790   -2.586160
  C     -8.091670    0.875750   -2.939930
  C     -7.015480    1.130400   -3.818710
  C     -6.018710    0.331330   -4.347660
  C     -5.736000   -1.046940   -4.210260
  C     -4.658060   -1.579610   -4.840280
  C    -10.023840    3.312360   -4.064310
  C     -9.985400    2.961690   -5.359770
  C    -11.143370    2.978400   -6.190910
  N    -12.319350    3.416730   -5.764720
  C    -13.155950    3.302140   -6.813340
  C    -12.466640    2.749120   -7.993050
  C    -13.401160    2.633650   -9.122970
  O    -13.183800    2.224470  -10.245620
  C    -14.662430    3.139580   -8.555430
  C    -14.468130    3.537020   -7.146330
  N    -15.625040    4.003450   -6.616860
  C    -16.502540    3.923200   -7.588610
  C    -15.970440    3.390220   -8.824570
  C    -11.168240    2.535190   -7.605630
  C    -10.048660    2.001700   -8.311810
  C    -10.123000    1.589520   -9.593660
  C     -9.043180    1.031320  -10.373730
  C     -7.768440    0.750110   -9.840290
  C     -6.770440    0.220490  -10.619290
  C     -7.000980   -0.056530  -11.971230
  C     -8.270780    0.210550  -12.527770
  C     -9.270750    0.748850  -11.715800
  C     -8.469880   -0.089520  -13.905830
  C     -7.473510   -0.616170  -14.666070
  C     -6.144770   -0.903100  -14.109370
  O     -5.203080   -1.370960  -14.709580
  N     -6.027460   -0.583430  -12.766840
  C     -7.688040   -0.907750  -16.031850
  N     -7.886860   -1.132460  -17.137530
  H     -1.383480   -4.296980   -4.271150
  H     -0.113380   -6.836620   -7.463360
  H     -2.130730   -6.246880   -2.988630
  H     -2.391990   -8.628230   -2.887470
  H     -0.380250   -9.316810   -7.231640
  H      4.040140   -1.557720  -10.936090
  H      2.256860    0.388210  -10.373770
  H     -2.715250   -3.360030   -5.743630
  H     -2.012250   -0.577930   -6.813260
  H     -3.406550    1.155740   -6.445240
  H     -5.623400    4.547720   -5.554350
  H     -3.032660    3.301030   -6.454580
  H     -3.325960    3.587800   -4.727080
  H     -3.475060    5.645740   -6.793320
  H     -2.391390    5.533700   -5.572320
  H     -5.062160    2.561070   -7.801020
  H     -5.021460    4.329600   -7.979450
  H     -7.345630    4.291890   -7.238800
  H     -7.154320    3.361850   -8.567380
  H     -7.421230    4.525080   -4.260040
  H     -8.934110    4.007900   -2.366900
  H     -9.765480    1.692540   -1.924530
  H     -8.220190   -0.119110   -2.538770
  H     -6.379310   -1.661910   -3.598070
  H     -4.440570   -2.630470   -4.727650
  H    -10.969020    3.587950   -3.620400
  H     -9.052600    2.662500   -5.816480
  H    -17.519590    4.236620   -7.428100
  H    -16.524340    3.244150   -9.730820
  H     -9.117410    1.945510   -7.766800
  H    -11.069060    1.678770  -10.111870
  H     -7.568060    0.946130   -8.798660
  H     -5.799750    0.007800  -10.194940
  H    -10.241020    0.950110  -12.145340
  H     -9.437960    0.109520  -14.344720
  H     -5.118850   -0.773890  -12.358500

 Total Charge           Charge          ....    0
 Multiplicity           Mult            ....    1
 Number of Electrons    NEL             ....  498
 Basis Dimension        Dim             .... 1216

ORBITAL ENERGIES
----------------

  NO   OCC          E(Eh)            E(eV)
   0   2.0000     -19.218190      -522.9535
   1   2.0000     -19.210930      -522.7560
   2   2.0000     -19.201494      -522.4992
   3   2.0000     -19.191796      -522.2353
   4   2.0000     -14.485193      -394.1621
   5   2.0000     -14.476057      -393.9135
   6   2.0000     -14.417527      -392.3209
   7   2.0000     -14.409472      -392.1017
   8   2.0000     -14.408608      -392.0782
   9   2.0000     -14.407004      -392.0345
  10   2.0000     -14.406160      -392.0115
  11   2.0000     -14.401984      -391.8979
  12   2.0000     -14.399888      -391.8409
  13   2.0000     -14.391620      -391.6159
  14   2.0000     -10.401979      -283.0522
  15   2.0000     -10.392836      -282.8035
  16   2.0000     -10.377851      -282.3957
  17   2.0000     -10.370595      -282.1982
  18   2.0000     -10.363266      -281.9988
  19   2.0000     -10.351153      -281.6692
  20   2.0000     -10.350763      -281.6586
  21   2.0000     -10.341786      -281.4143
  22   2.0000     -10.337362      -281.2939
  23   2.0000     -10.332944      -281.1737
  24   2.0000     -10.330734      -281.1136
  25   2.0000     -10.330136      -281.0973
  26   2.0000     -10.327994      -281.0390
  27   2.0000     -10.326360      -280.9945
  28   2.0000     -10.324992      -280.9573
  29   2.0000     -10.321492      -280.8621
  30   2.0000     -10.319668      -280.8125
  31   2.0000     -10.317655      -280.7577
  32   2.0000     -10.317185      -280.7449
  33   2.0000     -10.317106      -280.7427
  34   2.0000     -10.316813      -280.7348
  35   2.0000     -10.315179      -280.6903
  36   2.0000     -10.312850      -280.6269
  37   2.0000     -10.312838      -280.6266
  38   2.0000     -10.312529      -280.6182
  39   2.0000     -10.308962      -280.5211
  40   2.0000     -10.308509      -280.5088
  41   2.0000     -10.306167      -280.4451
  42   2.0000     -10.305564      -280.4286
  43   2.0000     -10.304447      -280.3983
  44   2.0000     -10.303637      -280.3762
  45   2.0000     -10.300545      -280.2921
  46   2.0000     -10.300272      -280.2846
  47   2.0000     -10.299522      -280.2642
  48   2.0000     -10.298491      -280.2362
  49   2.0000     -10.296735      -280.1884
  50   2.0000     -10.295037      -280.1422
  51   2.0000     -10.294951      -280.1398
  52   2.0000     -10.292425      -280.0711
  53   2.0000     -10.290781      -280.0264
  54   2.0000     -10.290591      -280.0212
  55   2.0000     -10.289137      -279.9816
  56   2.0000     -10.288429      -279.9624
  57   2.0000     -10.288254      -279.9576
  58   2.0000     -10.288150      -279.9548
  59   2.0000     -10.288064      -279.9525
  60   2.0000     -10.286516      -279.9103
  61   2.0000     -10.286303      -279.9045
  62   2.0000     -10.286220      -279.9023
  63   2.0000     -10.285842      -279.8920
  64   2.0000     -10.285520      -279.8832
  65   2.0000     -10.284753      -279.8624
  66   2.0000     -10.284430      -279.8536
  67   2.0000     -10.283358      -279.8244
  68   2.0000     -10.282171      -279.7921
  69   2.0000     -10.281755      -279.7808
  70   2.0000     -10.279079      -279.7080
  71   2.0000     -10.278581      -279.6944
  72   2.0000     -10.277813      -279.6735
  73   2.0000     -10.276243      -279.6308
  74   2.0000      -1.150136       -31.2968
  75   2.0000      -1.140573       -31.0366
  76   2.0000      -1.131308       -30.7844
  77   2.0000      -1.124605       -30.6021
  78   2.0000      -1.084859       -29.5205
  79   2.0000      -1.075376       -29.2625
  80   2.0000      -1.072488       -29.1839
  81   2.0000      -1.064196       -28.9582
  82   2.0000      -1.062431       -28.9102
  83   2.0000      -1.055451       -28.7203
  84   2.0000      -1.001287       -27.2464
  85   2.0000      -0.992708       -27.0130
  86   2.0000      -0.986599       -26.8467
  87   2.0000      -0.986255       -26.8374
  88   2.0000      -0.982880       -26.7455
  89   2.0000      -0.972826       -26.4719
  90   2.0000      -0.969832       -26.3905
  91   2.0000      -0.965039       -26.2601
  92   2.0000      -0.944922       -25.7126
  93   2.0000      -0.940676       -25.5971
  94   2.0000      -0.937603       -25.5135
  95   2.0000      -0.935762       -25.4634
  96   2.0000      -0.931086       -25.3361
  97   2.0000      -0.915458       -24.9109
  98   2.0000      -0.910859       -24.7857
  99   2.0000      -0.893030       -24.3006
 100   2.0000      -0.885369       -24.0921
 101   2.0000      -0.879236       -23.9252
 102   2.0000      -0.874512       -23.7967
 103   2.0000      -0.871549       -23.7161
 104   2.0000      -0.863865       -23.5070
 105   2.0000      -0.859761       -23.3953
 106   2.0000      -0.856604       -23.3094
 107   2.0000      -0.853425       -23.2229
 108   2.0000      -0.848208       -23.0809
 109   2.0000      -0.839938       -22.8559
 110   2.0000      -0.819904       -22.3107
 111   2.0000      -0.814050       -22.1514
 112   2.0000      -0.790378       -21.5073
 113   2.0000      -0.781240       -21.2586
 114   2.0000      -0.774686       -21.0803
 115   2.0000      -0.772374       -21.0174
 116   2.0000      -0.770512       -20.9667
 117   2.0000      -0.764449       -20.8017
 118   2.0000      -0.759826       -20.6759
 119   2.0000      -0.754142       -20.5213
 120   2.0000      -0.751530       -20.4502
 121   2.0000      -0.743522       -20.2323
 122   2.0000      -0.740987       -20.1633
 123   2.0000      -0.737664       -20.0729
 124   2.0000      -0.730683       -19.8829
 125   2.0000      -0.712131       -19.3781
 126   2.0000      -0.709058       -19.2944
 127   2.0000      -0.699007       -19.0209
 128   2.0000      -0.697386       -18.9768
 129   2.0000      -0.687758       -18.7148
 130   2.0000      -0.684539       -18.6273
 131   2.0000      -0.675705       -18.3869
 132   2.0000      -0.670520       -18.2458
 133   2.0000      -0.666456       -18.1352
 134   2.0000      -0.662415       -18.0252
 135   2.0000      -0.656610       -17.8673
 136   2.0000      -0.652121       -17.7451
 137   2.0000      -0.649283       -17.6679
 138   2.0000      -0.642581       -17.4855
 139   2.0000      -0.639548       -17.4030
 140   2.0000      -0.627940       -17.0871
 141   2.0000      -0.619226       -16.8500
 142   2.0000      -0.616263       -16.7694
 143   2.0000      -0.613904       -16.7052
 144   2.0000      -0.612602       -16.6698
 145   2.0000      -0.612308       -16.6618
 146   2.0000      -0.600952       -16.3527
 147   2.0000      -0.598986       -16.2992
 148   2.0000      -0.594161       -16.1679
 149   2.0000      -0.590621       -16.0716
 150   2.0000      -0.588553       -16.0153
 151   2.0000      -0.587384       -15.9835
 152   2.0000      -0.584273       -15.8989
 153   2.0000      -0.582557       -15.8522
 154   2.0000      -0.578417       -15.7395
 155   2.0000      -0.571407       -15.5488
 156   2.0000      -0.567005       -15.4290
 157   2.0000      -0.564659       -15.3652
 158   2.0000      -0.561804       -15.2875
 159   2.0000      -0.555614       -15.1190
 160   2.0000      -0.554634       -15.0924
 161   2.0000      -0.554370       -15.0852
 162   2.0000      -0.553080       -15.0501
 163   2.0000      -0.549798       -14.9608
 164   2.0000      -0.546747       -14.8777
 165   2.0000      -0.543669       -14.7940
 166   2.0000      -0.541813       -14.7435
 167   2.0000      -0.541477       -14.7343
 168   2.0000      -0.539270       -14.6743
 169   2.0000      -0.538646       -14.6573
 170   2.0000      -0.536082       -14.5875
 171   2.0000      -0.533731       -14.5236
 172   2.0000      -0.531376       -14.4595
 173   2.0000      -0.529055       -14.3963
 174   2.0000      -0.526683       -14.3318
 175   2.0000      -0.521549       -14.1921
 176   2.0000      -0.518762       -14.1162
 177   2.0000      -0.517270       -14.0756
 178   2.0000      -0.513558       -13.9746
 179   2.0000      -0.512599       -13.9485
 180   2.0000      -0.508258       -13.8304
 181   2.0000      -0.506989       -13.7959
 182   2.0000      -0.505181       -13.7467
 183   2.0000      -0.503699       -13.7064
 184   2.0000      -0.499784       -13.5998
 185   2.0000      -0.494181       -13.4474
 186   2.0000      -0.492668       -13.4062
 187   2.0000      -0.490555       -13.3487
 188   2.0000      -0.489391       -13.3170
 189   2.0000      -0.486545       -13.2396
 190   2.0000      -0.485617       -13.2143
 191   2.0000      -0.483026       -13.1438
 192   2.0000      -0.480924       -13.0866
 193   2.0000      -0.478296       -13.0151
 194   2.0000      -0.478014       -13.0074
 195   2.0000      -0.476594       -12.9688
 196   2.0000      -0.471637       -12.8339
 197   2.0000      -0.470172       -12.7940
 198   2.0000      -0.468100       -12.7377
 199   2.0000      -0.464344       -12.6354
 200   2.0000      -0.462082       -12.5739
 201   2.0000      -0.458926       -12.4880
 202   2.0000      -0.458121       -12.4661
 203   2.0000      -0.455590       -12.3972
 204   2.0000      -0.453802       -12.3486
 205   2.0000      -0.452919       -12.3245
 206   2.0000      -0.447894       -12.1878
 207   2.0000      -0.445663       -12.1271
 208   2.0000      -0.441864       -12.0237
 209   2.0000      -0.434335       -11.8189
 210   2.0000      -0.433896       -11.8069
 211   2.0000      -0.429653       -11.6914
 212   2.0000      -0.428757       -11.6671
 213   2.0000      -0.428386       -11.6570
 214   2.0000      -0.423231       -11.5167
 215   2.0000      -0.418502       -11.3880
 216   2.0000      -0.414458       -11.2780
 217   2.0000      -0.412260       -11.2182
 218   2.0000      -0.406104       -11.0507
 219   2.0000      -0.405069       -11.0225
 220   2.0000      -0.402940       -10.9646
 221   2.0000      -0.397963       -10.8291
 222   2.0000      -0.396731       -10.7956
 223   2.0000      -0.392108       -10.6698
 224   2.0000      -0.385904       -10.5010
 225   2.0000      -0.374247       -10.1838
 226   2.0000      -0.366806        -9.9813
 227   2.0000      -0.358575        -9.7573
 228   2.0000      -0.358289        -9.7495
 229   2.0000      -0.357265        -9.7217
 230   2.0000      -0.352314        -9.5870
 231   2.0000      -0.351026        -9.5519
 232   2.0000      -0.348776        -9.4907
 233   2.0000      -0.348308        -9.4779
 234   2.0000      -0.340388        -9.2624
 235   2.0000      -0.336830        -9.1656
 236   2.0000      -0.336129        -9.1465
 237   2.0000      -0.335716        -9.1353
 238   2.0000      -0.330998        -9.0069
 239   2.0000      -0.329949        -8.9784
 240   2.0000      -0.329158        -8.9568
 241   2.0000      -0.327901        -8.9227
 242   2.0000      -0.316327        -8.6077
 243   2.0000      -0.315003        -8.5717
 244   2.0000      -0.304085        -8.2746
 245   2.0000      -0.300764        -8.1842
 246   2.0000      -0.281931        -7.6717
 247   2.0000      -0.269368        -7.3299
 248   2.0000      -0.233952        -6.3662
 249   0.0000      -0.117418        -3.1951
 250   0.0000      -0.111476        -3.0334
 251   0.0000      -0.084944        -2.3114
 252   0.0000      -0.062951        -1.7130
 253   0.0000      -0.054360        -1.4792

MULLIKEN ATOMIC CHARGES
-----------------------
   0 C :    0.014227
   1 C :    0.028982
   2 C :   -0.033572
   3 C :    0.030379
   4 C :    0.108384
   5 C :   -0.026542
   6 N :   -0.034119
   7 C :    0.133073
   8 O :   -0.158847
   9 C :   -0.232171
  10 C :    0.105002
  11 C :   -0.136310
  12 N :    0.131933
  13 C :    0.023111
  14 N :   -0.041268
  15 C :    0.078124
  16 C :   -0.176639
  17 C :    0.215896
  18 O :   -0.157440
  19 C :   -0.007347
  20 C :   -0.034702
  21 N :   -0.050671
  22 C :    0.088531
  23 C :   -0.098203
  24 C :    0.066753
  25 C :   -0.050397
  26 C :   -0.000210
  27 C :    0.128193
  28 C :   -0.109900
  29 C :    0.044697
  30 C :    0.012961
  31 C :   -0.063077
  32 C :    0.111325
  33 N :   -0.212716
  34 C :    0.156474
  35 N :   -0.219665
  36 C :    0.104482
  37 C :   -0.135931
  38 C :    0.135616
  39 C :   -0.029532
  40 C :    0.025524
  41 C :    0.012256
  42 C :    0.036983
  43 C :    0.000558
  44 C :   -0.012902
  45 C :   -0.027866
  46 C :   -0.025257
  47 C :    0.035640
  48 N :   -0.038189
  49 C :    0.069785
  50 C :   -0.168890
  51 C :    0.216517
  52 O :   -0.151194
  53 C :   -0.008799
  54 C :   -0.044002
  55 N :   -0.054780
  56 C :    0.084360
  57 C :   -0.100217
  58 C :    0.053375
  59 C :   -0.040870
  60 C :    0.010623
  61 C :    0.117694
  62 C :   -0.019152
  63 C :   -0.019070
  64 C :    0.094168
  65 C :    0.044138
  66 C :   -0.088585
  67 C :    0.091961
  68 C :   -0.231641
  69 C :    0.129859
  70 O :   -0.166797
  71 N :   -0.032509
  72 C :   -0.135646
  73 N :    0.125670
  74 H :    0.004734
  75 H :    0.001079
  76 H :   -0.024622
  77 H :    0.137396
  78 H :    0.016574
  79 H :    0.011591
  80 H :   -0.006667
  81 H :   -0.025456
  82 H :   -0.004821
  83 H :   -0.028935
  84 H :   -0.022627
  85 H :    0.003208
  86 H :    0.009097
  87 H :    0.086553
  88 H :    0.096167
  89 H :   -0.005373
  90 H :   -0.014365
  91 H :    0.095072
  92 H :    0.105948
  93 H :    0.001458
  94 H :    0.030762
  95 H :   -0.000850
  96 H :   -0.032786
  97 H :   -0.034919
  98 H :   -0.034265
  99 H :    0.037475
 100 H :    0.015858
 101 H :    0.005801
 102 H :   -0.008418
 103 H :   -0.016606
 104 H :   -0.003907
 105 H :    0.001045
 106 H :   -0.027793
 107 H :   -0.005829
 108 H :    0.011739
 109 H :    0.135052
Sum of atomic charges:   -0.0000000

LOEWDIN ATOMIC CHARGES
----------------------
   0 C :    0.019271
   1 C :   -0.060526
   2 C :    0.051264
   3 C :   -0.063209
   4 C :    0.062711
   5 C :   -0.049808
   6 N :    0.049098
   7 C :    0.073977
   8 O :   -0.182671
   9 C :   -0.109277
  10 C :    0.072758
  11 C :   -0.025254
  12 N :   -0.036776
  13 C :    0.077236
  14 N :   -0.098007
  15 C :    0.049846
  16 C :   -0.064688
  17 C :    0.071002
  18 O :   -0.153895
  19 C :   -0.040568
  20 C :    0.019417
  21 N :   -0.093576
  22 C :    0.072512
  23 C :   -0.033207
  24 C :   -0.019366
  25 C :   -0.061287
  26 C :    0.028961
  27 C :   -0.034245
  28 C :    0.002561
  29 C :   -0.026299
  30 C :   -0.011379
  31 C :   -0.042155
  32 C :    0.029105
  33 N :   -0.117354
  34 C :    0.029814
  35 N :   -0.111535
  36 C :   -0.015510
  37 C :    0.072384
  38 C :   -0.031191
  39 C :   -0.022606
  40 C :   -0.014679
  41 C :   -0.038978
  42 C :   -0.024446
  43 C :   -0.006025
  44 C :   -0.025756
  45 C :    0.084389
  46 C :   -0.062792
  47 C :    0.074330
  48 N :   -0.110624
  49 C :    0.049828
  50 C :   -0.054640
  51 C :    0.068896
  52 O :   -0.151310
  53 C :   -0.042037
  54 C :    0.012864
  55 N :   -0.097729
  56 C :    0.066392
  57 C :   -0.038818
  58 C :   -0.021687
  59 C :   -0.048328
  60 C :    0.020467
  61 C :   -0.046127
  62 C :    0.016024
  63 C :   -0.048885
  64 C :    0.054507
  65 C :   -0.064457
  66 C :    0.021050
  67 C :    0.070389
  68 C :   -0.113310
  69 C :    0.071069
  70 O :   -0.191135
  71 N :    0.048767
  72 C :   -0.024616
  73 N :   -0.043278
  74 H :    0.038950
  75 H :    0.043071
  76 H :    0.033771
  77 H :    0.101241
  78 H :    0.051139
  79 H :    0.024274
  80 H :    0.033769
  81 H :    0.022605
  82 H :    0.032190
  83 H :    0.026709
  84 H :    0.022756
  85 H :    0.003691
  86 H :    0.024269
  87 H :    0.048831
  88 H :    0.057657
  89 H :    0.017224
  90 H :   -0.001118
  91 H :    0.055311
  92 H :    0.059082
  93 H :    0.031509
  94 H :    0.053470
  95 H :    0.028779
  96 H :    0.031612
  97 H :    0.028392
  98 H :    0.023723
  99 H :    0.040299
 100 H :    0.032810
 101 H :    0.022028
 102 H :    0.032989
 103 H :    0.023612
 104 H :    0.032188
 105 H :    0.035659
 106 H :    0.032346
 107 H :    0.039365
 108 H :    0.048849
 109 H :    0.100107

  Mayer bond orders larger than 0.100000
B(  0-C ,  1-C ) :   1.2953 B(  0-C ,  5-C ) :   1.4330 B(  0-C , 74-H ) :   0.9855
B(  1-C ,  2-C ) :   1.3877 B(  1-C , 13-C ) :   0.9964 B(  2-C ,  3-C ) :   1.2582
B(  2-C , 75-H ) :   1.0105 B(  3-C ,  4-C ) :   1.2813 B(  3-C , 10-C ) :   1.1251
B(  4-C ,  5-C ) :   1.2932 B(  4-C ,  6-N ) :   1.2107 B(  5-C , 76-H ) :   0.9929
B(  6-N ,  7-C ) :   1.0775 B(  6-N , 77-H ) :   0.9018 B(  7-C ,  8-O ) :   2.2495
B(  7-C ,  9-C ) :   0.9489 B(  9-C , 10-C ) :   1.6497 B(  9-C , 11-C ) :   1.1102
B( 10-C , 78-H ) :   0.9859 B( 11-C , 12-N ) :   3.0449 B( 13-C , 14-N ) :   1.6609
B( 13-C , 15-C ) :   0.1154 B( 13-C , 24-C ) :   1.0193 B( 14-N , 15-C ) :   1.3119
B( 15-C , 16-C ) :   1.0631 B( 15-C , 20-C ) :   1.4380 B( 16-C , 17-C ) :   0.9062
B( 16-C , 24-C ) :   1.5240 B( 17-C , 18-O ) :   2.1627 B( 17-C , 19-C ) :   0.9351
B( 18-O , 82-H ) :   0.1117 B( 19-C , 20-C ) :   1.0673 B( 19-C , 23-C ) :   1.6074
B( 20-C , 21-N ) :   1.3072 B( 21-N , 22-C ) :   1.6654 B( 22-C , 23-C ) :   1.0645
B( 22-C , 79-H ) :   0.9893 B( 23-C , 80-H ) :   1.0110 B( 24-C , 25-C ) :   1.1232
B( 25-C , 26-C ) :   1.6176 B( 25-C , 81-H ) :   0.9587 B( 26-C , 27-C ) :   1.0869
B( 26-C , 82-H ) :   0.9697 B( 27-C , 28-C ) :   1.4821 B( 27-C , 44-C ) :   1.1163
B( 28-C , 29-C ) :   1.1094 B( 28-C , 83-H ) :   1.0051 B( 29-C , 30-C ) :   1.4622
B( 29-C , 42-C ) :   1.1222 B( 30-C , 31-C ) :   1.0180 B( 30-C , 36-C ) :   1.1252
B( 31-C , 32-C ) :   1.0291 B( 31-C , 34-C ) :   1.0481 B( 31-C , 84-H ) :   0.8812
B( 32-C , 33-N ) :   1.1054 B( 32-C , 85-H ) :   0.9323 B( 32-C , 86-H ) :   0.9497
B( 33-N , 87-H ) :   0.9706 B( 33-N , 88-H ) :   0.9674 B( 34-C , 35-N ) :   1.0718
B( 34-C , 89-H ) :   0.9319 B( 34-C , 90-H ) :   0.9392 B( 35-N , 91-H ) :   0.9586
B( 35-N , 92-H ) :   0.9489 B( 36-C , 37-C ) :   1.6416 B( 36-C , 41-C ) :   1.0486
B( 37-C , 38-C ) :   0.9890 B( 37-C , 93-H ) :   0.9811 B( 38-C , 39-C ) :   0.9804
B( 38-C , 45-C ) :   0.9452 B( 38-C , 94-H ) :   0.8839 B( 39-C , 40-C ) :   1.7205
B( 39-C , 95-H ) :   0.9633 B( 40-C , 41-C ) :   1.1416 B( 40-C , 96-H ) :   0.9860
B( 41-C , 42-C ) :   1.4348 B( 42-C , 43-C ) :   1.1399 B( 43-C , 44-C ) :   1.6207
B( 43-C , 97-H ) :   0.9900 B( 44-C , 98-H ) :   0.9838 B( 45-C , 46-C ) :   1.7489
B( 45-C , 99-H ) :   0.9710 B( 46-C , 47-C ) :   1.1321 B( 46-C ,100-H ) :   0.9406
B( 47-C , 48-N ) :   1.6010 B( 47-C , 49-C ) :   0.1139 B( 47-C , 58-C ) :   1.0021
B( 48-N , 49-C ) :   1.3550 B( 49-C , 50-C ) :   1.0526 B( 49-C , 54-C ) :   1.4145
B( 50-C , 51-C ) :   0.8978 B( 50-C , 58-C ) :   1.5513 B( 51-C , 52-O ) :   2.1709
B( 51-C , 53-C ) :   0.9382 B( 52-O ,104-H ) :   0.1105 B( 53-C , 54-C ) :   1.0755
B( 53-C , 57-C ) :   1.5876 B( 54-C , 55-N ) :   1.3157 B( 55-N , 56-C ) :   1.6522
B( 56-C , 57-C ) :   1.0804 B( 56-C ,101-H ) :   0.9893 B( 57-C ,102-H ) :   1.0120
B( 58-C , 59-C ) :   1.1279 B( 59-C , 60-C ) :   1.6618 B( 59-C ,103-H ) :   0.9593
B( 60-C , 61-C ) :   1.0605 B( 60-C ,104-H ) :   0.9706 B( 61-C , 62-C ) :   1.2692
B( 61-C , 66-C ) :   1.3559 B( 62-C , 63-C ) :   1.4525 B( 62-C ,105-H ) :   0.9850
B( 63-C , 64-C ) :   1.2775 B( 63-C ,106-H ) :   0.9915 B( 64-C , 65-C ) :   1.2968
B( 64-C , 71-N ) :   1.2050 B( 65-C , 66-C ) :   1.2554 B( 65-C , 67-C ) :   1.1290
B( 66-C ,107-H ) :   1.0159 B( 67-C , 68-C ) :   1.6417 B( 67-C ,108-H ) :   0.9869
B( 68-C , 69-C ) :   0.9517 B( 68-C , 72-C ) :   1.1102 B( 69-C , 70-O ) :   2.2437
B( 69-C , 71-N ) :   1.0827 B( 71-N ,109-H ) :   0.9020 B( 72-C , 73-N ) :   3.0443

-----------------------------------------------------------------------------
         ABSORPTION SPECTRUM VIA TRANSITION ELECTRIC DIPOLE MOMENTS
-----------------------------------------------------------------------------
State   Energy  Wavelength   fosc         T2         TX        TY        TZ
        (cm-1)    (nm)                  (au**2)     (au)      (au)      (au)
-----------------------------------------------------------------------------
   0   11793.2    847.9   0.175339897   4.89468   1.85669  -1.19139  -0.16724
   1   13043.2    766.7   0.089633821   2.26237   1.29045  -0.12029   0.76332
   2   14464.9    691.3   0.116579533   2.65327   1.38444   0.22012  -0.82954
   3   17294.3    578.2   0.148829947   2.83311   1.47000  -0.58967  -0.56965
   4   19372.0    516.2   0.019934867   0.33878   0.47978  -0.05508  -0.32489
   5   22287.3    448.7   0.071189901   1.05157  -0.35717  -0.84614   0.45612
   6   22401.2    446.4   0.000575858   0.00846   0.05382  -0.06093   0.04305
   7   23099.3    432.9   0.000677005   0.00965  -0.03220   0.07309   0.05719
   8   23557.2    424.5   0.344146201   4.80944   1.25763  -1.78768   0.17884
   9   24439.8    409.2   0.874540988  11.78036   2.98887   0.82172  -1.47370
  10   24870.6    402.1   0.344295765   4.55745   1.42021  -1.24940   0.98967
  11   25334.2    394.7   0.202320546   2.62911   1.12771  -0.77882  -0.86649
  12   25822.2    387.3   0.145123172   1.85020   0.95541  -0.94797   0.19682
  13   26067.1    383.6   0.026422909   0.33371   0.35846  -0.44238   0.09752
  14   26292.7    380.3   0.047972178   0.60066  -0.20532   0.70898  -0.23635
  15   26312.0    380.1   0.000158007   0.00198  -0.02932  -0.00483   0.03307
  16   26487.8    377.5   0.008211717   0.10206   0.25163  -0.19682   0.00277
  17   26620.0    375.7   0.036099331   0.44644  -0.49489  -0.41379   0.17409
  18   26750.2    373.8   0.143349671   1.76419   1.10620   0.06710   0.73213
  19   27005.5    370.3   0.002907399   0.03544   0.13129  -0.11381  -0.07247
  20   27240.2    367.1   0.014126965   0.17073  -0.13573   0.05064   0.38697
  21   28043.2    356.6   0.015099335   0.17726   0.16286  -0.29524  -0.25213
  22   28217.0    354.4   0.588740525   6.86892  -1.62251   0.98064   1.80962
  23   28256.1    353.9   0.095346366   1.11088  -0.48527   0.38970   0.85060
  24   28789.0    347.4   0.131070519   1.49883  -1.10791   0.24094  -0.46186
  25   29589.0    338.0   0.029150753   0.32434   0.52013  -0.00712  -0.23183
  26   30111.5    332.1   0.019038570   0.20815  -0.30604   0.29506   0.16562
  27   30406.0    328.9   0.086797898   0.93978  -0.67221   0.37969   0.58630
  28   30917.5    323.4   0.324848492   3.45902  -1.61617   0.77977   0.48886
  29   31407.2    318.4   0.012100296   0.12684   0.27172  -0.20364  -0.10741
  30   31510.2    317.4   0.000790240   0.00826   0.07800  -0.03536  -0.03036
  31   31794.4    314.5   0.000371990   0.00385   0.00438   0.05513  -0.02817
  32   31856.4    313.9   0.017398422   0.17980   0.29776   0.27517  -0.12418
  33   32181.5    310.7   0.141284222   1.44532   0.50642  -1.06990  -0.21014
  34   32323.1    309.4   0.113567386   1.15669   0.17369   1.00407   0.34405
  35   32742.6    305.4   0.048512342   0.48777  -0.19050   0.67119  -0.03137
  36   32772.9    305.1   0.050133093   0.50360   0.21088  -0.67729   0.02031
  37   33046.2    302.6   0.069737533   0.69474  -0.49496   0.66095   0.11356
  38   33337.4    300.0   0.005826818   0.05754   0.01181  -0.23691   0.03572
  39   33723.0    296.5   0.085775399   0.83736  -0.21780   0.73270   0.50307
  40   33825.5    295.6   0.008315347   0.08093   0.07914   0.18858   0.19775
  41   33905.8    294.9   0.093044676   0.90343   0.56149  -0.72431   0.25205
  42   34043.5    293.7   0.059317976   0.57363   0.55151  -0.46436  -0.23203
  43   34137.4    292.9   0.003547360   0.03421  -0.05949   0.16046   0.07017
  44   34435.9    290.4   0.009009396   0.08613  -0.20332  -0.21063   0.02068
  45   34525.9    289.6   0.089697578   0.85529  -0.75251  -0.16708   0.51099
  46   35154.8    284.5   0.173508008   1.62484   0.78121   0.42952  -0.91108
  47   35473.5    281.9   0.017802005   0.16521  -0.04891   0.31404   0.25338
  48   35764.4    279.6   0.044615864   0.41069   0.42567  -0.25703  -0.40427
  49   36024.3    277.6   0.209045725   1.91039   0.76168   0.78512  -0.84488
  50   36592.6    273.3   0.074568005   0.67086  -0.76295   0.04135   0.29505
  51   36783.7    271.9   0.005562200   0.04978   0.14399  -0.15642  -0.06769
  52   36889.1    271.1   0.239360176   2.13614   1.21288  -0.67425   0.45873
  53   37224.0    268.6   0.106831424   0.94483   0.94917  -0.16024   0.13500
  54   37272.6    268.3   0.021758393   0.19218   0.38832  -0.04595   0.19819
  55   37684.1    265.4   0.191212797   1.67045   0.01893   0.13008   1.28576
  56   37785.1    264.7   0.213237046   1.85788  -0.50640   0.17937   1.25270
  57   37859.9    264.1   0.001158596   0.01007  -0.09845   0.01567  -0.01167
  58   38066.8    262.7   0.001004872   0.00869   0.01957   0.08996  -0.01462
  59   38193.3    261.8   0.054238643   0.46752  -0.27878   0.11127  -0.61434
  60   38253.7    261.4   0.008842252   0.07610  -0.05640   0.08557   0.25611
  61   38612.7    259.0   0.000868207   0.00740  -0.03120   0.05080  -0.06204
  62   38786.2    257.8   0.034806390   0.29543   0.07522   0.35821   0.40182
  63   38874.4    257.2   0.113102423   0.95782  -0.54736  -0.00757  -0.81127
  64   39106.0    255.7   0.088525736   0.74525   0.52757   0.56933  -0.37786
  65   39137.4    255.5   0.002006490   0.01688   0.08043   0.07747  -0.06639
  66   39179.0    255.2   0.146413805   1.23028   0.13950   1.10032  -0.01122
  67   39852.8    250.9   0.000368059   0.00304  -0.00419  -0.03932  -0.03843
  68   40116.6    249.3   0.091768855   0.75309   0.41426   0.31497  -0.69446

FINAL SINGLE POINT ENERGY     -3152.319387070445

DIPOLE MOMENT
-------------
                                X             Y             Z
Electronic contribution:      4.86877     -45.10625     -20.08832
Nuclear contribution   :     -4.76510      49.59989      23.70912
                        -----------------------------------------
Total Dipole Moment    :      0.10367       4.49364       3.62080
                        -----------------------------------------
Magnitude (a.u.)       :      5.77180
Magnitude (Debye)      :     14.67076

Rotational constants in cm-1:     0.000989     0.000403     0.000377
Rotational constants in MHz :    29.638246    12.091965    11.290942

                             ****ORCA TERMINATED NORMALLY****
TOTAL RUN TIME: 0 days 0 hours 11 minutes 58 seconds 126 msec
