                         Program Version 4.2.0 -  RELEASE  -
|  1> # ORCA input file
|  2> # SCF done       -135.106426881074          0.000810211802
|  3> ! CAM-B3LYP def2-SVP def2/J RIJCOSX Grid4 TightSCF
|  4> %maxcore 5000
|  5> %tddft
|  6>     Mode sTDDFT
|  7>     Ethresh 5.0
|  8>     maxcore 5000
|  9> end
| 10>
| 11> %pal
| 12>   nprocs 6
| 13>   end
| 14> * xyz 0 1
| 15>    C        0.54910        -0.22232        -2.55270
| 16>    N       -0.67758        -0.14789        -2.12677
| 17>    C       -1.46988         0.51960        -2.96458
| 18>    C       -0.86031         0.99953        -4.10491
| 19>    S        0.82138         0.57115        -4.10233
| 20>    C       -1.44414         1.72542        -5.14331
| 21>    N       -1.92911         2.32223        -5.99500
| 22>    C        1.58952        -0.88081        -1.84607
| 23>    C        1.45964        -1.52567        -0.62918
| 24>    C        2.67091        -2.07127        -0.20642
| 25>    C        3.72220        -1.83614        -1.11127
| 26>    S        3.22261        -0.94682        -2.47704
| 27>    C        4.90662        -2.42649        -0.59912
| 28>    C        4.60179        -3.03558         0.63231
| 29>    C        3.18946        -2.83294         0.91991
| 30>    C        2.50074        -3.26659         2.01300
| 31>    C        1.12324        -3.01209         2.18955
| 32>    N        0.00545        -2.81153         2.34365
| 33>    C        3.12070        -4.00281         3.04598
| 34>    N        3.62045        -4.60065         3.88631
| 35>    C        5.70719        -3.64897         1.21863
| 36>    C        6.84033        -3.50625         0.43816
| 37>    S        6.54723        -2.60673        -1.03553
| 38>    C        8.14311        -3.99120         0.69719
| 39>    N        9.15393        -3.80988        -0.10261
| 40>    C       10.25315        -4.37542         0.39068
| 41>    C       10.12111        -5.03282         1.62801
| 42>    S        8.49889        -4.91418         2.18075
| 43>    N       11.21927        -5.59996         2.12131
| 44>    C       12.23095        -5.42147         1.32282
| 45>    S       11.87388        -4.49577        -0.16118
| 46>    C       13.53009        -5.91761         1.58910
| 47>    C       13.91139        -6.64501         2.70465
| 48>    C       15.26206        -6.98273         2.65873
| 49>    C       15.90476        -6.50721         1.50096
| 50>    S       14.84985        -5.64667         0.47216
| 51>    C       17.26625        -6.90044         1.54610
| 52>    C       17.48698        -7.62537         2.73154
| 53>    C       16.23543        -7.70049         3.47030
| 54>    C       16.01953        -8.31236         4.66837
| 55>    C       14.75443        -8.31979         5.29584
| 56>    N       13.73306        -8.33268         5.81529
| 57>    C       17.04583        -8.98316         5.36905
| 58>    N       17.87093        -9.53025         5.94630
| 59>    C       18.80616        -8.05684         2.86394
| 60>    C       19.58120        -7.66264         1.78816
| 61>    S       18.67552        -6.74966         0.59845
| 62>    C       20.96281        -7.93772         1.61304
| 63>    N       21.67800        -8.61289         2.46409
| 64>    C       22.94737        -8.73801         2.07901
| 65>    C       23.26574        -8.14292         0.87615
| 66>    S       21.85978        -7.38131         0.20188
| 67>    C       24.50635        -8.11666         0.23875
| 68>    N       25.52875        -8.09744        -0.28193
| 69>    H       -2.50976         0.65029        -2.72527
| 70>    H        0.52183        -1.57640        -0.10776
| 71>    H        5.70803        -4.17371         2.15701
| 72>    H       13.21760        -6.89581         3.48536
| 73>    H       19.21134        -8.62496         3.68065
| 74>    H       23.64193        -9.27646         2.69817
| 75> *
| 76>
| 77>                          ****END OF INPUT****

CARTESIAN COORDINATES (ANGSTROEM)
---------------------------------
  C      0.549100   -0.222320   -2.552700
  N     -0.677580   -0.147890   -2.126770
  C     -1.469880    0.519600   -2.964580
  C     -0.860310    0.999530   -4.104910
  S      0.821380    0.571150   -4.102330
  C     -1.444140    1.725420   -5.143310
  N     -1.929110    2.322230   -5.995000
  C      1.589520   -0.880810   -1.846070
  C      1.459640   -1.525670   -0.629180
  C      2.670910   -2.071270   -0.206420
  C      3.722200   -1.836140   -1.111270
  S      3.222610   -0.946820   -2.477040
  C      4.906620   -2.426490   -0.599120
  C      4.601790   -3.035580    0.632310
  C      3.189460   -2.832940    0.919910
  C      2.500740   -3.266590    2.013000
  C      1.123240   -3.012090    2.189550
  N      0.005450   -2.811530    2.343650
  C      3.120700   -4.002810    3.045980
  N      3.620450   -4.600650    3.886310
  C      5.707190   -3.648970    1.218630
  C      6.840330   -3.506250    0.438160
  S      6.547230   -2.606730   -1.035530
  C      8.143110   -3.991200    0.697190
  N      9.153930   -3.809880   -0.102610
  C     10.253150   -4.375420    0.390680
  C     10.121110   -5.032820    1.628010
  S      8.498890   -4.914180    2.180750
  N     11.219270   -5.599960    2.121310
  C     12.230950   -5.421470    1.322820
  S     11.873880   -4.495770   -0.161180
  C     13.530090   -5.917610    1.589100
  C     13.911390   -6.645010    2.704650
  C     15.262060   -6.982730    2.658730
  C     15.904760   -6.507210    1.500960
  S     14.849850   -5.646670    0.472160
  C     17.266250   -6.900440    1.546100
  C     17.486980   -7.625370    2.731540
  C     16.235430   -7.700490    3.470300
  C     16.019530   -8.312360    4.668370
  C     14.754430   -8.319790    5.295840
  N     13.733060   -8.332680    5.815290
  C     17.045830   -8.983160    5.369050
  N     17.870930   -9.530250    5.946300
  C     18.806160   -8.056840    2.863940
  C     19.581200   -7.662640    1.788160
  S     18.675520   -6.749660    0.598450
  C     20.962810   -7.937720    1.613040
  N     21.678000   -8.612890    2.464090
  C     22.947370   -8.738010    2.079010
  C     23.265740   -8.142920    0.876150
  S     21.859780   -7.381310    0.201880
  C     24.506350   -8.116660    0.238750
  N     25.528750   -8.097440   -0.281930
  H     -2.509760    0.650290   -2.725270
  H      0.521830   -1.576400   -0.107760
  H      5.708030   -4.173710    2.157010
  H     13.217600   -6.895810    3.485360
  H     19.211340   -8.624960    3.680650
  H     23.641930   -9.276460    2.698170

 Total Charge           Charge          ....    0
 Multiplicity           Mult            ....    1
 Number of Electrons    NEL             ....  420
 Basis Dimension        Dim             ....  818

ORBITAL ENERGIES
----------------

  NO   OCC          E(Eh)            E(eV)
   0   2.0000     -89.008153     -2422.0350
   1   2.0000     -89.007571     -2422.0191
   2   2.0000     -89.007231     -2422.0099
   3   2.0000     -89.003227     -2421.9009
   4   2.0000     -88.995226     -2421.6832
   5   2.0000     -88.994767     -2421.6707
   6   2.0000     -88.988235     -2421.4930
   7   2.0000     -88.986951     -2421.4580
   8   2.0000     -14.442059      -392.9884
   9   2.0000     -14.440116      -392.9355
  10   2.0000     -14.440061      -392.9340
  11   2.0000     -14.438707      -392.8972
  12   2.0000     -14.438620      -392.8948
  13   2.0000     -14.438438      -392.8899
  14   2.0000     -14.433313      -392.7504
  15   2.0000     -14.432918      -392.7397
  16   2.0000     -14.417515      -392.3205
  17   2.0000     -14.417169      -392.3111
  18   2.0000     -10.376976      -282.3719
  19   2.0000     -10.376493      -282.3587
  20   2.0000     -10.373158      -282.2680
  21   2.0000     -10.372803      -282.2583
  22   2.0000     -10.370309      -282.1904
  23   2.0000     -10.369831      -282.1774
  24   2.0000     -10.362988      -281.9912
  25   2.0000     -10.362754      -281.9849
  26   2.0000     -10.350763      -281.6586
  27   2.0000     -10.349938      -281.6361
  28   2.0000     -10.348438      -281.5953
  29   2.0000     -10.348004      -281.5835
  30   2.0000     -10.347678      -281.5746
  31   2.0000     -10.345685      -281.5204
  32   2.0000     -10.345610      -281.5184
  33   2.0000     -10.345304      -281.5100
  34   2.0000     -10.339822      -281.3608
  35   2.0000     -10.339652      -281.3562
  36   2.0000     -10.339460      -281.3510
  37   2.0000     -10.339267      -281.3457
  38   2.0000     -10.338940      -281.3369
  39   2.0000     -10.338033      -281.3122
  40   2.0000     -10.337990      -281.3110
  41   2.0000     -10.337924      -281.3092
  42   2.0000     -10.337013      -281.2844
  43   2.0000     -10.336651      -281.2746
  44   2.0000     -10.320605      -280.8379
  45   2.0000     -10.320259      -280.8285
  46   2.0000     -10.318583      -280.7829
  47   2.0000     -10.318341      -280.7763
  48   2.0000     -10.318125      -280.7705
  49   2.0000     -10.317754      -280.7604
  50   2.0000     -10.317623      -280.7568
  51   2.0000     -10.317132      -280.7434
  52   2.0000     -10.316743      -280.7328
  53   2.0000     -10.314901      -280.6827
  54   2.0000      -8.102912      -220.4914
  55   2.0000      -8.102354      -220.4763
  56   2.0000      -8.101901      -220.4639
  57   2.0000      -8.097459      -220.3430
  58   2.0000      -8.091242      -220.1739
  59   2.0000      -8.090817      -220.1623
  60   2.0000      -8.084306      -219.9851
  61   2.0000      -8.082688      -219.9411
  62   2.0000      -6.072164      -165.2320
  63   2.0000      -6.071593      -165.2165
  64   2.0000      -6.071151      -165.2044
  65   2.0000      -6.067991      -165.1184
  66   2.0000      -6.067430      -165.1032
  67   2.0000      -6.067007      -165.0917
  68   2.0000      -6.066782      -165.0855
  69   2.0000      -6.065246      -165.0437
  70   2.0000      -6.064689      -165.0286
  71   2.0000      -6.064247      -165.0165
  72   2.0000      -6.062470      -164.9682
  73   2.0000      -6.060486      -164.9142
  74   2.0000      -6.060043      -164.9022
  75   2.0000      -6.059779      -164.8950
  76   2.0000      -6.056354      -164.8018
  77   2.0000      -6.055948      -164.7907
  78   2.0000      -6.053508      -164.7243
  79   2.0000      -6.053249      -164.7173
  80   2.0000      -6.052813      -164.7054
  81   2.0000      -6.051880      -164.6800
  82   2.0000      -6.049802      -164.6235
  83   2.0000      -6.048204      -164.5800
  84   2.0000      -6.045962      -164.5190
  85   2.0000      -6.044336      -164.4747
  86   2.0000      -1.113613       -30.3029
  87   2.0000      -1.094897       -29.7937
  88   2.0000      -1.094520       -29.7834
  89   2.0000      -1.074960       -29.2511
  90   2.0000      -1.058156       -28.7939
  91   2.0000      -1.056810       -28.7573
  92   2.0000      -1.031626       -28.0720
  93   2.0000      -1.031147       -28.0589
  94   2.0000      -1.016785       -27.6681
  95   2.0000      -1.016140       -27.6506
  96   2.0000      -1.012692       -27.5568
  97   2.0000      -1.010863       -27.5070
  98   2.0000      -1.001523       -27.2528
  99   2.0000      -1.001178       -27.2434
 100   2.0000      -0.972543       -26.4643
 101   2.0000      -0.971440       -26.4342
 102   2.0000      -0.938326       -25.5331
 103   2.0000      -0.931407       -25.3449
 104   2.0000      -0.928842       -25.2751
 105   2.0000      -0.928433       -25.2640
 106   2.0000      -0.924396       -25.1541
 107   2.0000      -0.902836       -24.5674
 108   2.0000      -0.890930       -24.2434
 109   2.0000      -0.888206       -24.1693
 110   2.0000      -0.885605       -24.0985
 111   2.0000      -0.878008       -23.8918
 112   2.0000      -0.869682       -23.6652
 113   2.0000      -0.867736       -23.6123
 114   2.0000      -0.856384       -23.3034
 115   2.0000      -0.831650       -22.6303
 116   2.0000      -0.801817       -21.8186
 117   2.0000      -0.792772       -21.5724
 118   2.0000      -0.790405       -21.5080
 119   2.0000      -0.782070       -21.2812
 120   2.0000      -0.753831       -20.5128
 121   2.0000      -0.742223       -20.1969
 122   2.0000      -0.730929       -19.8896
 123   2.0000      -0.723448       -19.6860
 124   2.0000      -0.714963       -19.4551
 125   2.0000      -0.707270       -19.2458
 126   2.0000      -0.695731       -18.9318
 127   2.0000      -0.692708       -18.8495
 128   2.0000      -0.689177       -18.7535
 129   2.0000      -0.680698       -18.5227
 130   2.0000      -0.666686       -18.1415
 131   2.0000      -0.654657       -17.8141
 132   2.0000      -0.652496       -17.7553
 133   2.0000      -0.642011       -17.4700
 134   2.0000      -0.640525       -17.4296
 135   2.0000      -0.634734       -17.2720
 136   2.0000      -0.629152       -17.1201
 137   2.0000      -0.624855       -17.0032
 138   2.0000      -0.621659       -16.9162
 139   2.0000      -0.613095       -16.6832
 140   2.0000      -0.594400       -16.1744
 141   2.0000      -0.578913       -15.7530
 142   2.0000      -0.568976       -15.4826
 143   2.0000      -0.567964       -15.4551
 144   2.0000      -0.562567       -15.3082
 145   2.0000      -0.562460       -15.3053
 146   2.0000      -0.558378       -15.1942
 147   2.0000      -0.552110       -15.0237
 148   2.0000      -0.550708       -14.9855
 149   2.0000      -0.543492       -14.7892
 150   2.0000      -0.542493       -14.7620
 151   2.0000      -0.541349       -14.7309
 152   2.0000      -0.532554       -14.4915
 153   2.0000      -0.529087       -14.3972
 154   2.0000      -0.524563       -14.2741
 155   2.0000      -0.521098       -14.1798
 156   2.0000      -0.513713       -13.9788
 157   2.0000      -0.510066       -13.8796
 158   2.0000      -0.508809       -13.8454
 159   2.0000      -0.508637       -13.8407
 160   2.0000      -0.506731       -13.7888
 161   2.0000      -0.499675       -13.5968
 162   2.0000      -0.494801       -13.4642
 163   2.0000      -0.491016       -13.3612
 164   2.0000      -0.488236       -13.2856
 165   2.0000      -0.482547       -13.1308
 166   2.0000      -0.482295       -13.1239
 167   2.0000      -0.478343       -13.0164
 168   2.0000      -0.469724       -12.7818
 169   2.0000      -0.469314       -12.7707
 170   2.0000      -0.467405       -12.7187
 171   2.0000      -0.466608       -12.6971
 172   2.0000      -0.465647       -12.6709
 173   2.0000      -0.465260       -12.6604
 174   2.0000      -0.459493       -12.5034
 175   2.0000      -0.457334       -12.4447
 176   2.0000      -0.455288       -12.3890
 177   2.0000      -0.455082       -12.3834
 178   2.0000      -0.448756       -12.2113
 179   2.0000      -0.448598       -12.2070
 180   2.0000      -0.447875       -12.1873
 181   2.0000      -0.447625       -12.1805
 182   2.0000      -0.445941       -12.1347
 183   2.0000      -0.445655       -12.1269
 184   2.0000      -0.440648       -11.9906
 185   2.0000      -0.435479       -11.8500
 186   2.0000      -0.434548       -11.8247
 187   2.0000      -0.427926       -11.6445
 188   2.0000      -0.422152       -11.4873
 189   2.0000      -0.422096       -11.4858
 190   2.0000      -0.421769       -11.4769
 191   2.0000      -0.412787       -11.2325
 192   2.0000      -0.401668       -10.9299
 193   2.0000      -0.396325       -10.7846
 194   2.0000      -0.390676       -10.6308
 195   2.0000      -0.380680       -10.3588
 196   2.0000      -0.380277       -10.3479
 197   2.0000      -0.372893       -10.1469
 198   2.0000      -0.372512       -10.1366
 199   2.0000      -0.366540        -9.9741
 200   2.0000      -0.365836        -9.9549
 201   2.0000      -0.363335        -9.8868
 202   2.0000      -0.360654        -9.8139
 203   2.0000      -0.345419        -9.3993
 204   2.0000      -0.340780        -9.2731
 205   2.0000      -0.335309        -9.1242
 206   2.0000      -0.332894        -9.0585
 207   2.0000      -0.310867        -8.4591
 208   2.0000      -0.282959        -7.6997
 209   2.0000      -0.257135        -6.9970
 210   0.0000      -0.121181        -3.2975
 211   0.0000      -0.116404        -3.1675
 212   0.0000      -0.078914        -2.1474
 213   0.0000      -0.066343        -1.8053
 214   0.0000      -0.052172        -1.4197

MULLIKEN ATOMIC CHARGES
-----------------------
   0 C :   -0.103201
   1 N :   -0.051292
   2 C :    0.112167
   3 C :   -0.250864
   4 S :    0.167792
   5 C :   -0.135309
   6 N :    0.130941
   7 C :   -0.030328
   8 C :   -0.032893
   9 C :    0.017127
  10 C :   -0.094815
  11 S :    0.206066
  12 C :   -0.105133
  13 C :    0.014625
  14 C :    0.297376
  15 C :   -0.292027
  16 C :   -0.193159
  17 N :    0.189636
  18 C :   -0.189713
  19 N :    0.180676
  20 C :   -0.047799
  21 C :   -0.047292
  22 S :    0.252859
  23 C :   -0.106859
  24 N :   -0.041632
  25 C :   -0.057817
  26 C :   -0.051754
  27 S :    0.142698
  28 N :   -0.019872
  29 C :   -0.110149
  30 S :    0.124050
  31 C :   -0.036846
  32 C :   -0.037853
  33 C :    0.018143
  34 C :   -0.094644
  35 S :    0.201179
  36 C :   -0.091745
  37 C :    0.013701
  38 C :    0.296087
  39 C :   -0.289759
  40 C :   -0.192330
  41 N :    0.187637
  42 C :   -0.192841
  43 N :    0.190642
  44 C :   -0.031954
  45 C :   -0.030460
  46 S :    0.204053
  47 C :   -0.103860
  48 N :   -0.050558
  49 C :    0.112205
  50 C :   -0.252347
  51 S :    0.167808
  52 C :   -0.133841
  53 N :    0.131021
  54 H :    0.020404
  55 H :    0.027015
  56 H :    0.019883
  57 H :    0.026431
  58 H :    0.027686
  59 H :    0.021037
Sum of atomic charges:   -0.0000000

LOEWDIN ATOMIC CHARGES
----------------------
   0 C :   -0.129554
   1 N :   -0.090180
   2 C :    0.020642
   3 C :   -0.242591
   4 S :    0.438311
   5 C :   -0.056939
   6 N :   -0.042084
   7 C :   -0.203998
   8 C :    0.007682
   9 C :   -0.068040
  10 C :   -0.170734
  11 S :    0.481665
  12 C :   -0.180825
  13 C :   -0.065194
  14 C :    0.077480
  15 C :   -0.093436
  16 C :   -0.019566
  17 N :   -0.020632
  18 C :   -0.017094
  19 N :   -0.025707
  20 C :   -0.023453
  21 C :   -0.193272
  22 S :    0.516218
  23 C :   -0.134134
  24 N :   -0.109611
  25 C :   -0.210584
  26 C :   -0.207532
  27 S :    0.427734
  28 N :   -0.092764
  29 C :   -0.132876
  30 S :    0.402276
  31 C :   -0.196267
  32 C :    0.000414
  33 C :   -0.062370
  34 C :   -0.180570
  35 S :    0.480106
  36 C :   -0.171299
  37 C :   -0.067757
  38 C :    0.076028
  39 C :   -0.089847
  40 C :   -0.018900
  41 N :   -0.020037
  42 C :   -0.019088
  43 N :   -0.019946
  44 C :    0.007803
  45 C :   -0.203790
  46 S :    0.479695
  47 C :   -0.129786
  48 N :   -0.089959
  49 C :    0.020753
  50 C :   -0.242505
  51 S :    0.438146
  52 C :   -0.056966
  53 N :   -0.041951
  54 H :    0.038599
  55 H :    0.050207
  56 H :    0.039609
  57 H :    0.049456
  58 H :    0.050339
  59 H :    0.038675

  Mayer bond orders larger than 0.100000
B(  0-C ,  1-N ) :   1.7258 B(  0-C ,  3-C ) :   0.1158 B(  0-C ,  4-S ) :   1.1175
B(  0-C ,  7-C ) :   1.0710 B(  1-N ,  2-C ) :   1.3956 B(  2-C ,  3-C ) :   1.5025
B(  2-C , 54-H ) :   0.9961 B(  3-C ,  4-S ) :   1.1164 B(  3-C ,  5-C ) :   1.1806
B(  5-C ,  6-N ) :   3.0126 B(  7-C ,  8-C ) :   1.4725 B(  7-C , 11-S ) :   1.0988
B(  8-C ,  9-C ) :   1.2691 B(  8-C , 55-H ) :   1.0095 B(  9-C , 10-C ) :   1.4322
B(  9-C , 14-C ) :   0.9877 B( 10-C , 11-S ) :   1.1421 B( 10-C , 12-C ) :   1.1933
B( 12-C , 13-C ) :   1.4362 B( 12-C , 22-S ) :   1.1251 B( 13-C , 14-C ) :   0.9965
B( 13-C , 20-C ) :   1.3158 B( 14-C , 15-C ) :   1.7235 B( 15-C , 16-C ) :   1.1346
B( 15-C , 18-C ) :   1.1333 B( 16-C , 17-N ) :   2.9995 B( 18-C , 19-N ) :   2.9932
B( 20-C , 21-C ) :   1.4601 B( 20-C , 56-H ) :   0.9826 B( 21-C , 22-S ) :   1.1088
B( 21-C , 23-C ) :   1.1494 B( 23-C , 24-N ) :   1.7172 B( 23-C , 27-S ) :   1.0966
B( 24-N , 25-C ) :   1.4044 B( 25-C , 26-C ) :   1.2997 B( 25-C , 30-S ) :   1.0991
B( 26-C , 27-S ) :   1.0974 B( 26-C , 28-N ) :   1.3987 B( 28-N , 29-C ) :   1.7358
B( 28-N , 30-S ) :   0.1006 B( 29-C , 30-S ) :   1.0791 B( 29-C , 31-C ) :   1.1042
B( 31-C , 32-C ) :   1.4719 B( 31-C , 35-S ) :   1.1054 B( 32-C , 33-C ) :   1.2747
B( 32-C , 57-H ) :   1.0091 B( 33-C , 34-C ) :   1.4311 B( 33-C , 38-C ) :   0.9875
B( 34-C , 35-S ) :   1.1317 B( 34-C , 36-C ) :   1.1967 B( 36-C , 37-C ) :   1.4309
B( 36-C , 46-S ) :   1.1402 B( 37-C , 38-C ) :   0.9897 B( 37-C , 44-C ) :   1.2686
B( 38-C , 39-C ) :   1.7293 B( 39-C , 40-C ) :   1.1340 B( 39-C , 42-C ) :   1.1320
B( 40-C , 41-N ) :   2.9980 B( 42-C , 43-N ) :   2.9999 B( 44-C , 45-C ) :   1.4732
B( 44-C , 58-H ) :   1.0088 B( 45-C , 46-S ) :   1.0983 B( 45-C , 47-C ) :   1.0705
B( 47-C , 48-N ) :   1.7268 B( 47-C , 50-C ) :   0.1162 B( 47-C , 51-S ) :   1.1175
B( 48-N , 49-C ) :   1.3958 B( 49-C , 50-C ) :   1.5026 B( 49-C , 59-H ) :   0.9958
B( 50-C , 51-S ) :   1.1168 B( 50-C , 52-C ) :   1.1795 B( 52-C , 53-N ) :   3.0120

-----------------------------------------------------------------------------
         ABSORPTION SPECTRUM VIA TRANSITION ELECTRIC DIPOLE MOMENTS
-----------------------------------------------------------------------------
State   Energy  Wavelength   fosc         T2         TX        TY        TZ
        (cm-1)    (nm)                  (au**2)     (au)      (au)      (au)
-----------------------------------------------------------------------------
   0   13193.6    757.9   0.508057479  12.67729  -3.26049   1.24987  -0.69591
   1   13838.0    722.6   0.010478768   0.24929  -0.22285  -0.16235   0.41627
   2   21843.6    457.8   1.453595149  21.90756  -4.26787   1.66281  -0.96327
   3   22441.5    445.6   0.070837148   1.03916   0.97538  -0.29169   0.05203
   4   24212.3    413.0   1.137145567  15.46165   3.59760  -1.38316   0.77832
   5   27512.6    363.5   0.320145263   3.83082  -0.73749  -0.70840   1.66886
   6   28944.6    345.5   0.024074579   0.27382  -0.38162   0.24519  -0.26090
   7   29605.4    337.8   0.062632537   0.69647   0.31792   0.30701  -0.70792
   8   30453.3    328.4   0.020005915   0.21627  -0.41580   0.17412  -0.11430
   9   31586.5    316.6   0.869082825   9.05807   0.93923   1.20745  -2.59190
  10   31810.4    314.4   0.137401592   1.42200   1.12636  -0.07200  -0.38488
  11   31987.7    312.6   0.073381063   0.75522   0.65641   0.13255  -0.55387
  12   32787.7    305.0   0.402410430   4.04049  -1.09341   1.03064  -1.33519
  13   33165.4    301.5   0.189024884   1.87633   1.21535   0.02516  -0.63136
  14   33950.0    294.6   0.219145076   2.12504   1.08004   0.24234  -0.94859
  15   35019.0    285.6   0.063950712   0.60120  -0.27427   0.40211  -0.60356
  16   35324.2    283.1   0.144165511   1.34358   1.07539  -0.38896   0.18930
  17   35692.8    280.2   0.028468858   0.26258   0.15057  -0.26983   0.40878
  18   35832.3    279.1   0.000089034   0.00082   0.00066  -0.02554  -0.01286
  19   36453.0    274.3   0.078292380   0.70707   0.51695  -0.42496   0.50916
  20   36537.3    273.7   0.038971789   0.35115  -0.55565   0.02393   0.20451
  21   38031.9    262.9   0.102473251   0.88703  -0.72620  -0.13286   0.58482
  22   38267.3    261.3   0.119811627   1.03073  -0.41723   0.53140  -0.75780
  23   38553.6    259.4   0.000293305   0.00250   0.01098   0.04258   0.02390
  24   38716.1    258.3   0.094384443   0.80257   0.38396   0.31294  -0.74647
  25   39142.8    255.5   0.010618861   0.08931  -0.03283   0.15141  -0.25555
  26   40305.1    248.1   0.054026853   0.44129  -0.31320  -0.22237   0.54199

FINAL SINGLE POINT ENERGY     -5104.954012106264

DIPOLE MOMENT
-------------
                                X             Y             Z
Electronic contribution:      2.86036       3.27096      -7.01032
Nuclear contribution   :     -2.23045      -2.59044       5.53065
                        -----------------------------------------
Total Dipole Moment    :      0.62991       0.68052      -1.47967
                        -----------------------------------------
Magnitude (a.u.)       :      1.74623
Magnitude (Debye)      :      4.43856

Rotational constants in cm-1:     0.003703     0.000280     0.000260
Rotational constants in MHz :   110.999883     8.398185     7.807539

                             ****ORCA TERMINATED NORMALLY****
TOTAL RUN TIME: 0 days 0 hours 4 minutes 20 seconds 804 msec
