                         Program Version 4.2.0 -  RELEASE  -
|  1> # ORCA input file
|  2> # SCF done       -148.365233831000          0.000366862163
|  3> ! CAM-B3LYP def2-SVP def2/J RIJCOSX Grid4 TightSCF
|  4> %maxcore 5000
|  5> %tddft
|  6>     Mode sTDDFT
|  7>     Ethresh 5.0
|  8>     maxcore 5000
|  9> end
| 10>
| 11> %pal
| 12>   nprocs 6
| 13>   end
| 14> * xyz 0 1
| 15>    C        9.35261        -5.15823        -1.51091
| 16>    N       10.47096        -4.94529        -0.88856
| 17>    C       11.52469        -5.44420        -1.52713
| 18>    C       11.24537        -6.08818        -2.71768
| 19>    S        9.54273        -6.04810        -3.02952
| 20>    C       12.14979        -6.70111        -3.58515
| 21>    N       12.89872        -7.20689        -4.29263
| 22>    C        8.06985        -4.75205        -1.06633
| 23>    C        6.81666        -4.96804        -1.78494
| 24>    N        5.76215        -4.52136        -1.16298
| 25>    C        6.22515        -3.97961        -0.00405
| 26>    C        7.68527        -4.09661         0.08534
| 27>    C        8.15167        -3.55296         1.33932
| 28>    S        9.70088        -3.54311         1.88838
| 29>    C        6.95362        -3.09501         2.00079
| 30>    C        5.78478        -3.38228         1.15275
| 31>    N        4.63052        -3.02047         1.77576
| 32>    C        4.99509        -2.57746         2.94555
| 33>    C        6.43997        -2.59143         3.17963
| 34>    C        7.06787        -2.14480         4.39173
| 35>    C        6.37665        -2.22241         5.58799
| 36>    C        6.99930        -1.84430         6.78814
| 37>    C        6.55854        -1.87597         8.11181
| 38>    C        5.24322        -2.31615         8.65535
| 39>    C        4.08826        -1.48497         8.07124
| 40>    N        4.35729        -0.07423         8.28256
| 41>    C        5.02512        -3.82518         8.43402
| 42>    N        6.00700        -4.55835         9.21262
| 43>    C        7.65533        -1.40548         8.92278
| 44>    C        7.78923        -1.31973        10.25982
| 45>    C        9.05520        -0.84098        10.88346
| 46>    C       10.10120        -0.40312         9.91379
| 47>    C        9.96345        -0.52938         8.57957
| 48>    C        8.76645        -1.04977         8.03418
| 49>    C        8.36284        -1.33386         6.74113
| 50>    C        9.03052        -1.23287         5.50133
| 51>    C        8.40315        -1.63696         4.36556
| 52>    C        8.70805         0.18750        11.93108
| 53>    C        8.96966         1.49294        11.82170
| 54>    C        8.63661         2.46609        12.81779
| 55>    C        7.93742         2.26012        14.08756
| 56>    N        7.77922         3.34297        14.79902
| 57>    C        8.35404         4.34154        14.07419
| 58>    C        8.90021         3.81599        12.81331
| 59>    C        9.51621         4.87677        12.05585
| 60>    S       10.26498         4.74985        10.59993
| 61>    C        9.33237         6.04736        12.87762
| 62>    C        8.61531         5.69003        14.11380
| 63>    N        8.44159         6.78119        14.90698
| 64>    C        8.99291         7.77221        14.26446
| 65>    C        9.57943         7.40075        12.97973
| 66>    C       10.23920         8.28390        12.08942
| 67>    N       10.74573         7.95708        10.94044
| 68>    C       11.30968         8.98265        10.31045
| 69>    C       11.25646        10.19076        10.97986
| 70>    S       10.43965         9.99569        12.49390
| 71>    C       11.76445        11.41973        10.55823
| 72>    N       12.18386        12.42825        10.20613
| 73>    H       12.50821        -5.32991        -1.10819
| 74>    H        6.73011        -5.44568        -2.74568
| 75>    H        4.25709        -2.19742         3.63056
| 76>    H        5.37514        -2.62317         5.59957
| 77>    H        5.25116        -2.15843         9.73805
| 78>    H        3.14546        -1.83077         8.53005
| 79>    H        4.01341        -1.64523         6.99439
| 80>    H        4.37843         0.14006         9.27406
| 81>    H        3.63428         0.49475         7.85761
| 82>    H        5.06315        -4.04925         7.35691
| 83>    H        4.03346        -4.10019         8.80397
| 84>    H        6.93910        -4.38845         8.84791
| 85>    H        5.82883        -5.55504         9.16722
| 86>    H        6.99461        -1.60444        10.93519
| 87>    H        9.46986        -1.70339        11.43644
| 88>    H       11.00696        -0.00517        10.34505
| 89>    H       10.75869        -0.23115         7.91286
| 90>    H       10.03633        -0.84278         5.46647
| 91>    H        8.90282        -1.57323         3.41278
| 92>    H        8.19169        -0.20085        12.79778
| 93>    H        9.47240         1.87944        10.94505
| 94>    H        7.55965         1.32199        14.45402
| 95>    H        8.99330         8.76578        14.67892
| 96>    H       11.76407         8.83500         9.34734
| 97> *
| 98>
| 99>                          ****END OF INPUT****

CARTESIAN COORDINATES (ANGSTROEM)
---------------------------------
  C      9.352610   -5.158230   -1.510910
  N     10.470960   -4.945290   -0.888560
  C     11.524690   -5.444200   -1.527130
  C     11.245370   -6.088180   -2.717680
  S      9.542730   -6.048100   -3.029520
  C     12.149790   -6.701110   -3.585150
  N     12.898720   -7.206890   -4.292630
  C      8.069850   -4.752050   -1.066330
  C      6.816660   -4.968040   -1.784940
  N      5.762150   -4.521360   -1.162980
  C      6.225150   -3.979610   -0.004050
  C      7.685270   -4.096610    0.085340
  C      8.151670   -3.552960    1.339320
  S      9.700880   -3.543110    1.888380
  C      6.953620   -3.095010    2.000790
  C      5.784780   -3.382280    1.152750
  N      4.630520   -3.020470    1.775760
  C      4.995090   -2.577460    2.945550
  C      6.439970   -2.591430    3.179630
  C      7.067870   -2.144800    4.391730
  C      6.376650   -2.222410    5.587990
  C      6.999300   -1.844300    6.788140
  C      6.558540   -1.875970    8.111810
  C      5.243220   -2.316150    8.655350
  C      4.088260   -1.484970    8.071240
  N      4.357290   -0.074230    8.282560
  C      5.025120   -3.825180    8.434020
  N      6.007000   -4.558350    9.212620
  C      7.655330   -1.405480    8.922780
  C      7.789230   -1.319730   10.259820
  C      9.055200   -0.840980   10.883460
  C     10.101200   -0.403120    9.913790
  C      9.963450   -0.529380    8.579570
  C      8.766450   -1.049770    8.034180
  C      8.362840   -1.333860    6.741130
  C      9.030520   -1.232870    5.501330
  C      8.403150   -1.636960    4.365560
  C      8.708050    0.187500   11.931080
  C      8.969660    1.492940   11.821700
  C      8.636610    2.466090   12.817790
  C      7.937420    2.260120   14.087560
  N      7.779220    3.342970   14.799020
  C      8.354040    4.341540   14.074190
  C      8.900210    3.815990   12.813310
  C      9.516210    4.876770   12.055850
  S     10.264980    4.749850   10.599930
  C      9.332370    6.047360   12.877620
  C      8.615310    5.690030   14.113800
  N      8.441590    6.781190   14.906980
  C      8.992910    7.772210   14.264460
  C      9.579430    7.400750   12.979730
  C     10.239200    8.283900   12.089420
  N     10.745730    7.957080   10.940440
  C     11.309680    8.982650   10.310450
  C     11.256460   10.190760   10.979860
  S     10.439650    9.995690   12.493900
  C     11.764450   11.419730   10.558230
  N     12.183860   12.428250   10.206130
  H     12.508210   -5.329910   -1.108190
  H      6.730110   -5.445680   -2.745680
  H      4.257090   -2.197420    3.630560
  H      5.375140   -2.623170    5.599570
  H      5.251160   -2.158430    9.738050
  H      3.145460   -1.830770    8.530050
  H      4.013410   -1.645230    6.994390
  H      4.378430    0.140060    9.274060
  H      3.634280    0.494750    7.857610
  H      5.063150   -4.049250    7.356910
  H      4.033460   -4.100190    8.803970
  H      6.939100   -4.388450    8.847910
  H      5.828830   -5.555040    9.167220
  H      6.994610   -1.604440   10.935190
  H      9.469860   -1.703390   11.436440
  H     11.006960   -0.005170   10.345050
  H     10.758690   -0.231150    7.912860
  H     10.036330   -0.842780    5.466470
  H      8.902820   -1.573230    3.412780
  H      8.191690   -0.200850   12.797780
  H      9.472400    1.879440   10.945050
  H      7.559650    1.321990   14.454020
  H      8.993300    8.765780   14.678920
  H     11.764070    8.835000    9.347340

 Total Charge           Charge          ....    0
 Multiplicity           Mult            ....    1
 Number of Electrons    NEL             ....  422
 Basis Dimension        Dim             ....  948

ORBITAL ENERGIES
----------------

  NO   OCC          E(Eh)            E(eV)
   0   2.0000     -88.993969     -2421.6490
   1   2.0000     -88.986779     -2421.4534
   2   2.0000     -88.906174     -2419.2600
   3   2.0000     -88.894988     -2418.9556
   4   2.0000     -14.430378      -392.6706
   5   2.0000     -14.427279      -392.5862
   6   2.0000     -14.427194      -392.5839
   7   2.0000     -14.422639      -392.4599
   8   2.0000     -14.418409      -392.3448
   9   2.0000     -14.418235      -392.3401
  10   2.0000     -14.417631      -392.3237
  11   2.0000     -14.412858      -392.1938
  12   2.0000     -14.384151      -391.4127
  13   2.0000     -14.382451      -391.3664
  14   2.0000     -10.367491      -282.1138
  15   2.0000     -10.360377      -281.9202
  16   2.0000     -10.349525      -281.6249
  17   2.0000     -10.348709      -281.6027
  18   2.0000     -10.348250      -281.5902
  19   2.0000     -10.347205      -281.5618
  20   2.0000     -10.345049      -281.5031
  21   2.0000     -10.341929      -281.4182
  22   2.0000     -10.340335      -281.3748
  23   2.0000     -10.340267      -281.3730
  24   2.0000     -10.339670      -281.3567
  25   2.0000     -10.337995      -281.3111
  26   2.0000     -10.336515      -281.2709
  27   2.0000     -10.335098      -281.2323
  28   2.0000     -10.329611      -281.0830
  29   2.0000     -10.328777      -281.0603
  30   2.0000     -10.321195      -280.8540
  31   2.0000     -10.320917      -280.8464
  32   2.0000     -10.315726      -280.7052
  33   2.0000     -10.315563      -280.7007
  34   2.0000     -10.314356      -280.6679
  35   2.0000     -10.312275      -280.6113
  36   2.0000     -10.311449      -280.5888
  37   2.0000     -10.306840      -280.4634
  38   2.0000     -10.306299      -280.4487
  39   2.0000     -10.305685      -280.4319
  40   2.0000     -10.305316      -280.4219
  41   2.0000     -10.302450      -280.3439
  42   2.0000     -10.293002      -280.0868
  43   2.0000     -10.292903      -280.0841
  44   2.0000     -10.291727      -280.0521
  45   2.0000     -10.290070      -280.0070
  46   2.0000     -10.289843      -280.0009
  47   2.0000     -10.284834      -279.8646
  48   2.0000     -10.279079      -279.7080
  49   2.0000     -10.276667      -279.6423
  50   2.0000     -10.273611      -279.5592
  51   2.0000     -10.272766      -279.5362
  52   2.0000     -10.271256      -279.4951
  53   2.0000     -10.270758      -279.4815
  54   2.0000     -10.269362      -279.4435
  55   2.0000     -10.266483      -279.3652
  56   2.0000     -10.264769      -279.3186
  57   2.0000     -10.264393      -279.3083
  58   2.0000      -8.089740      -220.1330
  59   2.0000      -8.082574      -219.9380
  60   2.0000      -8.001794      -217.7399
  61   2.0000      -7.990876      -217.4428
  62   2.0000      -6.058857      -164.8699
  63   2.0000      -6.054773      -164.7587
  64   2.0000      -6.051993      -164.6831
  65   2.0000      -6.051704      -164.6752
  66   2.0000      -6.047613      -164.5639
  67   2.0000      -6.044807      -164.4876
  68   2.0000      -5.970983      -162.4787
  69   2.0000      -5.970469      -162.4647
  70   2.0000      -5.960485      -162.1930
  71   2.0000      -5.960083      -162.1821
  72   2.0000      -5.959612      -162.1693
  73   2.0000      -5.949417      -161.8919
  74   2.0000      -1.098380       -29.8885
  75   2.0000      -1.090751       -29.6809
  76   2.0000      -1.089647       -29.6508
  77   2.0000      -1.083087       -29.4723
  78   2.0000      -1.076643       -29.2969
  79   2.0000      -1.067579       -29.0503
  80   2.0000      -1.002203       -27.2713
  81   2.0000      -0.996738       -27.1226
  82   2.0000      -0.990905       -26.9639
  83   2.0000      -0.973406       -26.4877
  84   2.0000      -0.970864       -26.4185
  85   2.0000      -0.963856       -26.2279
  86   2.0000      -0.958650       -26.0862
  87   2.0000      -0.954894       -25.9840
  88   2.0000      -0.929623       -25.2963
  89   2.0000      -0.927056       -25.2265
  90   2.0000      -0.920243       -25.0411
  91   2.0000      -0.917026       -24.9535
  92   2.0000      -0.908392       -24.7186
  93   2.0000      -0.907651       -24.6984
  94   2.0000      -0.880333       -23.9551
  95   2.0000      -0.872580       -23.7441
  96   2.0000      -0.862425       -23.4678
  97   2.0000      -0.853972       -23.2378
  98   2.0000      -0.847984       -23.0748
  99   2.0000      -0.844437       -22.9783
 100   2.0000      -0.839644       -22.8479
 101   2.0000      -0.837587       -22.7919
 102   2.0000      -0.830643       -22.6030
 103   2.0000      -0.804971       -21.9044
 104   2.0000      -0.788676       -21.4610
 105   2.0000      -0.781912       -21.2769
 106   2.0000      -0.764826       -20.8120
 107   2.0000      -0.764329       -20.7985
 108   2.0000      -0.757826       -20.6215
 109   2.0000      -0.747553       -20.3419
 110   2.0000      -0.739846       -20.1322
 111   2.0000      -0.726921       -19.7805
 112   2.0000      -0.722492       -19.6600
 113   2.0000      -0.721270       -19.6268
 114   2.0000      -0.711977       -19.3739
 115   2.0000      -0.701213       -19.0810
 116   2.0000      -0.697784       -18.9877
 117   2.0000      -0.693204       -18.8630
 118   2.0000      -0.685098       -18.6425
 119   2.0000      -0.670301       -18.2398
 120   2.0000      -0.663685       -18.0598
 121   2.0000      -0.657960       -17.9040
 122   2.0000      -0.652637       -17.7591
 123   2.0000      -0.647840       -17.6286
 124   2.0000      -0.643680       -17.5154
 125   2.0000      -0.634494       -17.2655
 126   2.0000      -0.620104       -16.8739
 127   2.0000      -0.609893       -16.5960
 128   2.0000      -0.597137       -16.2489
 129   2.0000      -0.596115       -16.2211
 130   2.0000      -0.591763       -16.1027
 131   2.0000      -0.588863       -16.0238
 132   2.0000      -0.584543       -15.9062
 133   2.0000      -0.579819       -15.7777
 134   2.0000      -0.578180       -15.7331
 135   2.0000      -0.574065       -15.6211
 136   2.0000      -0.564105       -15.3501
 137   2.0000      -0.561845       -15.2886
 138   2.0000      -0.559150       -15.2152
 139   2.0000      -0.557000       -15.1567
 140   2.0000      -0.552985       -15.0475
 141   2.0000      -0.550156       -14.9705
 142   2.0000      -0.549034       -14.9400
 143   2.0000      -0.546532       -14.8719
 144   2.0000      -0.537205       -14.6181
 145   2.0000      -0.537036       -14.6135
 146   2.0000      -0.532528       -14.4908
 147   2.0000      -0.529969       -14.4212
 148   2.0000      -0.529264       -14.4020
 149   2.0000      -0.526008       -14.3134
 150   2.0000      -0.524072       -14.2607
 151   2.0000      -0.518573       -14.1111
 152   2.0000      -0.514710       -14.0060
 153   2.0000      -0.503791       -13.7088
 154   2.0000      -0.503315       -13.6959
 155   2.0000      -0.500889       -13.6299
 156   2.0000      -0.499926       -13.6037
 157   2.0000      -0.495107       -13.4725
 158   2.0000      -0.494126       -13.4459
 159   2.0000      -0.491553       -13.3758
 160   2.0000      -0.490292       -13.3415
 161   2.0000      -0.488686       -13.2978
 162   2.0000      -0.482241       -13.1224
 163   2.0000      -0.481460       -13.1012
 164   2.0000      -0.477081       -12.9820
 165   2.0000      -0.473014       -12.8714
 166   2.0000      -0.469408       -12.7732
 167   2.0000      -0.466613       -12.6972
 168   2.0000      -0.458130       -12.4664
 169   2.0000      -0.453869       -12.3504
 170   2.0000      -0.451646       -12.2899
 171   2.0000      -0.449094       -12.2205
 172   2.0000      -0.446415       -12.1476
 173   2.0000      -0.443068       -12.0565
 174   2.0000      -0.441410       -12.0114
 175   2.0000      -0.440743       -11.9932
 176   2.0000      -0.436498       -11.8777
 177   2.0000      -0.436068       -11.8660
 178   2.0000      -0.433490       -11.7959
 179   2.0000      -0.425840       -11.5877
 180   2.0000      -0.422326       -11.4921
 181   2.0000      -0.418502       -11.3880
 182   2.0000      -0.416632       -11.3371
 183   2.0000      -0.416079       -11.3221
 184   2.0000      -0.404705       -11.0126
 185   2.0000      -0.397205       -10.8085
 186   2.0000      -0.394145       -10.7252
 187   2.0000      -0.378199       -10.2913
 188   2.0000      -0.377958       -10.2848
 189   2.0000      -0.372222       -10.1287
 190   2.0000      -0.371662       -10.1134
 191   2.0000      -0.370922       -10.0933
 192   2.0000      -0.370345       -10.0776
 193   2.0000      -0.365652        -9.9499
 194   2.0000      -0.365000        -9.9322
 195   2.0000      -0.364187        -9.9100
 196   2.0000      -0.358395        -9.7524
 197   2.0000      -0.356101        -9.6900
 198   2.0000      -0.351643        -9.5687
 199   2.0000      -0.332671        -9.0524
 200   2.0000      -0.327135        -8.9018
 201   2.0000      -0.316999        -8.6260
 202   2.0000      -0.309706        -8.4275
 203   2.0000      -0.308383        -8.3915
 204   2.0000      -0.307092        -8.3564
 205   2.0000      -0.298551        -8.1240
 206   2.0000      -0.296607        -8.0711
 207   2.0000      -0.287562        -7.8250
 208   2.0000      -0.285239        -7.7618
 209   2.0000      -0.272104        -7.4043
 210   2.0000      -0.225471        -6.1354
 211   0.0000      -0.125946        -3.4272
 212   0.0000      -0.118602        -3.2273
 213   0.0000      -0.091914        -2.5011
 214   0.0000      -0.086767        -2.3610
 215   0.0000      -0.065373        -1.7789

MULLIKEN ATOMIC CHARGES
-----------------------
   0 C :   -0.165236
   1 N :    0.004360
   2 C :    0.102555
   3 C :   -0.242025
   4 S :    0.157646
   5 C :   -0.132148
   6 N :    0.130655
   7 C :    0.067666
   8 C :    0.046836
   9 N :   -0.023954
  10 C :    0.001813
  11 C :    0.004438
  12 C :   -0.038941
  13 S :   -0.079550
  14 C :   -0.013931
  15 C :    0.007741
  16 N :   -0.028086
  17 C :    0.058548
  18 C :    0.002284
  19 C :    0.073355
  20 C :   -0.106555
  21 C :    0.056621
  22 C :   -0.002238
  23 C :   -0.069962
  24 C :    0.160264
  25 N :   -0.211014
  26 C :    0.154474
  27 N :   -0.230538
  28 C :    0.088380
  29 C :   -0.114815
  30 C :    0.184699
  31 C :   -0.063453
  32 C :    0.026785
  33 C :    0.010400
  34 C :    0.039887
  35 C :   -0.009987
  36 C :    0.018111
  37 C :   -0.103226
  38 C :    0.024794
  39 C :    0.002367
  40 C :    0.061232
  41 N :   -0.026489
  42 C :    0.033577
  43 C :   -0.000152
  44 C :   -0.028355
  45 S :   -0.069968
  46 C :    0.005973
  47 C :   -0.015484
  48 N :   -0.025005
  49 C :    0.051401
  50 C :    0.072256
  51 C :   -0.166254
  52 N :    0.000850
  53 C :    0.105121
  54 C :   -0.242440
  55 S :    0.162270
  56 C :   -0.131627
  57 N :    0.136245
  58 H :    0.017080
  59 H :    0.011463
  60 H :    0.010624
  61 H :   -0.034991
  62 H :   -0.026510
  63 H :   -0.013511
  64 H :   -0.019387
  65 H :    0.085580
  66 H :    0.092351
  67 H :   -0.019121
  68 H :   -0.008654
  69 H :    0.099777
  70 H :    0.093067
  71 H :   -0.004233
  72 H :    0.048963
  73 H :   -0.004363
  74 H :   -0.032207
  75 H :   -0.034197
  76 H :   -0.028144
  77 H :   -0.001956
  78 H :    0.010820
  79 H :    0.010605
  80 H :    0.015353
  81 H :    0.019422
Sum of atomic charges:   -0.0000000

LOEWDIN ATOMIC CHARGES
----------------------
   0 C :   -0.112451
   1 N :   -0.065591
   2 C :    0.018399
   3 C :   -0.239799
   4 S :    0.445543
   5 C :   -0.055809
   6 N :   -0.042989
   7 C :   -0.081200
   8 C :    0.070602
   9 N :   -0.078583
  10 C :    0.020712
  11 C :   -0.000945
  12 C :   -0.148513
  13 S :    0.105291
  14 C :   -0.052273
  15 C :    0.053920
  16 N :   -0.082772
  17 C :    0.097006
  18 C :   -0.019183
  19 C :   -0.029600
  20 C :    0.001966
  21 C :   -0.021581
  22 C :   -0.009767
  23 C :   -0.042297
  24 C :    0.026974
  25 N :   -0.114011
  26 C :    0.029813
  27 N :   -0.121596
  28 C :   -0.015940
  29 C :    0.076027
  30 C :   -0.030844
  31 C :   -0.038712
  32 C :   -0.008918
  33 C :   -0.040746
  34 C :   -0.023752
  35 C :   -0.005788
  36 C :   -0.018551
  37 C :    0.009550
  38 C :   -0.022416
  39 C :   -0.032199
  40 C :    0.099938
  41 N :   -0.082239
  42 C :    0.050544
  43 C :   -0.036773
  44 C :   -0.152144
  45 S :    0.099476
  46 C :    0.000585
  47 C :    0.029022
  48 N :   -0.077114
  49 C :    0.077725
  50 C :   -0.078142
  51 C :   -0.114610
  52 N :   -0.064363
  53 C :    0.019511
  54 C :   -0.236928
  55 S :    0.449077
  56 C :   -0.055921
  57 N :   -0.038729
  58 H :    0.037229
  59 H :    0.021636
  60 H :    0.025871
  61 H :    0.018515
  62 H :    0.022431
  63 H :   -0.000699
  64 H :    0.012511
  65 H :    0.050873
  66 H :    0.055689
  67 H :   -0.000678
  68 H :    0.015218
  69 H :    0.053353
  70 H :    0.055245
  71 H :    0.029810
  72 H :    0.068463
  73 H :    0.026758
  74 H :    0.032181
  75 H :    0.029318
  76 H :    0.015625
  77 H :    0.022115
  78 H :    0.033514
  79 H :    0.025150
  80 H :    0.023600
  81 H :    0.038381

  Mayer bond orders larger than 0.100000
B(  0-C ,  1-N ) :   1.7527 B(  0-C ,  3-C ) :   0.1156 B(  0-C ,  4-S ) :   1.1038
B(  0-C ,  7-C ) :   1.0214 B(  1-N ,  2-C ) :   1.4012 B(  2-C ,  3-C ) :   1.4834
B(  2-C , 58-H ) :   0.9975 B(  3-C ,  4-S ) :   1.1355 B(  3-C ,  5-C ) :   1.1745
B(  5-C ,  6-N ) :   3.0141 B(  7-C ,  8-C ) :   1.0497 B(  7-C , 11-C ) :   1.5402
B(  8-C ,  9-N ) :   1.7271 B(  8-C , 59-H ) :   0.9851 B(  9-N , 10-C ) :   1.2778
B( 10-C , 11-C ) :   1.0701 B( 10-C , 15-C ) :   1.4899 B( 11-C , 12-C ) :   1.0263
B( 12-C , 13-S ) :   1.7478 B( 12-C , 14-C ) :   1.0176 B( 14-C , 15-C ) :   1.0687
B( 14-C , 18-C ) :   1.5327 B( 15-C , 16-N ) :   1.2646 B( 16-N , 17-C ) :   1.7218
B( 17-C , 18-C ) :   1.0314 B( 17-C , 60-H ) :   0.9860 B( 18-C , 19-C ) :   1.0176
B( 19-C , 20-C ) :   1.4883 B( 19-C , 36-C ) :   1.1486 B( 20-C , 21-C ) :   1.1411
B( 20-C , 61-H ) :   0.9842 B( 21-C , 22-C ) :   1.4485 B( 21-C , 34-C ) :   1.1272
B( 22-C , 23-C ) :   1.0191 B( 22-C , 28-C ) :   1.1137 B( 23-C , 24-C ) :   1.0434
B( 23-C , 26-C ) :   1.0377 B( 23-C , 62-H ) :   0.8841 B( 24-C , 25-N ) :   1.0918
B( 24-C , 63-H ) :   0.9376 B( 24-C , 64-H ) :   0.9319 B( 25-N , 65-H ) :   0.9717
B( 25-N , 66-H ) :   0.9682 B( 26-C , 27-N ) :   1.0935 B( 26-C , 67-H ) :   0.9366
B( 26-C , 68-H ) :   0.9349 B( 27-N , 69-H ) :   0.9704 B( 27-N , 70-H ) :   0.9672
B( 28-C , 29-C ) :   1.6840 B( 28-C , 33-C ) :   1.0516 B( 29-C , 30-C ) :   0.9585
B( 29-C , 71-H ) :   0.9623 B( 30-C , 31-C ) :   1.0060 B( 30-C , 37-C ) :   0.9472
B( 30-C , 72-H ) :   0.8377 B( 31-C , 32-C ) :   1.7130 B( 31-C , 73-H ) :   0.9679
B( 32-C , 33-C ) :   1.1294 B( 32-C , 74-H ) :   0.9909 B( 33-C , 34-C ) :   1.4307
B( 34-C , 35-C ) :   1.1407 B( 35-C , 36-C ) :   1.6018 B( 35-C , 75-H ) :   0.9937
B( 36-C , 76-H ) :   0.9711 B( 37-C , 38-C ) :   1.8091 B( 37-C , 77-H ) :   0.9686
B( 38-C , 39-C ) :   1.0802 B( 38-C , 78-H ) :   0.9515 B( 39-C , 40-C ) :   1.0030
B( 39-C , 43-C ) :   1.5453 B( 40-C , 41-N ) :   1.7243 B( 40-C , 79-H ) :   0.9903
B( 41-N , 42-C ) :   1.2634 B( 42-C , 43-C ) :   1.0635 B( 42-C , 47-C ) :   1.5018
B( 43-C , 44-C ) :   1.0073 B( 44-C , 45-S ) :   1.7559 B( 44-C , 46-C ) :   1.0250
B( 46-C , 47-C ) :   1.0727 B( 46-C , 50-C ) :   1.5454 B( 47-C , 48-N ) :   1.2719
B( 48-N , 49-C ) :   1.7266 B( 49-C , 50-C ) :   1.0433 B( 49-C , 80-H ) :   0.9861
B( 50-C , 51-C ) :   1.0200 B( 51-C , 52-N ) :   1.7535 B( 51-C , 54-C ) :   0.1165
B( 51-C , 55-S ) :   1.1060 B( 52-N , 53-C ) :   1.4029 B( 53-C , 54-C ) :   1.4842
B( 53-C , 81-H ) :   0.9969 B( 54-C , 55-S ) :   1.1388 B( 54-C , 56-C ) :   1.1750
B( 56-C , 57-N ) :   3.0152

-----------------------------------------------------------------------------
         ABSORPTION SPECTRUM VIA TRANSITION ELECTRIC DIPOLE MOMENTS
-----------------------------------------------------------------------------
State   Energy  Wavelength   fosc         T2         TX        TY        TZ
        (cm-1)    (nm)                  (au**2)     (au)      (au)      (au)
-----------------------------------------------------------------------------
   0    8497.1   1176.9   0.116040541   4.49586   0.18061  -0.77389  -1.96579
   1    9696.1   1031.3   0.003295508   0.11189  -0.00849   0.33175  -0.04195
   2   12078.1    827.9   0.019561418   0.53319   0.11846  -0.21059  -0.68906
   3   12777.9    782.6   0.000011323   0.00029  -0.00232   0.00877   0.01447
   4   13157.8    760.0   0.033253038   0.83200  -0.75031  -0.45586  -0.24745
   5   15540.1    643.5   0.008477382   0.17959  -0.33355  -0.17544  -0.19380
   6   16303.8    613.4   0.002338385   0.04722  -0.15813  -0.14727   0.02285
   7   16401.7    609.7   0.000057204   0.00115  -0.01058   0.00083  -0.03218
   8   16994.6    588.4   0.103825577   2.01126  -0.26459  -1.33909  -0.38482
   9   17617.0    567.6   0.113356274   2.11831   0.30939  -0.53471  -1.31783
  10   17776.8    562.5   0.120852903   2.23809   0.70680   0.64601   1.14943
  11   20398.5    490.2   0.022722437   0.36672  -0.24793  -0.47934   0.27474
  12   20566.9    486.2   0.009790087   0.15671  -0.33837   0.19709   0.05804
  13   23948.5    417.6   0.088455947   1.21598   0.10700  -0.60818  -0.91359
  14   24112.7    414.7   0.240212476   3.27964   0.55248  -0.66001  -1.59336
  15   24924.4    401.2   0.007317997   0.09666  -0.05519   0.27935  -0.12480
  16   25269.0    395.7   0.146344682   1.90662   0.40460   1.31976   0.03378
  17   25614.3    390.4   0.004866264   0.06254  -0.05490   0.17747   0.16744
  18   25629.3    390.2   0.005936509   0.07626   0.12457  -0.21686   0.11708
  19   25679.6    389.4   0.082733911   1.06065  -0.04554   0.33858   0.97157
  20   25953.1    385.3   0.033209370   0.42126  -0.34895   0.33385   0.43363
  21   26168.7    382.1   0.324569680   4.08320  -0.31190   0.84452   1.80906
  22   26424.5    378.4   0.015212435   0.18953   0.00282  -0.08276  -0.42740
  23   27052.3    369.7   0.469322685   5.71140   0.12475  -1.49953  -1.85667
  24   27437.2    364.5   0.007041079   0.08448  -0.05394   0.03951   0.28287
  25   27925.3    358.1   0.038589914   0.45494  -0.01650  -0.66461  -0.11386
  26   27979.0    357.4   0.475120440   5.59045  -0.04005   2.26389   0.68091
  27   28000.3    357.1   0.345182909   4.05847   1.17928   0.33415  -1.59879
  28   28518.4    350.7   0.041601655   0.48024   0.61473   0.31863   0.02873
  29   29112.2    343.5   0.372526402   4.21267   0.85849   1.73913  -0.67163
  30   29506.3    338.9   0.027390983   0.30561  -0.07545  -0.54654   0.03485
  31   29627.6    337.5   0.143198150   1.59117  -0.07863  -1.25863  -0.02890
  32   30502.1    327.8   0.015040354   0.16233   0.18935   0.32289   0.14907
  33   30620.7    326.6   0.038065026   0.40925  -0.05446  -0.59711  -0.22303
  34   30818.6    324.5   0.015694393   0.16765  -0.10785  -0.21357   0.33228
  35   30924.7    323.4   0.006212333   0.06613  -0.01787  -0.25640  -0.00872
  36   30988.8    322.7   0.031864866   0.33852  -0.08765   0.26976   0.50800
  37   31159.3    320.9   0.001569091   0.01658   0.03800   0.02607  -0.12023
  38   31295.2    319.5   0.013832405   0.14551  -0.06255   0.14196   0.34849
  39   31391.8    318.6   0.016761810   0.17578  -0.24383   0.26537   0.21426
  40   31527.9    317.2   0.000253426   0.00265  -0.03447   0.02044  -0.03225
  41   31931.1    313.2   0.008887047   0.09163   0.02247   0.08050  -0.29093
  42   32120.9    311.3   0.000995378   0.01020   0.01130   0.07157   0.07037
  43   32643.9    306.3   0.002600591   0.02623   0.08869   0.03152   0.13179
  44   32871.9    304.2   0.020382840   0.20413  -0.25510  -0.06861   0.36654
  45   33050.0    302.6   0.015397810   0.15338   0.24637   0.13498  -0.27288
  46   33142.2    301.7   0.055534821   0.55164  -0.38655   0.42468   0.47103
  47   33595.5    297.7   0.007750774   0.07595   0.12339  -0.11172  -0.21965
  48   34087.5    293.4   0.000011723   0.00011  -0.00711  -0.00634   0.00474
  49   34262.9    291.9   0.017028686   0.16362   0.32985  -0.06150  -0.22591
  50   34365.9    291.0   0.001652175   0.01583   0.02301  -0.11105  -0.05447
  51   34668.6    288.4   0.002938781   0.02791  -0.14989  -0.02810   0.06819
  52   34718.7    288.0   0.026778319   0.25392   0.46508   0.06619  -0.18233
  53   34820.4    287.2   0.030566276   0.28899  -0.35527   0.32168   0.24351
  54   35686.2    280.2   0.075387125   0.69546  -0.57490  -0.60117  -0.05956
  55   35967.8    278.0   0.580458237   5.31291  -0.36676  -0.99086  -2.04856
  56   36134.4    276.7   0.186625836   1.70031   0.14499   1.07621   0.72184
  57   36240.0    275.9   0.070347451   0.63905  -0.22487   0.60934  -0.46603
  58   36491.1    274.0   0.001883474   0.01699  -0.11325  -0.05087  -0.03973
  59   36740.5    272.2   0.010674526   0.09565   0.25786   0.00423   0.17070
  60   36823.8    271.6   0.001468107   0.01313   0.03686   0.10637  -0.02124
  61   36867.6    271.2   0.001549072   0.01383   0.08998  -0.00978   0.07510
  62   36933.5    270.8   0.002568463   0.02289   0.09872  -0.05186  -0.10227
  63   37174.6    269.0   0.000386485   0.00342  -0.02999  -0.00736  -0.04969
  64   37340.1    267.8   0.041364397   0.36469  -0.57174   0.03792  -0.19071
  65   37496.0    266.7   0.104033806   0.91341  -0.09810   0.42540   0.85019
  66   37627.5    265.8   0.082313478   0.72018  -0.42132   0.36615   0.63922
  67   37688.4    265.3   0.051740011   0.45195  -0.15538  -0.61504  -0.22258
  68   37832.7    264.3   0.014364717   0.12500   0.13216  -0.32700  -0.02453
  69   37844.5    264.2   0.021229890   0.18468   0.12232   0.41075   0.03165
  70   37937.8    263.6   0.003938566   0.03418  -0.07526  -0.16884  -0.00234
  71   38328.3    260.9   0.220074142   1.89028  -0.00261  -0.42404  -1.30785
  72   38593.1    259.1   0.086809683   0.74052   0.28055  -0.16337  -0.79694
  73   38887.8    257.2   0.077465235   0.65580  -0.61978   0.10234  -0.51108
  74   39390.9    253.9   0.020504496   0.17137  -0.38063   0.01520   0.16204
  75   39528.3    253.0   0.068655167   0.57180   0.16865   0.73535  -0.05106
  76   39590.7    252.6   0.000926532   0.00770  -0.08085   0.00374  -0.03396
  77   39831.6    251.1   0.009761259   0.08068  -0.26112  -0.10224  -0.04515
  78   39894.8    250.7   0.021095670   0.17408   0.31230  -0.04293   0.27332
  79   40244.1    248.5   0.423550681   3.46481  -1.78930  -0.47990  -0.18136

FINAL SINGLE POINT ENERGY     -3827.795806773652

DIPOLE MOMENT
-------------
                                X             Y             Z
Electronic contribution:     28.24791      29.16291     -27.87958
Nuclear contribution   :    -29.80163     -30.01045      30.70907
                        -----------------------------------------
Total Dipole Moment    :     -1.55373      -0.84754       2.82949
                        -----------------------------------------
Magnitude (a.u.)       :      3.33742
Magnitude (Debye)      :      8.48305

Rotational constants in cm-1:     0.001990     0.000359     0.000326
Rotational constants in MHz :    59.671222    10.753760     9.763168

                             ****ORCA TERMINATED NORMALLY****
TOTAL RUN TIME: 0 days 0 hours 41 minutes 21 seconds 133 msec
