                         Program Version 4.2.0 -  RELEASE  -
|  1> # ORCA input file
|  2> # SCF done       -150.035723551014          0.000424750401
|  3> ! CAM-B3LYP def2-SVP def2/J RIJCOSX Grid4 TightSCF
|  4> %maxcore 5000
|  5> %tddft
|  6>     Mode sTDDFT
|  7>     Ethresh 5.0
|  8>     maxcore 5000
|  9> end
| 10>
| 11> %pal
| 12>   nprocs 6
| 13>   end
| 14> * xyz 0 1
| 15>    C        5.07510        -3.15802         3.46712
| 16>    C        5.88499        -2.37134         2.48503
| 17>    C        6.96311        -2.95548         1.82720
| 18>    C        7.74302        -2.23190         0.93655
| 19>    C        7.42563        -0.90770         0.71150
| 20>    C        6.33235        -0.30357         1.35816
| 21>    C        5.56445        -1.03411         2.24452
| 22>    C        6.21795         1.07992         0.89088
| 23>    C        5.10340         1.87413         1.04010
| 24>    C        4.90692         3.06381         0.32145
| 25>    N        4.71521         4.04126        -0.25267
| 26>    C        4.02263         1.57919         1.88918
| 27>    N        3.13462         1.43214         2.60432
| 28>    C        7.38128         1.36932         0.10718
| 29>    C        7.96824         2.53484        -0.32179
| 30>    C        7.76505         3.87691         0.02185
| 31>    C        7.19044         4.36424         1.17409
| 32>    O        6.82069         3.55354         2.18790
| 33>    C        6.46611         4.20523         3.39340
| 34>    C        5.64393         5.44928         3.08765
| 35>    O        6.42187         6.36279         2.34111
| 36>    C        7.07514         5.80277         1.28725
| 37>    C        7.65630         6.52175         0.28942
| 38>    C        7.70879         7.93377         0.11765
| 39>    C        7.19945         8.90536         0.99949
| 40>    N        7.30424        10.18940         0.75839
| 41>    C        7.92208        10.57985        -0.37270
| 42>    C        7.98826        11.99202        -0.53483
| 43>    C        8.47034        12.71405        -1.58318
| 44>    O        8.96700        12.15034        -2.71768
| 45>    C        9.07928        13.03558        -3.81619
| 46>    C        9.69059        14.35762        -3.37354
| 47>    O        8.86042        14.97522        -2.41032
| 48>    C        8.42154        14.15596        -1.42669
| 49>    C        7.84440        14.63032        -0.27855
| 50>    C        7.76411        15.98081         0.12628
| 51>    C        8.54472        17.04376        -0.20239
| 52>    S        9.96767        17.07971        -1.21963
| 53>    C       10.26716        18.80051        -0.84164
| 54>    O       11.18684        19.43943        -1.26934
| 55>    N        9.28938        19.25283        -0.00291
| 56>    C        9.28821        20.62525         0.45270
| 57>    C        8.31505        18.35348         0.40266
| 58>    O        7.41428        18.64702         1.15807
| 59>   Si        7.25405        13.15003         0.76244
| 60>    C        5.35959        13.03523         0.85197
| 61>    C        8.10563        13.08919         2.45773
| 62>    C        8.43964         9.60796        -1.25005
| 63>    N        8.33383         8.32417        -1.00929
| 64>   Si        8.34461         5.35902        -1.02656
| 65>    C       10.23676         5.39803        -1.19370
| 66>    C        7.39150         5.46257        -2.66344
| 67>    C        8.09090         0.08787        -0.15143
| 68>    O        9.03743        -0.08096        -0.88985
| 69>    H        5.16209        -4.22544         3.28101
| 70>    H        4.02706        -2.87135         3.42035
| 71>    H        5.42963        -2.96002         4.47932
| 72>    H        7.19515        -3.99349         2.01670
| 73>    H        8.57906        -2.68409         0.42540
| 74>    H        4.72722        -0.58997         2.76006
| 75>    H        8.77169         2.36752        -1.03426
| 76>    H        7.37667         4.48584         3.93955
| 77>    H        5.89569         3.48086         3.97765
| 78>    H        5.35035         5.96767         4.00123
| 79>    H        4.74905         5.16814         2.51631
| 80>    H        6.70172         8.61920         1.91451
| 81>    H        8.08435        13.21514        -4.24616
| 82>    H        9.70904        12.53203        -4.55118
| 83>    H        9.77060        15.06011        -4.20378
| 84>    H       10.68588        14.18502        -2.94337
| 85>    H        7.00768        16.20834         0.86977
| 86>    H       10.24351        20.85992         0.92207
| 87>    H        8.47561        20.72466         1.17071
| 88>    H        9.13139        21.30096        -0.38867
| 89>    H        4.90434        13.13569        -0.12840
| 90>    H        4.95453        13.81245         1.49147
| 91>    H        5.06807        12.07459         1.26178
| 92>    H        9.18033        13.21624         2.37150
| 93>    H        7.91630        12.13415         2.93507
| 94>    H        7.72741        13.87187         3.10690
| 95>    H        8.94833         9.89437        -2.15909
| 96>    H       10.73147         5.27196        -0.23551
| 97>    H       10.54978         6.34795        -1.61217
| 98>    H       10.58115         4.60979        -1.85472
| 99>    H        6.32915         5.30794        -2.49817
|100>    H        7.73608         4.70999        -3.36534
|101>    H        7.52777         6.43762        -3.11829
|102> *
|103>
|104>                          ****END OF INPUT****

CARTESIAN COORDINATES (ANGSTROEM)
---------------------------------
  C      5.075100   -3.158020    3.467120
  C      5.884990   -2.371340    2.485030
  C      6.963110   -2.955480    1.827200
  C      7.743020   -2.231900    0.936550
  C      7.425630   -0.907700    0.711500
  C      6.332350   -0.303570    1.358160
  C      5.564450   -1.034110    2.244520
  C      6.217950    1.079920    0.890880
  C      5.103400    1.874130    1.040100
  C      4.906920    3.063810    0.321450
  N      4.715210    4.041260   -0.252670
  C      4.022630    1.579190    1.889180
  N      3.134620    1.432140    2.604320
  C      7.381280    1.369320    0.107180
  C      7.968240    2.534840   -0.321790
  C      7.765050    3.876910    0.021850
  C      7.190440    4.364240    1.174090
  O      6.820690    3.553540    2.187900
  C      6.466110    4.205230    3.393400
  C      5.643930    5.449280    3.087650
  O      6.421870    6.362790    2.341110
  C      7.075140    5.802770    1.287250
  C      7.656300    6.521750    0.289420
  C      7.708790    7.933770    0.117650
  C      7.199450    8.905360    0.999490
  N      7.304240   10.189400    0.758390
  C      7.922080   10.579850   -0.372700
  C      7.988260   11.992020   -0.534830
  C      8.470340   12.714050   -1.583180
  O      8.967000   12.150340   -2.717680
  C      9.079280   13.035580   -3.816190
  C      9.690590   14.357620   -3.373540
  O      8.860420   14.975220   -2.410320
  C      8.421540   14.155960   -1.426690
  C      7.844400   14.630320   -0.278550
  C      7.764110   15.980810    0.126280
  C      8.544720   17.043760   -0.202390
  S      9.967670   17.079710   -1.219630
  C     10.267160   18.800510   -0.841640
  O     11.186840   19.439430   -1.269340
  N      9.289380   19.252830   -0.002910
  C      9.288210   20.625250    0.452700
  C      8.315050   18.353480    0.402660
  O      7.414280   18.647020    1.158070
  Si     7.254050   13.150030    0.762440
  C      5.359590   13.035230    0.851970
  C      8.105630   13.089190    2.457730
  C      8.439640    9.607960   -1.250050
  N      8.333830    8.324170   -1.009290
  Si     8.344610    5.359020   -1.026560
  C     10.236760    5.398030   -1.193700
  C      7.391500    5.462570   -2.663440
  C      8.090900    0.087870   -0.151430
  O      9.037430   -0.080960   -0.889850
  H      5.162090   -4.225440    3.281010
  H      4.027060   -2.871350    3.420350
  H      5.429630   -2.960020    4.479320
  H      7.195150   -3.993490    2.016700
  H      8.579060   -2.684090    0.425400
  H      4.727220   -0.589970    2.760060
  H      8.771690    2.367520   -1.034260
  H      7.376670    4.485840    3.939550
  H      5.895690    3.480860    3.977650
  H      5.350350    5.967670    4.001230
  H      4.749050    5.168140    2.516310
  H      6.701720    8.619200    1.914510
  H      8.084350   13.215140   -4.246160
  H      9.709040   12.532030   -4.551180
  H      9.770600   15.060110   -4.203780
  H     10.685880   14.185020   -2.943370
  H      7.007680   16.208340    0.869770
  H     10.243510   20.859920    0.922070
  H      8.475610   20.724660    1.170710
  H      9.131390   21.300960   -0.388670
  H      4.904340   13.135690   -0.128400
  H      4.954530   13.812450    1.491470
  H      5.068070   12.074590    1.261780
  H      9.180330   13.216240    2.371500
  H      7.916300   12.134150    2.935070
  H      7.727410   13.871870    3.106900
  H      8.948330    9.894370   -2.159090
  H     10.731470    5.271960   -0.235510
  H     10.549780    6.347950   -1.612170
  H     10.581150    4.609790   -1.854720
  H      6.329150    5.307940   -2.498170
  H      7.736080    4.709990   -3.365340
  H      7.527770    6.437620   -3.118290

 Total Charge           Charge          ....    0
 Multiplicity           Mult            ....    1
 Number of Electrons    NEL             ....  402
 Basis Dimension        Dim             ....  933

ORBITAL ENERGIES
----------------

  NO   OCC          E(Eh)            E(eV)
   0   2.0000     -88.937972     -2420.1252
   1   2.0000     -66.191217     -1801.1546
   2   2.0000     -66.190970     -1801.1479
   3   2.0000     -19.284268      -524.7516
   4   2.0000     -19.271657      -524.4084
   5   2.0000     -19.271170      -524.3952
   6   2.0000     -19.270804      -524.3852
   7   2.0000     -19.200276      -522.4661
   8   2.0000     -19.200183      -522.4635
   9   2.0000     -19.192747      -522.2612
  10   2.0000     -14.454427      -393.3250
  11   2.0000     -14.417793      -392.3281
  12   2.0000     -14.416638      -392.2967
  13   2.0000     -14.408411      -392.0728
  14   2.0000     -14.407261      -392.0415
  15   2.0000     -10.392783      -282.8020
  16   2.0000     -10.380192      -282.4594
  17   2.0000     -10.365213      -282.0518
  18   2.0000     -10.352327      -281.7011
  19   2.0000     -10.351876      -281.6889
  20   2.0000     -10.351720      -281.6846
  21   2.0000     -10.351301      -281.6732
  22   2.0000     -10.349482      -281.6237
  23   2.0000     -10.348963      -281.6096
  24   2.0000     -10.347376      -281.5664
  25   2.0000     -10.346685      -281.5476
  26   2.0000     -10.326207      -280.9904
  27   2.0000     -10.323064      -280.9048
  28   2.0000     -10.314702      -280.6773
  29   2.0000     -10.313515      -280.6450
  30   2.0000     -10.311581      -280.5924
  31   2.0000     -10.310892      -280.5736
  32   2.0000     -10.305913      -280.4381
  33   2.0000     -10.305141      -280.4171
  34   2.0000     -10.298414      -280.2341
  35   2.0000     -10.297356      -280.2053
  36   2.0000     -10.297221      -280.2016
  37   2.0000     -10.291743      -280.0526
  38   2.0000     -10.289553      -279.9930
  39   2.0000     -10.287925      -279.9487
  40   2.0000     -10.282620      -279.8043
  41   2.0000     -10.278631      -279.6958
  42   2.0000     -10.278204      -279.6842
  43   2.0000     -10.275640      -279.6144
  44   2.0000     -10.274534      -279.5843
  45   2.0000     -10.268160      -279.4108
  46   2.0000     -10.258317      -279.1430
  47   2.0000     -10.257396      -279.1179
  48   2.0000     -10.255103      -279.0555
  49   2.0000     -10.253693      -279.0172
  50   2.0000     -10.243622      -278.7431
  51   2.0000     -10.242756      -278.7196
  52   2.0000     -10.241920      -278.6968
  53   2.0000     -10.236481      -278.5488
  54   2.0000      -8.034656      -218.6341
  55   2.0000      -6.004258      -163.3842
  56   2.0000      -6.000495      -163.2818
  57   2.0000      -5.995229      -163.1385
  58   2.0000      -5.355970      -145.7433
  59   2.0000      -5.355815      -145.7391
  60   2.0000      -3.719997      -101.2263
  61   2.0000      -3.719735      -101.2191
  62   2.0000      -3.717914      -101.1696
  63   2.0000      -3.717671      -101.1630
  64   2.0000      -3.716828      -101.1400
  65   2.0000      -3.716799      -101.1392
  66   2.0000      -1.205022       -32.7903
  67   2.0000      -1.198373       -32.6094
  68   2.0000      -1.163903       -31.6714
  69   2.0000      -1.159694       -31.5569
  70   2.0000      -1.150381       -31.3034
  71   2.0000      -1.123369       -30.5684
  72   2.0000      -1.113749       -30.3067
  73   2.0000      -1.071763       -29.1642
  74   2.0000      -1.037943       -28.2439
  75   2.0000      -1.008016       -27.4295
  76   2.0000      -0.995540       -27.0900
  77   2.0000      -0.987530       -26.8721
  78   2.0000      -0.983742       -26.7690
  79   2.0000      -0.944269       -25.6949
  80   2.0000      -0.941826       -25.6284
  81   2.0000      -0.935986       -25.4695
  82   2.0000      -0.923393       -25.1268
  83   2.0000      -0.892760       -24.2932
  84   2.0000      -0.888660       -24.1817
  85   2.0000      -0.875140       -23.8138
  86   2.0000      -0.861496       -23.4425
  87   2.0000      -0.854877       -23.2624
  88   2.0000      -0.852610       -23.2007
  89   2.0000      -0.843117       -22.9424
  90   2.0000      -0.828954       -22.5570
  91   2.0000      -0.811965       -22.0947
  92   2.0000      -0.800149       -21.7732
  93   2.0000      -0.791395       -21.5350
  94   2.0000      -0.786302       -21.3964
  95   2.0000      -0.783303       -21.3148
  96   2.0000      -0.775720       -21.1084
  97   2.0000      -0.770335       -20.9619
  98   2.0000      -0.759198       -20.6588
  99   2.0000      -0.757209       -20.6047
 100   2.0000      -0.756699       -20.5908
 101   2.0000      -0.743313       -20.2266
 102   2.0000      -0.737293       -20.0628
 103   2.0000      -0.721065       -19.6212
 104   2.0000      -0.716461       -19.4959
 105   2.0000      -0.710745       -19.3403
 106   2.0000      -0.690986       -18.8027
 107   2.0000      -0.689564       -18.7640
 108   2.0000      -0.670075       -18.2337
 109   2.0000      -0.664122       -18.0717
 110   2.0000      -0.653280       -17.7766
 111   2.0000      -0.650192       -17.6926
 112   2.0000      -0.647296       -17.6138
 113   2.0000      -0.640487       -17.4285
 114   2.0000      -0.635339       -17.2884
 115   2.0000      -0.627787       -17.0829
 116   2.0000      -0.627130       -17.0651
 117   2.0000      -0.616240       -16.7687
 118   2.0000      -0.608212       -16.5503
 119   2.0000      -0.600121       -16.3301
 120   2.0000      -0.586956       -15.9719
 121   2.0000      -0.575571       -15.6621
 122   2.0000      -0.574255       -15.6263
 123   2.0000      -0.569555       -15.4984
 124   2.0000      -0.560175       -15.2431
 125   2.0000      -0.558268       -15.1912
 126   2.0000      -0.555438       -15.1142
 127   2.0000      -0.549900       -14.9635
 128   2.0000      -0.547546       -14.8995
 129   2.0000      -0.545620       -14.8471
 130   2.0000      -0.543279       -14.7834
 131   2.0000      -0.540046       -14.6954
 132   2.0000      -0.536209       -14.5910
 133   2.0000      -0.531433       -14.4610
 134   2.0000      -0.530698       -14.4410
 135   2.0000      -0.524380       -14.2691
 136   2.0000      -0.519797       -14.1444
 137   2.0000      -0.518577       -14.1112
 138   2.0000      -0.518183       -14.1005
 139   2.0000      -0.512274       -13.9397
 140   2.0000      -0.510032       -13.8787
 141   2.0000      -0.507466       -13.8089
 142   2.0000      -0.506570       -13.7845
 143   2.0000      -0.501603       -13.6493
 144   2.0000      -0.500469       -13.6185
 145   2.0000      -0.496084       -13.4991
 146   2.0000      -0.490625       -13.3506
 147   2.0000      -0.488333       -13.2882
 148   2.0000      -0.482908       -13.1406
 149   2.0000      -0.481951       -13.1146
 150   2.0000      -0.481596       -13.1049
 151   2.0000      -0.480926       -13.0867
 152   2.0000      -0.479836       -13.0570
 153   2.0000      -0.478035       -13.0080
 154   2.0000      -0.477106       -12.9827
 155   2.0000      -0.472363       -12.8537
 156   2.0000      -0.469895       -12.7865
 157   2.0000      -0.469620       -12.7790
 158   2.0000      -0.467042       -12.7088
 159   2.0000      -0.464963       -12.6523
 160   2.0000      -0.463810       -12.6209
 161   2.0000      -0.462404       -12.5827
 162   2.0000      -0.461402       -12.5554
 163   2.0000      -0.460710       -12.5366
 164   2.0000      -0.444775       -12.1029
 165   2.0000      -0.441790       -12.0217
 166   2.0000      -0.438853       -11.9418
 167   2.0000      -0.437073       -11.8934
 168   2.0000      -0.434906       -11.8344
 169   2.0000      -0.432469       -11.7681
 170   2.0000      -0.431496       -11.7416
 171   2.0000      -0.421459       -11.4685
 172   2.0000      -0.419560       -11.4168
 173   2.0000      -0.416114       -11.3230
 174   2.0000      -0.410583       -11.1725
 175   2.0000      -0.408441       -11.1143
 176   2.0000      -0.406637       -11.0652
 177   2.0000      -0.402373       -10.9491
 178   2.0000      -0.397354       -10.8125
 179   2.0000      -0.395451       -10.7608
 180   2.0000      -0.390249       -10.6192
 181   2.0000      -0.388932       -10.5834
 182   2.0000      -0.384651       -10.4669
 183   2.0000      -0.383250       -10.4288
 184   2.0000      -0.381482       -10.3807
 185   2.0000      -0.375418       -10.2157
 186   2.0000      -0.366991        -9.9863
 187   2.0000      -0.363544        -9.8925
 188   2.0000      -0.355926        -9.6852
 189   2.0000      -0.351108        -9.5541
 190   2.0000      -0.343266        -9.3408
 191   2.0000      -0.337397        -9.1810
 192   2.0000      -0.329167        -8.9571
 193   2.0000      -0.324835        -8.8392
 194   2.0000      -0.322465        -8.7747
 195   2.0000      -0.318734        -8.6732
 196   2.0000      -0.317712        -8.6454
 197   2.0000      -0.301210        -8.1963
 198   2.0000      -0.298213        -8.1148
 199   2.0000      -0.266525        -7.2525
 200   2.0000      -0.237495        -6.4626
 201   0.0000      -0.081833        -2.2268
 202   0.0000      -0.057835        -1.5738
 203   0.0000      -0.046229        -1.2579
 204   0.0000      -0.012309        -0.3349
 205   0.0000       0.001393         0.0379

MULLIKEN ATOMIC CHARGES
-----------------------
   0 C :    0.086313
   1 C :   -0.035770
   2 C :    0.000352
   3 C :   -0.025638
   4 C :   -0.004497
   5 C :    0.037776
   6 C :   -0.081059
   7 C :    0.298789
   8 C :   -0.349684
   9 C :   -0.195431
  10 N :    0.147438
  11 C :   -0.185334
  12 N :    0.129979
  13 C :   -0.121174
  14 C :    0.037342
  15 C :   -0.211402
  16 C :    0.116900
  17 O :   -0.275123
  18 C :    0.173353
  19 C :    0.178169
  20 O :   -0.302850
  21 C :    0.148243
  22 C :   -0.165541
  23 C :   -0.035555
  24 C :    0.016829
  25 N :   -0.047431
  26 C :   -0.023494
  27 C :   -0.183876
  28 C :    0.135194
  29 O :   -0.302029
  30 C :    0.184908
  31 C :    0.180739
  32 O :   -0.293779
  33 C :    0.135438
  34 C :   -0.235378
  35 C :    0.014434
  36 C :   -0.159467
  37 S :    0.047721
  38 C :    0.137446
  39 O :   -0.194848
  40 N :   -0.264996
  41 C :    0.126326
  42 C :    0.217597
  43 O :   -0.197270
  44 Si:    0.521888
  45 C :   -0.184953
  46 C :   -0.191417
  47 C :    0.009979
  48 N :   -0.044162
  49 Si:    0.522277
  50 C :   -0.187972
  51 C :   -0.189525
  52 C :    0.132884
  53 O :   -0.154194
  54 H :    0.017830
  55 H :    0.032072
  56 H :    0.038014
  57 H :   -0.020751
  58 H :   -0.009975
  59 H :   -0.016779
  60 H :    0.013669
  61 H :    0.040388
  62 H :    0.050858
  63 H :    0.038765
  64 H :    0.051429
  65 H :   -0.001563
  66 H :    0.036557
  67 H :    0.039241
  68 H :    0.043766
  69 H :    0.035251
  70 H :    0.018076
  71 H :    0.041197
  72 H :    0.054141
  73 H :    0.041337
  74 H :    0.045870
  75 H :    0.040978
  76 H :    0.051492
  77 H :    0.048040
  78 H :    0.049694
  79 H :    0.041483
  80 H :   -0.003168
  81 H :    0.044990
  82 H :    0.050828
  83 H :    0.042810
  84 H :    0.063796
  85 H :    0.038580
  86 H :    0.046623
Sum of atomic charges:    0.0000000

LOEWDIN ATOMIC CHARGES
----------------------
   0 C :   -0.044211
   1 C :   -0.001983
   2 C :   -0.018417
   3 C :    0.015125
   4 C :   -0.055629
   5 C :   -0.006068
   6 C :   -0.015511
   7 C :    0.070358
   8 C :   -0.156674
   9 C :   -0.011019
  10 N :   -0.072454
  11 C :   -0.022940
  12 N :   -0.074730
  13 C :   -0.105063
  14 C :    0.056146
  15 C :   -0.216246
  16 C :    0.066259
  17 O :   -0.048779
  18 C :    0.074416
  19 C :    0.073149
  20 O :   -0.087746
  21 C :    0.032976
  22 C :   -0.189662
  23 C :   -0.020471
  24 C :    0.012518
  25 N :   -0.052887
  26 C :   -0.013576
  27 C :   -0.211156
  28 C :    0.035224
  29 O :   -0.090967
  30 C :    0.073376
  31 C :    0.071496
  32 O :   -0.084622
  33 C :    0.033253
  34 C :   -0.221077
  35 C :   -0.001918
  36 C :   -0.219931
  37 S :    0.339453
  38 C :   -0.058060
  39 O :   -0.181176
  40 N :   -0.049681
  41 C :    0.039219
  42 C :    0.067919
  43 O :   -0.186682
  44 Si:    0.696883
  45 C :   -0.237931
  46 C :   -0.241210
  47 C :    0.007134
  48 N :   -0.048448
  49 Si:    0.698208
  50 C :   -0.239587
  51 C :   -0.239610
  52 C :    0.083527
  53 O :   -0.151610
  54 H :    0.031803
  55 H :    0.037705
  56 H :    0.041738
  57 H :    0.028712
  58 H :    0.037618
  59 H :    0.033637
  60 H :    0.040016
  61 H :    0.027378
  62 H :    0.038873
  63 H :    0.036465
  64 H :    0.030931
  65 H :    0.021555
  66 H :    0.025242
  67 H :    0.035651
  68 H :    0.037813
  69 H :    0.023847
  70 H :    0.041343
  71 H :    0.032369
  72 H :    0.036913
  73 H :    0.031803
  74 H :    0.037080
  75 H :    0.033811
  76 H :    0.037494
  77 H :    0.037725
  78 H :    0.036928
  79 H :    0.034318
  80 H :    0.020899
  81 H :    0.036708
  82 H :    0.037751
  83 H :    0.034352
  84 H :    0.043820
  85 H :    0.033429
  86 H :    0.035366

  Mayer bond orders larger than 0.100000
B(  0-C ,  1-C ) :   1.0519 B(  0-C , 54-H ) :   0.9598 B(  0-C , 55-H ) :   0.9578
B(  0-C , 56-H ) :   0.9524 B(  1-C ,  2-C ) :   1.4007 B(  1-C ,  6-C ) :   1.3413
B(  2-C ,  3-C ) :   1.3392 B(  2-C , 57-H ) :   0.9911 B(  3-C ,  4-C ) :   1.3890
B(  3-C , 58-H ) :   1.0073 B(  4-C ,  5-C ) :   1.3288 B(  4-C , 52-C ) :   0.9274
B(  5-C ,  6-C ) :   1.3796 B(  5-C ,  7-C ) :   0.9928 B(  6-C , 59-H ) :   0.9888
B(  7-C ,  8-C ) :   1.5718 B(  7-C , 13-C ) :   1.1126 B(  8-C ,  9-C ) :   1.2009
B(  8-C , 11-C ) :   1.1434 B(  9-C , 10-N ) :   2.9319 B( 11-C , 12-N ) :   2.9653
B( 13-C , 14-C ) :   1.5366 B( 13-C , 52-C ) :   0.9469 B( 14-C , 15-C ) :   1.2256
B( 14-C , 60-H ) :   0.9291 B( 15-C , 16-C ) :   1.5751 B( 15-C , 49-Si) :   0.8350
B( 16-C , 17-O ) :   1.1821 B( 16-C , 21-C ) :   1.0353 B( 17-O , 18-C ) :   0.9186
B( 18-C , 19-C ) :   1.0807 B( 18-C , 61-H ) :   0.9447 B( 18-C , 62-H ) :   0.9511
B( 19-C , 20-O ) :   0.9394 B( 19-C , 63-H ) :   0.9511 B( 19-C , 64-H ) :   0.9428
B( 20-O , 21-C ) :   1.1329 B( 21-C , 22-C ) :   1.6664 B( 22-C , 23-C ) :   1.0525
B( 22-C , 49-Si) :   0.8474 B( 23-C , 24-C ) :   1.3131 B( 23-C , 48-N ) :   1.4707
B( 24-C , 25-N ) :   1.5767 B( 24-C , 65-H ) :   0.9656 B( 25-N , 26-C ) :   1.4734
B( 25-N , 44-Si) :   0.1131 B( 26-C , 27-C ) :   1.0583 B( 26-C , 47-C ) :   1.3066
B( 27-C , 28-C ) :   1.6645 B( 27-C , 34-C ) :   0.1061 B( 27-C , 44-Si) :   0.8511
B( 28-C , 29-O ) :   1.1355 B( 28-C , 33-C ) :   1.0298 B( 29-O , 30-C ) :   0.9377
B( 30-C , 31-C ) :   1.0828 B( 30-C , 66-H ) :   0.9435 B( 30-C , 67-H ) :   0.9534
B( 31-C , 32-O ) :   0.9268 B( 31-C , 68-H ) :   0.9516 B( 31-C , 69-H ) :   0.9419
B( 32-O , 33-C ) :   1.1488 B( 33-C , 34-C ) :   1.6594 B( 34-C , 35-C ) :   1.1153
B( 34-C , 44-Si) :   0.8511 B( 35-C , 36-C ) :   1.7321 B( 35-C , 70-H ) :   0.9418
B( 36-C , 37-S ) :   1.0139 B( 36-C , 42-C ) :   0.9699 B( 37-S , 38-C ) :   0.9893
B( 38-C , 39-O ) :   2.1223 B( 38-C , 40-N ) :   1.0659 B( 40-N , 41-C ) :   0.9357
B( 40-N , 42-C ) :   1.0584 B( 41-C , 71-H ) :   0.9756 B( 41-C , 72-H ) :   0.9589
B( 41-C , 73-H ) :   0.9786 B( 42-C , 43-O ) :   2.1400 B( 44-Si, 45-C ) :   1.0563
B( 44-Si, 46-C ) :   1.0524 B( 45-C , 74-H ) :   0.9483 B( 45-C , 75-H ) :   0.9531
B( 45-C , 76-H ) :   0.9539 B( 46-C , 77-H ) :   0.9503 B( 46-C , 78-H ) :   0.9551
B( 46-C , 79-H ) :   0.9520 B( 47-C , 48-N ) :   1.5812 B( 47-C , 80-H ) :   0.9672
B( 48-N , 49-Si) :   0.1122 B( 49-Si, 50-C ) :   1.0515 B( 49-Si, 51-C ) :   1.0679
B( 50-C , 81-H ) :   0.9488 B( 50-C , 82-H ) :   0.9543 B( 50-C , 83-H ) :   0.9535
B( 51-C , 84-H ) :   0.9449 B( 51-C , 85-H ) :   0.9498 B( 51-C , 86-H ) :   0.9532
B( 52-C , 53-O ) :   2.2455

-----------------------------------------------------------------------------
         ABSORPTION SPECTRUM VIA TRANSITION ELECTRIC DIPOLE MOMENTS
-----------------------------------------------------------------------------
State   Energy  Wavelength   fosc         T2         TX        TY        TZ
        (cm-1)    (nm)                  (au**2)     (au)      (au)      (au)
-----------------------------------------------------------------------------
   0   18408.5    543.2   1.735758473  31.04184   1.09434   5.43530  -0.54930
   1   23489.7    425.7   0.215445523   3.01950   0.37302  -1.69532  -0.07899
   2   26258.7    380.8   0.015865622   0.19891   0.04117  -0.42512   0.12840
   3   26807.2    373.0   0.054553424   0.66996   0.30616   0.75894   0.01526
   4   29207.1    342.4   0.039645536   0.44687   0.53932  -0.39107  -0.05537
   5   30274.3    330.3   0.000797455   0.00867   0.05018   0.06717   0.04052
   6   31277.8    319.7   0.045697254   0.48098  -0.26042  -0.58401  -0.26852
   7   31717.0    315.3   0.119248595   1.23776   0.88287  -0.59081   0.33053
   8   32297.3    309.6   0.003603784   0.03673   0.08090   0.16918   0.03958
   9   32546.1    307.3   0.060918266   0.61620   0.04987  -0.30210  -0.72281
  10   33277.1    300.5   0.014461247   0.14307   0.28513   0.00426  -0.24849
  11   33637.6    297.3   0.014773502   0.14459  -0.33018   0.18392   0.04175
  12   35068.6    285.2   0.046284480   0.43450  -0.07930  -0.16178   0.63407
  13   35505.7    281.6   0.006302846   0.05844   0.01699   0.20727  -0.12326
  14   36208.1    276.2   0.258722426   2.35236  -0.89882   1.24211  -0.04056
  15   36642.4    272.9   0.339514517   3.05035  -0.83141   1.50715   0.29595
  16   36895.5    271.0   0.073631981   0.65700  -0.15729  -0.78072  -0.15078
  17   38814.6    257.6   0.044318575   0.37589  -0.53636   0.29552   0.02955
  18   39373.2    254.0   0.008200720   0.06857  -0.14780   0.13815  -0.16625
  19   39430.2    253.6   0.008111501   0.06772   0.21749   0.11476  -0.08518
  20   39807.3    251.2   0.040348797   0.33369  -0.07101  -0.44098   0.36631

FINAL SINGLE POINT ENERGY     -3280.385492317023

DIPOLE MOMENT
-------------
                                X             Y             Z
Electronic contribution:      2.40000       6.37515      -7.52018
Nuclear contribution   :     -1.74485      -7.30417       8.08097
                        -----------------------------------------
Total Dipole Moment    :      0.65514      -0.92902       0.56080
                        -----------------------------------------
Magnitude (a.u.)       :      1.26759
Magnitude (Debye)      :      3.22196

Rotational constants in cm-1:     0.005537     0.000444     0.000424
Rotational constants in MHz :   165.989233    13.299560    12.709860

                             ****ORCA TERMINATED NORMALLY****
TOTAL RUN TIME: 0 days 0 hours 9 minutes 51 seconds 447 msec
