                         Program Version 4.2.0 -  RELEASE  -
|  1> # ORCA input file
|  2> # SCF done       -190.507847580779          0.000626522075
|  3> ! CAM-B3LYP def2-SVP def2/J RIJCOSX Grid4 TightSCF
|  4> %maxcore 5000
|  5> %tddft
|  6>     Mode sTDDFT
|  7>     Ethresh 5.0
|  8>     maxcore 5000
|  9> end
| 10>
| 11> %pal
| 12>   nprocs 6
| 13>   end
| 14> * xyz 0 1
| 15>    C       -2.00450        -2.63354         2.24176
| 16>    S       -2.74263        -2.15030         3.76211
| 17>    C       -2.50085        -0.41219         3.40749
| 18>    O       -2.82922         0.48023         4.13003
| 19>    N       -1.89101        -0.29936         2.19190
| 20>    C       -1.58500        -1.45069         1.48542
| 21>    O       -1.04013        -1.41821         0.40571
| 22>    C       -1.57191         1.00977         1.66167
| 23>    C       -1.88090        -3.95864         1.95482
| 24>    C       -1.34792        -4.62945         0.83158
| 25>    C       -0.85387        -4.18017        -0.38698
| 26>    C       -0.42611        -5.22517        -1.19463
| 27>    C       -0.58401        -6.49642        -0.59381
| 28>    S       -1.27773        -6.39264         0.95554
| 29>    C       -0.08840        -7.48391        -1.47126
| 30>    C        0.38182        -6.84131        -2.63854
| 31>    C        0.17424        -5.40686        -2.50685
| 32>    C        0.47772        -4.44972        -3.42851
| 33>    C        1.06778        -4.77219        -4.67050
| 34>    N        1.55024        -5.02505        -5.67935
| 35>    C        0.22376        -3.07422        -3.23230
| 36>    N        0.02520        -1.95185        -3.11365
| 37>    C        0.91462        -7.72793        -3.56060
| 38>    C        0.86261        -9.04348        -3.10835
| 39>    S        0.12725        -9.18087        -1.51903
| 40>    C        1.35812       -10.19003        -3.77640
| 41>    C        1.27509       -11.47110        -3.18341
| 42>    C        1.83080       -12.64533        -3.80336
| 43>    N        1.73019       -13.82718        -3.18589
| 44>    C        1.12595       -13.91223        -2.02503
| 45>    C        0.57355       -12.74391        -1.40815
| 46>    N        0.66580       -11.57601        -1.99850
| 47>    C       -0.08035       -12.83260        -0.15445
| 48>    N       -0.60340       -12.92956         0.85954
| 49>    C        1.02474       -15.17415        -1.38830
| 50>    N        0.92640       -16.18042        -0.85084
| 51>    C        2.49689       -12.59965        -5.04927
| 52>    C        2.54357       -11.32691        -5.66740
| 53>    C        1.98656       -10.14702        -5.04405
| 54>    N        2.15701        -9.06716        -5.80722
| 55>    S        2.92329        -9.47572        -7.15365
| 56>    N        3.08859       -11.04007        -6.84990
| 57>    C        3.09150       -13.76070        -5.60356
| 58>    C        3.79245       -13.84403        -6.80318
| 59>    C        4.28296       -15.12030        -7.02899
| 60>    C        3.95247       -16.02373        -5.99461
| 61>    S        3.03111       -15.29408        -4.75032
| 62>    C        4.51486       -17.27943        -6.30847
| 63>    C        5.20524       -17.17783        -7.54188
| 64>    C        5.07283       -15.81631        -8.03409
| 65>    C        5.57586       -15.28647        -9.18477
| 66>    C        6.33315       -16.02740       -10.11897
| 67>    N        6.94829       -16.59236       -10.90354
| 68>    C        5.37071       -13.93325        -9.53289
| 69>    N        5.21201       -12.83533        -9.82283
| 70>    C        5.81573       -18.36249        -7.92553
| 71>    C        5.60681       -19.38236        -7.00334
| 72>    S        4.61866       -18.83616        -5.63750
| 73>    C        6.02470       -20.72811        -6.93820
| 74>    C        6.80150       -21.48622        -7.76885
| 75>    C        7.13361       -22.88229        -7.51352
| 76>    C        6.76117       -23.64725        -6.43949
| 77>    C        7.13375       -24.99808        -6.26144
| 78>    N        7.39328       -26.09467        -6.04308
| 79>    C        5.96756       -23.24152        -5.34462
| 80>    N        5.33644       -23.00870        -4.41334
| 81>    C        7.96616       -23.35011        -8.61929
| 82>    C        8.15691       -22.29084        -9.52199
| 83>    C        7.45334       -21.09118        -9.04675
| 84>    O        7.42938       -20.01395        -9.60324
| 85>    C        8.91444       -22.44702       -10.66766
| 86>    C        9.48859       -23.68334       -10.91107
| 87>    C        9.31189       -24.74934       -10.02948
| 88>    C        8.54543       -24.58155        -8.87723
| 89>    C        9.92427       -26.08016       -10.32824
| 90>    H       -2.47535         1.61631         1.60643
| 91>    H       -1.15030         0.86343         0.66852
| 92>    H       -0.84913         1.50761         2.30819
| 93>    H       -2.24754        -4.62484         2.72832
| 94>    H       -0.81303        -3.13718        -0.64289
| 95>    H        1.33436        -7.47348        -4.51634
| 96>    H        3.92003       -12.99254        -7.44577
| 97>    H        6.39404       -18.50815        -8.82117
| 98>    H        5.65169       -21.23051        -6.05346
| 99>    H        9.04640       -21.61688       -11.34429
|100>    H       10.08598       -23.83047       -11.79886
|101>    H        8.41791       -25.41512        -8.20613
|102>    H       10.88557       -25.96364       -10.82316
|103>    H        9.27078       -26.64321       -10.99548
|104>    H       10.05730       -26.66095        -9.41925
|105> *
|106>
|107>                          ****END OF INPUT****

CARTESIAN COORDINATES (ANGSTROEM)
---------------------------------
  C     -2.004500   -2.633540    2.241760
  S     -2.742630   -2.150300    3.762110
  C     -2.500850   -0.412190    3.407490
  O     -2.829220    0.480230    4.130030
  N     -1.891010   -0.299360    2.191900
  C     -1.585000   -1.450690    1.485420
  O     -1.040130   -1.418210    0.405710
  C     -1.571910    1.009770    1.661670
  C     -1.880900   -3.958640    1.954820
  C     -1.347920   -4.629450    0.831580
  C     -0.853870   -4.180170   -0.386980
  C     -0.426110   -5.225170   -1.194630
  C     -0.584010   -6.496420   -0.593810
  S     -1.277730   -6.392640    0.955540
  C     -0.088400   -7.483910   -1.471260
  C      0.381820   -6.841310   -2.638540
  C      0.174240   -5.406860   -2.506850
  C      0.477720   -4.449720   -3.428510
  C      1.067780   -4.772190   -4.670500
  N      1.550240   -5.025050   -5.679350
  C      0.223760   -3.074220   -3.232300
  N      0.025200   -1.951850   -3.113650
  C      0.914620   -7.727930   -3.560600
  C      0.862610   -9.043480   -3.108350
  S      0.127250   -9.180870   -1.519030
  C      1.358120  -10.190030   -3.776400
  C      1.275090  -11.471100   -3.183410
  C      1.830800  -12.645330   -3.803360
  N      1.730190  -13.827180   -3.185890
  C      1.125950  -13.912230   -2.025030
  C      0.573550  -12.743910   -1.408150
  N      0.665800  -11.576010   -1.998500
  C     -0.080350  -12.832600   -0.154450
  N     -0.603400  -12.929560    0.859540
  C      1.024740  -15.174150   -1.388300
  N      0.926400  -16.180420   -0.850840
  C      2.496890  -12.599650   -5.049270
  C      2.543570  -11.326910   -5.667400
  C      1.986560  -10.147020   -5.044050
  N      2.157010   -9.067160   -5.807220
  S      2.923290   -9.475720   -7.153650
  N      3.088590  -11.040070   -6.849900
  C      3.091500  -13.760700   -5.603560
  C      3.792450  -13.844030   -6.803180
  C      4.282960  -15.120300   -7.028990
  C      3.952470  -16.023730   -5.994610
  S      3.031110  -15.294080   -4.750320
  C      4.514860  -17.279430   -6.308470
  C      5.205240  -17.177830   -7.541880
  C      5.072830  -15.816310   -8.034090
  C      5.575860  -15.286470   -9.184770
  C      6.333150  -16.027400  -10.118970
  N      6.948290  -16.592360  -10.903540
  C      5.370710  -13.933250   -9.532890
  N      5.212010  -12.835330   -9.822830
  C      5.815730  -18.362490   -7.925530
  C      5.606810  -19.382360   -7.003340
  S      4.618660  -18.836160   -5.637500
  C      6.024700  -20.728110   -6.938200
  C      6.801500  -21.486220   -7.768850
  C      7.133610  -22.882290   -7.513520
  C      6.761170  -23.647250   -6.439490
  C      7.133750  -24.998080   -6.261440
  N      7.393280  -26.094670   -6.043080
  C      5.967560  -23.241520   -5.344620
  N      5.336440  -23.008700   -4.413340
  C      7.966160  -23.350110   -8.619290
  C      8.156910  -22.290840   -9.521990
  C      7.453340  -21.091180   -9.046750
  O      7.429380  -20.013950   -9.603240
  C      8.914440  -22.447020  -10.667660
  C      9.488590  -23.683340  -10.911070
  C      9.311890  -24.749340  -10.029480
  C      8.545430  -24.581550   -8.877230
  C      9.924270  -26.080160  -10.328240
  H     -2.475350    1.616310    1.606430
  H     -1.150300    0.863430    0.668520
  H     -0.849130    1.507610    2.308190
  H     -2.247540   -4.624840    2.728320
  H     -0.813030   -3.137180   -0.642890
  H      1.334360   -7.473480   -4.516340
  H      3.920030  -12.992540   -7.445770
  H      6.394040  -18.508150   -8.821170
  H      5.651690  -21.230510   -6.053460
  H      9.046400  -21.616880  -11.344290
  H     10.085980  -23.830470  -11.798860
  H      8.417910  -25.415120   -8.206130
  H     10.885570  -25.963640  -10.823160
  H      9.270780  -26.643210  -10.995480
  H     10.057300  -26.660950   -9.419250

 Total Charge           Charge          ....    0
 Multiplicity           Mult            ....    1
 Number of Electrons    NEL             ....  544
 Basis Dimension        Dim             .... 1149

ORBITAL ENERGIES
----------------

  NO   OCC          E(Eh)            E(eV)
   0   2.0000     -89.061992     -2423.5000
   1   2.0000     -88.997826     -2421.7540
   2   2.0000     -88.997126     -2421.7349
   3   2.0000     -88.995138     -2421.6808
   4   2.0000     -88.994425     -2421.6614
   5   2.0000     -88.958470     -2420.6830
   6   2.0000     -19.222395      -523.0680
   7   2.0000     -19.220870      -523.0265
   8   2.0000     -19.220773      -523.0238
   9   2.0000     -14.487499      -394.2249
  10   2.0000     -14.486621      -394.2010
  11   2.0000     -14.477281      -393.9468
  12   2.0000     -14.470483      -393.7619
  13   2.0000     -14.469423      -393.7330
  14   2.0000     -14.447496      -393.1363
  15   2.0000     -14.447373      -393.1330
  16   2.0000     -14.434728      -392.7889
  17   2.0000     -14.433916      -392.7668
  18   2.0000     -14.431106      -392.6903
  19   2.0000     -14.429867      -392.6567
  20   2.0000     -14.421329      -392.4243
  21   2.0000     -14.415965      -392.2784
  22   2.0000     -10.416118      -283.4370
  23   2.0000     -10.410034      -283.2714
  24   2.0000     -10.405082      -283.1367
  25   2.0000     -10.403850      -283.1032
  26   2.0000     -10.371406      -282.2203
  27   2.0000     -10.370011      -282.1824
  28   2.0000     -10.369147      -282.1588
  29   2.0000     -10.367943      -282.1261
  30   2.0000     -10.367668      -282.1186
  31   2.0000     -10.362677      -281.9828
  32   2.0000     -10.362432      -281.9761
  33   2.0000     -10.356464      -281.8137
  34   2.0000     -10.355857      -281.7972
  35   2.0000     -10.346573      -281.5446
  36   2.0000     -10.345759      -281.5224
  37   2.0000     -10.344332      -281.4836
  38   2.0000     -10.342871      -281.4438
  39   2.0000     -10.341615      -281.4096
  40   2.0000     -10.340650      -281.3834
  41   2.0000     -10.340361      -281.3755
  42   2.0000     -10.338281      -281.3189
  43   2.0000     -10.336871      -281.2806
  44   2.0000     -10.336399      -281.2677
  45   2.0000     -10.335987      -281.2565
  46   2.0000     -10.335147      -281.2337
  47   2.0000     -10.334837      -281.2252
  48   2.0000     -10.334068      -281.2043
  49   2.0000     -10.333468      -281.1880
  50   2.0000     -10.332379      -281.1583
  51   2.0000     -10.332014      -281.1484
  52   2.0000     -10.330276      -281.1011
  53   2.0000     -10.328900      -281.0637
  54   2.0000     -10.328754      -281.0597
  55   2.0000     -10.328528      -281.0535
  56   2.0000     -10.324026      -280.9310
  57   2.0000     -10.319247      -280.8010
  58   2.0000     -10.312617      -280.6206
  59   2.0000     -10.311754      -280.5971
  60   2.0000     -10.311598      -280.5928
  61   2.0000     -10.311041      -280.5777
  62   2.0000     -10.310174      -280.5541
  63   2.0000     -10.308796      -280.5166
  64   2.0000     -10.306682      -280.4591
  65   2.0000     -10.306486      -280.4537
  66   2.0000     -10.305792      -280.4349
  67   2.0000     -10.304843      -280.4090
  68   2.0000     -10.304147      -280.3901
  69   2.0000     -10.300837      -280.3000
  70   2.0000     -10.294170      -280.1186
  71   2.0000     -10.290765      -280.0259
  72   2.0000     -10.290608      -280.0217
  73   2.0000     -10.288859      -279.9741
  74   2.0000     -10.275033      -279.5979
  75   2.0000      -8.152920      -221.8522
  76   2.0000      -8.092749      -220.2149
  77   2.0000      -8.091890      -220.1915
  78   2.0000      -8.087755      -220.0790
  79   2.0000      -8.087039      -220.0595
  80   2.0000      -8.056283      -219.2226
  81   2.0000      -6.124007      -166.6427
  82   2.0000      -6.116027      -166.4255
  83   2.0000      -6.115876      -166.4214
  84   2.0000      -6.061829      -164.9508
  85   2.0000      -6.060938      -164.9265
  86   2.0000      -6.057754      -164.8399
  87   2.0000      -6.057321      -164.8281
  88   2.0000      -6.056813      -164.8143
  89   2.0000      -6.056603      -164.8085
  90   2.0000      -6.055267      -164.7722
  91   2.0000      -6.054497      -164.7512
  92   2.0000      -6.052527      -164.6976
  93   2.0000      -6.051789      -164.6776
  94   2.0000      -6.050157      -164.6332
  95   2.0000      -6.049455      -164.6141
  96   2.0000      -6.025859      -163.9719
  97   2.0000      -6.022346      -163.8764
  98   2.0000      -6.016530      -163.7181
  99   2.0000      -1.175330       -31.9824
 100   2.0000      -1.159965       -31.5643
 101   2.0000      -1.151113       -31.3234
 102   2.0000      -1.145945       -31.1827
 103   2.0000      -1.136164       -30.9166
 104   2.0000      -1.074811       -29.2471
 105   2.0000      -1.062221       -28.9045
 106   2.0000      -1.051171       -28.6038
 107   2.0000      -1.050545       -28.5868
 108   2.0000      -1.032927       -28.1074
 109   2.0000      -1.025571       -27.9072
 110   2.0000      -1.024762       -27.8852
 111   2.0000      -1.022738       -27.8301
 112   2.0000      -1.021661       -27.8008
 113   2.0000      -1.016101       -27.6495
 114   2.0000      -1.011659       -27.5286
 115   2.0000      -1.009473       -27.4692
 116   2.0000      -1.008388       -27.4396
 117   2.0000      -1.001590       -27.2547
 118   2.0000      -0.999583       -27.2000
 119   2.0000      -0.995729       -27.0952
 120   2.0000      -0.991210       -26.9722
 121   2.0000      -0.967634       -26.3307
 122   2.0000      -0.962691       -26.1962
 123   2.0000      -0.952894       -25.9296
 124   2.0000      -0.951896       -25.9024
 125   2.0000      -0.929643       -25.2969
 126   2.0000      -0.929328       -25.2883
 127   2.0000      -0.919717       -25.0268
 128   2.0000      -0.906858       -24.6769
 129   2.0000      -0.902746       -24.5650
 130   2.0000      -0.887299       -24.1446
 131   2.0000      -0.879564       -23.9342
 132   2.0000      -0.872568       -23.7438
 133   2.0000      -0.866327       -23.5740
 134   2.0000      -0.863203       -23.4889
 135   2.0000      -0.861796       -23.4507
 136   2.0000      -0.860815       -23.4240
 137   2.0000      -0.854094       -23.2411
 138   2.0000      -0.833818       -22.6893
 139   2.0000      -0.824699       -22.4412
 140   2.0000      -0.815005       -22.1774
 141   2.0000      -0.810886       -22.0653
 142   2.0000      -0.794066       -21.6076
 143   2.0000      -0.791553       -21.5393
 144   2.0000      -0.784508       -21.3475
 145   2.0000      -0.778889       -21.1947
 146   2.0000      -0.766619       -20.8608
 147   2.0000      -0.758098       -20.6289
 148   2.0000      -0.750645       -20.4261
 149   2.0000      -0.740198       -20.1418
 150   2.0000      -0.727208       -19.7883
 151   2.0000      -0.724498       -19.7146
 152   2.0000      -0.721950       -19.6453
 153   2.0000      -0.710073       -19.3221
 154   2.0000      -0.704407       -19.1679
 155   2.0000      -0.698536       -19.0081
 156   2.0000      -0.692290       -18.8382
 157   2.0000      -0.690108       -18.7788
 158   2.0000      -0.688016       -18.7219
 159   2.0000      -0.684439       -18.6245
 160   2.0000      -0.676673       -18.4132
 161   2.0000      -0.670602       -18.2480
 162   2.0000      -0.665726       -18.1153
 163   2.0000      -0.652530       -17.7563
 164   2.0000      -0.646888       -17.6027
 165   2.0000      -0.644409       -17.5353
 166   2.0000      -0.636345       -17.3158
 167   2.0000      -0.634639       -17.2694
 168   2.0000      -0.626632       -17.0515
 169   2.0000      -0.621757       -16.9189
 170   2.0000      -0.620169       -16.8757
 171   2.0000      -0.614105       -16.7106
 172   2.0000      -0.610212       -16.6047
 173   2.0000      -0.603810       -16.4305
 174   2.0000      -0.602483       -16.3944
 175   2.0000      -0.591316       -16.0905
 176   2.0000      -0.589614       -16.0442
 177   2.0000      -0.587305       -15.9814
 178   2.0000      -0.577028       -15.7017
 179   2.0000      -0.576375       -15.6840
 180   2.0000      -0.575190       -15.6517
 181   2.0000      -0.567688       -15.4476
 182   2.0000      -0.559588       -15.2272
 183   2.0000      -0.554151       -15.0792
 184   2.0000      -0.553059       -15.0495
 185   2.0000      -0.552615       -15.0374
 186   2.0000      -0.546739       -14.8775
 187   2.0000      -0.544033       -14.8039
 188   2.0000      -0.540673       -14.7125
 189   2.0000      -0.540547       -14.7090
 190   2.0000      -0.538972       -14.6662
 191   2.0000      -0.530664       -14.4401
 192   2.0000      -0.526424       -14.3247
 193   2.0000      -0.524278       -14.2663
 194   2.0000      -0.520929       -14.1752
 195   2.0000      -0.518579       -14.1112
 196   2.0000      -0.518435       -14.1073
 197   2.0000      -0.512628       -13.9493
 198   2.0000      -0.511654       -13.9228
 199   2.0000      -0.510808       -13.8998
 200   2.0000      -0.506934       -13.7944
 201   2.0000      -0.505741       -13.7619
 202   2.0000      -0.502031       -13.6610
 203   2.0000      -0.501779       -13.6541
 204   2.0000      -0.500082       -13.6079
 205   2.0000      -0.498292       -13.5592
 206   2.0000      -0.497061       -13.5257
 207   2.0000      -0.495513       -13.4836
 208   2.0000      -0.494768       -13.4633
 209   2.0000      -0.493788       -13.4366
 210   2.0000      -0.489942       -13.3320
 211   2.0000      -0.485663       -13.2156
 212   2.0000      -0.484018       -13.1708
 213   2.0000      -0.482552       -13.1309
 214   2.0000      -0.480796       -13.0831
 215   2.0000      -0.475894       -12.9497
 216   2.0000      -0.473075       -12.8730
 217   2.0000      -0.470975       -12.8159
 218   2.0000      -0.470022       -12.7900
 219   2.0000      -0.465681       -12.6718
 220   2.0000      -0.464818       -12.6483
 221   2.0000      -0.463955       -12.6249
 222   2.0000      -0.462146       -12.5756
 223   2.0000      -0.460674       -12.5356
 224   2.0000      -0.457439       -12.4476
 225   2.0000      -0.456343       -12.4177
 226   2.0000      -0.455929       -12.4065
 227   2.0000      -0.453037       -12.3278
 228   2.0000      -0.452047       -12.3008
 229   2.0000      -0.451272       -12.2797
 230   2.0000      -0.450773       -12.2661
 231   2.0000      -0.450135       -12.2488
 232   2.0000      -0.445621       -12.1260
 233   2.0000      -0.444782       -12.1031
 234   2.0000      -0.443787       -12.0761
 235   2.0000      -0.443687       -12.0733
 236   2.0000      -0.442488       -12.0407
 237   2.0000      -0.441752       -12.0207
 238   2.0000      -0.441515       -12.0142
 239   2.0000      -0.440785       -11.9944
 240   2.0000      -0.436230       -11.8704
 241   2.0000      -0.430115       -11.7040
 242   2.0000      -0.429957       -11.6997
 243   2.0000      -0.429234       -11.6800
 244   2.0000      -0.428635       -11.6638
 245   2.0000      -0.425555       -11.5799
 246   2.0000      -0.424727       -11.5574
 247   2.0000      -0.423244       -11.5171
 248   2.0000      -0.411423       -11.1954
 249   2.0000      -0.411092       -11.1864
 250   2.0000      -0.407855       -11.0983
 251   2.0000      -0.404112       -10.9964
 252   2.0000      -0.394845       -10.7443
 253   2.0000      -0.392321       -10.6756
 254   2.0000      -0.385588       -10.4924
 255   2.0000      -0.378921       -10.3110
 256   2.0000      -0.369754       -10.0615
 257   2.0000      -0.368010       -10.0141
 258   2.0000      -0.364652        -9.9227
 259   2.0000      -0.357964        -9.7407
 260   2.0000      -0.355309        -9.6685
 261   2.0000      -0.354397        -9.6436
 262   2.0000      -0.353619        -9.6225
 263   2.0000      -0.341545        -9.2939
 264   2.0000      -0.341337        -9.2882
 265   2.0000      -0.333293        -9.0694
 266   2.0000      -0.327740        -8.9183
 267   2.0000      -0.326291        -8.8788
 268   2.0000      -0.317662        -8.6440
 269   2.0000      -0.305092        -8.3020
 270   2.0000      -0.278963        -7.5910
 271   2.0000      -0.248611        -6.7651
 272   0.0000      -0.148910        -4.0520
 273   0.0000      -0.111849        -3.0436
 274   0.0000      -0.106648        -2.9020
 275   0.0000      -0.088738        -2.4147
 276   0.0000      -0.072731        -1.9791

MULLIKEN ATOMIC CHARGES
-----------------------
   0 C :   -0.204186
   1 S :    0.052357
   2 C :    0.140923
   3 O :   -0.173535
   4 N :   -0.270306
   5 C :    0.256073
   6 O :   -0.178946
   7 C :    0.121414
   8 C :    0.101647
   9 C :   -0.111778
  10 C :   -0.022658
  11 C :    0.003985
  12 C :   -0.099960
  13 S :    0.192902
  14 C :   -0.058009
  15 C :    0.039471
  16 C :    0.316273
  17 C :   -0.302818
  18 C :   -0.188355
  19 N :    0.172224
  20 C :   -0.194085
  21 N :    0.193864
  22 C :   -0.064759
  23 C :   -0.173378
  24 S :    0.207792
  25 C :    0.192353
  26 C :   -0.060357
  27 C :   -0.058117
  28 N :   -0.004658
  29 C :   -0.096810
  30 C :   -0.100993
  31 N :   -0.004729
  32 C :   -0.241847
  33 N :    0.254560
  34 C :   -0.240460
  35 N :    0.258222
  36 C :    0.185252
  37 C :   -0.007744
  38 C :   -0.010822
  39 N :   -0.283429
  40 S :    0.593209
  41 N :   -0.283933
  42 C :   -0.169400
  43 C :   -0.070975
  44 C :    0.045215
  45 C :   -0.066832
  46 S :    0.212104
  47 C :   -0.088447
  48 C :    0.001129
  49 C :    0.318057
  50 C :   -0.305211
  51 C :   -0.196458
  52 N :    0.199040
  53 C :   -0.189832
  54 N :    0.171433
  55 C :   -0.020470
  56 C :   -0.112373
  57 S :    0.211891
  58 C :    0.036430
  59 C :   -0.084873
  60 C :    0.321481
  61 C :   -0.363674
  62 C :   -0.181399
  63 N :    0.151572
  64 C :   -0.176887
  65 N :    0.145664
  66 C :    0.044177
  67 C :   -0.021346
  68 C :    0.158194
  69 O :   -0.146105
  70 C :   -0.020707
  71 C :    0.008614
  72 C :   -0.036627
  73 C :   -0.069419
  74 C :    0.085460
  75 H :    0.049364
  76 H :    0.065321
  77 H :    0.048519
  78 H :    0.004157
  79 H :    0.036461
  80 H :    0.022747
  81 H :    0.024683
  82 H :    0.039486
  83 H :   -0.003017
  84 H :    0.000046
  85 H :   -0.014042
  86 H :   -0.010243
  87 H :    0.024469
  88 H :    0.045011
  89 H :    0.031761
Sum of atomic charges:   -0.0000000

LOEWDIN ATOMIC CHARGES
----------------------
   0 C :   -0.204587
   1 S :    0.332000
   2 C :   -0.051140
   3 O :   -0.162244
   4 N :   -0.043029
   5 C :    0.074874
   6 O :   -0.158646
   7 C :    0.041564
   8 C :   -0.023566
   9 C :   -0.165242
  10 C :   -0.003969
  11 C :   -0.062569
  12 C :   -0.176954
  13 S :    0.484308
  14 C :   -0.174539
  15 C :   -0.068753
  16 C :    0.075871
  17 C :   -0.094954
  18 C :   -0.014947
  19 N :   -0.032353
  20 C :   -0.023427
  21 N :   -0.016576
  22 C :   -0.003446
  23 C :   -0.166850
  24 S :    0.509789
  25 C :   -0.032260
  26 C :   -0.015870
  27 C :   -0.012633
  28 N :   -0.017526
  29 C :   -0.017708
  30 C :   -0.022546
  31 N :   -0.015546
  32 C :   -0.040188
  33 N :    0.003340
  34 C :   -0.040148
  35 N :    0.007374
  36 C :   -0.042357
  37 C :   -0.035024
  38 C :   -0.037855
  39 N :   -0.268891
  40 S :    0.711035
  41 N :   -0.270704
  42 C :   -0.159825
  43 C :   -0.010625
  44 C :   -0.061434
  45 C :   -0.185100
  46 S :    0.512362
  47 C :   -0.162453
  48 C :   -0.069302
  49 C :    0.074898
  50 C :   -0.094854
  51 C :   -0.024493
  52 N :   -0.014516
  53 C :   -0.014659
  54 N :   -0.032934
  55 C :    0.012601
  56 C :   -0.172185
  57 S :    0.502160
  58 C :    0.036665
  59 C :   -0.092160
  60 C :    0.078125
  61 C :   -0.139092
  62 C :   -0.017091
  63 N :   -0.052193
  64 C :   -0.022744
  65 N :   -0.050441
  66 C :   -0.011437
  67 C :   -0.051070
  68 C :    0.087491
  69 O :   -0.134135
  70 C :    0.018922
  71 C :   -0.006406
  72 C :    0.002054
  73 C :   -0.006902
  74 C :   -0.043086
  75 H :    0.035976
  76 H :    0.040901
  77 H :    0.035274
  78 H :    0.037326
  79 H :    0.042066
  80 H :    0.038913
  81 H :    0.038730
  82 H :    0.042766
  83 H :    0.041447
  84 H :    0.041437
  85 H :    0.031995
  86 H :    0.036694
  87 H :    0.035082
  88 H :    0.044758
  89 H :    0.037384

  Mayer bond orders larger than 0.100000
B(  0-C ,  1-S ) :   1.0403 B(  0-C ,  5-C ) :   0.9481 B(  0-C ,  8-C ) :   1.7293
B(  1-S ,  2-C ) :   0.9867 B(  2-C ,  3-O ) :   2.1367 B(  2-C ,  4-N ) :   1.0645
B(  4-N ,  5-C ) :   1.0795 B(  4-N ,  7-C ) :   0.9280 B(  5-C ,  6-O ) :   2.0717
B(  7-C , 75-H ) :   0.9756 B(  7-C , 76-H ) :   0.9574 B(  7-C , 77-H ) :   0.9778
B(  8-C ,  9-C ) :   1.1822 B(  8-C , 78-H ) :   0.9254 B(  9-C , 10-C ) :   1.4266
B(  9-C , 13-S ) :   1.0896 B( 10-C , 11-C ) :   1.2944 B( 10-C , 79-H ) :   0.9731
B( 11-C , 12-C ) :   1.3935 B( 11-C , 16-C ) :   0.9930 B( 12-C , 13-S ) :   1.1388
B( 12-C , 14-C ) :   1.2146 B( 14-C , 15-C ) :   1.3901 B( 14-C , 24-S ) :   1.0873
B( 15-C , 16-C ) :   0.9874 B( 15-C , 22-C ) :   1.2917 B( 16-C , 17-C ) :   1.7146
B( 17-C , 18-C ) :   1.1418 B( 17-C , 20-C ) :   1.1324 B( 18-C , 19-N ) :   2.9827
B( 20-C , 21-N ) :   3.0000 B( 22-C , 23-C ) :   1.3960 B( 22-C , 80-H ) :   0.9807
B( 23-C , 24-S ) :   1.0824 B( 23-C , 25-C ) :   1.2255 B( 25-C , 26-C ) :   1.2436
B( 25-C , 36-C ) :   0.1213 B( 25-C , 38-C ) :   1.1907 B( 26-C , 27-C ) :   1.1098
B( 26-C , 31-N ) :   1.4095 B( 27-C , 28-N ) :   1.4017 B( 27-C , 36-C ) :   1.2539
B( 28-N , 29-C ) :   1.6946 B( 29-C , 30-C ) :   1.2211 B( 29-C , 34-C ) :   1.1663
B( 30-C , 31-N ) :   1.6868 B( 30-C , 32-C ) :   1.1680 B( 32-C , 33-N ) :   3.0390
B( 34-C , 35-N ) :   3.0392 B( 36-C , 37-C ) :   1.1954 B( 36-C , 42-C ) :   1.2086
B( 37-C , 38-C ) :   1.0990 B( 37-C , 41-N ) :   1.5164 B( 38-C , 39-N ) :   1.5164
B( 39-N , 40-S ) :   1.2876 B( 39-N , 41-N ) :   0.1456 B( 40-S , 41-N ) :   1.2845
B( 42-C , 43-C ) :   1.4064 B( 42-C , 46-S ) :   1.0947 B( 43-C , 44-C ) :   1.2839
B( 43-C , 81-H ) :   0.9810 B( 44-C , 45-C ) :   1.3966 B( 44-C , 49-C ) :   0.9880
B( 45-C , 46-S ) :   1.0794 B( 45-C , 47-C ) :   1.2152 B( 47-C , 48-C ) :   1.3695
B( 47-C , 57-S ) :   1.1612 B( 48-C , 49-C ) :   0.9937 B( 48-C , 55-C ) :   1.3046
B( 49-C , 50-C ) :   1.7123 B( 50-C , 51-C ) :   1.1356 B( 50-C , 53-C ) :   1.1434
B( 51-C , 52-N ) :   3.0015 B( 53-C , 54-N ) :   2.9822 B( 55-C , 56-C ) :   1.3982
B( 55-C , 82-H ) :   0.9690 B( 56-C , 57-S ) :   1.0835 B( 56-C , 58-C ) :   1.2139
B( 58-C , 59-C ) :   1.6101 B( 58-C , 83-H ) :   0.9006 B( 59-C , 60-C ) :   1.0819
B( 59-C , 68-C ) :   0.9261 B( 60-C , 61-C ) :   1.6195 B( 60-C , 66-C ) :   0.9777
B( 61-C , 62-C ) :   1.1512 B( 61-C , 64-C ) :   1.1382 B( 62-C , 63-N ) :   2.9636
B( 64-C , 65-N ) :   2.9512 B( 66-C , 67-C ) :   1.3312 B( 66-C , 73-C ) :   1.3627
B( 67-C , 68-C ) :   0.9643 B( 67-C , 70-C ) :   1.3747 B( 68-C , 69-O ) :   2.1616
B( 69-O , 82-H ) :   0.1033 B( 70-C , 71-C ) :   1.3493 B( 70-C , 84-H ) :   1.0071
B( 71-C , 72-C ) :   1.3779 B( 71-C , 85-H ) :   0.9928 B( 72-C , 73-C ) :   1.3623
B( 72-C , 74-C ) :   1.0535 B( 73-C , 86-H ) :   0.9827 B( 74-C , 87-H ) :   0.9579
B( 74-C , 88-H ) :   0.9505 B( 74-C , 89-H ) :   0.9586

-----------------------------------------------------------------------------
         ABSORPTION SPECTRUM VIA TRANSITION ELECTRIC DIPOLE MOMENTS
-----------------------------------------------------------------------------
State   Energy  Wavelength   fosc         T2         TX        TY        TZ
        (cm-1)    (nm)                  (au**2)     (au)      (au)      (au)
-----------------------------------------------------------------------------
   0    7063.4   1415.7   0.709365804  33.06208   2.16509  -4.76136  -2.38829
   1   13526.1    739.3   0.005066795   0.12332  -0.18363   0.00964  -0.29918
   2   14264.5    701.0   0.083420184   1.92526  -0.59317   1.16938   0.45383
   3   15546.5    643.2   0.006779644   0.14357   0.15888   0.16222   0.30333
   4   20929.9    477.8   1.145554020  18.01874  -1.71823   3.66365   1.28223
   5   21059.9    474.8   0.029766620   0.46532   0.33503  -0.59352  -0.02851
   6   22351.2    447.4   0.501527667   7.38701   0.68813  -2.52464  -0.73464
   7   23047.1    433.9   0.029547633   0.42207   0.21719  -0.60041  -0.12000
   8   23309.9    429.0   0.037902660   0.53531  -0.09791  -0.60812   0.39486
   9   24074.6    415.4   0.098789402   1.35091   0.31186   0.17721  -1.10556
  10   24359.4    410.5   0.007913595   0.10695  -0.13754   0.28845  -0.06951
  11   24485.9    408.4   0.017238319   0.23177  -0.11439   0.09362   0.45817
  12   25175.5    397.2   0.001386594   0.01813  -0.07655   0.02799  -0.10719
  13   26097.0    383.2   0.564587008   7.12222  -0.80880   1.92468   1.66243
  14   26395.3    378.9   0.113776942   1.41907   0.43602  -0.10816  -1.10329
  15   27487.3    363.8   0.083061626   0.99482   0.58355  -0.41777  -0.69265
  16   27750.6    360.4   0.000171816   0.00204  -0.03997  -0.00797   0.01942
  17   28171.7    355.0   0.019058633   0.22272   0.20186  -0.39714   0.15574
  18   29096.4    343.7   0.087227638   0.98694  -0.33878  -0.19127   0.91410
  19   29113.0    343.5   0.096091534   1.08661  -0.30880   0.99040   0.10182
  20   29566.4    338.2   0.095949137   1.06836  -0.04598   0.91873  -0.47137
  21   29992.2    333.4   0.069343208   0.76115  -0.13883  -0.68445   0.52288
  22   30302.6    330.0   0.031408897   0.34123   0.22840  -0.53673  -0.03141
  23   30574.0    327.1   0.000560989   0.00604  -0.01237   0.07437  -0.01889
  24   30979.2    322.8   0.030806346   0.32737   0.19796   0.21312  -0.49271
  25   31166.9    320.9   0.163808861   1.73029  -0.32213  -0.82887   0.96927
  26   31458.9    317.9   0.336783357   3.52438  -0.89601   1.21091   1.12038
  27   31738.5    315.1   0.147557711   1.53056   0.22004   0.97459  -0.72960
  28   32156.4    311.0   0.549755398   5.62830  -0.38421  -1.72643   1.58118
  29   32615.0    306.6   0.732585079   7.39462  -1.20143  -0.95552   2.24459
  30   32725.5    305.6   0.011438360   0.11507  -0.10764  -0.21540   0.23892
  31   32744.1    305.4   0.020940422   0.21054  -0.14807  -0.33862   0.27193
  32   32921.0    303.8   0.048448328   0.48449  -0.25444   0.37045   0.53152
  33   33115.6    302.0   0.005733373   0.05700  -0.04646  -0.14362   0.18496
  34   33385.1    299.5   0.000275102   0.00271   0.00443  -0.00113   0.05188
  35   33589.2    297.7   0.071266078   0.69849  -0.34855   0.61413   0.44704
  36   33735.5    296.4   0.000108777   0.00106   0.00144  -0.01443  -0.02917
  37   33885.6    295.1   0.018428374   0.17904  -0.01513   0.41960  -0.05239
  38   34113.0    293.1   0.055223074   0.53294  -0.22368   0.16274   0.67559
  39   34584.8    289.1   0.221635661   2.10975  -0.38100   1.39151   0.16818
  40   35046.3    285.3   0.028244293   0.26532   0.13428  -0.33364  -0.36874
  41   35306.6    283.2   0.011929862   0.11124   0.14798  -0.19041  -0.23040
  42   35325.9    283.1   0.107988251   1.00637   0.30296  -0.77596  -0.55900
  43   35500.1    281.7   0.240000808   2.22566   0.65970   0.43084  -1.26682
  44   35699.1    280.1   0.127684546   1.17749   0.59918  -0.70635  -0.56528
  45   36388.3    274.8   0.092047605   0.83277   0.38416   0.26843  -0.78303
  46   36534.6    273.7   0.119986676   1.08120   0.49714  -0.26104  -0.87516
  47   36678.0    272.6   0.041314799   0.37083  -0.09097   0.59513  -0.09150
  48   37557.5    266.3   0.243896964   2.13789   0.50196   0.67186  -1.19772
  49   37668.6    265.5   0.008636425   0.07548  -0.12829   0.20656   0.12788
  50   37696.6    265.3   0.017498066   0.15281  -0.10269  -0.28590   0.24603
  51   38134.8    262.2   0.020071185   0.17327  -0.16241   0.01603   0.38293
  52   38268.0    261.3   0.147311095   1.26729   0.05493   0.94925  -0.60265
  53   38664.7    258.6   0.407299943   3.46797  -0.47874  -1.22975   1.31396
  54   38708.7    258.3   0.004682116   0.03982  -0.04790  -0.14873   0.12413
  55   38830.6    257.5   0.002643999   0.02242  -0.00413   0.01904  -0.14845
  56   38860.6    257.3   0.007212444   0.06110  -0.15271   0.16627   0.10067
  57   39320.6    254.3   0.084808317   0.71006  -0.39129  -0.03656   0.74539
  58   39474.3    253.3   0.018808609   0.15686  -0.08334  -0.28960   0.25700
  59   39617.7    252.4   0.001575197   0.01309  -0.01452   0.11312   0.00912
  60   39828.2    251.1   0.005661809   0.04680   0.15416   0.00953   0.15147
  61   40117.5    249.3   0.150738548   1.23699  -0.40570  -0.23644   1.00821
  62   40164.2    249.0   0.030038037   0.24621  -0.13676   0.46706  -0.09677
  63   40255.2    248.4   0.001261459   0.01032   0.07663  -0.06646  -0.00521

FINAL SINGLE POINT ENERGY     -5350.642058760142

DIPOLE MOMENT
-------------
                                X             Y             Z
Electronic contribution:    -25.53645      26.23122      18.32744
Nuclear contribution   :     25.81608     -25.75048     -19.16759
                        -----------------------------------------
Total Dipole Moment    :      0.27963       0.48075      -0.84015
                        -----------------------------------------
Magnitude (a.u.)       :      1.00755
Magnitude (Debye)      :      2.56100

Rotational constants in cm-1:     0.002439     0.000201     0.000187
Rotational constants in MHz :    73.124566     6.022824     5.607135

                             ****ORCA TERMINATED NORMALLY****
TOTAL RUN TIME: 0 days 0 hours 9 minutes 43 seconds 574 msec
