                         Program Version 4.2.0 -  RELEASE  -
|  1> # ORCA input file
|  2> # SCF done       -182.551382531457          0.000613659872
|  3> ! CAM-B3LYP def2-SVP def2/J RIJCOSX Grid4 TightSCF
|  4> %maxcore 5000
|  5> %tddft
|  6>     Mode sTDDFT
|  7>     Ethresh 5.0
|  8>     maxcore 5000
|  9> end
| 10>
| 11> %pal
| 12>   nprocs 6
| 13>   end
| 14> * xyz 0 1
| 15>    C        4.47808        -6.98675        -9.00160
| 16>    S        5.87816        -6.67817       -10.00816
| 17>    C        4.93175        -6.92923       -11.51004
| 18>    O        5.37320        -6.79626       -12.61206
| 19>    N        3.66298        -7.29977       -11.17161
| 20>    C        3.33259        -7.39948        -9.83141
| 21>    O        2.26837        -7.82336        -9.45235
| 22>    C        2.67933        -7.60294       -12.18922
| 23>    C        4.51950        -6.93042        -7.65292
| 24>    C        3.39869        -7.03142        -6.77448
| 25>    C        3.43595        -7.70137        -5.47087
| 26>    N        2.30396        -7.68718        -4.82901
| 27>    C        1.44661        -6.98313        -5.61858
| 28>    C        2.11483        -6.54592        -6.85447
| 29>    C        1.21807        -5.72815        -7.63530
| 30>    S        1.59647        -4.92617        -9.02027
| 31>    C       -0.02061        -5.73437        -6.89589
| 32>    C        0.15595        -6.52599        -5.66199
| 33>    N       -1.00352        -6.58160        -4.94965
| 34>    C       -1.87299        -5.92105        -5.65672
| 35>    C       -1.34479        -5.34593        -6.89750
| 36>    C       -2.12524        -4.54341        -7.79902
| 37>    C       -3.49778        -4.70410        -7.85745
| 38>    C       -4.25904        -3.91235        -8.73058
| 39>    C       -5.63241        -3.88276        -8.97325
| 40>    C       -6.65150        -4.76653        -8.34992
| 41>    C       -7.55698        -3.98451        -7.37507
| 42>    N       -6.79517        -3.60304        -6.20016
| 43>    C       -7.50409        -5.51525        -9.39245
| 44>    N       -8.31156        -6.51834        -8.72173
| 45>    C       -5.86095        -2.82446        -9.92851
| 46>    C       -6.98999        -2.30984       -10.45509
| 47>    C       -6.95755        -1.20878       -11.45568
| 48>    C       -5.59883        -0.65653       -11.73975
| 49>    C       -4.47798        -1.16454       -11.19108
| 50>    C       -4.55569        -2.24151       -10.27933
| 51>    C       -3.59264        -2.91013        -9.54489
| 52>    C       -2.18994        -2.77006        -9.46787
| 53>    C       -1.48385        -3.56696        -8.62373
| 54>    C       -7.51318        -1.75313       -12.75136
| 55>    C       -8.59939        -1.25978       -13.35384
| 56>    C       -9.14358        -1.73878       -14.58700
| 57>    C       -8.64991        -2.81637       -15.44578
| 58>    N       -9.37321        -3.03361       -16.50932
| 59>    C      -10.39024        -2.12936       -16.45226
| 60>    C      -10.26269        -1.28883       -15.24727
| 61>    C      -11.34675        -0.34607       -15.18431
| 62>    S      -11.70910         0.69633       -13.96213
| 63>    C      -12.10327        -0.59827       -16.38248
| 64>    C      -11.51494        -1.72692       -17.12747
| 65>    N      -12.28438        -2.03699       -18.20695
| 66>    C      -13.29905        -1.22041       -18.16391
| 67>    C      -13.25852        -0.26829       -17.05234
| 68>    C      -14.25383         0.69578       -16.71471
| 69>    C      -13.96930         1.88191       -16.12451
| 70>    C      -14.88592         2.80647       -15.47678
| 71>    C      -16.25302         2.74964       -15.48742
| 72>    C      -17.09132         3.67847       -14.83393
| 73>    N      -17.82916         4.39735       -14.32761
| 74>    C      -17.01598         1.78216       -16.17527
| 75>    N      -17.69529         1.03042       -16.71527
| 76>    C      -14.07422         3.80905       -14.79431
| 77>    C      -12.72031         3.61431       -15.12558
| 78>    C      -12.59508         2.47958       -16.05348
| 79>    O      -11.64176         2.18810       -16.74084
| 80>    C      -11.73453         4.44000       -14.61963
| 81>    C      -12.10704         5.45929       -13.75949
| 82>    C      -13.44197         5.66443       -13.41192
| 83>    C      -14.43168         4.83513       -13.93508
| 84>    C      -13.81697         6.75723       -12.46240
| 85>    H        3.04526        -7.22898       -13.14282
| 86>    H        1.73990        -7.12053       -11.92156
| 87>    H        2.52160        -8.68083       -12.24830
| 88>    H        5.48450        -6.79630        -7.17844
| 89>    H        4.29835        -8.19595        -5.05905
| 90>    H       -2.87836        -5.79563        -5.29389
| 91>    H       -3.98455        -5.45158        -7.25030
| 92>    H       -6.13013        -5.52628        -7.75796
| 93>    H       -8.42362        -4.62606        -7.15465
| 94>    H       -7.91203        -3.06962        -7.85348
| 95>    H       -6.58639        -4.41784        -5.63305
| 96>    H       -7.31901        -2.95229        -5.62739
| 97>    H       -6.82981        -5.93326       -10.15894
| 98>    H       -8.18771        -4.82384        -9.88810
| 99>    H       -7.72395        -7.25465        -8.34446
|100>    H       -8.96482        -6.94440        -9.36870
|101>    H       -7.97115        -2.68649       -10.20496
|102>    H       -7.62169        -0.40098       -11.12037
|103>    H       -5.56119         0.16320       -12.44043
|104>    H       -3.51038        -0.74541       -11.42475
|105>    H       -1.69020        -2.02935       -10.07355
|106>    H       -0.41352        -3.46642        -8.55009
|107>    H       -6.95080        -2.57057       -13.17815
|108>    H       -9.14348        -0.43675       -12.90671
|109>    H       -7.76732        -3.40523       -15.26780
|110>    H      -14.06857        -1.25678       -18.91537
|111>    H      -15.27928         0.40685       -16.90757
|112>    H      -10.70268         4.27777       -14.89047
|113>    H      -11.35162         6.11183       -13.34631
|114>    H      -15.46080         5.00339       -13.66064
|115>    H      -13.09562         7.56986       -12.49617
|116>    H      -13.83871         6.36678       -11.44435
|117>    H      -14.80602         7.14652       -12.69089
|118> *
|119>
|120>                          ****END OF INPUT****

CARTESIAN COORDINATES (ANGSTROEM)
---------------------------------
  C      4.478080   -6.986750   -9.001600
  S      5.878160   -6.678170  -10.008160
  C      4.931750   -6.929230  -11.510040
  O      5.373200   -6.796260  -12.612060
  N      3.662980   -7.299770  -11.171610
  C      3.332590   -7.399480   -9.831410
  O      2.268370   -7.823360   -9.452350
  C      2.679330   -7.602940  -12.189220
  C      4.519500   -6.930420   -7.652920
  C      3.398690   -7.031420   -6.774480
  C      3.435950   -7.701370   -5.470870
  N      2.303960   -7.687180   -4.829010
  C      1.446610   -6.983130   -5.618580
  C      2.114830   -6.545920   -6.854470
  C      1.218070   -5.728150   -7.635300
  S      1.596470   -4.926170   -9.020270
  C     -0.020610   -5.734370   -6.895890
  C      0.155950   -6.525990   -5.661990
  N     -1.003520   -6.581600   -4.949650
  C     -1.872990   -5.921050   -5.656720
  C     -1.344790   -5.345930   -6.897500
  C     -2.125240   -4.543410   -7.799020
  C     -3.497780   -4.704100   -7.857450
  C     -4.259040   -3.912350   -8.730580
  C     -5.632410   -3.882760   -8.973250
  C     -6.651500   -4.766530   -8.349920
  C     -7.556980   -3.984510   -7.375070
  N     -6.795170   -3.603040   -6.200160
  C     -7.504090   -5.515250   -9.392450
  N     -8.311560   -6.518340   -8.721730
  C     -5.860950   -2.824460   -9.928510
  C     -6.989990   -2.309840  -10.455090
  C     -6.957550   -1.208780  -11.455680
  C     -5.598830   -0.656530  -11.739750
  C     -4.477980   -1.164540  -11.191080
  C     -4.555690   -2.241510  -10.279330
  C     -3.592640   -2.910130   -9.544890
  C     -2.189940   -2.770060   -9.467870
  C     -1.483850   -3.566960   -8.623730
  C     -7.513180   -1.753130  -12.751360
  C     -8.599390   -1.259780  -13.353840
  C     -9.143580   -1.738780  -14.587000
  C     -8.649910   -2.816370  -15.445780
  N     -9.373210   -3.033610  -16.509320
  C    -10.390240   -2.129360  -16.452260
  C    -10.262690   -1.288830  -15.247270
  C    -11.346750   -0.346070  -15.184310
  S    -11.709100    0.696330  -13.962130
  C    -12.103270   -0.598270  -16.382480
  C    -11.514940   -1.726920  -17.127470
  N    -12.284380   -2.036990  -18.206950
  C    -13.299050   -1.220410  -18.163910
  C    -13.258520   -0.268290  -17.052340
  C    -14.253830    0.695780  -16.714710
  C    -13.969300    1.881910  -16.124510
  C    -14.885920    2.806470  -15.476780
  C    -16.253020    2.749640  -15.487420
  C    -17.091320    3.678470  -14.833930
  N    -17.829160    4.397350  -14.327610
  C    -17.015980    1.782160  -16.175270
  N    -17.695290    1.030420  -16.715270
  C    -14.074220    3.809050  -14.794310
  C    -12.720310    3.614310  -15.125580
  C    -12.595080    2.479580  -16.053480
  O    -11.641760    2.188100  -16.740840
  C    -11.734530    4.440000  -14.619630
  C    -12.107040    5.459290  -13.759490
  C    -13.441970    5.664430  -13.411920
  C    -14.431680    4.835130  -13.935080
  C    -13.816970    6.757230  -12.462400
  H      3.045260   -7.228980  -13.142820
  H      1.739900   -7.120530  -11.921560
  H      2.521600   -8.680830  -12.248300
  H      5.484500   -6.796300   -7.178440
  H      4.298350   -8.195950   -5.059050
  H     -2.878360   -5.795630   -5.293890
  H     -3.984550   -5.451580   -7.250300
  H     -6.130130   -5.526280   -7.757960
  H     -8.423620   -4.626060   -7.154650
  H     -7.912030   -3.069620   -7.853480
  H     -6.586390   -4.417840   -5.633050
  H     -7.319010   -2.952290   -5.627390
  H     -6.829810   -5.933260  -10.158940
  H     -8.187710   -4.823840   -9.888100
  H     -7.723950   -7.254650   -8.344460
  H     -8.964820   -6.944400   -9.368700
  H     -7.971150   -2.686490  -10.204960
  H     -7.621690   -0.400980  -11.120370
  H     -5.561190    0.163200  -12.440430
  H     -3.510380   -0.745410  -11.424750
  H     -1.690200   -2.029350  -10.073550
  H     -0.413520   -3.466420   -8.550090
  H     -6.950800   -2.570570  -13.178150
  H     -9.143480   -0.436750  -12.906710
  H     -7.767320   -3.405230  -15.267800
  H    -14.068570   -1.256780  -18.915370
  H    -15.279280    0.406850  -16.907570
  H    -10.702680    4.277770  -14.890470
  H    -11.351620    6.111830  -13.346310
  H    -15.460800    5.003390  -13.660640
  H    -13.095620    7.569860  -12.496170
  H    -13.838710    6.366780  -11.444350
  H    -14.806020    7.146520  -12.690890

 Total Charge           Charge          ....    0
 Multiplicity           Mult            ....    1
 Number of Electrons    NEL             ....  498
 Basis Dimension        Dim             .... 1157

ORBITAL ENERGIES
----------------

  NO   OCC          E(Eh)            E(eV)
   0   2.0000     -88.953188     -2420.5393
   1   2.0000     -88.915359     -2419.5099
   2   2.0000     -88.897541     -2419.0251
   3   2.0000     -19.216023      -522.8946
   4   2.0000     -19.215590      -522.8828
   5   2.0000     -19.209747      -522.7238
   6   2.0000     -14.469201      -393.7270
   7   2.0000     -14.427125      -392.5820
   8   2.0000     -14.422876      -392.4664
   9   2.0000     -14.422769      -392.4635
  10   2.0000     -14.420081      -392.3904
  11   2.0000     -14.413904      -392.2223
  12   2.0000     -14.410891      -392.1403
  13   2.0000     -14.388778      -391.5386
  14   2.0000     -14.377623      -391.2350
  15   2.0000     -10.411549      -283.3126
  16   2.0000     -10.397133      -282.9204
  17   2.0000     -10.371319      -282.2179
  18   2.0000     -10.353351      -281.7290
  19   2.0000     -10.349808      -281.6326
  20   2.0000     -10.347671      -281.5744
  21   2.0000     -10.347141      -281.5600
  22   2.0000     -10.343444      -281.4594
  23   2.0000     -10.342923      -281.4452
  24   2.0000     -10.340616      -281.3825
  25   2.0000     -10.339035      -281.3394
  26   2.0000     -10.333564      -281.1906
  27   2.0000     -10.330523      -281.1078
  28   2.0000     -10.329734      -281.0864
  29   2.0000     -10.324986      -280.9572
  30   2.0000     -10.324844      -280.9533
  31   2.0000     -10.324692      -280.9492
  32   2.0000     -10.322585      -280.8918
  33   2.0000     -10.321043      -280.8499
  34   2.0000     -10.315231      -280.6917
  35   2.0000     -10.313847      -280.6541
  36   2.0000     -10.311436      -280.5884
  37   2.0000     -10.310532      -280.5638
  38   2.0000     -10.310019      -280.5499
  39   2.0000     -10.309621      -280.5390
  40   2.0000     -10.308850      -280.5181
  41   2.0000     -10.307032      -280.4686
  42   2.0000     -10.306893      -280.4648
  43   2.0000     -10.304023      -280.3867
  44   2.0000     -10.303589      -280.3749
  45   2.0000     -10.303452      -280.3712
  46   2.0000     -10.303399      -280.3697
  47   2.0000     -10.302646      -280.3493
  48   2.0000     -10.296696      -280.1873
  49   2.0000     -10.295714      -280.1606
  50   2.0000     -10.295151      -280.1453
  51   2.0000     -10.294041      -280.1151
  52   2.0000     -10.293388      -280.0973
  53   2.0000     -10.292923      -280.0847
  54   2.0000     -10.292298      -280.0677
  55   2.0000     -10.291375      -280.0425
  56   2.0000     -10.287978      -279.9501
  57   2.0000     -10.283023      -279.8153
  58   2.0000     -10.281771      -279.7812
  59   2.0000     -10.279008      -279.7060
  60   2.0000     -10.278882      -279.7026
  61   2.0000     -10.277652      -279.6691
  62   2.0000     -10.276240      -279.6307
  63   2.0000     -10.271800      -279.5099
  64   2.0000     -10.269845      -279.4567
  65   2.0000     -10.269296      -279.4417
  66   2.0000     -10.268772      -279.4275
  67   2.0000     -10.267046      -279.3805
  68   2.0000     -10.266291      -279.3600
  69   2.0000     -10.262681      -279.2618
  70   2.0000      -8.051022      -219.0795
  71   2.0000      -8.010665      -217.9813
  72   2.0000      -7.993145      -217.5045
  73   2.0000      -6.020670      -163.8308
  74   2.0000      -6.017009      -163.7311
  75   2.0000      -6.011272      -163.5750
  76   2.0000      -5.979365      -162.7068
  77   2.0000      -5.978943      -162.6953
  78   2.0000      -5.970348      -162.4614
  79   2.0000      -5.961902      -162.2316
  80   2.0000      -5.961742      -162.2273
  81   2.0000      -5.952426      -161.9738
  82   2.0000      -1.167486       -31.7689
  83   2.0000      -1.141777       -31.0693
  84   2.0000      -1.132557       -30.8184
  85   2.0000      -1.093937       -29.7675
  86   2.0000      -1.081283       -29.4232
  87   2.0000      -1.074400       -29.2359
  88   2.0000      -1.062208       -28.9041
  89   2.0000      -1.054180       -28.6857
  90   2.0000      -1.023474       -27.8501
  91   2.0000      -1.001373       -27.2487
  92   2.0000      -0.998894       -27.1813
  93   2.0000      -0.990099       -26.9420
  94   2.0000      -0.974645       -26.5214
  95   2.0000      -0.973122       -26.4800
  96   2.0000      -0.960244       -26.1296
  97   2.0000      -0.957253       -26.0482
  98   2.0000      -0.955506       -26.0006
  99   2.0000      -0.953580       -25.9482
 100   2.0000      -0.948349       -25.8059
 101   2.0000      -0.928981       -25.2789
 102   2.0000      -0.921093       -25.0642
 103   2.0000      -0.908390       -24.7185
 104   2.0000      -0.905712       -24.6457
 105   2.0000      -0.893667       -24.3179
 106   2.0000      -0.881087       -23.9756
 107   2.0000      -0.872823       -23.7507
 108   2.0000      -0.869309       -23.6551
 109   2.0000      -0.864512       -23.5246
 110   2.0000      -0.854097       -23.2412
 111   2.0000      -0.851105       -23.1597
 112   2.0000      -0.842758       -22.9326
 113   2.0000      -0.839768       -22.8512
 114   2.0000      -0.833525       -22.6814
 115   2.0000      -0.824718       -22.4417
 116   2.0000      -0.813616       -22.1396
 117   2.0000      -0.803774       -21.8718
 118   2.0000      -0.802457       -21.8360
 119   2.0000      -0.789647       -21.4874
 120   2.0000      -0.780433       -21.2367
 121   2.0000      -0.775854       -21.1121
 122   2.0000      -0.760614       -20.6974
 123   2.0000      -0.758378       -20.6365
 124   2.0000      -0.751976       -20.4623
 125   2.0000      -0.744988       -20.2722
 126   2.0000      -0.740744       -20.1567
 127   2.0000      -0.726007       -19.7557
 128   2.0000      -0.724911       -19.7258
 129   2.0000      -0.717035       -19.5115
 130   2.0000      -0.708713       -19.2851
 131   2.0000      -0.707982       -19.2652
 132   2.0000      -0.695794       -18.9335
 133   2.0000      -0.693070       -18.8594
 134   2.0000      -0.690114       -18.7790
 135   2.0000      -0.681778       -18.5521
 136   2.0000      -0.673809       -18.3353
 137   2.0000      -0.673420       -18.3247
 138   2.0000      -0.666489       -18.1361
 139   2.0000      -0.659431       -17.9440
 140   2.0000      -0.653608       -17.7856
 141   2.0000      -0.646278       -17.5861
 142   2.0000      -0.642547       -17.4846
 143   2.0000      -0.635254       -17.2862
 144   2.0000      -0.625681       -17.0257
 145   2.0000      -0.618718       -16.8362
 146   2.0000      -0.615493       -16.7484
 147   2.0000      -0.609168       -16.5763
 148   2.0000      -0.600373       -16.3370
 149   2.0000      -0.591464       -16.0946
 150   2.0000      -0.588289       -16.0081
 151   2.0000      -0.586731       -15.9658
 152   2.0000      -0.585895       -15.9430
 153   2.0000      -0.583205       -15.8698
 154   2.0000      -0.581016       -15.8102
 155   2.0000      -0.574158       -15.6236
 156   2.0000      -0.571691       -15.5565
 157   2.0000      -0.568393       -15.4668
 158   2.0000      -0.563957       -15.3460
 159   2.0000      -0.560711       -15.2577
 160   2.0000      -0.555858       -15.1257
 161   2.0000      -0.554623       -15.0921
 162   2.0000      -0.551525       -15.0078
 163   2.0000      -0.545623       -14.8472
 164   2.0000      -0.543377       -14.7860
 165   2.0000      -0.541960       -14.7475
 166   2.0000      -0.539364       -14.6768
 167   2.0000      -0.536711       -14.6046
 168   2.0000      -0.532731       -14.4963
 169   2.0000      -0.532321       -14.4852
 170   2.0000      -0.532055       -14.4780
 171   2.0000      -0.527771       -14.3614
 172   2.0000      -0.525361       -14.2958
 173   2.0000      -0.523455       -14.2439
 174   2.0000      -0.521627       -14.1942
 175   2.0000      -0.518516       -14.1095
 176   2.0000      -0.514841       -14.0095
 177   2.0000      -0.514219       -13.9926
 178   2.0000      -0.513485       -13.9727
 179   2.0000      -0.509530       -13.8650
 180   2.0000      -0.509229       -13.8568
 181   2.0000      -0.507653       -13.8139
 182   2.0000      -0.501739       -13.6530
 183   2.0000      -0.499375       -13.5887
 184   2.0000      -0.497836       -13.5468
 185   2.0000      -0.494769       -13.4633
 186   2.0000      -0.494263       -13.4496
 187   2.0000      -0.493598       -13.4315
 188   2.0000      -0.491746       -13.3811
 189   2.0000      -0.488406       -13.2902
 190   2.0000      -0.486572       -13.2403
 191   2.0000      -0.484874       -13.1941
 192   2.0000      -0.483610       -13.1597
 193   2.0000      -0.480788       -13.0829
 194   2.0000      -0.477291       -12.9878
 195   2.0000      -0.475494       -12.9389
 196   2.0000      -0.474647       -12.9158
 197   2.0000      -0.466275       -12.6880
 198   2.0000      -0.464284       -12.6338
 199   2.0000      -0.456472       -12.4212
 200   2.0000      -0.455437       -12.3931
 201   2.0000      -0.454877       -12.3778
 202   2.0000      -0.454005       -12.3541
 203   2.0000      -0.452298       -12.3077
 204   2.0000      -0.451122       -12.2757
 205   2.0000      -0.449095       -12.2205
 206   2.0000      -0.446885       -12.1604
 207   2.0000      -0.442348       -12.0369
 208   2.0000      -0.440752       -11.9935
 209   2.0000      -0.436560       -11.8794
 210   2.0000      -0.436471       -11.8770
 211   2.0000      -0.431816       -11.7503
 212   2.0000      -0.427145       -11.6232
 213   2.0000      -0.426947       -11.6178
 214   2.0000      -0.424990       -11.5646
 215   2.0000      -0.417093       -11.3497
 216   2.0000      -0.416225       -11.3261
 217   2.0000      -0.415788       -11.3142
 218   2.0000      -0.413241       -11.2449
 219   2.0000      -0.409249       -11.1362
 220   2.0000      -0.407745       -11.0953
 221   2.0000      -0.400770       -10.9055
 222   2.0000      -0.390489       -10.6258
 223   2.0000      -0.380480       -10.3534
 224   2.0000      -0.373892       -10.1741
 225   2.0000      -0.371862       -10.1189
 226   2.0000      -0.364561        -9.9202
 227   2.0000      -0.360998        -9.8233
 228   2.0000      -0.359926        -9.7941
 229   2.0000      -0.354744        -9.6531
 230   2.0000      -0.352408        -9.5895
 231   2.0000      -0.350087        -9.5264
 232   2.0000      -0.349218        -9.5027
 233   2.0000      -0.343753        -9.3540
 234   2.0000      -0.336869        -9.1667
 235   2.0000      -0.336446        -9.1552
 236   2.0000      -0.333419        -9.0728
 237   2.0000      -0.325641        -8.8611
 238   2.0000      -0.321585        -8.7508
 239   2.0000      -0.320005        -8.7078
 240   2.0000      -0.310516        -8.4496
 241   2.0000      -0.308541        -8.3958
 242   2.0000      -0.303406        -8.2561
 243   2.0000      -0.294444        -8.0122
 244   2.0000      -0.291835        -7.9412
 245   2.0000      -0.290987        -7.9182
 246   2.0000      -0.289092        -7.8666
 247   2.0000      -0.278618        -7.5816
 248   2.0000      -0.225681        -6.1411
 249   0.0000      -0.124498        -3.3878
 250   0.0000      -0.110691        -3.0121
 251   0.0000      -0.099968        -2.7203
 252   0.0000      -0.086173        -2.3449
 253   0.0000      -0.078421        -2.1339

MULLIKEN ATOMIC CHARGES
-----------------------
   0 C :   -0.131801
   1 S :    0.053140
   2 C :    0.145360
   3 O :   -0.175366
   4 N :   -0.270787
   5 C :    0.232369
   6 O :   -0.170745
   7 C :    0.135122
   8 C :   -0.012045
   9 C :   -0.012729
  10 C :    0.059458
  11 N :   -0.029297
  12 C :    0.002338
  13 C :    0.042325
  14 C :    0.013486
  15 S :   -0.132121
  16 C :   -0.019676
  17 C :    0.004522
  18 N :   -0.026166
  19 C :    0.052220
  20 C :    0.001621
  21 C :    0.078630
  22 C :   -0.097580
  23 C :    0.061980
  24 C :    0.041387
  25 C :   -0.072280
  26 C :    0.148229
  27 N :   -0.222515
  28 C :    0.142737
  29 N :   -0.215669
  30 C :    0.103912
  31 C :   -0.144733
  32 C :    0.130551
  33 C :   -0.050485
  34 C :    0.029949
  35 C :    0.000814
  36 C :    0.044128
  37 C :   -0.011142
  38 C :    0.012524
  39 C :   -0.033853
  40 C :   -0.002850
  41 C :   -0.003232
  42 C :    0.063433
  43 N :   -0.022096
  44 C :    0.023747
  45 C :   -0.007283
  46 C :    0.020231
  47 S :   -0.126193
  48 C :    0.032057
  49 C :   -0.001370
  50 N :   -0.026998
  51 C :    0.069529
  52 C :    0.001372
  53 C :   -0.046652
  54 C :   -0.036229
  55 C :    0.302730
  56 C :   -0.344131
  57 C :   -0.180921
  58 N :    0.154032
  59 C :   -0.180354
  60 N :    0.153759
  61 C :    0.051982
  62 C :    0.006490
  63 C :    0.110455
  64 O :   -0.143627
  65 C :   -0.016912
  66 C :    0.008779
  67 C :   -0.038742
  68 C :   -0.072069
  69 C :    0.087045
  70 H :    0.052762
  71 H :    0.046903
  72 H :    0.043509
  73 H :    0.010888
  74 H :    0.002885
  75 H :    0.009193
  76 H :   -0.044497
  77 H :   -0.041037
  78 H :    0.001604
  79 H :   -0.024598
  80 H :    0.083444
  81 H :    0.091432
  82 H :   -0.002281
  83 H :   -0.021937
  84 H :    0.091731
  85 H :    0.094228
  86 H :    0.004836
  87 H :    0.029702
  88 H :   -0.007915
  89 H :   -0.031130
  90 H :   -0.036498
  91 H :   -0.028268
  92 H :    0.011567
  93 H :   -0.006050
  94 H :    0.014589
  95 H :    0.017019
  96 H :    0.025940
  97 H :   -0.006678
  98 H :   -0.015016
  99 H :   -0.009927
 100 H :    0.022347
 101 H :    0.043940
 102 H :    0.033516
Sum of atomic charges:   -0.0000000

LOEWDIN ATOMIC CHARGES
----------------------
   0 C :   -0.183366
   1 S :    0.335327
   2 C :   -0.047268
   3 O :   -0.164240
   4 N :   -0.041761
   5 C :    0.062722
   6 O :   -0.156857
   7 C :    0.042762
   8 C :   -0.012034
   9 C :   -0.050254
  10 C :    0.082910
  11 N :   -0.083523
  12 C :    0.030095
  13 C :   -0.008136
  14 C :   -0.129190
  15 S :    0.077464
  16 C :   -0.045416
  17 C :    0.047125
  18 N :   -0.080455
  19 C :    0.090853
  20 C :   -0.020360
  21 C :   -0.028620
  22 C :    0.007189
  23 C :   -0.015163
  24 C :   -0.010585
  25 C :   -0.040919
  26 C :    0.024258
  27 N :   -0.120174
  28 C :    0.025953
  29 N :   -0.113901
  30 C :   -0.012414
  31 C :    0.062709
  32 C :   -0.027287
  33 C :   -0.038805
  34 C :   -0.010399
  35 C :   -0.038945
  36 C :   -0.024989
  37 C :   -0.008890
  38 C :   -0.017329
  39 C :    0.023666
  40 C :   -0.037238
  41 C :   -0.031234
  42 C :    0.097934
  43 N :   -0.076555
  44 C :    0.048851
  45 C :   -0.036621
  46 C :   -0.129750
  47 S :    0.084429
  48 C :    0.001409
  49 C :    0.038916
  50 N :   -0.079293
  51 C :    0.095496
  52 C :   -0.045593
  53 C :    0.047410
  54 C :   -0.055465
  55 C :    0.077521
  56 C :   -0.131469
  57 C :   -0.017815
  58 N :   -0.047725
  59 C :   -0.018075
  60 N :   -0.047092
  61 C :   -0.009097
  62 C :   -0.046455
  63 C :    0.067649
  64 O :   -0.142663
  65 C :    0.015857
  66 C :   -0.005532
  67 C :    0.001686
  68 C :   -0.005675
  69 C :   -0.042851
  70 H :    0.037388
  71 H :    0.035910
  72 H :    0.033715
  73 H :    0.039923
  74 H :    0.024270
  75 H :    0.024826
  76 H :    0.021285
  77 H :    0.019359
  78 H :    0.001220
  79 H :    0.011042
  80 H :    0.048954
  81 H :    0.054843
  82 H :    0.004056
  83 H :    0.013159
  84 H :    0.052928
  85 H :    0.056609
  86 H :    0.028108
  87 H :    0.054979
  88 H :    0.025860
  89 H :    0.032068
  90 H :    0.028093
  91 H :    0.011773
  92 H :    0.028426
  93 H :    0.029972
  94 H :    0.026919
  95 H :    0.030325
  96 H :    0.046590
  97 H :    0.039086
  98 H :    0.031683
  99 H :    0.036674
 100 H :    0.033751
 101 H :    0.044707
 102 H :    0.038790

  Mayer bond orders larger than 0.100000
B(  0-C ,  1-S ) :   1.0407 B(  0-C ,  5-C ) :   0.9247 B(  0-C ,  8-C ) :   1.7773
B(  1-S ,  2-C ) :   0.9778 B(  2-C ,  3-O ) :   2.1296 B(  2-C ,  4-N ) :   1.0735
B(  4-N ,  5-C ) :   1.0651 B(  4-N ,  7-C ) :   0.9326 B(  5-C ,  6-O ) :   2.1589
B(  7-C , 70-H ) :   0.9641 B(  7-C , 71-H ) :   0.9701 B(  7-C , 72-H ) :   0.9786
B(  8-C ,  9-C ) :   1.0797 B(  8-C , 73-H ) :   0.9489 B(  9-C , 10-C ) :   1.0340
B(  9-C , 13-C ) :   1.5383 B( 10-C , 11-N ) :   1.7106 B( 10-C , 74-H ) :   0.9942
B( 11-N , 12-C ) :   1.2741 B( 12-C , 13-C ) :   1.0700 B( 12-C , 17-C ) :   1.5154
B( 13-C , 14-C ) :   1.0380 B( 14-C , 15-S ) :   1.6767 B( 14-C , 16-C ) :   1.0389
B( 16-C , 17-C ) :   1.0611 B( 16-C , 20-C ) :   1.5277 B( 17-C , 18-N ) :   1.2634
B( 18-N , 19-C ) :   1.7233 B( 19-C , 20-C ) :   1.0351 B( 19-C , 75-H ) :   0.9862
B( 20-C , 21-C ) :   1.0209 B( 21-C , 22-C ) :   1.4910 B( 21-C , 38-C ) :   1.1441
B( 22-C , 23-C ) :   1.1512 B( 22-C , 76-H ) :   0.9887 B( 23-C , 24-C ) :   1.4757
B( 23-C , 36-C ) :   1.1171 B( 24-C , 25-C ) :   1.0095 B( 24-C , 30-C ) :   1.0960
B( 25-C , 26-C ) :   1.0311 B( 25-C , 28-C ) :   1.0348 B( 25-C , 77-H ) :   0.8914
B( 26-C , 27-N ) :   1.0816 B( 26-C , 78-H ) :   0.9344 B( 26-C , 79-H ) :   0.9364
B( 27-N , 80-H ) :   0.9739 B( 27-N , 81-H ) :   0.9696 B( 28-C , 29-N ) :   1.0786
B( 28-C , 82-H ) :   0.9462 B( 28-C , 83-H ) :   0.9292 B( 29-N , 84-H ) :   0.9712
B( 29-N , 85-H ) :   0.9676 B( 30-C , 31-C ) :   1.6372 B( 30-C , 35-C ) :   1.0420
B( 31-C , 32-C ) :   0.9785 B( 31-C , 86-H ) :   0.9707 B( 32-C , 33-C ) :   0.9869
B( 32-C , 39-C ) :   0.9523 B( 32-C , 87-H ) :   0.8789 B( 33-C , 34-C ) :   1.6971
B( 33-C , 88-H ) :   0.9761 B( 34-C , 35-C ) :   1.1414 B( 34-C , 89-H ) :   0.9902
B( 35-C , 36-C ) :   1.4350 B( 36-C , 37-C ) :   1.1363 B( 37-C , 38-C ) :   1.6123
B( 37-C , 90-H ) :   0.9945 B( 38-C , 91-H ) :   0.9651 B( 39-C , 40-C ) :   1.7596
B( 39-C , 92-H ) :   0.9623 B( 40-C , 41-C ) :   1.0865 B( 40-C , 93-H ) :   0.9698
B( 41-C , 42-C ) :   1.0127 B( 41-C , 45-C ) :   1.5333 B( 42-C , 43-N ) :   1.7188
B( 42-C , 94-H ) :   0.9902 B( 43-N , 44-C ) :   1.2694 B( 44-C , 45-C ) :   1.0592
B( 44-C , 49-C ) :   1.5176 B( 45-C , 46-C ) :   1.0389 B( 46-C , 47-S ) :   1.6620
B( 46-C , 48-C ) :   1.0375 B( 48-C , 49-C ) :   1.0757 B( 48-C , 52-C ) :   1.5375
B( 49-C , 50-N ) :   1.2769 B( 50-N , 51-C ) :   1.7030 B( 51-C , 52-C ) :   1.0304
B( 51-C , 95-H ) :   0.9955 B( 52-C , 53-C ) :   1.0613 B( 53-C , 54-C ) :   1.7079
B( 53-C , 96-H ) :   0.9336 B( 54-C , 55-C ) :   1.0557 B( 54-C , 63-C ) :   0.8930
B( 55-C , 56-C ) :   1.6508 B( 55-C , 61-C ) :   0.9999 B( 56-C , 57-C ) :   1.1386
B( 56-C , 59-C ) :   1.1407 B( 57-C , 58-N ) :   2.9722 B( 59-C , 60-N ) :   2.9698
B( 61-C , 62-C ) :   1.3264 B( 61-C , 68-C ) :   1.3553 B( 62-C , 63-C ) :   0.9359
B( 62-C , 65-C ) :   1.3716 B( 63-C , 64-O ) :   2.2413 B( 65-C , 66-C ) :   1.3567
B( 65-C , 97-H ) :   1.0072 B( 66-C , 67-C ) :   1.3735 B( 66-C , 98-H ) :   0.9921
B( 67-C , 68-C ) :   1.3679 B( 67-C , 69-C ) :   1.0521 B( 68-C , 99-H ) :   0.9849
B( 69-C ,100-H ) :   0.9590 B( 69-C ,101-H ) :   0.9511 B( 69-C ,102-H ) :   0.9579

-----------------------------------------------------------------------------
         ABSORPTION SPECTRUM VIA TRANSITION ELECTRIC DIPOLE MOMENTS
-----------------------------------------------------------------------------
State   Energy  Wavelength   fosc         T2         TX        TY        TZ
        (cm-1)    (nm)                  (au**2)     (au)      (au)      (au)
-----------------------------------------------------------------------------
   0    9979.9   1002.0   0.167396396   5.52200  -2.10196   0.63758  -0.83503
   1   10846.2    922.0   0.006615217   0.20079   0.33309  -0.18072  -0.23912
   2   13276.1    753.2   0.030539633   0.75730  -0.06081  -0.71179   0.49696
   3   15375.5    650.4   0.013991307   0.29957  -0.50155   0.19539  -0.09920
   4   15458.4    646.9   0.004279062   0.09113   0.25457   0.02801  -0.15981
   5   15853.1    630.8   0.046645878   0.96867  -0.60017   0.39040  -0.67531
   6   17523.8    570.7   0.086813632   1.63093  -0.70300   0.77330  -0.73399
   7   18187.4    549.8   0.181251900   3.28086  -1.38166   0.89685  -0.75335
   8   18302.3    546.4   0.000338930   0.00610   0.01732  -0.07346   0.02000
   9   18578.2    538.3   0.007703946   0.13652   0.31019   0.00276   0.20072
  10   19183.5    521.3   0.047676423   0.81819  -0.84364   0.22071   0.24031
  11   20012.8    499.7   0.033895093   0.55758  -0.60293   0.43406  -0.07512
  12   20344.9    491.5   0.010722847   0.17351  -0.17572   0.06113   0.37269
  13   22800.3    438.6   0.002718864   0.03926   0.10868  -0.11845   0.11583
  14   23302.5    429.1   0.011967591   0.16908   0.30916  -0.21327   0.16736
  15   23849.3    419.3   0.356883035   4.92636   2.08413  -0.75690   0.09924
  16   23992.5    416.8   0.120082058   1.64770  -0.98461   0.76011  -0.31698
  17   24222.5    412.8   0.003924969   0.05334  -0.18554   0.02422   0.13540
  18   24785.6    403.5   0.102528176   1.36182   1.09308  -0.38274   0.14316
  19   24909.4    401.5   0.192341048   2.54205  -1.43624   0.55489   0.41395
  20   25297.4    395.3   0.038898981   0.50622   0.38002  -0.26230   0.54129
  21   25504.1    392.1   0.000624221   0.00806   0.05594   0.05069   0.04856
  22   25749.1    388.4   0.060722207   0.77636  -0.79672   0.30829  -0.21575
  23   25835.7    387.1   0.029195733   0.37203   0.56556  -0.12914   0.18841
  24   26086.1    383.3   0.000055381   0.00070   0.02007   0.01430   0.00958
  25   26638.2    375.4   0.051167654   0.63236  -0.18982   0.15889   0.75570
  26   26759.0    373.7   0.817514260  10.05774   2.80492  -1.16148   0.91714
  27   27203.7    367.6   0.057838794   0.69995   0.01782   0.83128   0.09274
  28   27764.9    360.2   0.191834254   2.27460  -1.10001   1.03163   0.01830
  29   27789.4    359.8   0.063914294   0.75717  -0.39858   0.74135   0.22068
  30   28264.9    353.8   0.396602541   4.61938  -1.55220   1.24209  -0.81685
  31   28439.1    351.6   0.020604346   0.23852   0.33204  -0.31832   0.16414
  32   29190.1    342.6   0.007934914   0.08949  -0.03522   0.12542   0.26930
  33   29314.4    341.1   0.061559660   0.69134   0.52608  -0.39092   0.51163
  34   29366.4    340.5   0.002776866   0.03113  -0.16003  -0.05574  -0.04913
  35   29549.2    338.4   0.002199106   0.02450   0.08821  -0.08095  -0.10083
  36   29690.4    336.8   0.019870698   0.22033   0.11460   0.00374  -0.45517
  37   29992.6    333.4   0.033545348   0.36821  -0.37422   0.13144  -0.45923
  38   30385.6    329.1   0.059473466   0.64436   0.52401  -0.39554   0.46188
  39   30595.9    326.8   0.010864427   0.11690  -0.13322   0.26061   0.17674
  40   30628.8    326.5   0.007119261   0.07652  -0.20904   0.16983   0.06309
  41   30745.6    325.2   0.081141803   0.86883  -0.57917   0.67707   0.27381
  42   30954.4    323.1   0.091739147   0.97568  -0.29753  -0.61354  -0.71465
  43   31101.5    321.5   0.013633790   0.14431   0.32479  -0.07071  -0.18392
  44   31190.0    320.6   0.017418220   0.18385  -0.33252   0.13554   0.23432
  45   31426.2    318.2   0.002112871   0.02213   0.11953  -0.07928   0.03952
  46   31765.9    314.8   0.010786101   0.11178  -0.30508  -0.13159   0.03735
  47   31979.2    312.7   0.010234655   0.10536  -0.25632   0.13687  -0.14466
  48   32079.9    311.7   0.024390793   0.25030  -0.45351   0.11861  -0.17483
  49   32698.6    305.8   0.009023329   0.09085   0.30037   0.01775   0.01754
  50   32916.4    303.8   0.300604817   3.00648  -1.51956   0.82384  -0.13676
  51   33019.6    302.9   0.066953415   0.66754  -0.59497   0.39233  -0.39954
  52   33165.8    301.5   0.011221334   0.11139  -0.23344   0.10293   0.21517
  53   33227.1    301.0   0.012366640   0.12253  -0.25076   0.24069  -0.04141
  54   33294.2    300.4   0.002086044   0.02063   0.09668  -0.07954   0.07037
  55   33608.4    297.5   0.031968419   0.31315  -0.16971  -0.21541   0.48780
  56   33733.3    296.4   0.064349270   0.62800   0.67492  -0.31277   0.27324
  57   34096.6    293.3   0.115129915   1.11161   0.72810  -0.72357   0.24069
  58   34160.3    292.7   0.039519252   0.38086  -0.55552   0.26731  -0.02831
  59   34284.6    291.7   0.032249300   0.30967   0.53233  -0.16044  -0.02340
  60   34550.3    289.4   0.022105581   0.21063  -0.02406   0.41793  -0.18812
  61   34657.5    288.5   0.014574984   0.13845  -0.35254   0.03341   0.11422
  62   34724.1    288.0   0.030035209   0.28476   0.16381  -0.18651  -0.47237
  63   34829.3    287.1   0.011767861   0.11123  -0.20675   0.17381   0.19564
  64   34889.8    286.6   0.044865772   0.42334  -0.54077   0.34710  -0.10213
  65   34913.3    286.4   0.177793950   1.67649  -1.13703   0.60403  -0.13712
  66   35138.2    284.6   0.078085573   0.73159  -0.83438   0.15676  -0.10408
  67   35433.6    282.2   0.084546005   0.78551   0.30094   0.83117   0.06413
  68   35509.9    281.6   0.036711803   0.34036  -0.43955  -0.19136   0.33246
  69   35631.6    280.6   0.126082982   1.16492   0.18641  -0.18947   1.04608
  70   35810.5    279.2   0.038517788   0.35410   0.52116   0.16382  -0.23591
  71   35984.7    277.9   0.091636055   0.83835  -0.77833  -0.19681  -0.44025
  72   35997.4    277.8   0.054826176   0.50141  -0.07792  -0.28819  -0.64209
  73   36243.4    275.9   0.060668116   0.55107  -0.41298   0.27128  -0.55401
  74   36460.5    274.3   0.089454106   0.80771  -0.44651  -0.56566  -0.53699
  75   36511.5    273.9   0.027063018   0.24402   0.34432  -0.33601   0.11207
  76   36811.0    271.7   0.000328245   0.00294  -0.02761   0.01441   0.04433
  77   36822.1    271.6   0.096781084   0.86528  -0.37335   0.11147   0.84467
  78   37098.1    269.6   0.132115035   1.17240  -0.07398   0.36765  -1.01576
  79   37147.6    269.2   0.079686864   0.70621  -0.06513  -0.28090   0.78934
  80   37258.6    268.4   0.042870912   0.37880  -0.02387   0.32830  -0.52005
  81   37339.5    267.8   0.047061615   0.41493  -0.30616  -0.19079  -0.53366
  82   37360.1    267.7   0.053034689   0.46733   0.44842   0.33032   0.39641
  83   37567.4    266.2   0.221691577   1.94274   1.08178   0.73895   0.47585
  84   37957.4    263.5   0.091211413   0.79109   0.30562  -0.42946   0.71642
  85   38129.9    262.3   0.001193748   0.01031  -0.05635   0.00169  -0.08443
  86   38572.9    259.2   0.017454799   0.14897  -0.09793   0.10443  -0.35844
  87   38801.8    257.7   0.050533822   0.42875  -0.61860   0.16927   0.13203
  88   39161.5    255.4   0.022061996   0.18546  -0.22867  -0.29128   0.21984
  89   39327.2    254.3   0.025147058   0.21051  -0.10697  -0.25014  -0.36946
  90   39395.6    253.8   0.098541940   0.82347  -0.32829  -0.20449   0.82090
  91   39475.2    253.3   0.021519030   0.17946  -0.24419  -0.13207  -0.31998
  92   39556.2    252.8   0.024652455   0.20517  -0.27988  -0.10004  -0.34180
  93   39678.4    252.0   0.127003913   1.05375  -0.04146   1.02430  -0.05327
  94   39715.6    251.8   0.171611608   1.42253  -0.77870  -0.39564  -0.81218
  95   39892.3    250.7   0.060288868   0.49753   0.03661   0.26698  -0.65185
  96   40179.9    248.9   0.004058478   0.03325   0.11714   0.13392  -0.03997
  97   40275.2    248.3   0.033059863   0.27023   0.26503  -0.35602  -0.27064

FINAL SINGLE POINT ENERGY     -4024.528352792363

DIPOLE MOMENT
-------------
                                X             Y             Z
Electronic contribution:     19.93851      -5.20449     -24.82820
Nuclear contribution   :    -19.44802       5.93239      26.07678
                        -----------------------------------------
Total Dipole Moment    :      0.49048       0.72790       1.24858
                        -----------------------------------------
Magnitude (a.u.)       :      1.52623
Magnitude (Debye)      :      3.87936

Rotational constants in cm-1:     0.002056     0.000239     0.000231
Rotational constants in MHz :    61.624250     7.171653     6.923545

                             ****ORCA TERMINATED NORMALLY****
TOTAL RUN TIME: 0 days 0 hours 10 minutes 35 seconds 91 msec
