                         Program Version 4.2.0 -  RELEASE  -
|  1> # ORCA input file
|  2> # SCF done       -163.401268625835          0.000421910088
|  3> ! CAM-B3LYP def2-SVP def2/J RIJCOSX Grid4 TightSCF
|  4> %maxcore 5000
|  5> %tddft
|  6>     Mode sTDDFT
|  7>     Ethresh 5.0
|  8>     maxcore 5000
|  9> end
| 10>
| 11> %pal
| 12>   nprocs 6
| 13>   end
| 14> * xyz 0 1
| 15>    C       -4.63003         0.12940         0.44305
| 16>    C       -3.84053        -0.21034        -0.64094
| 17>    F       -3.79433         0.60649        -1.69736
| 18>    C       -3.10279        -1.38613        -0.65581
| 19>    F       -2.38580        -1.67171        -1.74977
| 20>    C       -3.11999        -2.27890         0.42749
| 21>    C       -3.93573        -1.91931         1.51085
| 22>    C       -4.66923        -0.74196         1.51648
| 23>    F       -5.42558        -0.44370         2.57739
| 24>    F       -4.00440        -2.72243         2.58393
| 25>    C       -2.34715        -3.50190         0.42230
| 26>    C       -1.21760        -3.78129        -0.32011
| 27>    C       -0.74444        -5.07449        -0.08633
| 28>    C       -1.53243        -5.78232         0.83604
| 29>    S       -2.82828        -4.85806         1.43205
| 30>    C       -0.98616        -7.08429         0.99196
| 31>    C        0.14616        -7.19651         0.16655
| 32>    C        0.34159        -5.93198        -0.53116
| 33>    C        1.33944        -5.62046        -1.40553
| 34>    C        2.34697        -6.54307        -1.76191
| 35>    N        3.17072        -7.28222        -2.06008
| 36>    C        1.44641        -4.34833        -2.00883
| 37>    N        1.54861        -3.31598        -2.49633
| 38>    C        0.74761        -8.45110         0.24100
| 39>    C        0.07579        -9.28589         1.11845
| 40>    S       -1.30845        -8.51595         1.86181
| 41>    C        0.41142       -10.63068         1.41001
| 42>    N        1.40481       -11.25659         0.84835
| 43>    C        1.48096       -12.51049         1.28734
| 44>    C        0.51982       -12.90717         2.23575
| 45>    S       -0.53273       -11.59466         2.57733
| 46>    N        0.58649       -14.16551         2.66335
| 47>    C        1.56851       -14.79688         2.08790
| 48>    S        2.52267       -13.82828         0.93278
| 49>    C        1.86312       -16.16075         2.33131
| 50>    C        1.19428       -16.99246         3.21393
| 51>    C        1.71398       -18.28500         3.19260
| 52>    C        2.78065       -18.42952         2.28854
| 53>    S        3.14904       -16.97813         1.47121
| 54>    C        3.22376       -19.77874         2.32370
| 55>    C        2.43776       -20.48327         3.25023
| 56>    C        1.47164       -19.56954         3.83691
| 57>    C        0.54194       -19.84771         4.79375
| 58>    C        0.41080       -21.13011         5.36987
| 59>    N        0.30107       -22.16434         5.85150
| 60>    C       -0.34890       -18.87042         5.28831
| 61>    N       -1.07857       -18.08719         5.69832
| 62>    C        2.78320       -21.83402         3.33450
| 63>    C        3.82631       -22.15453         2.48950
| 64>    S        4.39681       -20.76065         1.58294
| 65>    C        4.43148       -23.45289         2.28673
| 66>    C        3.74225       -24.64350         2.56625
| 67>    F        2.47776       -24.60025         3.00401
| 68>    C        4.32934       -25.88627         2.37178
| 69>    F        3.63170       -26.99182         2.64823
| 70>    C        5.62027       -26.00381         1.88859
| 71>    C        6.31342       -24.84269         1.59798
| 72>    C        5.73517       -23.59628         1.78865
| 73>    F        6.45741       -22.50295         1.49856
| 74>    F        7.56146       -24.92332         1.12633
| 75>    H       -5.20042         1.04283         0.44879
| 76>    H       -0.74989        -3.08011        -0.98559
| 77>    H        1.61961        -8.77302        -0.29721
| 78>    H        0.37786       -16.64345         3.81835
| 79>    H        2.30526       -22.53821         3.98944
| 80>    H        6.07014       -26.97073         1.73886
| 81> *
| 82>
| 83>                          ****END OF INPUT****

CARTESIAN COORDINATES (ANGSTROEM)
---------------------------------
  C     -4.630030    0.129400    0.443050
  C     -3.840530   -0.210340   -0.640940
  F     -3.794330    0.606490   -1.697360
  C     -3.102790   -1.386130   -0.655810
  F     -2.385800   -1.671710   -1.749770
  C     -3.119990   -2.278900    0.427490
  C     -3.935730   -1.919310    1.510850
  C     -4.669230   -0.741960    1.516480
  F     -5.425580   -0.443700    2.577390
  F     -4.004400   -2.722430    2.583930
  C     -2.347150   -3.501900    0.422300
  C     -1.217600   -3.781290   -0.320110
  C     -0.744440   -5.074490   -0.086330
  C     -1.532430   -5.782320    0.836040
  S     -2.828280   -4.858060    1.432050
  C     -0.986160   -7.084290    0.991960
  C      0.146160   -7.196510    0.166550
  C      0.341590   -5.931980   -0.531160
  C      1.339440   -5.620460   -1.405530
  C      2.346970   -6.543070   -1.761910
  N      3.170720   -7.282220   -2.060080
  C      1.446410   -4.348330   -2.008830
  N      1.548610   -3.315980   -2.496330
  C      0.747610   -8.451100    0.241000
  C      0.075790   -9.285890    1.118450
  S     -1.308450   -8.515950    1.861810
  C      0.411420  -10.630680    1.410010
  N      1.404810  -11.256590    0.848350
  C      1.480960  -12.510490    1.287340
  C      0.519820  -12.907170    2.235750
  S     -0.532730  -11.594660    2.577330
  N      0.586490  -14.165510    2.663350
  C      1.568510  -14.796880    2.087900
  S      2.522670  -13.828280    0.932780
  C      1.863120  -16.160750    2.331310
  C      1.194280  -16.992460    3.213930
  C      1.713980  -18.285000    3.192600
  C      2.780650  -18.429520    2.288540
  S      3.149040  -16.978130    1.471210
  C      3.223760  -19.778740    2.323700
  C      2.437760  -20.483270    3.250230
  C      1.471640  -19.569540    3.836910
  C      0.541940  -19.847710    4.793750
  C      0.410800  -21.130110    5.369870
  N      0.301070  -22.164340    5.851500
  C     -0.348900  -18.870420    5.288310
  N     -1.078570  -18.087190    5.698320
  C      2.783200  -21.834020    3.334500
  C      3.826310  -22.154530    2.489500
  S      4.396810  -20.760650    1.582940
  C      4.431480  -23.452890    2.286730
  C      3.742250  -24.643500    2.566250
  F      2.477760  -24.600250    3.004010
  C      4.329340  -25.886270    2.371780
  F      3.631700  -26.991820    2.648230
  C      5.620270  -26.003810    1.888590
  C      6.313420  -24.842690    1.597980
  C      5.735170  -23.596280    1.788650
  F      6.457410  -22.502950    1.498560
  F      7.561460  -24.923320    1.126330
  H     -5.200420    1.042830    0.448790
  H     -0.749890   -3.080110   -0.985590
  H      1.619610   -8.773020   -0.297210
  H      0.377860  -16.643450    3.818350
  H      2.305260  -22.538210    3.989440
  H      6.070140  -26.970730    1.738860

 Total Charge           Charge          ....    0
 Multiplicity           Mult            ....    1
 Number of Electrons    NEL             ....  456
 Basis Dimension        Dim             ....  894

ORBITAL ENERGIES
----------------

  NO   OCC          E(Eh)            E(eV)
   0   2.0000     -88.997454     -2421.7439
   1   2.0000     -88.997393     -2421.7422
   2   2.0000     -88.993859     -2421.6460
   3   2.0000     -88.993697     -2421.6416
   4   2.0000     -88.979249     -2421.2485
   5   2.0000     -88.979212     -2421.2475
   6   2.0000     -24.814746      -675.2436
   7   2.0000     -24.814711      -675.2426
   8   2.0000     -24.809079      -675.0894
   9   2.0000     -24.809023      -675.0878
  10   2.0000     -24.803828      -674.9465
  11   2.0000     -24.803762      -674.9447
  12   2.0000     -24.802313      -674.9052
  13   2.0000     -24.802126      -674.9002
  14   2.0000     -14.431372      -392.6976
  15   2.0000     -14.431331      -392.6965
  16   2.0000     -14.431073      -392.6895
  17   2.0000     -14.431033      -392.6884
  18   2.0000     -14.430497      -392.6738
  19   2.0000     -14.430469      -392.6730
  20   2.0000     -10.388409      -282.6830
  21   2.0000     -10.388394      -282.6826
  22   2.0000     -10.387802      -282.6665
  23   2.0000     -10.387735      -282.6646
  24   2.0000     -10.387581      -282.6604
  25   2.0000     -10.387497      -282.6582
  26   2.0000     -10.386749      -282.6378
  27   2.0000     -10.386701      -282.6365
  28   2.0000     -10.366868      -282.0968
  29   2.0000     -10.366862      -282.0967
  30   2.0000     -10.361307      -281.9455
  31   2.0000     -10.361296      -281.9452
  32   2.0000     -10.353864      -281.7429
  33   2.0000     -10.353856      -281.7428
  34   2.0000     -10.339531      -281.3529
  35   2.0000     -10.338992      -281.3383
  36   2.0000     -10.338030      -281.3121
  37   2.0000     -10.337986      -281.3109
  38   2.0000     -10.335533      -281.2442
  39   2.0000     -10.335475      -281.2426
  40   2.0000     -10.334239      -281.2089
  41   2.0000     -10.334238      -281.2089
  42   2.0000     -10.333807      -281.1972
  43   2.0000     -10.333802      -281.1970
  44   2.0000     -10.331035      -281.1217
  45   2.0000     -10.331000      -281.1208
  46   2.0000     -10.330429      -281.1053
  47   2.0000     -10.330385      -281.1041
  48   2.0000     -10.329402      -281.0773
  49   2.0000     -10.329385      -281.0768
  50   2.0000     -10.310090      -280.5518
  51   2.0000     -10.310007      -280.5496
  52   2.0000     -10.308032      -280.4958
  53   2.0000     -10.308029      -280.4957
  54   2.0000     -10.305522      -280.4275
  55   2.0000     -10.305518      -280.4274
  56   2.0000     -10.305382      -280.4237
  57   2.0000     -10.305355      -280.4230
  58   2.0000     -10.304878      -280.4100
  59   2.0000     -10.304827      -280.4086
  60   2.0000      -8.092251      -220.2013
  61   2.0000      -8.092212      -220.2003
  62   2.0000      -8.088264      -220.0929
  63   2.0000      -8.088170      -220.0903
  64   2.0000      -8.075303      -219.7402
  65   2.0000      -8.075261      -219.7390
  66   2.0000      -6.061493      -164.9416
  67   2.0000      -6.061445      -164.9403
  68   2.0000      -6.057533      -164.8339
  69   2.0000      -6.057430      -164.8311
  70   2.0000      -6.057330      -164.8283
  71   2.0000      -6.057299      -164.8275
  72   2.0000      -6.054578      -164.7534
  73   2.0000      -6.054531      -164.7522
  74   2.0000      -6.053172      -164.7152
  75   2.0000      -6.053076      -164.7126
  76   2.0000      -6.050692      -164.6477
  77   2.0000      -6.050579      -164.6446
  78   2.0000      -6.044472      -164.4785
  79   2.0000      -6.044447      -164.4778
  80   2.0000      -6.040788      -164.3782
  81   2.0000      -6.040763      -164.3775
  82   2.0000      -6.036978      -164.2745
  83   2.0000      -6.036953      -164.2739
  84   2.0000      -1.334585       -36.3159
  85   2.0000      -1.334585       -36.3159
  86   2.0000      -1.330623       -36.2081
  87   2.0000      -1.330547       -36.2060
  88   2.0000      -1.316319       -35.8189
  89   2.0000      -1.316262       -35.8173
  90   2.0000      -1.313703       -35.7477
  91   2.0000      -1.313586       -35.7445
  92   2.0000      -1.104362       -30.0512
  93   2.0000      -1.065288       -28.9879
  94   2.0000      -1.048241       -28.5241
  95   2.0000      -1.047224       -28.4964
  96   2.0000      -1.023208       -27.8429
  97   2.0000      -1.023109       -27.8402
  98   2.0000      -1.009002       -27.4563
  99   2.0000      -1.008663       -27.4471
 100   2.0000      -1.007026       -27.4026
 101   2.0000      -1.006477       -27.3876
 102   2.0000      -0.992115       -26.9968
 103   2.0000      -0.991488       -26.9798
 104   2.0000      -0.961819       -26.1724
 105   2.0000      -0.961514       -26.1641
 106   2.0000      -0.929415       -25.2907
 107   2.0000      -0.922584       -25.1048
 108   2.0000      -0.916692       -24.9445
 109   2.0000      -0.896023       -24.3820
 110   2.0000      -0.891794       -24.2670
 111   2.0000      -0.889600       -24.2073
 112   2.0000      -0.872977       -23.7549
 113   2.0000      -0.871323       -23.7099
 114   2.0000      -0.861255       -23.4359
 115   2.0000      -0.860976       -23.4283
 116   2.0000      -0.859001       -23.3746
 117   2.0000      -0.858033       -23.3483
 118   2.0000      -0.850905       -23.1543
 119   2.0000      -0.825075       -22.4514
 120   2.0000      -0.798436       -21.7265
 121   2.0000      -0.788206       -21.4482
 122   2.0000      -0.779517       -21.2117
 123   2.0000      -0.775994       -21.1159
 124   2.0000      -0.753448       -20.5024
 125   2.0000      -0.739557       -20.1244
 126   2.0000      -0.738399       -20.0929
 127   2.0000      -0.733412       -19.9571
 128   2.0000      -0.707057       -19.2400
 129   2.0000      -0.705102       -19.1868
 130   2.0000      -0.703701       -19.1487
 131   2.0000      -0.698786       -19.0149
 132   2.0000      -0.688224       -18.7275
 133   2.0000      -0.683179       -18.5902
 134   2.0000      -0.680424       -18.5153
 135   2.0000      -0.679002       -18.4766
 136   2.0000      -0.669925       -18.2296
 137   2.0000      -0.665543       -18.1104
 138   2.0000      -0.664706       -18.0876
 139   2.0000      -0.662162       -18.0184
 140   2.0000      -0.653487       -17.7823
 141   2.0000      -0.644976       -17.5507
 142   2.0000      -0.641876       -17.4663
 143   2.0000      -0.631059       -17.1720
 144   2.0000      -0.630849       -17.1663
 145   2.0000      -0.626557       -17.0495
 146   2.0000      -0.623505       -16.9664
 147   2.0000      -0.618335       -16.8257
 148   2.0000      -0.618149       -16.8207
 149   2.0000      -0.609713       -16.5911
 150   2.0000      -0.606012       -16.4904
 151   2.0000      -0.603111       -16.4115
 152   2.0000      -0.594379       -16.1739
 153   2.0000      -0.584949       -15.9173
 154   2.0000      -0.584699       -15.9105
 155   2.0000      -0.583650       -15.8819
 156   2.0000      -0.582910       -15.8618
 157   2.0000      -0.573453       -15.6044
 158   2.0000      -0.569136       -15.4870
 159   2.0000      -0.565364       -15.3843
 160   2.0000      -0.564317       -15.3558
 161   2.0000      -0.560118       -15.2416
 162   2.0000      -0.559211       -15.2169
 163   2.0000      -0.558128       -15.1874
 164   2.0000      -0.552229       -15.0269
 165   2.0000      -0.552067       -15.0225
 166   2.0000      -0.550164       -14.9707
 167   2.0000      -0.546212       -14.8632
 168   2.0000      -0.545411       -14.8414
 169   2.0000      -0.533630       -14.5208
 170   2.0000      -0.531419       -14.4607
 171   2.0000      -0.529979       -14.4215
 172   2.0000      -0.528276       -14.3751
 173   2.0000      -0.520906       -14.1746
 174   2.0000      -0.520109       -14.1529
 175   2.0000      -0.512353       -13.9418
 176   2.0000      -0.506440       -13.7809
 177   2.0000      -0.506296       -13.7770
 178   2.0000      -0.505119       -13.7450
 179   2.0000      -0.501455       -13.6453
 180   2.0000      -0.500340       -13.6149
 181   2.0000      -0.496942       -13.5225
 182   2.0000      -0.496442       -13.5089
 183   2.0000      -0.491578       -13.3765
 184   2.0000      -0.487272       -13.2593
 185   2.0000      -0.485082       -13.1997
 186   2.0000      -0.483867       -13.1667
 187   2.0000      -0.476222       -12.9586
 188   2.0000      -0.476001       -12.9526
 189   2.0000      -0.470628       -12.8064
 190   2.0000      -0.465684       -12.6719
 191   2.0000      -0.465007       -12.6535
 192   2.0000      -0.461735       -12.5644
 193   2.0000      -0.461491       -12.5578
 194   2.0000      -0.459143       -12.4939
 195   2.0000      -0.457185       -12.4406
 196   2.0000      -0.456632       -12.4256
 197   2.0000      -0.454070       -12.3559
 198   2.0000      -0.451346       -12.2817
 199   2.0000      -0.447152       -12.1676
 200   2.0000      -0.441759       -12.0209
 201   2.0000      -0.440739       -11.9931
 202   2.0000      -0.440584       -11.9889
 203   2.0000      -0.440060       -11.9746
 204   2.0000      -0.439357       -11.9555
 205   2.0000      -0.439202       -11.9513
 206   2.0000      -0.431666       -11.7462
 207   2.0000      -0.426594       -11.6082
 208   2.0000      -0.426077       -11.5941
 209   2.0000      -0.419615       -11.4183
 210   2.0000      -0.414418       -11.2769
 211   2.0000      -0.403282       -10.9738
 212   2.0000      -0.394117       -10.7245
 213   2.0000      -0.387448       -10.5430
 214   2.0000      -0.386970       -10.5300
 215   2.0000      -0.366176        -9.9642
 216   2.0000      -0.357011        -9.7148
 217   2.0000      -0.352834        -9.6011
 218   2.0000      -0.352707        -9.5977
 219   2.0000      -0.345457        -9.4004
 220   2.0000      -0.336753        -9.1635
 221   2.0000      -0.326159        -8.8752
 222   2.0000      -0.326019        -8.8714
 223   2.0000      -0.325630        -8.8608
 224   2.0000      -0.324266        -8.8237
 225   2.0000      -0.310604        -8.4520
 226   2.0000      -0.279110        -7.5950
 227   2.0000      -0.249280        -6.7833
 228   0.0000      -0.109917        -2.9910
 229   0.0000      -0.105246        -2.8639
 230   0.0000      -0.065615        -1.7855
 231   0.0000      -0.043256        -1.1771
 232   0.0000      -0.029374        -0.7993

MULLIKEN ATOMIC CHARGES
-----------------------
   0 C :   -0.149857
   1 C :    0.252077
   2 F :   -0.170414
   3 C :    0.163576
   4 F :   -0.162851
   5 C :   -0.003752
   6 C :    0.151400
   7 C :    0.251294
   8 F :   -0.171340
   9 F :   -0.173735
  10 C :   -0.100177
  11 C :   -0.027345
  12 C :    0.002128
  13 C :   -0.097244
  14 S :    0.215614
  15 C :   -0.097318
  16 C :    0.011021
  17 C :    0.302440
  18 C :   -0.295614
  19 C :   -0.191473
  20 N :    0.180032
  21 C :   -0.191398
  22 N :    0.181117
  23 C :   -0.035238
  24 C :   -0.039400
  25 S :    0.200211
  26 C :   -0.110947
  27 N :   -0.026129
  28 C :   -0.054376
  29 C :   -0.054208
  30 S :    0.127180
  31 N :   -0.026441
  32 C :   -0.111472
  33 S :    0.127292
  34 C :   -0.039230
  35 C :   -0.035505
  36 C :    0.011831
  37 C :   -0.096419
  38 S :    0.200107
  39 C :   -0.097810
  40 C :    0.000393
  41 C :    0.301650
  42 C :   -0.293863
  43 C :   -0.191416
  44 N :    0.179892
  45 C :   -0.193068
  46 N :    0.181116
  47 C :   -0.022978
  48 C :   -0.103150
  49 S :    0.215688
  50 C :   -0.005111
  51 C :    0.165495
  52 F :   -0.162958
  53 C :    0.252600
  54 F :   -0.169748
  55 C :   -0.154896
  56 C :    0.253991
  57 C :    0.151953
  58 F :   -0.173062
  59 F :   -0.170983
  60 H :    0.020083
  61 H :    0.018400
  62 H :    0.021991
  63 H :    0.022133
  64 H :    0.018639
  65 H :    0.019582
Sum of atomic charges:    0.0000000

LOEWDIN ATOMIC CHARGES
----------------------
   0 C :   -0.060860
   1 C :    0.061315
   2 F :   -0.045550
   3 C :    0.057797
   4 F :   -0.037276
   5 C :   -0.075870
   6 C :    0.046028
   7 C :    0.059796
   8 F :   -0.047041
   9 F :   -0.051329
  10 C :   -0.171583
  11 C :   -0.016320
  12 C :   -0.073175
  13 C :   -0.181368
  14 S :    0.499149
  15 C :   -0.178058
  16 C :   -0.065916
  17 C :    0.079693
  18 C :   -0.097435
  19 C :   -0.018524
  20 N :   -0.026678
  21 C :   -0.018079
  22 N :   -0.027060
  23 C :   -0.000591
  24 C :   -0.199770
  25 S :    0.480039
  26 C :   -0.133538
  27 N :   -0.095720
  28 C :   -0.209784
  29 C :   -0.209781
  30 S :    0.403627
  31 N :   -0.095747
  32 C :   -0.133574
  33 S :    0.403729
  34 C :   -0.199824
  35 C :   -0.000550
  36 C :   -0.065977
  37 C :   -0.177988
  38 S :    0.480057
  39 C :   -0.181384
  40 C :   -0.073183
  41 C :    0.079629
  42 C :   -0.097411
  43 C :   -0.018074
  44 N :   -0.027101
  45 C :   -0.018588
  46 N :   -0.026555
  47 C :   -0.016123
  48 C :   -0.171733
  49 S :    0.499200
  50 C :   -0.075845
  51 C :    0.057922
  52 F :   -0.037321
  53 C :    0.061228
  54 F :   -0.045536
  55 C :   -0.060922
  56 C :    0.059836
  57 C :    0.045934
  58 F :   -0.051368
  59 F :   -0.046961
  60 H :    0.055646
  61 H :    0.040407
  62 H :    0.047996
  63 H :    0.048023
  64 H :    0.040466
  65 H :    0.055554

  Mayer bond orders larger than 0.100000
B(  0-C ,  1-C ) :   1.3201 B(  0-C ,  5-C ) :   0.1210 B(  0-C ,  7-C ) :   1.3192
B(  0-C , 60-H ) :   1.0205 B(  1-C ,  2-F ) :   1.1237 B(  1-C ,  3-C ) :   1.3100
B(  3-C ,  4-F ) :   1.1508 B(  3-C ,  5-C ) :   1.2920 B(  5-C ,  6-C ) :   1.2834
B(  5-C , 10-C ) :   1.0609 B(  6-C ,  7-C ) :   1.3133 B(  6-C ,  9-F ) :   1.1405
B(  7-C ,  8-F ) :   1.1260 B( 10-C , 11-C ) :   1.4911 B( 10-C , 14-S ) :   1.1077
B( 11-C , 12-C ) :   1.2840 B( 11-C , 61-H ) :   0.9938 B( 12-C , 13-C ) :   1.4354
B( 12-C , 17-C ) :   1.0019 B( 13-C , 14-S ) :   1.1326 B( 13-C , 15-C ) :   1.1846
B( 15-C , 16-C ) :   1.4407 B( 15-C , 25-S ) :   1.1352 B( 16-C , 17-C ) :   0.9847
B( 16-C , 23-C ) :   1.2712 B( 17-C , 18-C ) :   1.7198 B( 18-C , 19-C ) :   1.1321
B( 18-C , 21-C ) :   1.1332 B( 19-C , 20-N ) :   2.9978 B( 21-C , 22-N ) :   2.9943
B( 23-C , 24-C ) :   1.4712 B( 23-C , 62-H ) :   1.0113 B( 24-C , 25-S ) :   1.1056
B( 24-C , 26-C ) :   1.1026 B( 26-C , 27-N ) :   1.7349 B( 26-C , 30-S ) :   1.0815
B( 27-N , 28-C ) :   1.3973 B( 28-C , 29-C ) :   1.2977 B( 28-C , 33-S ) :   1.0977
B( 29-C , 30-S ) :   1.0980 B( 29-C , 31-N ) :   1.3973 B( 31-N , 32-C ) :   1.7348
B( 32-C , 33-S ) :   1.0817 B( 32-C , 34-C ) :   1.1027 B( 34-C , 35-C ) :   1.4705
B( 34-C , 38-S ) :   1.1053 B( 35-C , 36-C ) :   1.2715 B( 35-C , 63-H ) :   1.0117
B( 36-C , 37-C ) :   1.4395 B( 36-C , 41-C ) :   0.9852 B( 37-C , 38-S ) :   1.1352
B( 37-C , 39-C ) :   1.1851 B( 39-C , 40-C ) :   1.4360 B( 39-C , 49-S ) :   1.1321
B( 40-C , 41-C ) :   1.0018 B( 40-C , 47-C ) :   1.2849 B( 41-C , 42-C ) :   1.7192
B( 42-C , 43-C ) :   1.1324 B( 42-C , 45-C ) :   1.1333 B( 43-C , 44-N ) :   2.9941
B( 45-C , 46-N ) :   2.9981 B( 47-C , 48-C ) :   1.4912 B( 47-C , 64-H ) :   0.9938
B( 48-C , 49-S ) :   1.1081 B( 48-C , 50-C ) :   1.0605 B( 50-C , 51-C ) :   1.2947
B( 50-C , 55-C ) :   0.1220 B( 50-C , 57-C ) :   1.2814 B( 51-C , 52-F ) :   1.1502
B( 51-C , 53-C ) :   1.3093 B( 53-C , 54-F ) :   1.1252 B( 53-C , 55-C ) :   1.3185
B( 55-C , 56-C ) :   1.3183 B( 55-C , 65-H ) :   1.0222 B( 56-C , 57-C ) :   1.3124
B( 56-C , 59-F ) :   1.1265 B( 57-C , 58-F ) :   1.1425

-----------------------------------------------------------------------------
         ABSORPTION SPECTRUM VIA TRANSITION ELECTRIC DIPOLE MOMENTS
-----------------------------------------------------------------------------
State   Energy  Wavelength   fosc         T2         TX        TY        TZ
        (cm-1)    (nm)                  (au**2)     (au)      (au)      (au)
-----------------------------------------------------------------------------
   0   13585.5    736.1   0.406569966   9.85221   0.88941  -2.98213   0.40999
   1   14207.9    703.8   0.000402809   0.00933   0.06140   0.02322   0.07088
   2   22670.4    441.1   1.482565752  21.52934  -1.09068   4.43602  -0.81329
   3   23221.4    430.6   0.000111966   0.00159  -0.02426  -0.01439  -0.02814
   4   25036.1    399.4   0.948113831  12.46719  -0.82519   3.37801  -0.61260
   5   30171.6    331.4   0.007188441   0.07844   0.17623   0.07783   0.20328
   6   30720.6    325.5   0.045394027   0.48646  -0.30942  -0.45011   0.43373
   7   31241.6    320.1   0.003979837   0.04194  -0.13489  -0.05805  -0.14273
   8   31813.5    314.3   0.979972410  10.14094   2.44211  -0.00410  -2.04377
   9   32042.0    312.1   0.008005880   0.08226   0.26846   0.09311   0.03896
  10   32122.8    311.3   0.359230428   3.68159  -1.37834  -0.31654   1.29675
  11   32193.4    310.6   0.001985306   0.02030  -0.08416  -0.02500   0.11223
  12   33193.5    301.3   0.068464277   0.67903   0.00905   0.76159  -0.31452
  13   33307.7    300.2   0.000021586   0.00021  -0.00625   0.00791  -0.01057
  14   34015.4    294.0   0.814561001   7.88359   1.79223  -2.03553  -0.72670
  15   34044.9    293.7   0.003116133   0.03013  -0.11139  -0.04501  -0.12529
  16   35257.0    283.6   0.377327087   3.52329   0.07702   1.72904  -0.72648
  17   35269.0    283.5   0.008788706   0.08204   0.08771   0.27253  -0.00845
  18   36221.8    276.1   0.000690914   0.00628   0.03417  -0.07149  -0.00106
  19   37143.2    269.2   0.001263491   0.01120  -0.06448  -0.02799  -0.07911
  20   37759.8    264.8   0.164402673   1.43336   0.87104  -0.66823  -0.47761
  21   38067.1    262.7   0.000140424   0.00121  -0.01030  -0.01616  -0.02911
  22   38235.9    261.5   0.065993618   0.56821  -0.45878   0.57348   0.16986
  23   38842.4    257.5   0.000723078   0.00613   0.04820   0.02617   0.05586
  24   38956.3    256.7   0.000026129   0.00022  -0.00160   0.01357   0.00585
  25   39200.5    255.1   0.178118601   1.49587  -0.52637   1.10373   0.02414

FINAL SINGLE POINT ENERGY     -5040.241783001971

DIPOLE MOMENT
-------------
                                X             Y             Z
Electronic contribution:     -1.52399      -0.69810      -1.80009
Nuclear contribution   :      1.38543       0.63363       1.63412
                        -----------------------------------------
Total Dipole Moment    :     -0.13856      -0.06447      -0.16597
                        -----------------------------------------
Magnitude (a.u.)       :      0.22561
Magnitude (Debye)      :      0.57347

Rotational constants in cm-1:     0.003838     0.000232     0.000220
Rotational constants in MHz :   115.062295     6.956303     6.600067

                             ****ORCA TERMINATED NORMALLY****
TOTAL RUN TIME: 0 days 0 hours 5 minutes 24 seconds 50 msec
