                         Program Version 4.2.0 -  RELEASE  -
|  1> # ORCA input file
|  2> # SCF done       -196.312163860870          0.000517462795
|  3> ! CAM-B3LYP def2-SVP def2/J RIJCOSX Grid4 TightSCF
|  4> %maxcore 5000
|  5> %tddft
|  6>     Mode sTDDFT
|  7>     Ethresh 5.0
|  8>     maxcore 5000
|  9> end
| 10>
| 11> %pal
| 12>   nprocs 6
| 13>   end
| 14> * xyz 0 1
| 15>    C       15.59196        -4.77430        -9.00190
| 16>    C       16.23049        -4.64341       -10.19814
| 17>    S       17.87289        -4.17288        -9.96889
| 18>    C       17.70804        -4.14942        -8.25321
| 19>    C       16.44539        -4.48921        -7.88933
| 20>    C       15.69807        -4.64707        -6.63715
| 21>    O       16.12271        -4.48243        -5.51509
| 22>    C       14.32112        -5.04335        -7.05470
| 23>    C       14.27530        -5.12517        -8.51090
| 24>    C       13.22381        -5.46495        -9.32267
| 25>    C       13.36670        -5.48417       -10.72688
| 26>    N       13.45967        -5.50458       -11.87026
| 27>    C       11.92228        -5.82649        -8.92362
| 28>    N       10.84172        -6.13296        -8.68136
| 29>    C       13.22935        -5.28152        -6.26575
| 30>    C       13.04437        -5.24906        -4.86901
| 31>    C       13.89719        -5.00484        -3.79728
| 32>    C       13.23748        -5.06775        -2.57909
| 33>    C       11.85752        -5.36283        -2.70693
| 34>    S       11.38837        -5.57070        -4.32576
| 35>    C       11.27289        -5.37582        -1.42331
| 36>    C       12.27850        -5.09013        -0.47327
| 37>    C       13.54162        -4.88646        -1.16840
| 38>    C       14.73982        -4.56883        -0.60261
| 39>    C       15.92879        -4.39369        -1.34478
| 40>    N       16.91288        -4.25030        -1.91381
| 41>    C       14.87041        -4.37331         0.79069
| 42>    N       14.97442        -4.19448         1.91804
| 43>    C       11.79697        -5.06289         0.82646
| 44>    C       10.42898        -5.31429         0.88297
| 45>    S        9.73699        -5.59551        -0.70895
| 46>    C        9.58034        -5.31468         2.02082
| 47>    C       10.02906        -5.14976         3.35677
| 48>    C        9.09248        -5.02847         4.44617
| 49>    N        9.54064        -4.82186         5.68969
| 50>    C       10.82802        -4.77078         5.92620
| 51>    C       11.75920        -4.95534         4.85322
| 52>    N       11.34266        -5.12216         3.62256
| 53>    C       13.15068        -4.98088         5.13107
| 54>    N       14.25985        -5.00956         5.41223
| 55>    C       11.27929        -4.54525         7.25034
| 56>    N       11.66551        -4.36428         8.31298
| 57>    C        7.68849        -5.10286         4.27920
| 58>    C        7.24904        -5.35814         2.96089
| 59>    C        8.18244        -5.45660         1.86763
| 60>    N        7.56023        -5.67942         0.70933
| 61>    S        5.97643        -5.76462         0.96219
| 62>    N        5.99232        -5.51659         2.54301
| 63>    C        6.80816        -4.89735         5.36944
| 64>    C        5.41685        -4.92606         5.32466
| 65>    C        4.85389        -4.62355         6.55342
| 66>    C        5.82208        -4.36357         7.55007
| 67>    S        7.42510        -4.50861         6.96602
| 68>    C        5.14653        -4.03075         8.74408
| 69>    C        3.75041        -4.07467         8.50736
| 70>    C        3.52596        -4.47558         7.12883
| 71>    C        2.33299        -4.68885         6.50466
| 72>    C        2.25929        -5.06444         5.14566
| 73>    N        2.19198        -5.36359         4.04088
| 74>    C        1.08959        -4.58070         7.16576
| 75>    N        0.06746        -4.52528         7.68100
| 76>    C        2.99651        -3.69676         9.60768
| 77>    C        3.79283        -3.36442        10.69814
| 78>    S        5.51418        -3.56200        10.33578
| 79>    C        3.47887        -2.94643        12.00798
| 80>    C        2.30896        -2.47204        12.53355
| 81>    C        1.08391        -2.05139        11.78950
| 82>    O        0.86543        -2.13726        10.60164
| 83>    C        0.21501        -1.44450        12.80368
| 84>    C       -1.00659        -0.85353        12.83653
| 85>    S       -1.39964        -0.35858        14.44009
| 86>    C        0.09155        -0.95003        15.07157
| 87>    C        0.85052        -1.50236        14.08479
| 88>    C        2.13626        -2.15400        13.94545
| 89>    C        2.97315        -2.43974        14.99257
| 90>    C        2.64353        -2.05924        16.31095
| 91>    N        2.39248        -1.75170        17.38739
| 92>    C        4.19803        -3.13167        14.92046
| 93>    N        5.19640        -3.69931        14.93651
| 94>    H       15.85866        -4.78745       -11.19265
| 95>    H       18.54173        -3.89036        -7.63191
| 96>    H       12.31836        -5.53427        -6.79646
| 97>    H       14.94251        -4.78899        -3.93266
| 98>    H       12.38011        -4.86968         1.70732
| 99>    H        4.88132        -5.15138         4.42085
|100>    H        1.92373        -3.64534         9.63291
|101>    H        4.32352        -2.99483        12.68612
|102>    H       -1.69455        -0.68273        12.03298
|103>    H        0.29972        -0.84423        16.11731
|104> *
|105>
|106>                          ****END OF INPUT****

CARTESIAN COORDINATES (ANGSTROEM)
---------------------------------
  C     15.591960   -4.774300   -9.001900
  C     16.230490   -4.643410  -10.198140
  S     17.872890   -4.172880   -9.968890
  C     17.708040   -4.149420   -8.253210
  C     16.445390   -4.489210   -7.889330
  C     15.698070   -4.647070   -6.637150
  O     16.122710   -4.482430   -5.515090
  C     14.321120   -5.043350   -7.054700
  C     14.275300   -5.125170   -8.510900
  C     13.223810   -5.464950   -9.322670
  C     13.366700   -5.484170  -10.726880
  N     13.459670   -5.504580  -11.870260
  C     11.922280   -5.826490   -8.923620
  N     10.841720   -6.132960   -8.681360
  C     13.229350   -5.281520   -6.265750
  C     13.044370   -5.249060   -4.869010
  C     13.897190   -5.004840   -3.797280
  C     13.237480   -5.067750   -2.579090
  C     11.857520   -5.362830   -2.706930
  S     11.388370   -5.570700   -4.325760
  C     11.272890   -5.375820   -1.423310
  C     12.278500   -5.090130   -0.473270
  C     13.541620   -4.886460   -1.168400
  C     14.739820   -4.568830   -0.602610
  C     15.928790   -4.393690   -1.344780
  N     16.912880   -4.250300   -1.913810
  C     14.870410   -4.373310    0.790690
  N     14.974420   -4.194480    1.918040
  C     11.796970   -5.062890    0.826460
  C     10.428980   -5.314290    0.882970
  S      9.736990   -5.595510   -0.708950
  C      9.580340   -5.314680    2.020820
  C     10.029060   -5.149760    3.356770
  C      9.092480   -5.028470    4.446170
  N      9.540640   -4.821860    5.689690
  C     10.828020   -4.770780    5.926200
  C     11.759200   -4.955340    4.853220
  N     11.342660   -5.122160    3.622560
  C     13.150680   -4.980880    5.131070
  N     14.259850   -5.009560    5.412230
  C     11.279290   -4.545250    7.250340
  N     11.665510   -4.364280    8.312980
  C      7.688490   -5.102860    4.279200
  C      7.249040   -5.358140    2.960890
  C      8.182440   -5.456600    1.867630
  N      7.560230   -5.679420    0.709330
  S      5.976430   -5.764620    0.962190
  N      5.992320   -5.516590    2.543010
  C      6.808160   -4.897350    5.369440
  C      5.416850   -4.926060    5.324660
  C      4.853890   -4.623550    6.553420
  C      5.822080   -4.363570    7.550070
  S      7.425100   -4.508610    6.966020
  C      5.146530   -4.030750    8.744080
  C      3.750410   -4.074670    8.507360
  C      3.525960   -4.475580    7.128830
  C      2.332990   -4.688850    6.504660
  C      2.259290   -5.064440    5.145660
  N      2.191980   -5.363590    4.040880
  C      1.089590   -4.580700    7.165760
  N      0.067460   -4.525280    7.681000
  C      2.996510   -3.696760    9.607680
  C      3.792830   -3.364420   10.698140
  S      5.514180   -3.562000   10.335780
  C      3.478870   -2.946430   12.007980
  C      2.308960   -2.472040   12.533550
  C      1.083910   -2.051390   11.789500
  O      0.865430   -2.137260   10.601640
  C      0.215010   -1.444500   12.803680
  C     -1.006590   -0.853530   12.836530
  S     -1.399640   -0.358580   14.440090
  C      0.091550   -0.950030   15.071570
  C      0.850520   -1.502360   14.084790
  C      2.136260   -2.154000   13.945450
  C      2.973150   -2.439740   14.992570
  C      2.643530   -2.059240   16.310950
  N      2.392480   -1.751700   17.387390
  C      4.198030   -3.131670   14.920460
  N      5.196400   -3.699310   14.936510
  H     15.858660   -4.787450  -11.192650
  H     18.541730   -3.890360   -7.631910
  H     12.318360   -5.534270   -6.796460
  H     14.942510   -4.788990   -3.932660
  H     12.380110   -4.869680    1.707320
  H      4.881320   -5.151380    4.420850
  H      1.923730   -3.645340    9.632910
  H      4.323520   -2.994830   12.686120
  H     -1.694550   -0.682730   12.032980
  H      0.299720   -0.844230   16.117310

 Total Charge           Charge          ....    0
 Multiplicity           Mult            ....    1
 Number of Electrons    NEL             ....  572
 Basis Dimension        Dim             .... 1184

ORBITAL ENERGIES
----------------

  NO   OCC          E(Eh)            E(eV)
   0   2.0000     -89.071085     -2423.7475
   1   2.0000     -89.002969     -2421.8939
   2   2.0000     -89.002860     -2421.8910
   3   2.0000     -89.000068     -2421.8150
   4   2.0000     -89.000023     -2421.8137
   5   2.0000     -88.988469     -2421.4993
   6   2.0000     -88.988371     -2421.4967
   7   2.0000     -19.225593      -523.1550
   8   2.0000     -19.224582      -523.1275
   9   2.0000     -14.488083      -394.2408
  10   2.0000     -14.482401      -394.0862
  11   2.0000     -14.479004      -393.9937
  12   2.0000     -14.478841      -393.9893
  13   2.0000     -14.447689      -393.1416
  14   2.0000     -14.440362      -392.9422
  15   2.0000     -14.439022      -392.9058
  16   2.0000     -14.435782      -392.8176
  17   2.0000     -14.435261      -392.8034
  18   2.0000     -14.433249      -392.7487
  19   2.0000     -14.424879      -392.5209
  20   2.0000     -14.422540      -392.4573
  21   2.0000     -14.418988      -392.3606
  22   2.0000     -14.418492      -392.3471
  23   2.0000     -10.405107      -283.1373
  24   2.0000     -10.402463      -283.0654
  25   2.0000     -10.380782      -282.4754
  26   2.0000     -10.380433      -282.4659
  27   2.0000     -10.374265      -282.2981
  28   2.0000     -10.373388      -282.2742
  29   2.0000     -10.373220      -282.2697
  30   2.0000     -10.371101      -282.2120
  31   2.0000     -10.368618      -282.1444
  32   2.0000     -10.367446      -282.1125
  33   2.0000     -10.360949      -281.9357
  34   2.0000     -10.359554      -281.8978
  35   2.0000     -10.352561      -281.7075
  36   2.0000     -10.351959      -281.6911
  37   2.0000     -10.350367      -281.6478
  38   2.0000     -10.349149      -281.6147
  39   2.0000     -10.347263      -281.5633
  40   2.0000     -10.346797      -281.5507
  41   2.0000     -10.345242      -281.5083
  42   2.0000     -10.344522      -281.4888
  43   2.0000     -10.343659      -281.4653
  44   2.0000     -10.342120      -281.4234
  45   2.0000     -10.340996      -281.3928
  46   2.0000     -10.340488      -281.3790
  47   2.0000     -10.339484      -281.3517
  48   2.0000     -10.339151      -281.3426
  49   2.0000     -10.337904      -281.3087
  50   2.0000     -10.337302      -281.2923
  51   2.0000     -10.335222      -281.2357
  52   2.0000     -10.334666      -281.2206
  53   2.0000     -10.334506      -281.2162
  54   2.0000     -10.334249      -281.2092
  55   2.0000     -10.332059      -281.1496
  56   2.0000     -10.332033      -281.1489
  57   2.0000     -10.327632      -281.0292
  58   2.0000     -10.327037      -281.0130
  59   2.0000     -10.326724      -281.0045
  60   2.0000     -10.326408      -280.9958
  61   2.0000     -10.326098      -280.9874
  62   2.0000     -10.325095      -280.9601
  63   2.0000     -10.321733      -280.8686
  64   2.0000     -10.320944      -280.8472
  65   2.0000     -10.317393      -280.7505
  66   2.0000     -10.317311      -280.7483
  67   2.0000     -10.316847      -280.7357
  68   2.0000     -10.316544      -280.7274
  69   2.0000     -10.314169      -280.6628
  70   2.0000     -10.312980      -280.6305
  71   2.0000     -10.312589      -280.6198
  72   2.0000     -10.311955      -280.6026
  73   2.0000     -10.311589      -280.5926
  74   2.0000     -10.311389      -280.5872
  75   2.0000     -10.308161      -280.4993
  76   2.0000     -10.307994      -280.4948
  77   2.0000     -10.295939      -280.1667
  78   2.0000     -10.295777      -280.1623
  79   2.0000      -8.161881      -222.0961
  80   2.0000      -8.097641      -220.3480
  81   2.0000      -8.097600      -220.3469
  82   2.0000      -8.093239      -220.2282
  83   2.0000      -8.092491      -220.2079
  84   2.0000      -8.084159      -219.9812
  85   2.0000      -8.084153      -219.9810
  86   2.0000      -6.132936      -166.8857
  87   2.0000      -6.125123      -166.6731
  88   2.0000      -6.124762      -166.6632
  89   2.0000      -6.066689      -165.0830
  90   2.0000      -6.066656      -165.0821
  91   2.0000      -6.062679      -164.9739
  92   2.0000      -6.062594      -164.9716
  93   2.0000      -6.062559      -164.9706
  94   2.0000      -6.062078      -164.9575
  95   2.0000      -6.060266      -164.9082
  96   2.0000      -6.060183      -164.9060
  97   2.0000      -6.058079      -164.8487
  98   2.0000      -6.057222      -164.8254
  99   2.0000      -6.055615      -164.7817
 100   2.0000      -6.054924      -164.7629
 101   2.0000      -6.053398      -164.7213
 102   2.0000      -6.053340      -164.7198
 103   2.0000      -6.048662      -164.5925
 104   2.0000      -6.048610      -164.5910
 105   2.0000      -6.046998      -164.5472
 106   2.0000      -6.046965      -164.5463
 107   2.0000      -1.168388       -31.7935
 108   2.0000      -1.145198       -31.1624
 109   2.0000      -1.142108       -31.0783
 110   2.0000      -1.141259       -31.0552
 111   2.0000      -1.072496       -29.1841
 112   2.0000      -1.056613       -28.7519
 113   2.0000      -1.056036       -28.7362
 114   2.0000      -1.031835       -28.0776
 115   2.0000      -1.029973       -28.0270
 116   2.0000      -1.029822       -28.0229
 117   2.0000      -1.029147       -28.0045
 118   2.0000      -1.028366       -27.9833
 119   2.0000      -1.025894       -27.9160
 120   2.0000      -1.017177       -27.6788
 121   2.0000      -1.015100       -27.6223
 122   2.0000      -1.013808       -27.5871
 123   2.0000      -1.013490       -27.5785
 124   2.0000      -1.012407       -27.5490
 125   2.0000      -1.011269       -27.5180
 126   2.0000      -1.006339       -27.3839
 127   2.0000      -1.000127       -27.2148
 128   2.0000      -0.998962       -27.1831
 129   2.0000      -0.995468       -27.0881
 130   2.0000      -0.973603       -26.4931
 131   2.0000      -0.971079       -26.4244
 132   2.0000      -0.966012       -26.2865
 133   2.0000      -0.964027       -26.2325
 134   2.0000      -0.934781       -25.4367
 135   2.0000      -0.931874       -25.3576
 136   2.0000      -0.926412       -25.2090
 137   2.0000      -0.913269       -24.8513
 138   2.0000      -0.906594       -24.6697
 139   2.0000      -0.903113       -24.5749
 140   2.0000      -0.889491       -24.2043
 141   2.0000      -0.887927       -24.1617
 142   2.0000      -0.878420       -23.9030
 143   2.0000      -0.870635       -23.6912
 144   2.0000      -0.867299       -23.6004
 145   2.0000      -0.867081       -23.5945
 146   2.0000      -0.857447       -23.3323
 147   2.0000      -0.846804       -23.0427
 148   2.0000      -0.846589       -23.0369
 149   2.0000      -0.829550       -22.5732
 150   2.0000      -0.828711       -22.5504
 151   2.0000      -0.813019       -22.1234
 152   2.0000      -0.803075       -21.8528
 153   2.0000      -0.788839       -21.4654
 154   2.0000      -0.783676       -21.3249
 155   2.0000      -0.770428       -20.9644
 156   2.0000      -0.762889       -20.7593
 157   2.0000      -0.761223       -20.7139
 158   2.0000      -0.760406       -20.6917
 159   2.0000      -0.744898       -20.2697
 160   2.0000      -0.729393       -19.8478
 161   2.0000      -0.721405       -19.6304
 162   2.0000      -0.717320       -19.5193
 163   2.0000      -0.714351       -19.4385
 164   2.0000      -0.708794       -19.2873
 165   2.0000      -0.697335       -18.9755
 166   2.0000      -0.693650       -18.8752
 167   2.0000      -0.692038       -18.8313
 168   2.0000      -0.686097       -18.6697
 169   2.0000      -0.682319       -18.5668
 170   2.0000      -0.679927       -18.5018
 171   2.0000      -0.675388       -18.3782
 172   2.0000      -0.673735       -18.3333
 173   2.0000      -0.671623       -18.2758
 174   2.0000      -0.655679       -17.8419
 175   2.0000      -0.651737       -17.7347
 176   2.0000      -0.646179       -17.5834
 177   2.0000      -0.642492       -17.4831
 178   2.0000      -0.640324       -17.4241
 179   2.0000      -0.637943       -17.3593
 180   2.0000      -0.629099       -17.1187
 181   2.0000      -0.626553       -17.0494
 182   2.0000      -0.623577       -16.9684
 183   2.0000      -0.615591       -16.7511
 184   2.0000      -0.611696       -16.6451
 185   2.0000      -0.605570       -16.4784
 186   2.0000      -0.603774       -16.4295
 187   2.0000      -0.599469       -16.3124
 188   2.0000      -0.591991       -16.1089
 189   2.0000      -0.584618       -15.9083
 190   2.0000      -0.581445       -15.8219
 191   2.0000      -0.572095       -15.5675
 192   2.0000      -0.566217       -15.4076
 193   2.0000      -0.559469       -15.2239
 194   2.0000      -0.558360       -15.1937
 195   2.0000      -0.557238       -15.1632
 196   2.0000      -0.551975       -15.0200
 197   2.0000      -0.550858       -14.9896
 198   2.0000      -0.546926       -14.8826
 199   2.0000      -0.546286       -14.8652
 200   2.0000      -0.536307       -14.5937
 201   2.0000      -0.534656       -14.5487
 202   2.0000      -0.530532       -14.4365
 203   2.0000      -0.528559       -14.3828
 204   2.0000      -0.527574       -14.3560
 205   2.0000      -0.522261       -14.2114
 206   2.0000      -0.519639       -14.1401
 207   2.0000      -0.514113       -13.9897
 208   2.0000      -0.511385       -13.9155
 209   2.0000      -0.510748       -13.8982
 210   2.0000      -0.509292       -13.8585
 211   2.0000      -0.507989       -13.8231
 212   2.0000      -0.506281       -13.7766
 213   2.0000      -0.504755       -13.7351
 214   2.0000      -0.503871       -13.7110
 215   2.0000      -0.503129       -13.6908
 216   2.0000      -0.500861       -13.6291
 217   2.0000      -0.499926       -13.6037
 218   2.0000      -0.498630       -13.5684
 219   2.0000      -0.493919       -13.4402
 220   2.0000      -0.488346       -13.2886
 221   2.0000      -0.488103       -13.2820
 222   2.0000      -0.487075       -13.2540
 223   2.0000      -0.484885       -13.1944
 224   2.0000      -0.479633       -13.0515
 225   2.0000      -0.478225       -13.0132
 226   2.0000      -0.476996       -12.9797
 227   2.0000      -0.475191       -12.9306
 228   2.0000      -0.471330       -12.8255
 229   2.0000      -0.470427       -12.8010
 230   2.0000      -0.469150       -12.7662
 231   2.0000      -0.466346       -12.6899
 232   2.0000      -0.463954       -12.6248
 233   2.0000      -0.462130       -12.5752
 234   2.0000      -0.461793       -12.5660
 235   2.0000      -0.460143       -12.5211
 236   2.0000      -0.458249       -12.4696
 237   2.0000      -0.457400       -12.4465
 238   2.0000      -0.455986       -12.4080
 239   2.0000      -0.454922       -12.3791
 240   2.0000      -0.453748       -12.3471
 241   2.0000      -0.451840       -12.2952
 242   2.0000      -0.451426       -12.2839
 243   2.0000      -0.446854       -12.1595
 244   2.0000      -0.446400       -12.1472
 245   2.0000      -0.445519       -12.1232
 246   2.0000      -0.444787       -12.1033
 247   2.0000      -0.444122       -12.0852
 248   2.0000      -0.443604       -12.0711
 249   2.0000      -0.443411       -12.0658
 250   2.0000      -0.440303       -11.9812
 251   2.0000      -0.437661       -11.9094
 252   2.0000      -0.434553       -11.8248
 253   2.0000      -0.433898       -11.8070
 254   2.0000      -0.433425       -11.7941
 255   2.0000      -0.432773       -11.7764
 256   2.0000      -0.431662       -11.7461
 257   2.0000      -0.431363       -11.7380
 258   2.0000      -0.430773       -11.7219
 259   2.0000      -0.428302       -11.6547
 260   2.0000      -0.427314       -11.6278
 261   2.0000      -0.417599       -11.3634
 262   2.0000      -0.416847       -11.3430
 263   2.0000      -0.415973       -11.3192
 264   2.0000      -0.415416       -11.3041
 265   2.0000      -0.415335       -11.3019
 266   2.0000      -0.400432       -10.8963
 267   2.0000      -0.395924       -10.7736
 268   2.0000      -0.394795       -10.7429
 269   2.0000      -0.374379       -10.1874
 270   2.0000      -0.371830       -10.1180
 271   2.0000      -0.370650       -10.0859
 272   2.0000      -0.360420        -9.8075
 273   2.0000      -0.359638        -9.7863
 274   2.0000      -0.354400        -9.6437
 275   2.0000      -0.346975        -9.4417
 276   2.0000      -0.345465        -9.4006
 277   2.0000      -0.341669        -9.2973
 278   2.0000      -0.341435        -9.2909
 279   2.0000      -0.332214        -9.0400
 280   2.0000      -0.330453        -8.9921
 281   2.0000      -0.327284        -8.9058
 282   2.0000      -0.319431        -8.6922
 283   2.0000      -0.309426        -8.4199
 284   2.0000      -0.286673        -7.8008
 285   2.0000      -0.255654        -6.9567
 286   0.0000      -0.153508        -4.1772
 287   0.0000      -0.117141        -3.1876
 288   0.0000      -0.111935        -3.0459
 289   0.0000      -0.094188        -2.5630
 290   0.0000      -0.093684        -2.5493

MULLIKEN ATOMIC CHARGES
-----------------------
   0 C :    0.029610
   1 C :   -0.135013
   2 S :    0.164355
   3 C :   -0.132425
   4 C :    0.032269
   5 C :    0.175670
   6 O :   -0.139232
   7 C :   -0.104763
   8 C :    0.303704
   9 C :   -0.349235
  10 C :   -0.194864
  11 N :    0.150868
  12 C :   -0.168735
  13 N :    0.146951
  14 C :    0.039233
  15 C :   -0.110574
  16 C :   -0.018704
  17 C :    0.002144
  18 C :   -0.086806
  19 S :    0.207942
  20 C :   -0.071818
  21 C :    0.047160
  22 C :    0.313289
  23 C :   -0.294383
  24 C :   -0.195807
  25 N :    0.200084
  26 C :   -0.195486
  27 N :    0.185412
  28 C :   -0.057830
  29 C :   -0.177549
  30 S :    0.217503
  31 C :    0.203996
  32 C :   -0.071885
  33 C :   -0.055362
  34 N :   -0.015457
  35 C :   -0.094468
  36 C :   -0.114801
  37 N :    0.053063
  38 C :   -0.216226
  39 N :    0.258524
  40 C :   -0.235052
  41 N :    0.258174
  42 C :    0.182134
  43 C :   -0.002115
  44 C :   -0.021378
  45 N :   -0.337131
  46 S :    0.590764
  47 N :   -0.276500
  48 C :   -0.168226
  49 C :   -0.063293
  50 C :    0.040757
  51 C :   -0.062694
  52 S :    0.219693
  53 C :   -0.088692
  54 C :   -0.010462
  55 C :    0.311776
  56 C :   -0.296542
  57 C :   -0.188113
  58 N :    0.172640
  59 C :   -0.191413
  60 N :    0.189964
  61 C :    0.010084
  62 C :   -0.111232
  63 S :    0.219641
  64 C :    0.029386
  65 C :   -0.105278
  66 C :    0.173020
  67 O :   -0.144855
  68 C :    0.029414
  69 C :   -0.135160
  70 S :    0.164402
  71 C :   -0.135296
  72 C :    0.030224
  73 C :    0.295810
  74 C :   -0.339323
  75 C :   -0.191084
  76 N :    0.153755
  77 C :   -0.188503
  78 N :    0.158395
  79 H :    0.052428
  80 H :    0.044389
  81 H :   -0.000299
  82 H :    0.040599
  83 H :    0.022469
  84 H :    0.023584
  85 H :    0.038316
  86 H :    0.013994
  87 H :    0.043182
  88 H :    0.053294
Sum of atomic charges:   -0.0000000

LOEWDIN ATOMIC CHARGES
----------------------
   0 C :   -0.064968
   1 C :   -0.149404
   2 S :    0.492448
   3 C :   -0.137097
   4 C :   -0.091108
   5 C :    0.087055
   6 O :   -0.130669
   7 C :   -0.091131
   8 C :    0.077667
   9 C :   -0.144453
  10 C :   -0.014608
  11 N :   -0.054529
  12 C :   -0.024444
  13 N :   -0.053150
  14 C :    0.038249
  15 C :   -0.171340
  16 C :    0.014518
  17 C :   -0.067393
  18 C :   -0.162345
  19 S :    0.498878
  20 C :   -0.185540
  21 C :   -0.058413
  22 C :    0.071852
  23 C :   -0.089927
  24 C :   -0.024328
  25 N :   -0.011523
  26 C :   -0.017244
  27 N :   -0.021650
  28 C :   -0.008906
  29 C :   -0.157303
  30 S :    0.517463
  31 C :   -0.040577
  32 C :   -0.002853
  33 C :   -0.012352
  34 N :   -0.019337
  35 C :   -0.016396
  36 C :   -0.015893
  37 N :    0.010397
  38 C :   -0.041079
  39 N :    0.018201
  40 C :   -0.040064
  41 N :    0.009115
  42 C :   -0.034913
  43 C :   -0.037086
  44 C :   -0.044720
  45 N :   -0.302713
  46 S :    0.706329
  47 N :   -0.265237
  48 C :   -0.161430
  49 C :   -0.007352
  50 C :   -0.061700
  51 C :   -0.181639
  52 S :    0.517744
  53 C :   -0.162677
  54 C :   -0.067313
  55 C :    0.075361
  56 C :   -0.094410
  57 C :   -0.014942
  58 N :   -0.032290
  59 C :   -0.021780
  60 N :   -0.017117
  61 C :    0.018249
  62 C :   -0.171802
  63 S :    0.504226
  64 C :    0.039792
  65 C :   -0.089399
  66 C :    0.085405
  67 O :   -0.133987
  68 C :   -0.091253
  69 C :   -0.137541
  70 S :    0.492166
  71 C :   -0.149797
  72 C :   -0.064275
  73 C :    0.075807
  74 C :   -0.141693
  75 C :   -0.014926
  76 N :   -0.053257
  77 C :   -0.026079
  78 N :   -0.049269
  79 H :    0.036057
  80 H :    0.038029
  81 H :    0.042293
  82 H :    0.043498
  83 H :    0.038237
  84 H :    0.038952
  85 H :    0.044764
  86 H :    0.044058
  87 H :    0.037479
  88 H :    0.036335

  Mayer bond orders larger than 0.100000
B(  0-C ,  1-C ) :   1.5270 B(  0-C ,  4-C ) :   1.2250 B(  0-C ,  8-C ) :   0.9929
B(  1-C ,  2-S ) :   1.1848 B(  1-C , 79-H ) :   0.9569 B(  2-S ,  3-C ) :   1.1897
B(  3-C ,  4-C ) :   1.5394 B(  3-C , 80-H ) :   0.9699 B(  4-C ,  5-C ) :   0.9649
B(  5-C ,  6-O ) :   2.1707 B(  5-C ,  7-C ) :   0.9229 B(  6-O , 82-H ) :   0.1011
B(  7-C ,  8-C ) :   1.0904 B(  7-C , 14-C ) :   1.6163 B(  8-C ,  9-C ) :   1.6290
B(  9-C , 10-C ) :   1.1546 B(  9-C , 12-C ) :   1.1341 B( 10-C , 11-N ) :   2.9885
B( 12-C , 13-N ) :   2.9544 B( 14-C , 15-C ) :   1.2174 B( 14-C , 81-H ) :   0.9027
B( 15-C , 16-C ) :   1.3938 B( 15-C , 19-S ) :   1.0812 B( 16-C , 17-C ) :   1.3087
B( 16-C , 82-H ) :   0.9694 B( 17-C , 18-C ) :   1.3689 B( 17-C , 22-C ) :   0.9930
B( 18-C , 19-S ) :   1.1594 B( 18-C , 20-C ) :   1.2147 B( 20-C , 21-C ) :   1.3896
B( 20-C , 30-S ) :   1.0942 B( 21-C , 22-C ) :   0.9914 B( 21-C , 28-C ) :   1.2887
B( 22-C , 23-C ) :   1.7185 B( 23-C , 24-C ) :   1.1358 B( 23-C , 26-C ) :   1.1367
B( 24-C , 25-N ) :   2.9992 B( 26-C , 27-N ) :   2.9889 B( 28-C , 29-C ) :   1.3944
B( 28-C , 83-H ) :   0.9832 B( 29-C , 30-S ) :   1.1038 B( 29-C , 31-C ) :   1.1994
B( 31-C , 32-C ) :   1.2519 B( 31-C , 42-C ) :   0.1215 B( 31-C , 44-C ) :   1.1939
B( 32-C , 33-C ) :   1.1081 B( 32-C , 37-N ) :   1.4554 B( 33-C , 34-N ) :   1.3977
B( 33-C , 42-C ) :   1.2469 B( 34-N , 35-C ) :   1.6927 B( 35-C , 36-C ) :   1.2130
B( 35-C , 40-C ) :   1.1601 B( 36-C , 37-N ) :   1.7229 B( 36-C , 38-C ) :   1.1585
B( 38-C , 39-N ) :   3.0273 B( 40-C , 41-N ) :   3.0426 B( 42-C , 43-C ) :   1.2022
B( 42-C , 48-C ) :   1.2173 B( 43-C , 44-C ) :   1.1114 B( 43-C , 47-N ) :   1.5113
B( 44-C , 45-N ) :   1.4689 B( 45-N , 46-S ) :   1.2740 B( 45-N , 47-N ) :   0.1487
B( 46-S , 47-N ) :   1.2951 B( 48-C , 49-C ) :   1.3985 B( 48-C , 52-S ) :   1.0927
B( 49-C , 50-C ) :   1.2904 B( 49-C , 84-H ) :   0.9818 B( 50-C , 51-C ) :   1.3933
B( 50-C , 55-C ) :   0.9911 B( 51-C , 52-S ) :   1.0819 B( 51-C , 53-C ) :   1.2160
B( 53-C , 54-C ) :   1.3698 B( 53-C , 63-S ) :   1.1611 B( 54-C , 55-C ) :   0.9916
B( 54-C , 61-C ) :   1.3310 B( 55-C , 56-C ) :   1.7158 B( 56-C , 57-C ) :   1.1397
B( 56-C , 59-C ) :   1.1346 B( 57-C , 58-N ) :   2.9830 B( 59-C , 60-N ) :   2.9951
B( 61-C , 62-C ) :   1.3981 B( 61-C , 85-H ) :   0.9732 B( 62-C , 63-S ) :   1.0843
B( 62-C , 64-C ) :   1.1973 B( 64-C , 65-C ) :   1.6170 B( 64-C , 86-H ) :   0.9180
B( 65-C , 66-C ) :   0.9299 B( 65-C , 73-C ) :   1.0817 B( 66-C , 67-O ) :   2.1903
B( 66-C , 68-C ) :   0.9590 B( 68-C , 69-C ) :   1.5380 B( 68-C , 72-C ) :   1.2240
B( 69-C , 70-S ) :   1.1926 B( 69-C , 87-H ) :   0.9705 B( 70-S , 71-C ) :   1.1826
B( 71-C , 72-C ) :   1.5312 B( 71-C , 88-H ) :   0.9561 B( 72-C , 73-C ) :   0.9955
B( 73-C , 74-C ) :   1.6417 B( 74-C , 75-C ) :   1.1495 B( 74-C , 77-C ) :   1.1352
B( 75-C , 76-N ) :   2.9910 B( 77-C , 78-N ) :   2.9748

-----------------------------------------------------------------------------
         ABSORPTION SPECTRUM VIA TRANSITION ELECTRIC DIPOLE MOMENTS
-----------------------------------------------------------------------------
State   Energy  Wavelength   fosc         T2         TX        TY        TZ
        (cm-1)    (nm)                  (au**2)     (au)      (au)      (au)
-----------------------------------------------------------------------------
   0    7716.6   1295.9   0.899185282  38.36196  -3.50579   0.58581   5.07230
   1   14186.0    704.9   0.012922585   0.29989   0.19151  -0.41080   0.30734
   2   14736.9    678.6   0.125882146   2.81213  -0.61348   0.16145   1.55232
   3   16142.4    619.5   0.014807834   0.30199  -0.30196   0.42370  -0.17688
   4   20963.6    477.0   1.818402732  28.55610   2.02662  -0.63151  -4.90409
   5   21390.2    467.5   0.056816128   0.87445   0.62214  -0.67177   0.19005
   6   21742.9    459.9   0.158679093   2.40258   0.47547  -0.36974  -1.42822
   7   23247.6    430.2   0.049682171   0.70356  -0.64318  -0.19618  -0.50139
   8   23297.7    429.2   0.003497884   0.04943  -0.06196   0.01151  -0.21320
   9   24196.4    413.3   0.010013462   0.13624   0.07700   0.08180  -0.35160
  10   24632.9    406.0   0.026896427   0.35946  -0.09630  -0.15113  -0.57215
  11   24718.4    404.6   0.004613079   0.06144  -0.03841  -0.02574  -0.24352
  12   25173.0    397.3   0.002545305   0.03329  -0.00123   0.16203   0.08385
  13   25300.9    395.2   0.026570557   0.34573  -0.57775  -0.02129  -0.10714
  14   26014.7    384.4   0.004488478   0.05680  -0.00122  -0.23825  -0.00598
  15   26716.3    374.3   0.052447964   0.64629  -0.75772   0.07492   0.25794
  16   26946.6    371.1   0.001288613   0.01574  -0.09959  -0.01543   0.07475
  17   27513.0    363.5   0.000123705   0.00148   0.00061   0.03827  -0.00394
  18   29207.5    342.4   0.038285698   0.43154   0.09643   0.20403   0.61694
  19   29292.8    341.4   0.105112211   1.18132   0.34589   0.22638   1.00520
  20   29597.0    337.9   0.009690263   0.10779  -0.10932  -0.06077  -0.30355
  21   29724.6    336.4   0.240533018   2.66400   1.28035   0.19785   0.99275
  22   29991.0    333.4   0.037834497   0.41531  -0.58750  -0.07068  -0.25526
  23   30110.7    332.1   0.088920746   0.97220  -0.64861   0.22562   0.70753
  24   30360.2    329.4   0.007639715   0.08284   0.16040   0.08796   0.22220
  25   30437.0    328.5   0.024187126   0.26161  -0.07524   0.07048   0.50098
  26   30641.7    326.4   0.032244265   0.34643   0.19538   0.36727   0.41637
  27   30820.6    324.5   0.034194356   0.36525   0.05202   0.14199   0.58513
  28   30833.1    324.3   0.009436916   0.10076  -0.01048   0.03226   0.31561
  29   31030.4    322.3   0.117987575   1.25177   0.40984   0.24333  -1.01222
  30   31105.1    321.5   0.050766443   0.53730   0.41263   0.29830  -0.52731
  31   31879.7    313.7   1.278124860  13.19880  -3.62922  -0.15950   0.04641
  32   32155.6    311.0   0.016655124   0.17052   0.11926   0.38277   0.09888
  33   32368.3    308.9   0.459431290   4.67279   0.35363   0.45446   2.08355
  34   32965.4    303.3   0.114443001   1.14289  -1.05544   0.04096  -0.16509
  35   33234.9    300.9   0.073291770   0.72600  -0.84686   0.09170   0.02065
  36   33432.2    299.1   0.120890376   1.19043  -0.67776  -0.60911  -0.60004
  37   33479.3    298.7   0.008246508   0.08109   0.15540   0.20850   0.11606
  38   33619.5    297.4   0.147732437   1.44664   1.08058  -0.25409   0.46305
  39   33684.4    296.9   0.050024676   0.48891  -0.27879  -0.62427  -0.14654
  40   34125.7    293.0   0.114796130   1.10744   1.04732  -0.07320  -0.07213
  41   34253.8    291.9   0.132886088   1.27716  -0.53996  -0.01482   0.99267
  42   34336.7    291.2   0.060136313   0.57657   0.42161  -0.03828  -0.63036
  43   34875.6    286.7   0.034457717   0.32527   0.02111   0.07922  -0.56440
  44   35025.4    285.5   0.037185621   0.34952  -0.49131   0.02398   0.32796
  45   35306.6    283.2   0.049119880   0.45801   0.63308  -0.00626   0.23912
  46   35372.3    282.7   0.080043370   0.74497   0.49042   0.19070   0.68417
  47   35537.8    281.4   0.003763285   0.03486  -0.17647   0.00188   0.06096
  48   35567.8    281.2   0.094219305   0.87208  -0.80459  -0.16985  -0.44256
  49   35694.9    280.2   0.000989025   0.00912  -0.08582  -0.01759   0.03805
  50   35804.6    279.3   0.053445027   0.49141   0.59834   0.02442   0.36442
  51   35969.2    278.0   0.003285330   0.03007  -0.01726   0.06782   0.15866
  52   36011.2    277.7   0.020708412   0.18931  -0.38194  -0.14353  -0.15110
  53   36042.9    277.4   0.199397891   1.82128  -0.44600  -0.39249  -1.21174
  54   37004.0    270.2   0.004634305   0.04123  -0.10444   0.06885   0.15994
  55   37226.6    268.6   0.008914690   0.07884  -0.25967  -0.09465   0.04947
  56   37608.0    265.9   0.012303762   0.10770   0.00335   0.13972   0.29693
  57   37797.9    264.6   0.011371230   0.09904  -0.31080  -0.00259  -0.04936
  58   37885.4    264.0   0.026528966   0.23053   0.19301  -0.04867  -0.43693
  59   38050.8    262.8   0.002241549   0.01939   0.05053   0.08094   0.10143
  60   38395.2    260.4   0.076997572   0.66020  -0.72673  -0.12198  -0.34232
  61   38625.6    258.9   0.031148649   0.26548  -0.08240  -0.36830   0.35078
  62   38709.3    258.3   0.006425469   0.05465   0.23004  -0.01721   0.03783
  63   38735.9    258.2   0.179554168   1.52601  -0.89711   0.78231  -0.33045
  64   38832.2    257.5   0.817930570   6.93426  -2.46087  -0.42242  -0.83663
  65   38984.0    256.5   0.099657777   0.84159   0.81385  -0.18259   0.38196
  66   39388.0    253.9   0.006663813   0.05570  -0.05418  -0.22296  -0.05523
  67   39523.9    253.0   0.002530341   0.02108   0.09883  -0.02806   0.10258
  68   39605.1    252.5   0.016675410   0.13861  -0.26741   0.16600  -0.19886
  69   39649.6    252.2   0.007789559   0.06468  -0.24035   0.01025  -0.08250
  70   39849.1    250.9   0.070211116   0.58005   0.12106  -0.01309   0.75181
  71   40066.1    249.6   0.208511548   1.71328   0.47492   0.06468   1.21801

FINAL SINGLE POINT ENERGY     -5839.296963046626

DIPOLE MOMENT
-------------
                                X             Y             Z
Electronic contribution:      0.44493      -4.99756       1.26621
Nuclear contribution   :     -1.91170       5.56870      -2.96791
                        -----------------------------------------
Total Dipole Moment    :     -1.46677       0.57115      -1.70170
                        -----------------------------------------
Magnitude (a.u.)       :      2.31806
Magnitude (Debye)      :      5.89204

Rotational constants in cm-1:     0.002036     0.000175     0.000164
Rotational constants in MHz :    61.034002     5.241758     4.926143

                             ****ORCA TERMINATED NORMALLY****
TOTAL RUN TIME: 0 days 0 hours 9 minutes 58 seconds 649 msec
