                         Program Version 4.2.0 -  RELEASE  -
|  1> # ORCA input file
|  2> # SCF done       -166.764337579316          0.000573193184
|  3> ! CAM-B3LYP def2-SVP def2/J RIJCOSX Grid4 TightSCF
|  4> %maxcore 5000
|  5> %tddft
|  6>     Mode sTDDFT
|  7>     Ethresh 5.0
|  8>     maxcore 5000
|  9> end
| 10>
| 11> %pal
| 12>   nprocs 6
| 13>   end
| 14> * xyz 0 1
| 15>    C       -1.69447         1.90150         4.66128
| 16>    N       -1.55621         1.78638         5.97187
| 17>    C       -1.72974         0.57406         6.47790
| 18>    C       -2.03749        -0.51891         5.68578
| 19>    C       -2.15684        -0.28921         4.30891
| 20>    N       -1.98123         0.94206         3.81031
| 21>    C       -2.46589        -1.36236         3.39137
| 22>    C       -2.58703        -1.17181         2.06145
| 23>    C       -2.87797        -2.23651         1.15911
| 24>    N       -3.03846        -3.48286         1.58028
| 25>    C       -3.27818        -4.21763         0.47600
| 26>    C       -3.26967        -3.38829        -0.73477
| 27>    C       -3.52440        -4.21636        -1.92005
| 28>    O       -3.58330        -3.88127        -3.08757
| 29>    C       -3.68847        -5.56621        -1.34826
| 30>    C       -3.53101        -5.52253         0.11625
| 31>    N       -3.67799        -6.75855         0.65214
| 32>    C       -3.91126        -7.54805        -0.36979
| 33>    C       -3.93121        -6.86934        -1.64804
| 34>    C       -3.01790        -2.10244        -0.31029
| 35>    C       -2.90756        -0.88553        -1.03626
| 36>    C       -3.01227        -0.83651        -2.38565
| 37>    C       -2.91645         0.32497        -3.22211
| 38>    C       -2.95332         0.13172        -4.59452
| 39>    C       -2.85638         1.21656        -5.47703
| 40>    C       -2.86076         1.30152        -6.87444
| 41>    C       -2.80049         0.25208        -7.92326
| 42>    C       -1.30895         0.05174        -8.32442
| 43>    N       -0.83293         1.17729        -9.10203
| 44>    C       -3.41554        -1.10415        -7.56081
| 45>    N       -3.54672        -1.90081        -8.77166
| 46>    C       -2.70900         2.69276        -7.20497
| 47>    C       -2.66576         3.31193        -8.40223
| 48>    C       -2.33335         4.75593        -8.49271
| 49>    C       -2.35019         5.49505        -7.19224
| 50>    C       -2.45307         4.86132        -6.00319
| 51>    C       -2.61036         3.46076        -5.95886
| 52>    C       -2.71959         2.55358        -4.91667
| 53>    C       -2.69606         2.73051        -3.51698
| 54>    C       -2.78974         1.64939        -2.69883
| 55>    C       -0.88017         4.82308        -8.88715
| 56>    C       -0.39541         5.57898        -9.88519
| 57>    C        0.99646         5.59974       -10.19553
| 58>    N        1.87746         4.88352        -9.50567
| 59>    C        3.07244         5.13075       -10.06817
| 60>    C        2.95196         6.06622       -11.20042
| 61>    C        4.27552         6.32306       -11.79563
| 62>    O        4.55845         7.03272       -12.73712
| 63>    C        5.16888         5.49915       -10.96330
| 64>    C        4.39747         4.78689        -9.92712
| 65>    N        5.21319         4.02515        -9.16033
| 66>    C        6.41839         4.22101        -9.64592
| 67>    C        6.46276         5.12722       -10.76988
| 68>    C        1.61829         6.37238       -11.29576
| 69>    C        0.91483         7.21488       -12.20850
| 70>    C        1.49599         7.88891       -13.21797
| 71>    C        0.73161         8.72222       -14.12402
| 72>    N       -0.59027         8.82630       -13.93610
| 73>    C       -1.25367         9.59391       -14.77918
| 74>    C       -0.63674        10.26935       -15.81971
| 75>    C        0.74761        10.09952       -15.94446
| 76>    N        1.41169         9.32653       -15.09049
| 77>    C        1.50064        10.75762       -17.00523
| 78>    C        2.81228        10.61434       -17.14962
| 79>    H       -1.55451         2.89195         4.24571
| 80>    H       -1.61559         0.48814         7.55111
| 81>    H       -2.17893        -1.50331         6.10141
| 82>    H       -2.59925        -2.35341         3.80054
| 83>    H       -2.45113        -0.17547         1.66690
| 84>    H       -4.06655        -8.60205        -0.21708
| 85>    H       -4.10392        -7.33397        -2.59891
| 86>    H       -2.72768         0.01046        -0.45984
| 87>    H       -3.17652        -1.76845        -2.91127
| 88>    H       -3.05411        -0.87416        -4.96694
| 89>    H       -3.31767         0.62054        -8.81584
| 90>    H       -1.25894        -0.90098        -8.86670
| 91>    H       -0.71443        -0.03165        -7.41237
| 92>    H       -1.03461         1.05346       -10.08675
| 93>    H        0.16108         1.32664        -8.99211
| 94>    H       -4.37313        -0.94006        -7.04097
| 95>    H       -2.74492        -1.64927        -6.89384
| 96>    H       -4.26498        -1.51449        -9.37584
| 97>    H       -3.81519        -2.85069        -8.54203
| 98>    H       -2.78905         2.78167        -9.33234
| 99>    H       -2.94274         5.26095        -9.24874
|100>    H       -2.20611         6.56244        -7.25043
|101>    H       -2.43037         5.42090        -5.07927
|102>    H       -2.60180         3.72645        -3.10964
|103>    H       -2.77565         1.78773        -1.62923
|104>    H       -0.19940         4.23409        -8.29162
|105>    H       -1.05303         6.18281       -10.49481
|106>    H        7.26604         3.72329        -9.20734
|107>    H        7.34544         5.41640       -11.30524
|108>    H       -0.15482         7.31384       -12.08399
|109>    H        2.55908         7.84034       -13.40418
|110>    H       -2.32186         9.66684       -14.61009
|111>    H       -1.19314        10.89368       -16.50021
|112>    H        0.92048        11.37687       -17.67684
|113>    H        3.36685         9.99227       -16.46801
|114>    H        3.35736        11.10442       -17.93794
|115> *
|116>
|117>                          ****END OF INPUT****

CARTESIAN COORDINATES (ANGSTROEM)
---------------------------------
  C     -1.694470    1.901500    4.661280
  N     -1.556210    1.786380    5.971870
  C     -1.729740    0.574060    6.477900
  C     -2.037490   -0.518910    5.685780
  C     -2.156840   -0.289210    4.308910
  N     -1.981230    0.942060    3.810310
  C     -2.465890   -1.362360    3.391370
  C     -2.587030   -1.171810    2.061450
  C     -2.877970   -2.236510    1.159110
  N     -3.038460   -3.482860    1.580280
  C     -3.278180   -4.217630    0.476000
  C     -3.269670   -3.388290   -0.734770
  C     -3.524400   -4.216360   -1.920050
  O     -3.583300   -3.881270   -3.087570
  C     -3.688470   -5.566210   -1.348260
  C     -3.531010   -5.522530    0.116250
  N     -3.677990   -6.758550    0.652140
  C     -3.911260   -7.548050   -0.369790
  C     -3.931210   -6.869340   -1.648040
  C     -3.017900   -2.102440   -0.310290
  C     -2.907560   -0.885530   -1.036260
  C     -3.012270   -0.836510   -2.385650
  C     -2.916450    0.324970   -3.222110
  C     -2.953320    0.131720   -4.594520
  C     -2.856380    1.216560   -5.477030
  C     -2.860760    1.301520   -6.874440
  C     -2.800490    0.252080   -7.923260
  C     -1.308950    0.051740   -8.324420
  N     -0.832930    1.177290   -9.102030
  C     -3.415540   -1.104150   -7.560810
  N     -3.546720   -1.900810   -8.771660
  C     -2.709000    2.692760   -7.204970
  C     -2.665760    3.311930   -8.402230
  C     -2.333350    4.755930   -8.492710
  C     -2.350190    5.495050   -7.192240
  C     -2.453070    4.861320   -6.003190
  C     -2.610360    3.460760   -5.958860
  C     -2.719590    2.553580   -4.916670
  C     -2.696060    2.730510   -3.516980
  C     -2.789740    1.649390   -2.698830
  C     -0.880170    4.823080   -8.887150
  C     -0.395410    5.578980   -9.885190
  C      0.996460    5.599740  -10.195530
  N      1.877460    4.883520   -9.505670
  C      3.072440    5.130750  -10.068170
  C      2.951960    6.066220  -11.200420
  C      4.275520    6.323060  -11.795630
  O      4.558450    7.032720  -12.737120
  C      5.168880    5.499150  -10.963300
  C      4.397470    4.786890   -9.927120
  N      5.213190    4.025150   -9.160330
  C      6.418390    4.221010   -9.645920
  C      6.462760    5.127220  -10.769880
  C      1.618290    6.372380  -11.295760
  C      0.914830    7.214880  -12.208500
  C      1.495990    7.888910  -13.217970
  C      0.731610    8.722220  -14.124020
  N     -0.590270    8.826300  -13.936100
  C     -1.253670    9.593910  -14.779180
  C     -0.636740   10.269350  -15.819710
  C      0.747610   10.099520  -15.944460
  N      1.411690    9.326530  -15.090490
  C      1.500640   10.757620  -17.005230
  C      2.812280   10.614340  -17.149620
  H     -1.554510    2.891950    4.245710
  H     -1.615590    0.488140    7.551110
  H     -2.178930   -1.503310    6.101410
  H     -2.599250   -2.353410    3.800540
  H     -2.451130   -0.175470    1.666900
  H     -4.066550   -8.602050   -0.217080
  H     -4.103920   -7.333970   -2.598910
  H     -2.727680    0.010460   -0.459840
  H     -3.176520   -1.768450   -2.911270
  H     -3.054110   -0.874160   -4.966940
  H     -3.317670    0.620540   -8.815840
  H     -1.258940   -0.900980   -8.866700
  H     -0.714430   -0.031650   -7.412370
  H     -1.034610    1.053460  -10.086750
  H      0.161080    1.326640   -8.992110
  H     -4.373130   -0.940060   -7.040970
  H     -2.744920   -1.649270   -6.893840
  H     -4.264980   -1.514490   -9.375840
  H     -3.815190   -2.850690   -8.542030
  H     -2.789050    2.781670   -9.332340
  H     -2.942740    5.260950   -9.248740
  H     -2.206110    6.562440   -7.250430
  H     -2.430370    5.420900   -5.079270
  H     -2.601800    3.726450   -3.109640
  H     -2.775650    1.787730   -1.629230
  H     -0.199400    4.234090   -8.291620
  H     -1.053030    6.182810  -10.494810
  H      7.266040    3.723290   -9.207340
  H      7.345440    5.416400  -11.305240
  H     -0.154820    7.313840  -12.083990
  H      2.559080    7.840340  -13.404180
  H     -2.321860    9.666840  -14.610090
  H     -1.193140   10.893680  -16.500210
  H      0.920480   11.376870  -17.676840
  H      3.366850    9.992270  -16.468010
  H      3.357360   11.104420  -17.937940

 Total Charge           Charge          ....    0
 Multiplicity           Mult            ....    1
 Number of Electrons    NEL             ....  434
 Basis Dimension        Dim             .... 1076

ORBITAL ENERGIES
----------------

  NO   OCC          E(Eh)            E(eV)
   0   2.0000     -19.202268      -522.5203
   1   2.0000     -19.200762      -522.4793
   2   2.0000     -14.415608      -392.2686
   3   2.0000     -14.412400      -392.1813
   4   2.0000     -14.403935      -391.9510
   5   2.0000     -14.402166      -391.9029
   6   2.0000     -14.401116      -391.8743
   7   2.0000     -14.398092      -391.7920
   8   2.0000     -14.394821      -391.7030
   9   2.0000     -14.394740      -391.7008
  10   2.0000     -14.383013      -391.3817
  11   2.0000     -14.381277      -391.3344
  12   2.0000     -10.362436      -281.9762
  13   2.0000     -10.360538      -281.9246
  14   2.0000     -10.337807      -281.3060
  15   2.0000     -10.335728      -281.2495
  16   2.0000     -10.335182      -281.2346
  17   2.0000     -10.334316      -281.2110
  18   2.0000     -10.334281      -281.2101
  19   2.0000     -10.325452      -280.9698
  20   2.0000     -10.324069      -280.9322
  21   2.0000     -10.322645      -280.8935
  22   2.0000     -10.322070      -280.8778
  23   2.0000     -10.317505      -280.7536
  24   2.0000     -10.312974      -280.6303
  25   2.0000     -10.312897      -280.6282
  26   2.0000     -10.310844      -280.5723
  27   2.0000     -10.309925      -280.5473
  28   2.0000     -10.305680      -280.4318
  29   2.0000     -10.301730      -280.3243
  30   2.0000     -10.297597      -280.2119
  31   2.0000     -10.296040      -280.1695
  32   2.0000     -10.295839      -280.1640
  33   2.0000     -10.294598      -280.1303
  34   2.0000     -10.293543      -280.1015
  35   2.0000     -10.288444      -279.9628
  36   2.0000     -10.282724      -279.8071
  37   2.0000     -10.282337      -279.7966
  38   2.0000     -10.281230      -279.7665
  39   2.0000     -10.280116      -279.7362
  40   2.0000     -10.279495      -279.7193
  41   2.0000     -10.278552      -279.6936
  42   2.0000     -10.277650      -279.6691
  43   2.0000     -10.277536      -279.6660
  44   2.0000     -10.277474      -279.6643
  45   2.0000     -10.276587      -279.6401
  46   2.0000     -10.272902      -279.5399
  47   2.0000     -10.272364      -279.5252
  48   2.0000     -10.271348      -279.4976
  49   2.0000     -10.271269      -279.4955
  50   2.0000     -10.270463      -279.4735
  51   2.0000     -10.269600      -279.4500
  52   2.0000     -10.269092      -279.4362
  53   2.0000     -10.268432      -279.4182
  54   2.0000     -10.266718      -279.3716
  55   2.0000     -10.266478      -279.3651
  56   2.0000     -10.265803      -279.3467
  57   2.0000     -10.264381      -279.3080
  58   2.0000     -10.264174      -279.3024
  59   2.0000     -10.261865      -279.2395
  60   2.0000     -10.261597      -279.2323
  61   2.0000     -10.261044      -279.2172
  62   2.0000     -10.258168      -279.1390
  63   2.0000     -10.256710      -279.0993
  64   2.0000      -1.116559       -30.3831
  65   2.0000      -1.113829       -30.3088
  66   2.0000      -1.085534       -29.5389
  67   2.0000      -1.076619       -29.2963
  68   2.0000      -1.068104       -29.0646
  69   2.0000      -1.067905       -29.0592
  70   2.0000      -1.048262       -28.5247
  71   2.0000      -1.048216       -28.5234
  72   2.0000      -0.985831       -26.8258
  73   2.0000      -0.982877       -26.7454
  74   2.0000      -0.975378       -26.5414
  75   2.0000      -0.966587       -26.3022
  76   2.0000      -0.953316       -25.9410
  77   2.0000      -0.948010       -25.7967
  78   2.0000      -0.928602       -25.2685
  79   2.0000      -0.928022       -25.2528
  80   2.0000      -0.917937       -24.9783
  81   2.0000      -0.914086       -24.8735
  82   2.0000      -0.906483       -24.6667
  83   2.0000      -0.894845       -24.3500
  84   2.0000      -0.889848       -24.2140
  85   2.0000      -0.878471       -23.9044
  86   2.0000      -0.873443       -23.7676
  87   2.0000      -0.863812       -23.5055
  88   2.0000      -0.850277       -23.1372
  89   2.0000      -0.846659       -23.0388
  90   2.0000      -0.845008       -22.9938
  91   2.0000      -0.836856       -22.7720
  92   2.0000      -0.832176       -22.6447
  93   2.0000      -0.824773       -22.4432
  94   2.0000      -0.821800       -22.3623
  95   2.0000      -0.796638       -21.6776
  96   2.0000      -0.788803       -21.4644
  97   2.0000      -0.765879       -20.8406
  98   2.0000      -0.756225       -20.5779
  99   2.0000      -0.753526       -20.5045
 100   2.0000      -0.748768       -20.3750
 101   2.0000      -0.743649       -20.2357
 102   2.0000      -0.742578       -20.2066
 103   2.0000      -0.731730       -19.9114
 104   2.0000      -0.731057       -19.8931
 105   2.0000      -0.724092       -19.7035
 106   2.0000      -0.719494       -19.5784
 107   2.0000      -0.700286       -19.0557
 108   2.0000      -0.699238       -19.0272
 109   2.0000      -0.692160       -18.8346
 110   2.0000      -0.682050       -18.5595
 111   2.0000      -0.671001       -18.2589
 112   2.0000      -0.662403       -18.0249
 113   2.0000      -0.656579       -17.8664
 114   2.0000      -0.651554       -17.7297
 115   2.0000      -0.650487       -17.7006
 116   2.0000      -0.648910       -17.6577
 117   2.0000      -0.641548       -17.4574
 118   2.0000      -0.635748       -17.2996
 119   2.0000      -0.623931       -16.9780
 120   2.0000      -0.615810       -16.7570
 121   2.0000      -0.614151       -16.7119
 122   2.0000      -0.611643       -16.6437
 123   2.0000      -0.607509       -16.5312
 124   2.0000      -0.598901       -16.2969
 125   2.0000      -0.595881       -16.2148
 126   2.0000      -0.594268       -16.1709
 127   2.0000      -0.584195       -15.8968
 128   2.0000      -0.582243       -15.8436
 129   2.0000      -0.579029       -15.7562
 130   2.0000      -0.571682       -15.5563
 131   2.0000      -0.568985       -15.4829
 132   2.0000      -0.566618       -15.4185
 133   2.0000      -0.559328       -15.2201
 134   2.0000      -0.554478       -15.0881
 135   2.0000      -0.550584       -14.9821
 136   2.0000      -0.548359       -14.9216
 137   2.0000      -0.543979       -14.8024
 138   2.0000      -0.540331       -14.7032
 139   2.0000      -0.539166       -14.6715
 140   2.0000      -0.536497       -14.5988
 141   2.0000      -0.536202       -14.5908
 142   2.0000      -0.535080       -14.5603
 143   2.0000      -0.531724       -14.4689
 144   2.0000      -0.525514       -14.3000
 145   2.0000      -0.523854       -14.2548
 146   2.0000      -0.523309       -14.2400
 147   2.0000      -0.521267       -14.1844
 148   2.0000      -0.518939       -14.1211
 149   2.0000      -0.518704       -14.1147
 150   2.0000      -0.514514       -14.0006
 151   2.0000      -0.512225       -13.9384
 152   2.0000      -0.509562       -13.8659
 153   2.0000      -0.506924       -13.7941
 154   2.0000      -0.502899       -13.6846
 155   2.0000      -0.501148       -13.6369
 156   2.0000      -0.499796       -13.6001
 157   2.0000      -0.493399       -13.4261
 158   2.0000      -0.489388       -13.3169
 159   2.0000      -0.488374       -13.2893
 160   2.0000      -0.486023       -13.2253
 161   2.0000      -0.482272       -13.1233
 162   2.0000      -0.482143       -13.1198
 163   2.0000      -0.481472       -13.1015
 164   2.0000      -0.478994       -13.0341
 165   2.0000      -0.469650       -12.7798
 166   2.0000      -0.468947       -12.7607
 167   2.0000      -0.467250       -12.7145
 168   2.0000      -0.465079       -12.6554
 169   2.0000      -0.463665       -12.6170
 170   2.0000      -0.463211       -12.6046
 171   2.0000      -0.462202       -12.5772
 172   2.0000      -0.459639       -12.5074
 173   2.0000      -0.449635       -12.2352
 174   2.0000      -0.447761       -12.1842
 175   2.0000      -0.446505       -12.1500
 176   2.0000      -0.437838       -11.9142
 177   2.0000      -0.435296       -11.8450
 178   2.0000      -0.432455       -11.7677
 179   2.0000      -0.431358       -11.7378
 180   2.0000      -0.428201       -11.6520
 181   2.0000      -0.425431       -11.5766
 182   2.0000      -0.421506       -11.4698
 183   2.0000      -0.417748       -11.3675
 184   2.0000      -0.415599       -11.3090
 185   2.0000      -0.408117       -11.1054
 186   2.0000      -0.398250       -10.8369
 187   2.0000      -0.395850       -10.7716
 188   2.0000      -0.387501       -10.5444
 189   2.0000      -0.381010       -10.3678
 190   2.0000      -0.376993       -10.2585
 191   2.0000      -0.376284       -10.2392
 192   2.0000      -0.374333       -10.1861
 193   2.0000      -0.374247       -10.1838
 194   2.0000      -0.360928        -9.8213
 195   2.0000      -0.359443        -9.7810
 196   2.0000      -0.354767        -9.6537
 197   2.0000      -0.351363        -9.5611
 198   2.0000      -0.349807        -9.5187
 199   2.0000      -0.343852        -9.3567
 200   2.0000      -0.343609        -9.3501
 201   2.0000      -0.334130        -9.0921
 202   2.0000      -0.330900        -9.0042
 203   2.0000      -0.329452        -8.9648
 204   2.0000      -0.324245        -8.8231
 205   2.0000      -0.322275        -8.7695
 206   2.0000      -0.320548        -8.7226
 207   2.0000      -0.319376        -8.6907
 208   2.0000      -0.319249        -8.6872
 209   2.0000      -0.318399        -8.6641
 210   2.0000      -0.307480        -8.3670
 211   2.0000      -0.296408        -8.0657
 212   2.0000      -0.295468        -8.0401
 213   2.0000      -0.289335        -7.8732
 214   2.0000      -0.277263        -7.5447
 215   2.0000      -0.262579        -7.1451
 216   2.0000      -0.214435        -5.8351
 217   0.0000      -0.110775        -3.0143
 218   0.0000      -0.104599        -2.8463
 219   0.0000      -0.066462        -1.8085
 220   0.0000      -0.046848        -1.2748
 221   0.0000      -0.037167        -1.0114

MULLIKEN ATOMIC CHARGES
-----------------------
   0 C :    0.075658
   1 N :   -0.102959
   2 C :    0.069590
   3 C :   -0.017201
   4 C :    0.021618
   5 N :   -0.087313
   6 C :    0.045386
   7 C :   -0.010586
   8 C :    0.044430
   9 N :   -0.042509
  10 C :    0.063379
  11 C :   -0.176447
  12 C :    0.218050
  13 O :   -0.157753
  14 C :   -0.003789
  15 C :   -0.035225
  16 N :   -0.056279
  17 C :    0.083258
  18 C :   -0.105237
  19 C :    0.070599
  20 C :   -0.032703
  21 C :    0.005965
  22 C :    0.127231
  23 C :   -0.113542
  24 C :    0.054387
  25 C :   -0.004307
  26 C :   -0.060163
  27 C :    0.137758
  28 N :   -0.226127
  29 C :    0.098119
  30 N :   -0.206828
  31 C :    0.076030
  32 C :   -0.040712
  33 C :    0.103790
  34 C :   -0.038237
  35 C :    0.022523
  36 C :    0.022369
  37 C :    0.034124
  38 C :   -0.003345
  39 C :   -0.012414
  40 C :    0.035199
  41 C :   -0.044381
  42 C :    0.037821
  43 N :   -0.050265
  44 C :    0.059824
  45 C :   -0.158234
  46 C :    0.212918
  47 O :   -0.138282
  48 C :   -0.018634
  49 C :   -0.034654
  50 N :   -0.057324
  51 C :    0.085980
  52 C :   -0.097563
  53 C :    0.072666
  54 C :   -0.017012
  55 C :    0.050843
  56 C :   -0.082069
  57 N :   -0.078878
  58 C :    0.077922
  59 C :   -0.045410
  60 C :    0.034377
  61 N :   -0.037106
  62 C :   -0.020972
  63 C :    0.035612
  64 H :    0.018291
  65 H :    0.016518
  66 H :    0.002994
  67 H :    0.013192
  68 H :    0.009569
  69 H :    0.004404
  70 H :   -0.012003
  71 H :   -0.036173
  72 H :   -0.006008
  73 H :   -0.028249
  74 H :   -0.030926
  75 H :    0.009444
  76 H :    0.000277
  77 H :    0.095607
  78 H :    0.110837
  79 H :    0.004649
  80 H :    0.021890
  81 H :    0.088810
  82 H :    0.095889
  83 H :   -0.015762
  84 H :    0.014106
  85 H :   -0.006417
  86 H :   -0.031974
  87 H :   -0.040307
  88 H :   -0.032333
  89 H :    0.045390
  90 H :   -0.012527
  91 H :    0.003559
  92 H :   -0.010374
  93 H :   -0.011957
  94 H :    0.004903
  95 H :    0.003383
  96 H :   -0.007184
  97 H :   -0.017821
  98 H :    0.047938
  99 H :    0.025396
Sum of atomic charges:   -0.0000000

LOEWDIN ATOMIC CHARGES
----------------------
   0 C :    0.047979
   1 N :   -0.086979
   2 C :    0.052024
   3 C :   -0.048971
   4 C :    0.025681
   5 N :   -0.083789
   6 C :    0.035878
   7 C :   -0.012207
   8 C :    0.070031
   9 N :   -0.101536
  10 C :    0.051128
  11 C :   -0.070966
  12 C :    0.070278
  13 O :   -0.154954
  14 C :   -0.040578
  15 C :    0.013398
  16 N :   -0.099370
  17 C :    0.064495
  18 C :   -0.039970
  19 C :   -0.012944
  20 C :   -0.060437
  21 C :    0.035041
  22 C :   -0.036864
  23 C :    0.006171
  24 C :   -0.029621
  25 C :   -0.015567
  26 C :   -0.042420
  27 C :    0.031941
  28 N :   -0.095728
  29 C :    0.023381
  30 N :   -0.114013
  31 C :   -0.018400
  32 C :    0.093531
  33 C :   -0.028961
  34 C :   -0.036689
  35 C :   -0.006125
  36 C :   -0.044305
  37 C :   -0.026357
  38 C :   -0.008950
  39 C :   -0.024824
  40 C :    0.100743
  41 C :   -0.079778
  42 C :    0.079857
  43 N :   -0.116573
  44 C :    0.048449
  45 C :   -0.038830
  46 C :    0.066740
  47 O :   -0.140231
  48 C :   -0.041614
  49 C :    0.011967
  50 N :   -0.100855
  51 C :    0.065813
  52 C :   -0.042533
  53 C :   -0.028344
  54 C :   -0.012149
  55 C :    0.002278
  56 C :    0.027330
  57 N :   -0.095552
  58 C :    0.047578
  59 C :   -0.069254
  60 C :    0.037415
  61 N :   -0.078403
  62 C :   -0.048632
  63 C :    0.011242
  64 H :    0.020137
  65 H :    0.028781
  66 H :    0.037530
  67 H :    0.040482
  68 H :    0.034957
  69 H :    0.021076
  70 H :    0.031519
  71 H :    0.022544
  72 H :    0.032220
  73 H :    0.030146
  74 H :    0.019417
  75 H :    0.007993
  76 H :    0.020704
  77 H :    0.054133
  78 H :    0.061939
  79 H :    0.005966
  80 H :    0.021233
  81 H :    0.051330
  82 H :    0.057598
  83 H :    0.025816
  84 H :    0.045107
  85 H :    0.026122
  86 H :    0.031289
  87 H :    0.026458
  88 H :    0.024325
  89 H :    0.043495
  90 H :    0.030077
  91 H :    0.021230
  92 H :    0.032291
  93 H :    0.027375
  94 H :    0.035961
  95 H :    0.024598
  96 H :    0.032153
  97 H :    0.026856
  98 H :    0.033707
  99 H :    0.027341

  Mayer bond orders larger than 0.100000
B(  0-C ,  1-N ) :   1.4957 B(  0-C ,  5-N ) :   1.5306 B(  0-C , 64-H ) :   0.9750
B(  1-N ,  2-C ) :   1.5484 B(  2-C ,  3-C ) :   1.3721 B(  2-C , 65-H ) :   0.9817
B(  3-C ,  4-C ) :   1.3501 B(  3-C , 66-H ) :   0.9776 B(  4-C ,  5-N ) :   1.5148
B(  4-C ,  6-C ) :   1.0386 B(  6-C ,  7-C ) :   1.7110 B(  6-C , 67-H ) :   0.9841
B(  7-C ,  8-C ) :   1.0833 B(  7-C , 68-H ) :   0.9594 B(  8-C ,  9-N ) :   1.6154
B(  8-C , 10-C ) :   0.1085 B(  8-C , 19-C ) :   0.9959 B(  9-N , 10-C ) :   1.3405
B( 10-C , 11-C ) :   1.0626 B( 10-C , 15-C ) :   1.4166 B( 11-C , 12-C ) :   0.9100
B( 11-C , 19-C ) :   1.5259 B( 12-C , 13-O ) :   2.1619 B( 12-C , 14-C ) :   0.9354
B( 13-O , 72-H ) :   0.1126 B( 14-C , 15-C ) :   1.0769 B( 14-C , 18-C ) :   1.5945
B( 15-C , 16-N ) :   1.3126 B( 16-N , 17-C ) :   1.6569 B( 17-C , 18-C ) :   1.0732
B( 17-C , 69-H ) :   0.9891 B( 18-C , 70-H ) :   1.0122 B( 19-C , 20-C ) :   1.1448
B( 20-C , 21-C ) :   1.6093 B( 20-C , 71-H ) :   0.9603 B( 21-C , 22-C ) :   1.0871
B( 21-C , 72-H ) :   0.9707 B( 22-C , 23-C ) :   1.4533 B( 22-C , 39-C ) :   1.1314
B( 23-C , 24-C ) :   1.1230 B( 23-C , 73-H ) :   1.0109 B( 24-C , 25-C ) :   1.4281
B( 24-C , 37-C ) :   1.1343 B( 25-C , 26-C ) :   1.0284 B( 25-C , 31-C ) :   1.1469
B( 26-C , 27-C ) :   0.9983 B( 26-C , 29-C ) :   1.0388 B( 26-C , 74-H ) :   0.8908
B( 27-C , 28-N ) :   1.1107 B( 27-C , 75-H ) :   0.9397 B( 27-C , 76-H ) :   0.9370
B( 28-N , 77-H ) :   0.9708 B( 28-N , 78-H ) :   0.9636 B( 29-C , 30-N ) :   1.0734
B( 29-C , 79-H ) :   0.9539 B( 29-C , 80-H ) :   0.9227 B( 30-N , 81-H ) :   0.9710
B( 30-N , 82-H ) :   0.9670 B( 31-C , 32-C ) :   1.6398 B( 31-C , 36-C ) :   1.0471
B( 32-C , 33-C ) :   0.9898 B( 32-C , 83-H ) :   0.9534 B( 33-C , 34-C ) :   0.9802
B( 33-C , 40-C ) :   0.9335 B( 33-C , 84-H ) :   0.8966 B( 34-C , 35-C ) :   1.6850
B( 34-C , 85-H ) :   0.9693 B( 35-C , 36-C ) :   1.1490 B( 35-C , 86-H ) :   0.9889
B( 36-C , 37-C ) :   1.4074 B( 37-C , 38-C ) :   1.1518 B( 38-C , 39-C ) :   1.6063
B( 38-C , 87-H ) :   0.9897 B( 39-C , 88-H ) :   0.9850 B( 40-C , 41-C ) :   1.7206
B( 40-C , 89-H ) :   0.9522 B( 41-C , 42-C ) :   1.1347 B( 41-C , 90-H ) :   0.9630
B( 42-C , 43-N ) :   1.5832 B( 42-C , 44-C ) :   0.1092 B( 42-C , 53-C ) :   1.0023
B( 43-N , 44-C ) :   1.3692 B( 44-C , 45-C ) :   1.0518 B( 44-C , 49-C ) :   1.4004
B( 45-C , 46-C ) :   0.8914 B( 45-C , 53-C ) :   1.5676 B( 46-C , 47-O ) :   2.2048
B( 46-C , 48-C ) :   0.9284 B( 48-C , 49-C ) :   1.0755 B( 48-C , 52-C ) :   1.5869
B( 49-C , 50-N ) :   1.3232 B( 50-N , 51-C ) :   1.6426 B( 51-C , 52-C ) :   1.0873
B( 51-C , 91-H ) :   0.9897 B( 52-C , 92-H ) :   1.0106 B( 53-C , 54-C ) :   1.0812
B( 54-C , 55-C ) :   1.6995 B( 54-C , 93-H ) :   0.9596 B( 55-C , 56-C ) :   1.0165
B( 55-C , 94-H ) :   0.9595 B( 56-C , 57-N ) :   1.5073 B( 56-C , 61-N ) :   1.5629
B( 57-N , 58-C ) :   1.5582 B( 58-C , 59-C ) :   1.3657 B( 58-C , 95-H ) :   0.9803
B( 59-C , 60-C ) :   1.3428 B( 59-C , 96-H ) :   0.9737 B( 60-C , 61-N ) :   1.5114
B( 60-C , 62-C ) :   1.0645 B( 62-C , 63-C ) :   1.9553 B( 62-C , 97-H ) :   0.9667
B( 63-C , 98-H ) :   0.9387 B( 63-C , 99-H ) :   0.9475

-----------------------------------------------------------------------------
         ABSORPTION SPECTRUM VIA TRANSITION ELECTRIC DIPOLE MOMENTS
-----------------------------------------------------------------------------
State   Energy  Wavelength   fosc         T2         TX        TY        TZ
        (cm-1)    (nm)                  (au**2)     (au)      (au)      (au)
-----------------------------------------------------------------------------
   0    9582.8   1043.5   0.221705646   7.61655  -1.03991  -1.66158   1.94275
   1   10869.0    920.0   0.065187714   1.97447   1.24376  -0.02492  -0.65339
   2   14363.3    696.2   0.080578928   1.84689  -0.55740  -1.21033  -0.26702
   3   17114.0    584.3   0.007350506   0.14140  -0.02961  -0.33797   0.16216
   4   19208.7    520.6   0.067010268   1.14847  -0.78636   0.50333  -0.52610
   5   21455.6    466.1   0.000460676   0.00707   0.07141  -0.01563  -0.04153
   6   22080.9    452.9   0.000783046   0.01167  -0.01908  -0.10252   0.02830
   7   22555.7    443.3   0.018158816   0.26504   0.37163  -0.02689  -0.35526
   8   22696.6    440.6   0.417222239   6.05176   0.31937   1.08341  -2.18540
   9   24051.3    415.8   0.789351568  10.80455  -1.37701  -2.98469   0.00547
  10   24463.6    408.8   0.362756933   4.88169   1.36786  -0.18240  -1.72551
  11   24729.5    404.4   0.135586496   1.80500   1.24514  -0.49185  -0.11276
  12   25263.1    395.8   0.290705168   3.78828   0.32009   1.82176   0.60583
  13   25338.6    394.7   0.344577387   4.47692   0.20974  -0.35479   2.07534
  14   25437.8    393.1   0.015342101   0.19855   0.09946   0.31761   0.29629
  15   26041.8    384.0   0.172624972   2.18227   1.44620  -0.18816   0.23532
  16   26079.0    383.5   0.062867182   0.79361   0.88229   0.03269   0.11877
  17   26377.9    379.1   0.095362903   1.19018   0.59428  -0.90071   0.16045
  18   27127.0    368.6   0.003003187   0.03645   0.17768   0.06944   0.00741
  19   27408.2    364.9   0.077466513   0.93048  -0.00462  -0.84032  -0.47363
  20   27681.2    361.3   0.181811263   2.16228  -0.04504   1.16812  -0.89205
  21   27747.9    360.4   0.016572365   0.19662  -0.07053   0.26735  -0.34666
  22   28751.9    347.8   0.003317408   0.03798  -0.18945   0.04210   0.01789
  23   29366.0    340.5   0.096286672   1.07944  -0.28500   0.79628  -0.60345
  24   29487.0    339.1   0.000026946   0.00030   0.00221  -0.01678  -0.00379
  25   29695.8    336.7   0.047557684   0.52723   0.13179  -0.61746   0.35861
  26   30290.3    330.1   0.084982965   0.92364  -0.36032  -0.82414   0.33855
  27   30623.9    326.5   0.046100827   0.49559   0.43564  -0.22073  -0.50704
  28   31018.8    322.4   0.615391906   6.53133   1.00320  -1.60265   1.71943
  29   31131.8    321.2   0.124408110   1.31559   0.44644  -0.72709   0.76656
  30   31220.6    320.3   0.000352198   0.00371  -0.00155   0.02855  -0.05382
  31   32065.6    311.9   0.036133353   0.37097   0.21728   0.56761   0.03982
  32   32179.6    310.8   0.009586131   0.09807   0.00712   0.31103  -0.03581
  33   32618.4    306.6   0.024865471   0.25096   0.07526   0.48043   0.12037
  34   32939.4    303.6   0.064134518   0.64099  -0.46128   0.58072  -0.30162
  35   33150.1    301.7   0.051432364   0.51077   0.10465   0.23238   0.66770
  36   33535.2    298.2   0.001859705   0.01826   0.02466   0.01674  -0.13179
  37   33798.0    295.9   0.118218496   1.15152   0.12857   0.39141  -0.99085
  38   34204.5    292.4   0.112979669   1.08741  -0.21635  -0.75969  -0.68079
  39   34920.4    286.4   0.008933135   0.08422  -0.27176  -0.09308  -0.04123
  40   34970.4    286.0   0.105423240   0.99245   0.15798  -0.45255   0.87333
  41   35246.5    283.7   0.007028830   0.06565  -0.01819  -0.19075  -0.17010
  42   35334.7    283.0   0.320277342   2.98401   0.48789  -0.00334  -1.65709
  43   35445.9    282.1   0.092908424   0.86291  -0.35104   0.14749  -0.84730
  44   35747.7    279.7   0.309143713   2.84700  -0.88377  -1.16084  -0.84758
  45   35864.5    278.8   0.150379586   1.38038  -0.78427   0.86832  -0.10643
  46   35994.7    277.8   0.088739942   0.81163   0.85224  -0.27370  -0.10196
  47   36495.2    274.0   0.015727871   0.14188   0.22565   0.29431   0.06587
  48   36750.3    272.1   0.043447504   0.38921  -0.05913  -0.50973  -0.35481
  49   37008.3    270.2   0.011709273   0.10416  -0.24253   0.08714   0.19429
  50   37254.0    268.4   0.018380483   0.16243  -0.32017   0.17314  -0.17305
  51   37463.9    266.9   0.002437172   0.02142   0.02935   0.11664   0.08337
  52   37532.7    266.4   0.004038046   0.03542   0.16739  -0.08599  -0.00269
  53   37651.2    265.6   0.011974063   0.10470   0.04662  -0.31621  -0.05033
  54   37932.2    263.6   0.002060779   0.01789  -0.04620  -0.08853   0.08895
  55   38554.8    259.4   0.234218003   1.99994  -1.27478   0.53337  -0.30064
  56   38847.9    257.4   0.051208659   0.43396   0.28288  -0.07946  -0.58960
  57   39011.4    256.3   0.000294599   0.00249   0.00335  -0.02249   0.04438
  58   39175.2    255.3   0.001447000   0.01216  -0.01103  -0.07163   0.08312
  59   39551.5    252.8   0.428823889   3.56937  -0.20142  -0.70907   1.73954
  60   39656.2    252.2   0.024533113   0.20367   0.01067  -0.19488   0.40691
  61   39967.8    250.2   0.000335163   0.00276   0.00583   0.01817  -0.04896
  62   40232.1    248.6   0.007981347   0.06531  -0.11447  -0.01412  -0.22805

FINAL SINGLE POINT ENERGY     -2697.492056335714

DIPOLE MOMENT
-------------
                                X             Y             Z
Electronic contribution:     10.37901      -6.12530      26.74259
Nuclear contribution   :    -11.74992       6.79112     -28.11818
                        -----------------------------------------
Total Dipole Moment    :     -1.37091       0.66582      -1.37559
                        -----------------------------------------
Magnitude (a.u.)       :      2.05304
Magnitude (Debye)      :      5.21841

Rotational constants in cm-1:     0.001940     0.000320     0.000306
Rotational constants in MHz :    58.151795     9.595014     9.176782

                             ****ORCA TERMINATED NORMALLY****
TOTAL RUN TIME: 0 days 0 hours 11 minutes 6 seconds 585 msec
