                         Program Version 4.2.0 -  RELEASE  -
|  1> # ORCA input file
|  2> # SCF done       -139.323871025921          0.000648768204
|  3> ! CAM-B3LYP def2-SVP def2/J RIJCOSX Grid4 TightSCF
|  4> %maxcore 5000
|  5> %tddft
|  6>     Mode sTDDFT
|  7>     Ethresh 5.0
|  8>     maxcore 5000
|  9> end
| 10>
| 11> %pal
| 12>   nprocs 6
| 13>   end
| 14> * xyz 0 1
| 15>    C       -8.68650        -1.17310         3.29951
| 16>    N       -9.25080        -1.76484         4.33954
| 17>    C       -9.00106        -3.05680         4.48987
| 18>    C       -8.19398        -3.75926         3.61005
| 19>    C       -7.64723        -3.03859         2.54100
| 20>    N       -7.90691        -1.73146         2.40106
| 21>    C       -6.79784        -3.67633         1.55991
| 22>    C       -6.26995        -3.01316         0.51069
| 23>    C       -5.45049        -3.65435        -0.46425
| 24>    N       -5.15268        -4.94185        -0.38928
| 25>    C       -4.39708        -5.21214        -1.47366
| 26>    C       -4.20683        -4.01829        -2.30559
| 27>    C       -3.38828        -4.33881        -3.48033
| 28>    O       -3.04625        -3.60807        -4.39037
| 29>    C       -3.08897        -5.77040        -3.29011
| 30>    C       -3.72802        -6.26432        -2.05467
| 31>    N       -3.45570        -7.57888        -1.86683
| 32>    C       -2.70258        -7.92081        -2.88384
| 33>    C       -2.43233        -6.83902        -3.81031
| 34>    C       -4.86882        -2.99687        -1.66052
| 35>    C       -4.99856        -1.62496        -1.99393
| 36>    C       -4.49297        -1.10606        -3.14321
| 37>    C       -4.56639         0.25140        -3.53395
| 38>    N       -4.08847         0.64335        -4.76564
| 39>    C       -4.26687         1.98203        -4.89650
| 40>    C       -4.09487         3.06115        -5.74698
| 41>    C       -4.58007         4.18823        -5.05501
| 42>    N       -5.03764         3.79473        -3.81050
| 43>    C       -4.87152         2.45433        -3.69328
| 44>    C       -5.06336         1.37238        -2.84704
| 45>    C       -4.60330         5.51348        -5.52299
| 46>    C       -4.96627         6.61881        -4.80531
| 47>    C       -4.97461         7.90351        -5.38429
| 48>    N       -4.73239         8.09379        -6.68426
| 49>    C       -4.85005         9.40922        -6.89115
| 50>    C       -5.18113        10.12836        -5.64560
| 51>    C       -5.30362        11.57547        -5.90508
| 52>    O       -5.56096        12.46372        -5.12072
| 53>    C       -5.03722        11.66732        -7.34826
| 54>    C       -4.76441        10.33244        -7.91173
| 55>    N       -4.51661        10.41315        -9.23852
| 56>    C       -4.61709        11.69268        -9.52756
| 57>    C       -4.93807        12.52935        -8.39735
| 58>    C       -5.25812         9.17284        -4.66785
| 59>    C       -5.50849         9.28716        -3.26691
| 60>    C       -5.74006        10.44802        -2.62668
| 61>    C       -5.95824        10.50355        -1.19608
| 62>    N       -6.20057        11.70682        -0.67150
| 63>    C       -6.39667        11.77491         0.62989
| 64>    C       -6.35908        10.65498         1.44584
| 65>    C       -6.09587         9.43245         0.81706
| 66>    N       -5.89971         9.37206        -0.49567
| 67>    C       -6.02535         8.19290         1.58468
| 68>    C       -5.69307         7.02512         1.04996
| 69>    H       -8.88995        -0.11651         3.17592
| 70>    H       -9.46642        -3.53366         5.34302
| 71>    H       -7.99336        -4.81082         3.73543
| 72>    H       -6.59089        -4.72989         1.68083
| 73>    H       -6.48538        -1.96069         0.39885
| 74>    H       -2.34214        -8.93040        -2.97858
| 75>    H       -1.83822        -6.91356        -4.69968
| 76>    H       -5.52191        -0.98624        -1.29756
| 77>    H       -3.98858        -1.77198        -3.83236
| 78>    H       -3.67832         0.01348        -5.43493
| 79>    H       -3.67410         3.07878        -6.73175
| 80>    H       -5.46581         4.40760        -3.13929
| 81>    H       -5.49099         1.36874        -1.86535
| 82>    H       -4.29381         5.67567        -6.54567
| 83>    H       -5.24870         6.54055        -3.76516
| 84>    H       -4.46339        12.03250       -10.53723
| 85>    H       -5.06305        13.59386        -8.42170
| 86>    H       -5.49628         8.37973        -2.67864
| 87>    H       -5.77018        11.39433        -3.14697
| 88>    H       -6.59039        12.76328         1.02830
| 89>    H       -6.51960        10.71893         2.50993
| 90>    H       -6.25665         8.28253         2.63753
| 91>    H       -5.45715         6.95838         0.00171
| 92>    H       -5.64281         6.12131         1.63226
| 93> *
| 94>
| 95>                          ****END OF INPUT****

CARTESIAN COORDINATES (ANGSTROEM)
---------------------------------
  C     -8.686500   -1.173100    3.299510
  N     -9.250800   -1.764840    4.339540
  C     -9.001060   -3.056800    4.489870
  C     -8.193980   -3.759260    3.610050
  C     -7.647230   -3.038590    2.541000
  N     -7.906910   -1.731460    2.401060
  C     -6.797840   -3.676330    1.559910
  C     -6.269950   -3.013160    0.510690
  C     -5.450490   -3.654350   -0.464250
  N     -5.152680   -4.941850   -0.389280
  C     -4.397080   -5.212140   -1.473660
  C     -4.206830   -4.018290   -2.305590
  C     -3.388280   -4.338810   -3.480330
  O     -3.046250   -3.608070   -4.390370
  C     -3.088970   -5.770400   -3.290110
  C     -3.728020   -6.264320   -2.054670
  N     -3.455700   -7.578880   -1.866830
  C     -2.702580   -7.920810   -2.883840
  C     -2.432330   -6.839020   -3.810310
  C     -4.868820   -2.996870   -1.660520
  C     -4.998560   -1.624960   -1.993930
  C     -4.492970   -1.106060   -3.143210
  C     -4.566390    0.251400   -3.533950
  N     -4.088470    0.643350   -4.765640
  C     -4.266870    1.982030   -4.896500
  C     -4.094870    3.061150   -5.746980
  C     -4.580070    4.188230   -5.055010
  N     -5.037640    3.794730   -3.810500
  C     -4.871520    2.454330   -3.693280
  C     -5.063360    1.372380   -2.847040
  C     -4.603300    5.513480   -5.522990
  C     -4.966270    6.618810   -4.805310
  C     -4.974610    7.903510   -5.384290
  N     -4.732390    8.093790   -6.684260
  C     -4.850050    9.409220   -6.891150
  C     -5.181130   10.128360   -5.645600
  C     -5.303620   11.575470   -5.905080
  O     -5.560960   12.463720   -5.120720
  C     -5.037220   11.667320   -7.348260
  C     -4.764410   10.332440   -7.911730
  N     -4.516610   10.413150   -9.238520
  C     -4.617090   11.692680   -9.527560
  C     -4.938070   12.529350   -8.397350
  C     -5.258120    9.172840   -4.667850
  C     -5.508490    9.287160   -3.266910
  C     -5.740060   10.448020   -2.626680
  C     -5.958240   10.503550   -1.196080
  N     -6.200570   11.706820   -0.671500
  C     -6.396670   11.774910    0.629890
  C     -6.359080   10.654980    1.445840
  C     -6.095870    9.432450    0.817060
  N     -5.899710    9.372060   -0.495670
  C     -6.025350    8.192900    1.584680
  C     -5.693070    7.025120    1.049960
  H     -8.889950   -0.116510    3.175920
  H     -9.466420   -3.533660    5.343020
  H     -7.993360   -4.810820    3.735430
  H     -6.590890   -4.729890    1.680830
  H     -6.485380   -1.960690    0.398850
  H     -2.342140   -8.930400   -2.978580
  H     -1.838220   -6.913560   -4.699680
  H     -5.521910   -0.986240   -1.297560
  H     -3.988580   -1.771980   -3.832360
  H     -3.678320    0.013480   -5.434930
  H     -3.674100    3.078780   -6.731750
  H     -5.465810    4.407600   -3.139290
  H     -5.490990    1.368740   -1.865350
  H     -4.293810    5.675670   -6.545670
  H     -5.248700    6.540550   -3.765160
  H     -4.463390   12.032500  -10.537230
  H     -5.063050   13.593860   -8.421700
  H     -5.496280    8.379730   -2.678640
  H     -5.770180   11.394330   -3.146970
  H     -6.590390   12.763280    1.028300
  H     -6.519600   10.718930    2.509930
  H     -6.256650    8.282530    2.637530
  H     -5.457150    6.958380    0.001710
  H     -5.642810    6.121310    1.632260

 Total Charge           Charge          ....    0
 Multiplicity           Mult            ....    1
 Number of Electrons    NEL             ....  362
 Basis Dimension        Dim             ....  876

ORBITAL ENERGIES
----------------

  NO   OCC          E(Eh)            E(eV)
   0   2.0000     -19.214657      -522.8574
   1   2.0000     -19.191963      -522.2399
   2   2.0000     -14.472768      -393.8240
   3   2.0000     -14.471890      -393.8001
   4   2.0000     -14.424355      -392.5067
   5   2.0000     -14.420582      -392.4040
   6   2.0000     -14.413556      -392.2128
   7   2.0000     -14.405889      -392.0042
   8   2.0000     -14.402320      -391.9070
   9   2.0000     -14.397630      -391.7794
  10   2.0000     -14.386234      -391.4693
  11   2.0000     -14.382189      -391.3593
  12   2.0000     -10.374018      -282.2914
  13   2.0000     -10.352074      -281.6943
  14   2.0000     -10.346223      -281.5350
  15   2.0000     -10.345827      -281.5243
  16   2.0000     -10.342808      -281.4421
  17   2.0000     -10.334072      -281.2044
  18   2.0000     -10.333317      -281.1839
  19   2.0000     -10.333176      -281.1800
  20   2.0000     -10.325155      -280.9617
  21   2.0000     -10.324202      -280.9358
  22   2.0000     -10.324090      -280.9328
  23   2.0000     -10.322897      -280.9003
  24   2.0000     -10.322266      -280.8831
  25   2.0000     -10.319927      -280.8195
  26   2.0000     -10.315340      -280.6947
  27   2.0000     -10.313255      -280.6379
  28   2.0000     -10.312926      -280.6290
  29   2.0000     -10.310854      -280.5726
  30   2.0000     -10.308133      -280.4986
  31   2.0000     -10.306047      -280.4418
  32   2.0000     -10.301817      -280.3267
  33   2.0000     -10.301332      -280.3135
  34   2.0000     -10.298801      -280.2446
  35   2.0000     -10.298503      -280.2365
  36   2.0000     -10.296420      -280.1798
  37   2.0000     -10.293678      -280.1052
  38   2.0000     -10.290979      -280.0318
  39   2.0000     -10.290859      -280.0285
  40   2.0000     -10.288361      -279.9605
  41   2.0000     -10.287552      -279.9385
  42   2.0000     -10.286711      -279.9156
  43   2.0000     -10.286654      -279.9141
  44   2.0000     -10.280474      -279.7459
  45   2.0000     -10.280209      -279.7387
  46   2.0000     -10.278827      -279.7011
  47   2.0000     -10.277542      -279.6661
  48   2.0000     -10.275178      -279.6018
  49   2.0000     -10.274073      -279.5717
  50   2.0000     -10.273508      -279.5564
  51   2.0000     -10.265420      -279.3363
  52   2.0000     -10.264589      -279.3137
  53   2.0000     -10.260579      -279.2045
  54   2.0000      -1.127716       -30.6867
  55   2.0000      -1.106389       -30.1064
  56   2.0000      -1.106032       -30.0966
  57   2.0000      -1.094042       -29.7704
  58   2.0000      -1.079657       -29.3790
  59   2.0000      -1.074491       -29.2384
  60   2.0000      -1.069059       -29.0906
  61   2.0000      -1.059738       -28.8369
  62   2.0000      -1.056728       -28.7550
  63   2.0000      -1.035468       -28.1765
  64   2.0000      -0.994333       -27.0572
  65   2.0000      -0.973191       -26.4819
  66   2.0000      -0.940454       -25.5911
  67   2.0000      -0.925442       -25.1826
  68   2.0000      -0.921990       -25.0886
  69   2.0000      -0.914774       -24.8923
  70   2.0000      -0.912907       -24.8415
  71   2.0000      -0.902334       -24.5538
  72   2.0000      -0.889768       -24.2118
  73   2.0000      -0.884056       -24.0564
  74   2.0000      -0.881699       -23.9923
  75   2.0000      -0.874944       -23.8084
  76   2.0000      -0.856889       -23.3171
  77   2.0000      -0.854494       -23.2520
  78   2.0000      -0.851311       -23.1653
  79   2.0000      -0.835059       -22.7231
  80   2.0000      -0.819674       -22.3045
  81   2.0000      -0.805855       -21.9284
  82   2.0000      -0.798835       -21.7374
  83   2.0000      -0.776628       -21.1331
  84   2.0000      -0.757564       -20.6144
  85   2.0000      -0.757213       -20.6048
  86   2.0000      -0.748854       -20.3773
  87   2.0000      -0.742586       -20.2068
  88   2.0000      -0.741472       -20.1765
  89   2.0000      -0.724168       -19.7056
  90   2.0000      -0.722072       -19.6486
  91   2.0000      -0.709529       -19.3073
  92   2.0000      -0.707471       -19.2513
  93   2.0000      -0.704032       -19.1577
  94   2.0000      -0.691693       -18.8219
  95   2.0000      -0.674797       -18.3621
  96   2.0000      -0.666853       -18.1460
  97   2.0000      -0.660639       -17.9769
  98   2.0000      -0.660113       -17.9626
  99   2.0000      -0.655373       -17.8336
 100   2.0000      -0.645094       -17.5539
 101   2.0000      -0.633325       -17.2336
 102   2.0000      -0.628589       -17.1048
 103   2.0000      -0.623508       -16.9665
 104   2.0000      -0.618310       -16.8251
 105   2.0000      -0.611536       -16.6407
 106   2.0000      -0.608428       -16.5562
 107   2.0000      -0.603081       -16.4107
 108   2.0000      -0.594014       -16.1639
 109   2.0000      -0.587123       -15.9764
 110   2.0000      -0.577887       -15.7251
 111   2.0000      -0.574431       -15.6311
 112   2.0000      -0.572181       -15.5698
 113   2.0000      -0.565783       -15.3957
 114   2.0000      -0.559325       -15.2200
 115   2.0000      -0.555887       -15.1264
 116   2.0000      -0.552602       -15.0371
 117   2.0000      -0.549875       -14.9628
 118   2.0000      -0.549453       -14.9514
 119   2.0000      -0.546893       -14.8817
 120   2.0000      -0.542930       -14.7739
 121   2.0000      -0.537248       -14.6193
 122   2.0000      -0.531844       -14.4722
 123   2.0000      -0.530199       -14.4274
 124   2.0000      -0.527012       -14.3407
 125   2.0000      -0.526469       -14.3259
 126   2.0000      -0.525997       -14.3131
 127   2.0000      -0.519789       -14.1442
 128   2.0000      -0.517365       -14.0782
 129   2.0000      -0.516244       -14.0477
 130   2.0000      -0.514354       -13.9963
 131   2.0000      -0.505720       -13.7613
 132   2.0000      -0.501101       -13.6357
 133   2.0000      -0.497651       -13.5418
 134   2.0000      -0.494804       -13.4643
 135   2.0000      -0.494189       -13.4476
 136   2.0000      -0.490970       -13.3600
 137   2.0000      -0.488765       -13.3000
 138   2.0000      -0.482700       -13.1349
 139   2.0000      -0.478519       -13.0212
 140   2.0000      -0.476149       -12.9567
 141   2.0000      -0.475018       -12.9259
 142   2.0000      -0.472968       -12.8701
 143   2.0000      -0.470774       -12.8104
 144   2.0000      -0.469357       -12.7719
 145   2.0000      -0.459911       -12.5148
 146   2.0000      -0.457615       -12.4523
 147   2.0000      -0.457025       -12.4363
 148   2.0000      -0.452766       -12.3204
 149   2.0000      -0.448391       -12.2014
 150   2.0000      -0.443490       -12.0680
 151   2.0000      -0.438815       -11.9408
 152   2.0000      -0.431388       -11.7387
 153   2.0000      -0.425940       -11.5904
 154   2.0000      -0.416465       -11.3326
 155   2.0000      -0.412246       -11.2178
 156   2.0000      -0.398711       -10.8495
 157   2.0000      -0.393061       -10.6957
 158   2.0000      -0.385331       -10.4854
 159   2.0000      -0.382718       -10.4143
 160   2.0000      -0.371636       -10.1127
 161   2.0000      -0.364697        -9.9239
 162   2.0000      -0.364501        -9.9186
 163   2.0000      -0.363073        -9.8797
 164   2.0000      -0.356637        -9.7046
 165   2.0000      -0.354775        -9.6539
 166   2.0000      -0.340302        -9.2601
 167   2.0000      -0.339265        -9.2319
 168   2.0000      -0.336268        -9.1503
 169   2.0000      -0.332634        -9.0514
 170   2.0000      -0.331989        -9.0339
 171   2.0000      -0.325036        -8.8447
 172   2.0000      -0.323349        -8.7988
 173   2.0000      -0.315300        -8.5798
 174   2.0000      -0.310841        -8.4584
 175   2.0000      -0.309765        -8.4291
 176   2.0000      -0.306134        -8.3303
 177   2.0000      -0.303938        -8.2706
 178   2.0000      -0.288964        -7.8631
 179   2.0000      -0.272769        -7.4224
 180   2.0000      -0.234889        -6.3917
 181   0.0000      -0.122582        -3.3356
 182   0.0000      -0.100599        -2.7374
 183   0.0000      -0.060857        -1.6560
 184   0.0000      -0.040251        -1.0953
 185   0.0000      -0.039006        -1.0614

MULLIKEN ATOMIC CHARGES
-----------------------
   0 C :    0.073427
   1 N :   -0.100495
   2 C :    0.072456
   3 C :   -0.018957
   4 C :    0.019881
   5 N :   -0.086226
   6 C :    0.047264
   7 C :   -0.013399
   8 C :    0.047040
   9 N :   -0.039303
  10 C :    0.074408
  11 C :   -0.173997
  12 C :    0.221823
  13 O :   -0.161895
  14 C :   -0.008525
  15 C :   -0.039139
  16 N :   -0.054696
  17 C :    0.088443
  18 C :   -0.100144
  19 C :    0.069602
  20 C :   -0.055794
  21 C :    0.032614
  22 C :    0.100300
  23 N :   -0.024414
  24 C :    0.123315
  25 C :   -0.138298
  26 C :    0.089860
  27 N :   -0.033752
  28 C :    0.124696
  29 C :   -0.163630
  30 C :    0.074874
  31 C :   -0.071275
  32 C :    0.036762
  33 N :   -0.056873
  34 C :    0.061998
  35 C :   -0.158352
  36 C :    0.210045
  37 O :   -0.141861
  38 C :   -0.018745
  39 C :   -0.048551
  40 N :   -0.061025
  41 C :    0.079530
  42 C :   -0.103270
  43 C :    0.073815
  44 C :   -0.017428
  45 C :    0.050944
  46 C :   -0.081482
  47 N :   -0.053107
  48 C :    0.082030
  49 C :   -0.046662
  50 C :    0.031409
  51 N :   -0.061816
  52 C :   -0.012494
  53 C :    0.031872
  54 H :    0.018972
  55 H :    0.017790
  56 H :    0.005934
  57 H :    0.016201
  58 H :    0.006546
  59 H :    0.007494
  60 H :   -0.006491
  61 H :   -0.026794
  62 H :   -0.010732
  63 H :    0.137863
  64 H :   -0.017884
  65 H :    0.131053
  66 H :   -0.027142
  67 H :    0.022213
  68 H :   -0.046032
  69 H :   -0.003679
  70 H :   -0.014863
  71 H :   -0.021381
  72 H :    0.007076
  73 H :    0.006488
  74 H :   -0.007429
  75 H :   -0.015365
  76 H :    0.024393
  77 H :    0.022968
Sum of atomic charges:    0.0000000

LOEWDIN ATOMIC CHARGES
----------------------
   0 C :    0.047568
   1 N :   -0.084882
   2 C :    0.053842
   3 C :   -0.047640
   4 C :    0.024641
   5 N :   -0.084457
   6 C :    0.038764
   7 C :   -0.015257
   8 C :    0.069371
   9 N :   -0.098765
  10 C :    0.049736
  11 C :   -0.065858
  12 C :    0.071600
  13 O :   -0.157076
  14 C :   -0.041554
  15 C :    0.017690
  16 N :   -0.096107
  17 C :    0.069671
  18 C :   -0.034952
  19 C :   -0.020066
  20 C :   -0.039346
  21 C :    0.007176
  22 C :    0.012550
  23 N :    0.080452
  24 C :   -0.018945
  25 C :   -0.053227
  26 C :   -0.007710
  27 N :    0.071288
  28 C :    0.002771
  29 C :   -0.088438
  30 C :    0.053213
  31 C :   -0.082994
  32 C :    0.071601
  33 N :   -0.125995
  34 C :    0.046259
  35 C :   -0.035020
  36 C :    0.065647
  37 O :   -0.143818
  38 C :   -0.047277
  39 C :    0.002587
  40 N :   -0.103804
  41 C :    0.055689
  42 C :   -0.048892
  43 C :   -0.030293
  44 C :   -0.010383
  45 C :   -0.001846
  46 C :    0.028897
  47 N :   -0.084021
  48 C :    0.051050
  49 C :   -0.068974
  50 C :    0.032483
  51 N :   -0.086908
  52 C :   -0.039471
  53 C :   -0.004535
  54 H :    0.020196
  55 H :    0.029575
  56 H :    0.038416
  57 H :    0.041462
  58 H :    0.034052
  59 H :    0.022823
  60 H :    0.033613
  61 H :    0.026715
  62 H :    0.032677
  63 H :    0.098644
  64 H :    0.033348
  65 H :    0.091331
  66 H :    0.026573
  67 H :    0.050095
  68 H :    0.019059
  69 H :    0.018183
  70 H :    0.030166
  71 H :    0.023277
  72 H :    0.037421
  73 H :    0.026287
  74 H :    0.031778
  75 H :    0.028519
  76 H :    0.023978
  77 H :    0.025775

  Mayer bond orders larger than 0.100000
B(  0-C ,  1-N ) :   1.4970 B(  0-C ,  5-N ) :   1.5309 B(  0-C , 54-H ) :   0.9750
B(  1-N ,  2-C ) :   1.5492 B(  2-C ,  3-C ) :   1.3696 B(  2-C , 55-H ) :   0.9815
B(  3-C ,  4-C ) :   1.3531 B(  3-C , 56-H ) :   0.9774 B(  4-C ,  5-N ) :   1.5152
B(  4-C ,  6-C ) :   1.0397 B(  6-C ,  7-C ) :   1.7123 B(  6-C , 57-H ) :   0.9832
B(  7-C ,  8-C ) :   1.0871 B(  7-C , 58-H ) :   0.9590 B(  8-C ,  9-N ) :   1.6212
B(  8-C , 10-C ) :   0.1075 B(  8-C , 19-C ) :   0.9916 B(  9-N , 10-C ) :   1.3375
B( 10-C , 11-C ) :   1.0643 B( 10-C , 15-C ) :   1.4172 B( 11-C , 12-C ) :   0.9128
B( 11-C , 19-C ) :   1.5174 B( 12-C , 13-O ) :   2.1523 B( 12-C , 14-C ) :   0.9376
B( 13-O , 62-H ) :   0.1175 B( 14-C , 15-C ) :   1.0741 B( 14-C , 18-C ) :   1.6003
B( 15-C , 16-N ) :   1.3119 B( 16-N , 17-C ) :   1.6596 B( 17-C , 18-C ) :   1.0690
B( 17-C , 59-H ) :   0.9891 B( 18-C , 60-H ) :   1.0114 B( 19-C , 20-C ) :   1.1509
B( 20-C , 21-C ) :   1.6308 B( 20-C , 61-H ) :   0.9682 B( 21-C , 22-C ) :   1.1081
B( 21-C , 62-H ) :   0.9402 B( 22-C , 23-N ) :   1.1941 B( 22-C , 29-C ) :   1.3739
B( 23-N , 24-C ) :   1.1661 B( 23-N , 63-H ) :   0.9309 B( 24-C , 25-C ) :   1.2803
B( 24-C , 28-C ) :   1.2707 B( 25-C , 26-C ) :   1.3108 B( 25-C , 64-H ) :   1.0429
B( 26-C , 27-N ) :   1.1758 B( 26-C , 30-C ) :   1.1744 B( 27-N , 28-C ) :   1.1847
B( 27-N , 65-H ) :   0.9309 B( 28-C , 29-C ) :   1.2814 B( 29-C , 66-H ) :   1.0316
B( 30-C , 31-C ) :   1.5163 B( 30-C , 67-H ) :   0.9672 B( 31-C , 32-C ) :   1.2357
B( 31-C , 68-H ) :   0.9500 B( 32-C , 33-N ) :   1.5287 B( 32-C , 34-C ) :   0.1097
B( 32-C , 43-C ) :   0.9945 B( 33-N , 34-C ) :   1.4117 B( 34-C , 35-C ) :   1.0500
B( 34-C , 39-C ) :   1.3622 B( 35-C , 36-C ) :   0.8876 B( 35-C , 43-C ) :   1.5752
B( 36-C , 37-O ) :   2.2001 B( 36-C , 38-C ) :   0.9343 B( 38-C , 39-C ) :   1.0873
B( 38-C , 42-C ) :   1.5626 B( 39-C , 40-N ) :   1.3416 B( 40-N , 41-C ) :   1.6260
B( 41-C , 42-C ) :   1.1054 B( 41-C , 69-H ) :   0.9896 B( 42-C , 70-H ) :   1.0111
B( 43-C , 44-C ) :   1.0772 B( 44-C , 45-C ) :   1.6986 B( 44-C , 71-H ) :   0.9636
B( 45-C , 46-C ) :   1.0146 B( 45-C , 72-H ) :   0.9617 B( 46-C , 47-N ) :   1.5426
B( 46-C , 51-N ) :   1.5248 B( 47-N , 48-C ) :   1.5514 B( 48-C , 49-C ) :   1.3711
B( 48-C , 73-H ) :   0.9805 B( 49-C , 50-C ) :   1.3353 B( 49-C , 74-H ) :   0.9747
B( 50-C , 51-N ) :   1.5336 B( 50-C , 52-C ) :   1.0573 B( 52-C , 53-C ) :   1.9679
B( 52-C , 75-H ) :   0.9668 B( 53-C , 76-H ) :   0.9390 B( 53-C , 77-H ) :   0.9462

-----------------------------------------------------------------------------
         ABSORPTION SPECTRUM VIA TRANSITION ELECTRIC DIPOLE MOMENTS
-----------------------------------------------------------------------------
State   Energy  Wavelength   fosc         T2         TX        TY        TZ
        (cm-1)    (nm)                  (au**2)     (au)      (au)      (au)
-----------------------------------------------------------------------------
   0   11102.8    900.7   0.523151781  15.51210  -0.36898   3.80265  -0.95699
   1   15699.8    637.0   1.385476587  29.05239  -0.08991   5.04018  -1.90812
   2   19297.0    518.2   0.211013814   3.59996  -0.09995  -1.37254   1.30618
   3   21782.2    459.1   0.000544615   0.00823  -0.08224  -0.02419  -0.02971
   4   21963.7    455.3   0.026967941   0.40422   0.19701  -0.59787  -0.08919
   5   21975.0    455.1   0.032268660   0.48342  -0.09132   0.68805   0.04088
   6   23158.3    431.8   0.130702116   1.85803  -0.82483  -0.32412   1.03568
   7   24620.9    406.2   0.316642111   4.23391   0.89051  -1.57799  -0.97512
   8   24907.0    401.5   0.286114938   3.78177   0.87435  -1.55591  -0.77229
   9   25309.7    395.1   0.345546307   4.49464  -1.16512   1.17266   1.32741
  10   25459.3    392.8   0.002887320   0.03734   0.10119  -0.12485  -0.10728
  11   25553.7    391.3   0.041489707   0.53452   0.21593  -0.69849  -0.00260
  12   25815.0    387.4   0.000025684   0.00033   0.00421   0.01566  -0.00803
  13   26302.6    380.2   0.125082669   1.56558   0.47973  -0.48414  -1.04931
  14   27304.3    366.2   0.031037593   0.37422  -0.13922   0.57925  -0.13895
  15   27366.5    365.4   0.021113490   0.25399  -0.13364  -0.42624   0.23333
  16   27526.1    363.3   0.026020311   0.31120  -0.30368  -0.33163  -0.33015
  17   27697.3    361.0   0.004204462   0.04997  -0.07316  -0.11231   0.17891
  18   28469.2    351.3   0.003221829   0.03726  -0.16417  -0.03565  -0.09504
  19   28701.8    348.4   0.015683445   0.17989   0.08066   0.18322  -0.37392
  20   29210.9    342.3   0.028059515   0.31624   0.31399  -0.03384  -0.46530
  21   30218.1    330.9   0.000518350   0.00565   0.00125  -0.00360   0.07505
  22   31053.6    322.0   0.000046906   0.00050  -0.00202  -0.02135  -0.00610
  23   31244.0    320.1   0.009953060   0.10487   0.04102  -0.24232   0.21088
  24   31297.6    319.5   0.013056701   0.13734  -0.07753   0.28371  -0.22547
  25   31919.8    313.3   0.836562421   8.62808  -0.49371  -0.71829   2.80507
  26   33097.3    302.1   0.217030889   2.15876  -0.61675   0.62940   1.17569
  27   33382.5    299.6   0.175787816   1.73359   0.88820  -0.15624  -0.95931
  28   33970.5    294.4   0.221052496   2.14225   0.20994   0.14546  -1.44119
  29   34383.6    290.8   0.010630830   0.10179   0.00794  -0.31811   0.02301
  30   34488.5    290.0   0.001882343   0.01797  -0.09831  -0.06057   0.06807
  31   34506.1    289.8   0.070633754   0.67389  -0.58563   0.38290   0.42933
  32   34671.8    288.4   0.003349535   0.03180   0.16633   0.06388  -0.00756
  33   34816.5    287.2   0.004875802   0.04610   0.20329  -0.00145   0.06911
  34   35101.1    284.9   0.003792173   0.03557   0.02051  -0.14516   0.11864
  35   35672.3    280.3   0.015199544   0.14027   0.13160   0.34379  -0.06900
  36   35969.9    278.0   0.012615163   0.11546   0.00389  -0.33925   0.01879
  37   36053.9    277.4   0.089695690   0.81902  -0.30915  -0.05552   0.84874
  38   36670.2    272.7   0.017175305   0.15419  -0.11861   0.07133   0.36748
  39   36973.5    270.5   0.042744497   0.38060   0.01346  -0.50171   0.35875
  40   37083.4    269.7   0.016579988   0.14719  -0.18685   0.09866   0.32023
  41   37230.0    268.6   0.000523608   0.00463  -0.02031   0.05313  -0.03734
  42   38173.2    262.0   0.055039192   0.47467  -0.00097  -0.60578   0.32817
  43   38400.4    260.4   0.011274270   0.09666  -0.04202   0.23179   0.20289
  44   38706.8    258.4   0.175242319   1.49049  -0.60379   0.04349   1.06021
  45   38931.5    256.9   0.024319012   0.20565   0.26115   0.01541  -0.37042
  46   39077.8    255.9   0.000763164   0.00643  -0.06640   0.03038   0.03313
  47   39190.0    255.2   0.165827068   1.39301   0.59936  -0.87100  -0.52453
  48   39811.7    251.2   0.031741499   0.26248   0.16742  -0.47583  -0.08965
  49   40211.4    248.7   0.066102698   0.54118   0.27744  -0.66364  -0.15424
  50   40228.1    248.6   0.000085528   0.00070  -0.00858  -0.02309   0.00966

FINAL SINGLE POINT ENERGY     -2309.786073771725

DIPOLE MOMENT
-------------
                                X             Y             Z
Electronic contribution:      4.87697      -6.01326     -15.71181
Nuclear contribution   :     -5.08798       3.07124      17.91078
                        -----------------------------------------
Total Dipole Moment    :     -0.21102      -2.94202       2.19897
                        -----------------------------------------
Magnitude (a.u.)       :      3.67906
Magnitude (Debye)      :      9.35143

Rotational constants in cm-1:     0.002057     0.000510     0.000417
Rotational constants in MHz :    61.671379    15.287474    12.497137

                             ****ORCA TERMINATED NORMALLY****
TOTAL RUN TIME: 0 days 0 hours 5 minutes 31 seconds 461 msec
