                         Program Version 4.2.0 -  RELEASE  -
|  1> # ORCA input file
|  2> # SCF done       -124.729741072733          0.000689221919
|  3> ! CAM-B3LYP def2-SVP def2/J RIJCOSX Grid4 TightSCF
|  4> %maxcore 5000
|  5> %tddft
|  6>     Mode sTDDFT
|  7>     Ethresh 5.0
|  8>     maxcore 5000
|  9> end
| 10>
| 11> %pal
| 12>   nprocs 6
| 13>   end
| 14> * xyz 0 1
| 15>    C        0.87953        -1.16866        -0.44784
| 16>    N        1.92444        -1.45997        -1.20453
| 17>    C        1.75511        -2.43797        -2.08459
| 18>    C        0.55843        -3.11841        -2.21146
| 19>    C       -0.48592        -2.73157        -1.35969
| 20>    N       -0.30194        -1.74286        -0.47390
| 21>    C       -1.77463        -3.37855        -1.40763
| 22>    C       -2.78744        -3.04363        -0.58352
| 23>    C       -4.07266        -3.64766        -0.58151
| 24>    C       -5.11752        -3.34899         0.27089
| 25>    C       -6.24651        -4.12614         0.01714
| 26>    C       -6.07867        -5.03188        -1.04141
| 27>    S       -4.49575        -4.91575        -1.72467
| 28>    C       -7.19907        -5.80985        -1.30326
| 29>    C       -8.24471        -5.51204        -0.44316
| 30>    S       -7.83038        -4.25126         0.70236
| 31>    C       -9.53138        -6.11955        -0.43360
| 32>    C      -10.52374        -5.75053         0.50141
| 33>    C      -11.83392        -6.34376         0.54444
| 34>    N      -12.70609        -5.91705         1.48304
| 35>    C      -12.35616        -4.99460         2.31657
| 36>    C      -11.06546        -4.40847         2.27395
| 37>    N      -10.20271        -4.78987         1.39160
| 38>    F      -10.70759        -3.45817         3.13270
| 39>    F      -13.25408        -4.61035         3.22315
| 40>    C      -12.22242        -7.35342        -0.36708
| 41>    C      -11.23048        -7.72095        -1.30496
| 42>    C       -9.91496        -7.12810        -1.34698
| 43>    N       -9.17549        -7.65411        -2.32583
| 44>    S      -10.03192        -8.76481        -3.10455
| 45>    N      -11.38326        -8.64615        -2.25223
| 46>    C      -13.50034        -7.98482        -0.38346
| 47>    C      -14.58345        -7.76176         0.44969
| 48>    C      -15.66673        -8.57359         0.12753
| 49>    C      -15.43226        -9.43175        -0.95824
| 50>    S      -13.83641        -9.22421        -1.58595
| 51>    C      -16.52372       -10.24101        -1.27540
| 52>    C      -17.58526       -10.00081        -0.43432
| 53>    S      -17.26331        -8.77734         0.76205
| 54>    C      -18.87914       -10.63399        -0.44446
| 55>    N      -19.74348       -10.23659         0.49201
| 56>    C      -20.92958       -10.81360         0.49078
| 57>    C      -21.27820       -11.78622        -0.43206
| 58>    C      -20.30804       -12.13637        -1.37938
| 59>    N      -19.11183       -11.55379        -1.37445
| 60>    C      -20.57932       -13.14518        -2.39662
| 61>    C      -19.69770       -13.49307        -3.32574
| 62>    H        1.01292        -0.37059         0.27247
| 63>    H        2.61357        -2.67336        -2.70128
| 64>    H        0.42834        -3.91250        -2.92970
| 65>    H       -1.89973        -4.16278        -2.14262
| 66>    H       -2.62033        -2.25738         0.14072
| 67>    H       -5.05153        -2.60101         1.03945
| 68>    H       -7.27354        -6.55707        -2.07012
| 69>    H      -14.56872        -7.04235         1.24433
| 70>    H      -16.55972       -10.96588        -2.06604
| 71>    H      -21.61744       -10.47997         1.25759
| 72>    H      -22.25007       -12.25231        -0.42456
| 73>    H      -21.56014       -13.59983        -2.35165
| 74>    H      -18.72839       -13.02594        -3.35606
| 75>    H      -19.91679       -14.23740        -4.07155
| 76> *
| 77>
| 78>                          ****END OF INPUT****

CARTESIAN COORDINATES (ANGSTROEM)
---------------------------------
  C      0.879530   -1.168660   -0.447840
  N      1.924440   -1.459970   -1.204530
  C      1.755110   -2.437970   -2.084590
  C      0.558430   -3.118410   -2.211460
  C     -0.485920   -2.731570   -1.359690
  N     -0.301940   -1.742860   -0.473900
  C     -1.774630   -3.378550   -1.407630
  C     -2.787440   -3.043630   -0.583520
  C     -4.072660   -3.647660   -0.581510
  C     -5.117520   -3.348990    0.270890
  C     -6.246510   -4.126140    0.017140
  C     -6.078670   -5.031880   -1.041410
  S     -4.495750   -4.915750   -1.724670
  C     -7.199070   -5.809850   -1.303260
  C     -8.244710   -5.512040   -0.443160
  S     -7.830380   -4.251260    0.702360
  C     -9.531380   -6.119550   -0.433600
  C    -10.523740   -5.750530    0.501410
  C    -11.833920   -6.343760    0.544440
  N    -12.706090   -5.917050    1.483040
  C    -12.356160   -4.994600    2.316570
  C    -11.065460   -4.408470    2.273950
  N    -10.202710   -4.789870    1.391600
  F    -10.707590   -3.458170    3.132700
  F    -13.254080   -4.610350    3.223150
  C    -12.222420   -7.353420   -0.367080
  C    -11.230480   -7.720950   -1.304960
  C     -9.914960   -7.128100   -1.346980
  N     -9.175490   -7.654110   -2.325830
  S    -10.031920   -8.764810   -3.104550
  N    -11.383260   -8.646150   -2.252230
  C    -13.500340   -7.984820   -0.383460
  C    -14.583450   -7.761760    0.449690
  C    -15.666730   -8.573590    0.127530
  C    -15.432260   -9.431750   -0.958240
  S    -13.836410   -9.224210   -1.585950
  C    -16.523720  -10.241010   -1.275400
  C    -17.585260  -10.000810   -0.434320
  S    -17.263310   -8.777340    0.762050
  C    -18.879140  -10.633990   -0.444460
  N    -19.743480  -10.236590    0.492010
  C    -20.929580  -10.813600    0.490780
  C    -21.278200  -11.786220   -0.432060
  C    -20.308040  -12.136370   -1.379380
  N    -19.111830  -11.553790   -1.374450
  C    -20.579320  -13.145180   -2.396620
  C    -19.697700  -13.493070   -3.325740
  H      1.012920   -0.370590    0.272470
  H      2.613570   -2.673360   -2.701280
  H      0.428340   -3.912500   -2.929700
  H     -1.899730   -4.162780   -2.142620
  H     -2.620330   -2.257380    0.140720
  H     -5.051530   -2.601010    1.039450
  H     -7.273540   -6.557070   -2.070120
  H    -14.568720   -7.042350    1.244330
  H    -16.559720  -10.965880   -2.066040
  H    -21.617440  -10.479970    1.257590
  H    -22.250070  -12.252310   -0.424560
  H    -21.560140  -13.599830   -2.351650
  H    -18.728390  -13.025940   -3.356060
  H    -19.916790  -14.237400   -4.071550

 Total Charge           Charge          ....    0
 Multiplicity           Mult            ....    1
 Number of Electrons    NEL             ....  360
 Basis Dimension        Dim             ....  748

ORBITAL ENERGIES
----------------

  NO   OCC          E(Eh)            E(eV)
   0   2.0000     -89.039744     -2422.8946
   1   2.0000     -88.950276     -2420.4601
   2   2.0000     -88.948256     -2420.4051
   3   2.0000     -88.945345     -2420.3259
   4   2.0000     -88.944550     -2420.3043
   5   2.0000     -24.814355      -675.2329
   6   2.0000     -24.811919      -675.1666
   7   2.0000     -14.453362      -393.2960
   8   2.0000     -14.450556      -393.2196
   9   2.0000     -14.448535      -393.1646
  10   2.0000     -14.448105      -393.1529
  11   2.0000     -14.405626      -391.9970
  12   2.0000     -14.405389      -391.9906
  13   2.0000     -14.398435      -391.8013
  14   2.0000     -14.395279      -391.7154
  15   2.0000     -10.429610      -283.8041
  16   2.0000     -10.427382      -283.7435
  17   2.0000     -10.344078      -281.4767
  18   2.0000     -10.341610      -281.4095
  19   2.0000     -10.340743      -281.3859
  20   2.0000     -10.336624      -281.2738
  21   2.0000     -10.335141      -281.2335
  22   2.0000     -10.325487      -280.9708
  23   2.0000     -10.323469      -280.9159
  24   2.0000     -10.319658      -280.8122
  25   2.0000     -10.318718      -280.7866
  26   2.0000     -10.310924      -280.5745
  27   2.0000     -10.310786      -280.5707
  28   2.0000     -10.309781      -280.5434
  29   2.0000     -10.305882      -280.4373
  30   2.0000     -10.304177      -280.3909
  31   2.0000     -10.302276      -280.3392
  32   2.0000     -10.292828      -280.0821
  33   2.0000     -10.291779      -280.0535
  34   2.0000     -10.287338      -279.9327
  35   2.0000     -10.286324      -279.9051
  36   2.0000     -10.285250      -279.8759
  37   2.0000     -10.283492      -279.8280
  38   2.0000     -10.281126      -279.7637
  39   2.0000     -10.280312      -279.7415
  40   2.0000     -10.276602      -279.6406
  41   2.0000     -10.275555      -279.6121
  42   2.0000     -10.275494      -279.6104
  43   2.0000     -10.274920      -279.5948
  44   2.0000     -10.273116      -279.5457
  45   2.0000     -10.272500      -279.5289
  46   2.0000     -10.270996      -279.4880
  47   2.0000      -8.130897      -221.2530
  48   2.0000      -8.045665      -218.9337
  49   2.0000      -8.041894      -218.8311
  50   2.0000      -8.040146      -218.7835
  51   2.0000      -8.038680      -218.7436
  52   2.0000      -6.102026      -166.0446
  53   2.0000      -6.094240      -165.8327
  54   2.0000      -6.093621      -165.8158
  55   2.0000      -6.015091      -163.6790
  56   2.0000      -6.011624      -163.5846
  57   2.0000      -6.011263      -163.5748
  58   2.0000      -6.009574      -163.5288
  59   2.0000      -6.008372      -163.4961
  60   2.0000      -6.007225      -163.4649
  61   2.0000      -6.007168      -163.4633
  62   2.0000      -6.005571      -163.4199
  63   2.0000      -6.004040      -163.3782
  64   2.0000      -6.003484      -163.3631
  65   2.0000      -6.001905      -163.3201
  66   2.0000      -6.000181      -163.2732
  67   2.0000      -1.341026       -36.4912
  68   2.0000      -1.326825       -36.1048
  69   2.0000      -1.137347       -30.9488
  70   2.0000      -1.111451       -30.2441
  71   2.0000      -1.081113       -29.4186
  72   2.0000      -1.069539       -29.1036
  73   2.0000      -1.037170       -28.2228
  74   2.0000      -1.001092       -27.2411
  75   2.0000      -0.998970       -27.1833
  76   2.0000      -0.988484       -26.8980
  77   2.0000      -0.979372       -26.6501
  78   2.0000      -0.971728       -26.4421
  79   2.0000      -0.969291       -26.3757
  80   2.0000      -0.941585       -25.6218
  81   2.0000      -0.931895       -25.3581
  82   2.0000      -0.898355       -24.4455
  83   2.0000      -0.892572       -24.2881
  84   2.0000      -0.882245       -24.0071
  85   2.0000      -0.876972       -23.8636
  86   2.0000      -0.858408       -23.3585
  87   2.0000      -0.851514       -23.1709
  88   2.0000      -0.849206       -23.1081
  89   2.0000      -0.844906       -22.9911
  90   2.0000      -0.816172       -22.2092
  91   2.0000      -0.805013       -21.9055
  92   2.0000      -0.795050       -21.6344
  93   2.0000      -0.791193       -21.5295
  94   2.0000      -0.785799       -21.3827
  95   2.0000      -0.764914       -20.8144
  96   2.0000      -0.761661       -20.7258
  97   2.0000      -0.745265       -20.2797
  98   2.0000      -0.740185       -20.1415
  99   2.0000      -0.733944       -19.9716
 100   2.0000      -0.727803       -19.8045
 101   2.0000      -0.701379       -19.0855
 102   2.0000      -0.684699       -18.6316
 103   2.0000      -0.678413       -18.4605
 104   2.0000      -0.673207       -18.3189
 105   2.0000      -0.664666       -18.0865
 106   2.0000      -0.661057       -17.9883
 107   2.0000      -0.649517       -17.6742
 108   2.0000      -0.641199       -17.4479
 109   2.0000      -0.636923       -17.3316
 110   2.0000      -0.625197       -17.0125
 111   2.0000      -0.623946       -16.9784
 112   2.0000      -0.619164       -16.8483
 113   2.0000      -0.617246       -16.7961
 114   2.0000      -0.616151       -16.7663
 115   2.0000      -0.603783       -16.4298
 116   2.0000      -0.591897       -16.1063
 117   2.0000      -0.583836       -15.8870
 118   2.0000      -0.580061       -15.7843
 119   2.0000      -0.571360       -15.5475
 120   2.0000      -0.568376       -15.4663
 121   2.0000      -0.566658       -15.4196
 122   2.0000      -0.562891       -15.3170
 123   2.0000      -0.557461       -15.1693
 124   2.0000      -0.548271       -14.9192
 125   2.0000      -0.545526       -14.8445
 126   2.0000      -0.541308       -14.7298
 127   2.0000      -0.536917       -14.6103
 128   2.0000      -0.535586       -14.5740
 129   2.0000      -0.525774       -14.3070
 130   2.0000      -0.518329       -14.1044
 131   2.0000      -0.516480       -14.0541
 132   2.0000      -0.511890       -13.9292
 133   2.0000      -0.508827       -13.8459
 134   2.0000      -0.508675       -13.8417
 135   2.0000      -0.505681       -13.7603
 136   2.0000      -0.498420       -13.5627
 137   2.0000      -0.492967       -13.4143
 138   2.0000      -0.489211       -13.3121
 139   2.0000      -0.488892       -13.3034
 140   2.0000      -0.483063       -13.1448
 141   2.0000      -0.477458       -12.9923
 142   2.0000      -0.474645       -12.9158
 143   2.0000      -0.471862       -12.8400
 144   2.0000      -0.468892       -12.7592
 145   2.0000      -0.462348       -12.5811
 146   2.0000      -0.460570       -12.5328
 147   2.0000      -0.453754       -12.3473
 148   2.0000      -0.449401       -12.2288
 149   2.0000      -0.444928       -12.1071
 150   2.0000      -0.441047       -12.0015
 151   2.0000      -0.438239       -11.9251
 152   2.0000      -0.433057       -11.7841
 153   2.0000      -0.426461       -11.6046
 154   2.0000      -0.418581       -11.3902
 155   2.0000      -0.415884       -11.3168
 156   2.0000      -0.415541       -11.3075
 157   2.0000      -0.413644       -11.2558
 158   2.0000      -0.399455       -10.8697
 159   2.0000      -0.395430       -10.7602
 160   2.0000      -0.395124       -10.7519
 161   2.0000      -0.385097       -10.4790
 162   2.0000      -0.376693       -10.2503
 163   2.0000      -0.366194        -9.9647
 164   2.0000      -0.360835        -9.8188
 165   2.0000      -0.359030        -9.7697
 166   2.0000      -0.356121        -9.6905
 167   2.0000      -0.354696        -9.6518
 168   2.0000      -0.352595        -9.5946
 169   2.0000      -0.350020        -9.5245
 170   2.0000      -0.340115        -9.2550
 171   2.0000      -0.336542        -9.1578
 172   2.0000      -0.323470        -8.8021
 173   2.0000      -0.322621        -8.7790
 174   2.0000      -0.315608        -8.5881
 175   2.0000      -0.303483        -8.2582
 176   2.0000      -0.287149        -7.8137
 177   2.0000      -0.282256        -7.6806
 178   2.0000      -0.266483        -7.2514
 179   2.0000      -0.227905        -6.2016
 180   0.0000      -0.109426        -2.9776
 181   0.0000      -0.043867        -1.1937
 182   0.0000      -0.030400        -0.8272
 183   0.0000      -0.022068        -0.6005
 184   0.0000      -0.020479        -0.5573

MULLIKEN ATOMIC CHARGES
-----------------------
   0 C :    0.070279
   1 N :   -0.112391
   2 C :    0.066016
   3 C :   -0.034083
   4 C :    0.028145
   5 N :   -0.096227
   6 C :   -0.021436
   7 C :    0.048949
   8 C :   -0.035764
   9 C :   -0.046586
  10 C :    0.026724
  11 C :    0.003855
  12 S :    0.115787
  13 C :   -0.046415
  14 C :   -0.183714
  15 S :    0.154246
  16 C :    0.186027
  17 C :   -0.065159
  18 C :   -0.074333
  19 N :    0.001927
  20 C :    0.138294
  21 C :    0.151408
  22 N :   -0.040739
  23 F :   -0.138013
  24 F :   -0.144265
  25 C :    0.214272
  26 C :   -0.035975
  27 C :   -0.002970
  28 N :   -0.297528
  29 S :    0.549103
  30 N :   -0.319471
  31 C :   -0.188778
  32 C :   -0.049001
  33 C :   -0.000269
  34 C :    0.023658
  35 S :    0.145422
  36 C :   -0.054253
  37 C :   -0.037235
  38 S :    0.178545
  39 C :   -0.067747
  40 N :   -0.083679
  41 C :    0.086643
  42 C :   -0.047283
  43 C :    0.042108
  44 N :   -0.049842
  45 C :   -0.018133
  46 C :    0.036337
  47 H :    0.012402
  48 H :    0.007043
  49 H :   -0.008986
  50 H :   -0.015355
  51 H :    0.010762
  52 H :   -0.011935
  53 H :   -0.004426
  54 H :   -0.000240
  55 H :   -0.011222
  56 H :    0.006857
  57 H :   -0.008141
  58 H :   -0.016603
  59 H :    0.036606
  60 H :    0.026781
Sum of atomic charges:    0.0000000

LOEWDIN ATOMIC CHARGES
----------------------
   0 C :    0.043992
   1 N :   -0.101696
   2 C :    0.046737
   3 C :   -0.065962
   4 C :    0.034808
   5 N :   -0.094091
   6 C :   -0.057381
   7 C :    0.007430
   8 C :   -0.158647
   9 C :   -0.053682
  10 C :   -0.205238
  11 C :   -0.197562
  12 S :    0.408040
  13 C :   -0.051580
  14 C :   -0.161078
  15 S :    0.450528
  16 C :   -0.043986
  17 C :   -0.014305
  18 C :   -0.010196
  19 N :   -0.028384
  20 C :    0.057147
  21 C :    0.061323
  22 N :   -0.051215
  23 F :   -0.027021
  24 F :   -0.032459
  25 C :   -0.039832
  26 C :   -0.047137
  27 C :   -0.037535
  28 N :   -0.281038
  29 S :    0.670542
  30 N :   -0.295121
  31 C :   -0.161964
  32 C :   -0.047792
  33 C :   -0.202168
  34 C :   -0.202590
  35 S :    0.444666
  36 C :   -0.044195
  37 C :   -0.179716
  38 S :    0.449441
  39 C :    0.016096
  40 N :   -0.104540
  41 C :    0.053744
  42 C :   -0.072759
  43 C :    0.038854
  44 N :   -0.085877
  45 C :   -0.044951
  46 C :    0.006927
  47 H :    0.017086
  48 H :    0.024996
  49 H :    0.031982
  50 H :    0.020916
  51 H :    0.041542
  52 H :    0.034715
  53 H :    0.030425
  54 H :    0.030524
  55 H :    0.034844
  56 H :    0.027020
  57 H :    0.032227
  58 H :    0.028071
  59 H :    0.029276
  60 H :    0.027798

  Mayer bond orders larger than 0.100000
B(  0-C ,  1-N ) :   1.5008 B(  0-C ,  5-N ) :   1.5309 B(  0-C , 47-H ) :   0.9747
B(  1-N ,  2-C ) :   1.5397 B(  2-C ,  3-C ) :   1.3898 B(  2-C , 48-H ) :   0.9812
B(  3-C ,  4-C ) :   1.3343 B(  3-C , 49-H ) :   0.9773 B(  4-C ,  5-N ) :   1.5157
B(  4-C ,  6-C ) :   1.0973 B(  6-C ,  7-C ) :   1.6779 B(  6-C , 50-H ) :   0.9725
B(  7-C ,  8-C ) :   1.1347 B(  7-C , 51-H ) :   0.9760 B(  8-C ,  9-C ) :   1.4809
B(  8-C , 12-S ) :   1.0827 B(  9-C , 10-C ) :   1.2443 B(  9-C , 52-H ) :   1.0128
B( 10-C , 11-C ) :   1.3931 B( 10-C , 15-S ) :   1.0263 B( 11-C , 12-S ) :   1.0612
B( 11-C , 13-C ) :   1.2540 B( 13-C , 14-C ) :   1.4729 B( 13-C , 53-H ) :   0.9888
B( 14-C , 15-S ) :   1.0900 B( 14-C , 16-C ) :   1.1962 B( 16-C , 17-C ) :   1.2920
B( 16-C , 25-C ) :   0.1258 B( 16-C , 27-C ) :   1.1986 B( 17-C , 18-C ) :   1.1104
B( 17-C , 22-N ) :   1.3821 B( 18-C , 19-N ) :   1.4230 B( 18-C , 25-C ) :   1.2970
B( 19-N , 20-C ) :   1.6737 B( 20-C , 21-C ) :   1.1063 B( 20-C , 24-F ) :   1.1686
B( 21-C , 22-N ) :   1.6571 B( 21-C , 23-F ) :   1.1847 B( 25-C , 26-C ) :   1.1812
B( 25-C , 31-C ) :   1.1927 B( 26-C , 27-C ) :   1.1107 B( 26-C , 30-N ) :   1.4791
B( 27-C , 28-N ) :   1.5026 B( 28-N , 29-S ) :   1.2764 B( 28-N , 30-N ) :   0.1538
B( 29-S , 30-N ) :   1.2761 B( 31-C , 32-C ) :   1.4707 B( 31-C , 35-S ) :   1.0943
B( 32-C , 33-C ) :   1.2430 B( 32-C , 54-H ) :   0.9934 B( 33-C , 34-C ) :   1.3932
B( 33-C , 38-S ) :   1.0581 B( 34-C , 35-S ) :   1.0347 B( 34-C , 36-C ) :   1.2283
B( 36-C , 37-C ) :   1.5308 B( 36-C , 55-H ) :   1.0134 B( 37-C , 38-S ) :   1.1098
B( 37-C , 39-C ) :   1.0187 B( 37-C , 44-N ) :  -0.1002 B( 39-C , 40-N ) :   1.5810
B( 39-C , 44-N ) :   1.6127 B( 40-N , 41-C ) :   1.5460 B( 41-C , 42-C ) :   1.3755
B( 41-C , 56-H ) :   0.9794 B( 42-C , 43-C ) :   1.3368 B( 42-C , 57-H ) :   0.9737
B( 43-C , 44-N ) :   1.5128 B( 43-C , 45-C ) :   1.0604 B( 45-C , 46-C ) :   1.9582
B( 45-C , 58-H ) :   0.9664 B( 46-C , 59-H ) :   0.9397 B( 46-C , 60-H ) :   0.9474

-----------------------------------------------------------------------------
         ABSORPTION SPECTRUM VIA TRANSITION ELECTRIC DIPOLE MOMENTS
-----------------------------------------------------------------------------
State   Energy  Wavelength   fosc         T2         TX        TY        TZ
        (cm-1)    (nm)                  (au**2)     (au)      (au)      (au)
-----------------------------------------------------------------------------
   0   10544.5    948.4   0.748927882  23.38238  -4.41961  -1.95451   0.17126
   1   19309.2    517.9   0.005227194   0.08912  -0.19739   0.10323   0.19875
   2   20891.9    478.7   0.010882347   0.17148   0.18598  -0.19721  -0.31305
   3   21849.9    457.7   0.002947773   0.04441  -0.09136   0.10337   0.15932
   4   25408.5    393.6   1.701712634  22.04865  -4.35745  -1.70815   0.37877
   5   25954.0    385.3   0.037018346   0.46956  -0.64839  -0.14416   0.16841
   6   27853.2    359.0   0.106692510   1.26106  -1.00032  -0.50858  -0.04201
   7   28665.9    348.8   0.255090368   2.92957   1.50947   0.80421   0.06568
   8   30284.1    330.2   0.000536958   0.00584  -0.01582   0.05611  -0.04938
   9   30700.4    325.7   0.161819697   1.73525   0.08415   0.90925   0.94944
  10   30775.9    324.9   0.001194395   0.01278   0.00788   0.07527   0.08396
  11   31240.1    320.1   0.055398774   0.58380  -0.07558  -0.52374  -0.55116
  12   32272.3    309.9   0.003884203   0.03962   0.06695  -0.13656   0.12842
  13   33186.4    301.3   0.000014139   0.00014   0.00661   0.00775  -0.00605
  14   34229.9    292.1   0.014372095   0.13823  -0.09183   0.22509   0.28130
  15   34726.2    288.0   0.134135578   1.27163  -0.43925  -0.79171  -0.67223
  16   35227.8    283.9   0.035330667   0.33017  -0.31935  -0.38495  -0.28286
  17   35501.8    281.7   0.008356247   0.07749  -0.21461  -0.15651  -0.08327
  18   35854.1    278.9   0.008448956   0.07758  -0.10044   0.18952  -0.17769
  19   36071.8    277.2   0.021334235   0.19471   0.39455  -0.00318  -0.19755
  20   36230.4    276.0   0.177534453   1.61319   0.61575  -0.57697  -0.94928
  21   36797.5    271.8   0.368049806   3.29279  -0.81696   0.85458   1.37661
  22   36955.0    270.6   0.114079955   1.01628   0.72061  -0.25344  -0.65785
  23   37382.0    267.5   0.002040468   0.01797   0.00309   0.05142  -0.12376
  24   37465.2    266.9   0.003735181   0.03282  -0.16499   0.01922   0.07232
  25   37853.6    264.2   0.104664929   0.91027  -0.47453   0.43110   0.70657
  26   38016.2    263.0   0.002397520   0.02076   0.03278  -0.07331   0.11964
  27   39140.6    255.5   0.223774440   1.88217  -1.05570  -0.80632  -0.34279
  28   39210.0    255.0   0.005273817   0.04428   0.16862  -0.02982  -0.12230
  29   39504.1    253.1   0.068202660   0.56837  -0.49026  -0.49273  -0.29196
  30   39676.5    252.0   0.001527886   0.01268  -0.02699   0.08021  -0.07426
  31   40274.9    248.3   0.000715746   0.00585   0.00613  -0.06483   0.04013

FINAL SINGLE POINT ENERGY     -3853.558349225740

DIPOLE MOMENT
-------------
                                X             Y             Z
Electronic contribution:     -5.17922      12.52731      16.33221
Nuclear contribution   :      3.74153     -14.21089     -17.38457
                        -----------------------------------------
Total Dipole Moment    :     -1.43768      -1.68357      -1.05236
                        -----------------------------------------
Magnitude (a.u.)       :      2.45129
Magnitude (Debye)      :      6.23068

Rotational constants in cm-1:     0.005908     0.000488     0.000451
Rotational constants in MHz :   177.126953    14.621120    13.506861

                             ****ORCA TERMINATED NORMALLY****
TOTAL RUN TIME: 0 days 0 hours 3 minutes 42 seconds 948 msec
