                         Program Version 4.2.0 -  RELEASE  -
|  1> # ORCA input file
|  2> # SCF done       -204.074747098914          0.000899454411
|  3> ! CAM-B3LYP def2-SVP def2/J RIJCOSX Grid4 TightSCF
|  4> %maxcore 5000
|  5> %tddft
|  6>     Mode sTDDFT
|  7>     Ethresh 5.0
|  8>     maxcore 5000
|  9> end
| 10>
| 11> %pal
| 12>   nprocs 6
| 13>   end
| 14> * xyz 0 1
| 15>    C       23.83989        -0.84192         0.63133
| 16>    C       22.55450        -1.11379         0.99320
| 17>    C       21.80149        -1.70097        -0.07761
| 18>    C       22.51512        -1.85116        -1.22031
| 19>    S       24.13169        -1.28804        -1.00472
| 20>    C       20.43046        -1.98907         0.36519
| 21>    O       19.54498        -2.47952        -0.30175
| 22>    C       20.41709        -1.60091         1.79870
| 23>    C       21.66229        -0.93215         2.12269
| 24>    C       21.85649        -0.14158         3.22780
| 25>    N       23.11893         0.39112         3.62347
| 26>    O       23.11546         1.42043         4.26291
| 27>    O       24.11767        -0.21578         3.28593
| 28>    N       20.75182         0.31649         4.05216
| 29>    O       20.89236         0.25296         5.24910
| 30>    O       19.77073         0.72998         3.47393
| 31>    C       19.51414        -1.99074         2.76425
| 32>    C       18.22671        -2.52167         2.64238
| 33>    C       17.37717        -2.61907         1.54070
| 34>    C       16.14828        -3.14449         1.89063
| 35>    C       16.02306        -3.45518         3.27957
| 36>    S       17.45933        -3.08671         4.13839
| 37>    C       14.73658        -3.94162         3.46667
| 38>    C       14.10777        -3.91606         2.19074
| 39>    N       14.97762        -3.44469         1.24661
| 40>    C       14.70182        -3.24832        -0.14971
| 41>    C       12.79168        -4.35288         2.21819
| 42>    C       12.39877        -4.71705         3.50151
| 43>    S       13.67378        -4.53185         4.69394
| 44>    C       11.10594        -5.16251         3.88705
| 45>    C       10.80560        -5.49886         5.22632
| 46>    C        9.49243        -5.87798         5.65294
| 47>    N        9.28273        -6.17734         6.94980
| 48>    C       10.26241        -6.11913         7.79140
| 49>    C       11.56575        -5.74259         7.36821
| 50>    N       11.80262        -5.44934         6.13146
| 51>    F       12.57505        -5.68890         8.22810
| 52>    F       10.01740        -6.42740         9.05860
| 53>    C        8.39145        -5.94224         4.76904
| 54>    C        8.69287        -5.65639         3.41453
| 55>    C       10.02107        -5.27563         2.98289
| 56>    N       10.06039        -5.04903         1.66895
| 57>    S        8.60401        -5.28660         1.04097
| 58>    N        7.83812        -5.68680         2.39109
| 59>    C        7.08114        -6.23722         5.23075
| 60>    C        5.93020        -6.28811         4.45047
| 61>    C        4.80324        -6.54531         5.21540
| 62>    C        5.08862        -6.69581         6.60293
| 63>    S        6.77561        -6.52809         6.93401
| 64>    C        3.87129        -6.90084         7.23605
| 65>    C        2.87414        -6.87968         6.21182
| 66>    N        3.45989        -6.67816         4.99415
| 67>    C        2.74414        -6.41385         3.77446
| 68>    C        1.58451        -6.99863         6.68852
| 69>    C        1.55354        -7.06888         8.08375
| 70>    S        3.17468        -7.10160         8.78956
| 71>    C        0.45958        -7.11443         8.95303
| 72>    C       -0.86281        -6.80284         8.73977
| 73>    C       -1.56543        -6.12793         7.68135
| 74>    C       -1.05854        -5.20740         6.78287
| 75>    N       -1.80626        -4.73736         5.65759
| 76>    O       -1.65096        -3.58689         5.31349
| 77>    O       -2.55268        -5.53159         5.11363
| 78>    N        0.23526        -4.61907         6.90241
| 79>    O        0.81357        -4.32953         5.87005
| 80>    O        0.70527        -4.48544         8.01330
| 81>    C       -2.98058        -6.42029         7.86618
| 82>    C       -4.16964        -6.19454         7.23808
| 83>    S       -5.49161        -6.77116         8.17604
| 84>    C       -4.45276        -7.32497         9.43739
| 85>    C       -3.15647        -7.07857         9.13034
| 86>    C       -1.84517        -7.30825         9.74723
| 87>    O       -1.58615        -7.82595        10.80658
| 88>    H       24.64166        -0.44608         1.22176
| 89>    H       22.20016        -2.24639        -2.16522
| 90>    H       19.84922        -1.91381         3.79378
| 91>    H       17.67622        -2.31269         0.55671
| 92>    H       14.01727        -4.02153        -0.49665
| 93>    H       15.63223        -3.31376        -0.71160
| 94>    H       14.24890        -2.26882        -0.32706
| 95>    H       12.12324        -4.40751         1.38036
| 96>    H        5.95766        -6.13160         3.38900
| 97>    H        2.17886        -7.29617         3.46627
| 98>    H        3.45432        -6.15295         2.99402
| 99>    H        2.05260        -5.58112         3.92623
|100>    H        0.70383        -7.06714         6.07588
|101>    H        0.66604        -7.47531         9.95640
|102>    H       -4.36522        -5.77168         6.27294
|103>    H       -4.86140        -7.78593        10.31405
|104> *
|105>
|106>                          ****END OF INPUT****

CARTESIAN COORDINATES (ANGSTROEM)
---------------------------------
  C     23.839890   -0.841920    0.631330
  C     22.554500   -1.113790    0.993200
  C     21.801490   -1.700970   -0.077610
  C     22.515120   -1.851160   -1.220310
  S     24.131690   -1.288040   -1.004720
  C     20.430460   -1.989070    0.365190
  O     19.544980   -2.479520   -0.301750
  C     20.417090   -1.600910    1.798700
  C     21.662290   -0.932150    2.122690
  C     21.856490   -0.141580    3.227800
  N     23.118930    0.391120    3.623470
  O     23.115460    1.420430    4.262910
  O     24.117670   -0.215780    3.285930
  N     20.751820    0.316490    4.052160
  O     20.892360    0.252960    5.249100
  O     19.770730    0.729980    3.473930
  C     19.514140   -1.990740    2.764250
  C     18.226710   -2.521670    2.642380
  C     17.377170   -2.619070    1.540700
  C     16.148280   -3.144490    1.890630
  C     16.023060   -3.455180    3.279570
  S     17.459330   -3.086710    4.138390
  C     14.736580   -3.941620    3.466670
  C     14.107770   -3.916060    2.190740
  N     14.977620   -3.444690    1.246610
  C     14.701820   -3.248320   -0.149710
  C     12.791680   -4.352880    2.218190
  C     12.398770   -4.717050    3.501510
  S     13.673780   -4.531850    4.693940
  C     11.105940   -5.162510    3.887050
  C     10.805600   -5.498860    5.226320
  C      9.492430   -5.877980    5.652940
  N      9.282730   -6.177340    6.949800
  C     10.262410   -6.119130    7.791400
  C     11.565750   -5.742590    7.368210
  N     11.802620   -5.449340    6.131460
  F     12.575050   -5.688900    8.228100
  F     10.017400   -6.427400    9.058600
  C      8.391450   -5.942240    4.769040
  C      8.692870   -5.656390    3.414530
  C     10.021070   -5.275630    2.982890
  N     10.060390   -5.049030    1.668950
  S      8.604010   -5.286600    1.040970
  N      7.838120   -5.686800    2.391090
  C      7.081140   -6.237220    5.230750
  C      5.930200   -6.288110    4.450470
  C      4.803240   -6.545310    5.215400
  C      5.088620   -6.695810    6.602930
  S      6.775610   -6.528090    6.934010
  C      3.871290   -6.900840    7.236050
  C      2.874140   -6.879680    6.211820
  N      3.459890   -6.678160    4.994150
  C      2.744140   -6.413850    3.774460
  C      1.584510   -6.998630    6.688520
  C      1.553540   -7.068880    8.083750
  S      3.174680   -7.101600    8.789560
  C      0.459580   -7.114430    8.953030
  C     -0.862810   -6.802840    8.739770
  C     -1.565430   -6.127930    7.681350
  C     -1.058540   -5.207400    6.782870
  N     -1.806260   -4.737360    5.657590
  O     -1.650960   -3.586890    5.313490
  O     -2.552680   -5.531590    5.113630
  N      0.235260   -4.619070    6.902410
  O      0.813570   -4.329530    5.870050
  O      0.705270   -4.485440    8.013300
  C     -2.980580   -6.420290    7.866180
  C     -4.169640   -6.194540    7.238080
  S     -5.491610   -6.771160    8.176040
  C     -4.452760   -7.324970    9.437390
  C     -3.156470   -7.078570    9.130340
  C     -1.845170   -7.308250    9.747230
  O     -1.586150   -7.825950   10.806580
  H     24.641660   -0.446080    1.221760
  H     22.200160   -2.246390   -2.165220
  H     19.849220   -1.913810    3.793780
  H     17.676220   -2.312690    0.556710
  H     14.017270   -4.021530   -0.496650
  H     15.632230   -3.313760   -0.711600
  H     14.248900   -2.268820   -0.327060
  H     12.123240   -4.407510    1.380360
  H      5.957660   -6.131600    3.389000
  H      2.178860   -7.296170    3.466270
  H      3.454320   -6.152950    2.994020
  H      2.052600   -5.581120    3.926230
  H      0.703830   -7.067140    6.075880
  H      0.666040   -7.475310    9.956400
  H     -4.365220   -5.771680    6.272940
  H     -4.861400   -7.785930   10.314050

 Total Charge           Charge          ....    0
 Multiplicity           Mult            ....    1
 Number of Electrons    NEL             ....  560
 Basis Dimension        Dim             .... 1130

ORBITAL ENERGIES
----------------

  NO   OCC          E(Eh)            E(eV)
   0   2.0000     -89.051940     -2423.2265
   1   2.0000     -88.977339     -2421.1965
   2   2.0000     -88.975293     -2421.1408
   3   2.0000     -88.969391     -2420.9802
   4   2.0000     -88.966259     -2420.8950
   5   2.0000     -88.962291     -2420.7870
   6   2.0000     -88.961946     -2420.7776
   7   2.0000     -24.824761      -675.5161
   8   2.0000     -24.824624      -675.5124
   9   2.0000     -19.247581      -523.7533
  10   2.0000     -19.245714      -523.7025
  11   2.0000     -19.245665      -523.7012
  12   2.0000     -19.245532      -523.6976
  13   2.0000     -19.245152      -523.6872
  14   2.0000     -19.242814      -523.6236
  15   2.0000     -19.238474      -523.5055
  16   2.0000     -19.238380      -523.5029
  17   2.0000     -19.211820      -522.7802
  18   2.0000     -19.208336      -522.6854
  19   2.0000     -14.655245      -398.7895
  20   2.0000     -14.653369      -398.7384
  21   2.0000     -14.652127      -398.7046
  22   2.0000     -14.650403      -398.6577
  23   2.0000     -14.477002      -393.9393
  24   2.0000     -14.476219      -393.9179
  25   2.0000     -14.465649      -393.6303
  26   2.0000     -14.465474      -393.6256
  27   2.0000     -14.461969      -393.5302
  28   2.0000     -14.461818      -393.5261
  29   2.0000     -10.441857      -284.1374
  30   2.0000     -10.441550      -284.1290
  31   2.0000     -10.367828      -282.1229
  32   2.0000     -10.362555      -281.9795
  33   2.0000     -10.359278      -281.8903
  34   2.0000     -10.355593      -281.7900
  35   2.0000     -10.353668      -281.7376
  36   2.0000     -10.353383      -281.7299
  37   2.0000     -10.350987      -281.6647
  38   2.0000     -10.350756      -281.6584
  39   2.0000     -10.348801      -281.6052
  40   2.0000     -10.341334      -281.4020
  41   2.0000     -10.327936      -281.0374
  42   2.0000     -10.324094      -280.9329
  43   2.0000     -10.323784      -280.9244
  44   2.0000     -10.323412      -280.9143
  45   2.0000     -10.323394      -280.9138
  46   2.0000     -10.322772      -280.8969
  47   2.0000     -10.322736      -280.8959
  48   2.0000     -10.322522      -280.8901
  49   2.0000     -10.322253      -280.8828
  50   2.0000     -10.322052      -280.8773
  51   2.0000     -10.321951      -280.8746
  52   2.0000     -10.319603      -280.8107
  53   2.0000     -10.318148      -280.7711
  54   2.0000     -10.316597      -280.7289
  55   2.0000     -10.315884      -280.7095
  56   2.0000     -10.315577      -280.7011
  57   2.0000     -10.315228      -280.6916
  58   2.0000     -10.315069      -280.6873
  59   2.0000     -10.314998      -280.6854
  60   2.0000     -10.312744      -280.6240
  61   2.0000     -10.304685      -280.4047
  62   2.0000     -10.301526      -280.3188
  63   2.0000     -10.300021      -280.2778
  64   2.0000     -10.299773      -280.2711
  65   2.0000     -10.298033      -280.2237
  66   2.0000     -10.294565      -280.1294
  67   2.0000     -10.291911      -280.0571
  68   2.0000     -10.291654      -280.0501
  69   2.0000     -10.288512      -279.9647
  70   2.0000     -10.288309      -279.9591
  71   2.0000     -10.286446      -279.9084
  72   2.0000     -10.284989      -279.8688
  73   2.0000      -8.143313      -221.5908
  74   2.0000      -8.073446      -219.6896
  75   2.0000      -8.071292      -219.6310
  76   2.0000      -8.064317      -219.4412
  77   2.0000      -8.061260      -219.3580
  78   2.0000      -8.055464      -219.2003
  79   2.0000      -8.055123      -219.1910
  80   2.0000      -6.114478      -166.3834
  81   2.0000      -6.106595      -166.1689
  82   2.0000      -6.106012      -166.1530
  83   2.0000      -6.042634      -164.4284
  84   2.0000      -6.040496      -164.3702
  85   2.0000      -6.037972      -164.3016
  86   2.0000      -6.036158      -164.2522
  87   2.0000      -6.035823      -164.2431
  88   2.0000      -6.034033      -164.1944
  89   2.0000      -6.033911      -164.1911
  90   2.0000      -6.030806      -164.1066
  91   2.0000      -6.029873      -164.0812
  92   2.0000      -6.026832      -163.9984
  93   2.0000      -6.025748      -163.9689
  94   2.0000      -6.025389      -163.9592
  95   2.0000      -6.025062      -163.9503
  96   2.0000      -6.022729      -163.8868
  97   2.0000      -6.020798      -163.8342
  98   2.0000      -6.020447      -163.8247
  99   2.0000      -6.016832      -163.7263
 100   2.0000      -6.016484      -163.7169
 101   2.0000      -1.354016       -36.8446
 102   2.0000      -1.339945       -36.4617
 103   2.0000      -1.335827       -36.3497
 104   2.0000      -1.333078       -36.2749
 105   2.0000      -1.318239       -35.8711
 106   2.0000      -1.315427       -35.7946
 107   2.0000      -1.149973       -31.2924
 108   2.0000      -1.148945       -31.2644
 109   2.0000      -1.147493       -31.2249
 110   2.0000      -1.140589       -31.0370
 111   2.0000      -1.138487       -30.9798
 112   2.0000      -1.128256       -30.7014
 113   2.0000      -1.125770       -30.6337
 114   2.0000      -1.125609       -30.6294
 115   2.0000      -1.105799       -30.0903
 116   2.0000      -1.105506       -30.0823
 117   2.0000      -1.052134       -28.6300
 118   2.0000      -1.015266       -27.6268
 119   2.0000      -1.013297       -27.5732
 120   2.0000      -1.006582       -27.3905
 121   2.0000      -0.996324       -27.1114
 122   2.0000      -0.990346       -26.9487
 123   2.0000      -0.987543       -26.8724
 124   2.0000      -0.980144       -26.6711
 125   2.0000      -0.975652       -26.5488
 126   2.0000      -0.972361       -26.4593
 127   2.0000      -0.965876       -26.2828
 128   2.0000      -0.933397       -25.3990
 129   2.0000      -0.929507       -25.2932
 130   2.0000      -0.913147       -24.8480
 131   2.0000      -0.902982       -24.5714
 132   2.0000      -0.895488       -24.3675
 133   2.0000      -0.889022       -24.1915
 134   2.0000      -0.870323       -23.6827
 135   2.0000      -0.861199       -23.4344
 136   2.0000      -0.853844       -23.2343
 137   2.0000      -0.849706       -23.1217
 138   2.0000      -0.844657       -22.9843
 139   2.0000      -0.843722       -22.9589
 140   2.0000      -0.843489       -22.9525
 141   2.0000      -0.840516       -22.8716
 142   2.0000      -0.825977       -22.4760
 143   2.0000      -0.813391       -22.1335
 144   2.0000      -0.811576       -22.0841
 145   2.0000      -0.805222       -21.9112
 146   2.0000      -0.799137       -21.7456
 147   2.0000      -0.794783       -21.6272
 148   2.0000      -0.784607       -21.3503
 149   2.0000      -0.778036       -21.1714
 150   2.0000      -0.777131       -21.1468
 151   2.0000      -0.770551       -20.9678
 152   2.0000      -0.763774       -20.7834
 153   2.0000      -0.755209       -20.5503
 154   2.0000      -0.748780       -20.3753
 155   2.0000      -0.729139       -19.8409
 156   2.0000      -0.704047       -19.1581
 157   2.0000      -0.699003       -19.0208
 158   2.0000      -0.696982       -18.9658
 159   2.0000      -0.684610       -18.6292
 160   2.0000      -0.678493       -18.4627
 161   2.0000      -0.677041       -18.4232
 162   2.0000      -0.675517       -18.3818
 163   2.0000      -0.674951       -18.3664
 164   2.0000      -0.664387       -18.0789
 165   2.0000      -0.661101       -17.9895
 166   2.0000      -0.653894       -17.7934
 167   2.0000      -0.652374       -17.7520
 168   2.0000      -0.648405       -17.6440
 169   2.0000      -0.646942       -17.6042
 170   2.0000      -0.645637       -17.5687
 171   2.0000      -0.641554       -17.4576
 172   2.0000      -0.640912       -17.4401
 173   2.0000      -0.637565       -17.3490
 174   2.0000      -0.632057       -17.1991
 175   2.0000      -0.629216       -17.1218
 176   2.0000      -0.628748       -17.1091
 177   2.0000      -0.628300       -17.0969
 178   2.0000      -0.623067       -16.9545
 179   2.0000      -0.620704       -16.8902
 180   2.0000      -0.616964       -16.7885
 181   2.0000      -0.614865       -16.7313
 182   2.0000      -0.612571       -16.6689
 183   2.0000      -0.610222       -16.6050
 184   2.0000      -0.599745       -16.3199
 185   2.0000      -0.595726       -16.2105
 186   2.0000      -0.593551       -16.1513
 187   2.0000      -0.592272       -16.1165
 188   2.0000      -0.586643       -15.9634
 189   2.0000      -0.583565       -15.8796
 190   2.0000      -0.582717       -15.8565
 191   2.0000      -0.580369       -15.7926
 192   2.0000      -0.577915       -15.7259
 193   2.0000      -0.576988       -15.7006
 194   2.0000      -0.574920       -15.6444
 195   2.0000      -0.574023       -15.6200
 196   2.0000      -0.570740       -15.5306
 197   2.0000      -0.570409       -15.5216
 198   2.0000      -0.565220       -15.3804
 199   2.0000      -0.553646       -15.0655
 200   2.0000      -0.549333       -14.9481
 201   2.0000      -0.544346       -14.8124
 202   2.0000      -0.539439       -14.6789
 203   2.0000      -0.535945       -14.5838
 204   2.0000      -0.532290       -14.4843
 205   2.0000      -0.530728       -14.4418
 206   2.0000      -0.528252       -14.3745
 207   2.0000      -0.527438       -14.3523
 208   2.0000      -0.522245       -14.2110
 209   2.0000      -0.521027       -14.1779
 210   2.0000      -0.520508       -14.1637
 211   2.0000      -0.518814       -14.1177
 212   2.0000      -0.510988       -13.9047
 213   2.0000      -0.509544       -13.8654
 214   2.0000      -0.506516       -13.7830
 215   2.0000      -0.504860       -13.7379
 216   2.0000      -0.503248       -13.6941
 217   2.0000      -0.498425       -13.5628
 218   2.0000      -0.492932       -13.4134
 219   2.0000      -0.491317       -13.3694
 220   2.0000      -0.490882       -13.3576
 221   2.0000      -0.490026       -13.3343
 222   2.0000      -0.487793       -13.2735
 223   2.0000      -0.485332       -13.2065
 224   2.0000      -0.480668       -13.0796
 225   2.0000      -0.478992       -13.0340
 226   2.0000      -0.475582       -12.9413
 227   2.0000      -0.473118       -12.8742
 228   2.0000      -0.472253       -12.8506
 229   2.0000      -0.469043       -12.7633
 230   2.0000      -0.466012       -12.6808
 231   2.0000      -0.463698       -12.6179
 232   2.0000      -0.460928       -12.5425
 233   2.0000      -0.455715       -12.4006
 234   2.0000      -0.454969       -12.3803
 235   2.0000      -0.449300       -12.2261
 236   2.0000      -0.445248       -12.1158
 237   2.0000      -0.440784       -11.9943
 238   2.0000      -0.438256       -11.9255
 239   2.0000      -0.437065       -11.8932
 240   2.0000      -0.433062       -11.7842
 241   2.0000      -0.432350       -11.7648
 242   2.0000      -0.429400       -11.6846
 243   2.0000      -0.428179       -11.6513
 244   2.0000      -0.414769       -11.2864
 245   2.0000      -0.414644       -11.2830
 246   2.0000      -0.413136       -11.2420
 247   2.0000      -0.409836       -11.1522
 248   2.0000      -0.402339       -10.9482
 249   2.0000      -0.393828       -10.7166
 250   2.0000      -0.390165       -10.6169
 251   2.0000      -0.389719       -10.6048
 252   2.0000      -0.387672       -10.5491
 253   2.0000      -0.384394       -10.4599
 254   2.0000      -0.383311       -10.4304
 255   2.0000      -0.382404       -10.4057
 256   2.0000      -0.382375       -10.4050
 257   2.0000      -0.374775       -10.1981
 258   2.0000      -0.373719       -10.1694
 259   2.0000      -0.372171       -10.1273
 260   2.0000      -0.368810       -10.0358
 261   2.0000      -0.364107        -9.9079
 262   2.0000      -0.362356        -9.8602
 263   2.0000      -0.361662        -9.8413
 264   2.0000      -0.352524        -9.5927
 265   2.0000      -0.348421        -9.4810
 266   2.0000      -0.340027        -9.2526
 267   2.0000      -0.338616        -9.2142
 268   2.0000      -0.334878        -9.1125
 269   2.0000      -0.333937        -9.0869
 270   2.0000      -0.331088        -9.0094
 271   2.0000      -0.330379        -8.9901
 272   2.0000      -0.328766        -8.9462
 273   2.0000      -0.315606        -8.5881
 274   2.0000      -0.312383        -8.5004
 275   2.0000      -0.299494        -8.1496
 276   2.0000      -0.283114        -7.7039
 277   2.0000      -0.282183        -7.6786
 278   2.0000      -0.264281        -7.1914
 279   2.0000      -0.233088        -6.3426
 280   0.0000      -0.129033        -3.5112
 281   0.0000      -0.096620        -2.6292
 282   0.0000      -0.088033        -2.3955
 283   0.0000      -0.051280        -1.3954
 284   0.0000      -0.050304        -1.3688

MULLIKEN ATOMIC CHARGES
-----------------------
   0 C :   -0.134163
   1 C :    0.065815
   2 C :    0.015360
   3 C :   -0.135777
   4 S :    0.144664
   5 C :    0.176398
   6 O :   -0.169559
   7 C :   -0.111482
   8 C :    0.194232
   9 C :    0.048189
  10 N :    0.260881
  11 O :   -0.230855
  12 O :   -0.257506
  13 N :    0.198662
  14 O :   -0.209038
  15 O :   -0.215689
  16 C :    0.040297
  17 C :   -0.113619
  18 C :   -0.034418
  19 C :    0.148638
  20 C :   -0.102180
  21 S :    0.159736
  22 C :   -0.089537
  23 C :    0.200108
  24 N :   -0.167025
  25 C :    0.123667
  26 C :   -0.120663
  27 C :   -0.168368
  28 S :    0.169821
  29 C :    0.181256
  30 C :   -0.063885
  31 C :   -0.062138
  32 N :   -0.035888
  33 C :    0.150698
  34 C :    0.150612
  35 N :   -0.034957
  36 F :   -0.131967
  37 F :   -0.131573
  38 C :    0.181643
  39 C :   -0.010387
  40 C :   -0.012220
  41 N :   -0.296100
  42 S :    0.546656
  43 N :   -0.292990
  44 C :   -0.171271
  45 C :   -0.118223
  46 C :    0.202267
  47 C :   -0.093095
  48 S :    0.169982
  49 C :   -0.091916
  50 C :    0.146158
  51 N :   -0.162094
  52 C :    0.119049
  53 C :   -0.024294
  54 C :   -0.142212
  55 S :    0.172624
  56 C :    0.104131
  57 C :   -0.155540
  58 C :    0.219152
  59 C :    0.015329
  60 N :    0.245088
  61 O :   -0.219965
  62 O :   -0.255473
  63 N :    0.229977
  64 O :   -0.242049
  65 O :   -0.211457
  66 C :    0.040444
  67 C :   -0.137317
  68 S :    0.146219
  69 C :   -0.132860
  70 C :    0.026171
  71 C :    0.147961
  72 O :   -0.143870
  73 H :    0.055557
  74 H :    0.034200
  75 H :    0.014202
  76 H :    0.009244
  77 H :    0.041889
  78 H :    0.053353
  79 H :    0.044236
  80 H :   -0.011173
  81 H :   -0.008310
  82 H :    0.040138
  83 H :    0.038224
  84 H :    0.062793
  85 H :    0.004018
  86 H :    0.022412
  87 H :    0.052677
  88 H :    0.038272
Sum of atomic charges:   -0.0000000

LOEWDIN ATOMIC CHARGES
----------------------
   0 C :   -0.148245
   1 C :   -0.063612
   2 C :   -0.087720
   3 C :   -0.146123
   4 S :    0.476755
   5 C :    0.085135
   6 O :   -0.154525
   7 C :   -0.109602
   8 C :    0.059308
   9 C :   -0.081460
  10 N :    0.279403
  11 O :   -0.195885
  12 O :   -0.210945
  13 N :    0.268652
  14 O :   -0.181423
  15 O :   -0.191980
  16 C :    0.047141
  17 C :   -0.169173
  18 C :   -0.015012
  19 C :   -0.014019
  20 C :   -0.194059
  21 S :    0.433500
  22 C :   -0.226114
  23 C :    0.000537
  24 N :    0.027131
  25 C :    0.041711
  26 C :   -0.063292
  27 C :   -0.147491
  28 S :    0.455768
  29 C :   -0.044961
  30 C :   -0.014143
  31 C :   -0.014489
  32 N :   -0.050567
  33 C :    0.064129
  34 C :    0.064760
  35 N :   -0.050997
  36 F :   -0.020908
  37 F :   -0.020968
  38 C :   -0.043254
  39 C :   -0.035920
  40 C :   -0.035728
  41 N :   -0.280073
  42 S :    0.667560
  43 N :   -0.278902
  44 C :   -0.147854
  45 C :   -0.060513
  46 C :    0.003831
  47 C :   -0.225283
  48 S :    0.455184
  49 C :   -0.192753
  50 C :   -0.002756
  51 N :    0.031259
  52 C :    0.039986
  53 C :   -0.038412
  54 C :   -0.176465
  55 S :    0.446446
  56 C :    0.059217
  57 C :   -0.109631
  58 C :    0.056768
  59 C :   -0.097994
  60 N :    0.275776
  61 O :   -0.188070
  62 O :   -0.213440
  63 N :    0.277510
  64 O :   -0.209122
  65 O :   -0.178053
  66 C :   -0.062846
  67 C :   -0.153729
  68 S :    0.479219
  69 C :   -0.143212
  70 C :   -0.090129
  71 C :    0.080314
  72 O :   -0.144082
  73 H :    0.029931
  74 H :    0.033288
  75 H :    0.035478
  76 H :    0.036604
  77 H :    0.035115
  78 H :    0.040371
  79 H :    0.030633
  80 H :    0.028594
  81 H :    0.028744
  82 H :    0.030704
  83 H :    0.036539
  84 H :    0.037623
  85 H :    0.036534
  86 H :    0.045654
  87 H :    0.027926
  88 H :    0.035200

  Mayer bond orders larger than 0.100000
B(  0-C ,  1-C ) :   1.5574 B(  0-C ,  4-S ) :   1.1788 B(  0-C , 73-H ) :   0.9472
B(  1-C ,  2-C ) :   1.2226 B(  1-C ,  8-C ) :   1.0095 B(  2-C ,  3-C ) :   1.5545
B(  2-C ,  5-C ) :   0.9651 B(  3-C ,  4-S ) :   1.1769 B(  3-C , 74-H ) :   0.9717
B(  5-C ,  6-O ) :   2.1553 B(  5-C ,  7-C ) :   0.9683 B(  7-C ,  8-C ) :   1.1220
B(  7-C , 16-C ) :   1.5043 B(  8-C ,  9-C ) :   1.5623 B(  9-C , 10-N ) :   0.9540
B(  9-C , 13-N ) :   0.8864 B( 10-N , 11-O ) :   1.5297 B( 10-N , 12-O ) :   1.4881
B( 11-O , 12-O ) :   0.2575 B( 13-N , 14-O ) :   1.5230 B( 13-N , 15-O ) :   1.5316
B( 14-O , 15-O ) :   0.2797 B( 16-C , 17-C ) :   1.2906 B( 16-C , 75-H ) :   0.9358
B( 17-C , 18-C ) :   1.3690 B( 17-C , 21-S ) :   1.0528 B( 18-C , 19-C ) :   1.2923
B( 18-C , 76-H ) :   0.9859 B( 19-C , 20-C ) :   1.3070 B( 19-C , 24-N ) :   1.1346
B( 20-C , 21-S ) :   1.0686 B( 20-C , 22-C ) :   1.4284 B( 22-C , 23-C ) :   1.3444
B( 22-C , 28-S ) :   0.9856 B( 23-C , 24-N ) :   1.1575 B( 23-C , 26-C ) :   1.2102
B( 24-N , 25-C ) :   0.9637 B( 25-C , 77-H ) :   0.9711 B( 25-C , 78-H ) :   0.9714
B( 25-C , 79-H ) :   0.9741 B( 26-C , 27-C ) :   1.4262 B( 26-C , 80-H ) :   1.0006
B( 27-C , 28-S ) :   1.0935 B( 27-C , 29-C ) :   1.2113 B( 29-C , 30-C ) :   1.2881
B( 29-C , 38-C ) :   0.1250 B( 29-C , 40-C ) :   1.1914 B( 30-C , 31-C ) :   1.1225
B( 30-C , 35-N ) :   1.3875 B( 31-C , 32-N ) :   1.3875 B( 31-C , 38-C ) :   1.2880
B( 32-N , 33-C ) :   1.6557 B( 33-C , 34-C ) :   1.1055 B( 33-C , 37-F ) :   1.1896
B( 34-C , 35-N ) :   1.6555 B( 34-C , 36-F ) :   1.1884 B( 38-C , 39-C ) :   1.1890
B( 38-C , 44-C ) :   1.2123 B( 39-C , 40-C ) :   1.1023 B( 39-C , 43-N ) :   1.5125
B( 40-C , 41-N ) :   1.5108 B( 41-N , 42-S ) :   1.2729 B( 41-N , 43-N ) :   0.1505
B( 42-S , 43-N ) :   1.2740 B( 44-C , 45-C ) :   1.4255 B( 44-C , 48-S ) :   1.0922
B( 45-C , 46-C ) :   1.2166 B( 45-C , 81-H ) :   0.9968 B( 46-C , 47-C ) :   1.3403
B( 46-C , 51-N ) :   1.1526 B( 47-C , 48-S ) :   0.9844 B( 47-C , 49-C ) :   1.4312
B( 49-C , 50-C ) :   1.3139 B( 49-C , 55-S ) :   1.0629 B( 50-C , 51-N ) :   1.1505
B( 50-C , 53-C ) :   1.3436 B( 51-N , 52-C ) :   0.9590 B( 52-C , 82-H ) :   0.9715
B( 52-C , 83-H ) :   0.9723 B( 52-C , 84-H ) :   0.9652 B( 53-C , 54-C ) :   1.3552
B( 53-C , 85-H ) :   0.9907 B( 54-C , 55-S ) :   1.0643 B( 54-C , 56-C ) :   1.2206
B( 56-C , 57-C ) :   1.5678 B( 56-C , 86-H ) :   0.9254 B( 57-C , 58-C ) :   1.1249
B( 57-C , 71-C ) :   0.9554 B( 58-C , 59-C ) :   1.4978 B( 58-C , 66-C ) :   1.0255
B( 59-C , 60-N ) :   0.9278 B( 59-C , 63-N ) :   0.9533 B( 60-N , 61-O ) :   1.5348
B( 60-N , 62-O ) :   1.4868 B( 61-O , 62-O ) :   0.2639 B( 63-N , 64-O ) :   1.4646
B( 63-N , 65-O ) :   1.5272 B( 64-O , 65-O ) :   0.2604 B( 66-C , 67-C ) :   1.5541
B( 66-C , 70-C ) :   1.2201 B( 67-C , 68-S ) :   1.1821 B( 67-C , 87-H ) :   0.9476
B( 68-S , 69-C ) :   1.1765 B( 69-C , 70-C ) :   1.5617 B( 69-C , 88-H ) :   0.9722
B( 70-C , 71-C ) :   0.9350 B( 71-C , 72-O ) :   2.2502

-----------------------------------------------------------------------------
         ABSORPTION SPECTRUM VIA TRANSITION ELECTRIC DIPOLE MOMENTS
-----------------------------------------------------------------------------
State   Energy  Wavelength   fosc         T2         TX        TY        TZ
        (cm-1)    (nm)                  (au**2)     (au)      (au)      (au)
-----------------------------------------------------------------------------
   0    8575.6   1166.1   1.382608732  53.07729  -6.87094  -1.51919   1.88668
   1   15504.9    645.0   0.184633714   3.92028   1.56279  -1.19358  -0.23094
   2   16743.8    597.2   0.280002733   5.50533   2.25544   0.55521  -0.33173
   3   17839.5    560.6   0.069007600   1.27347  -1.08342  -0.26461  -0.17222
   4   18153.3    550.9   0.026600484   0.48240  -0.21236   0.10415  -0.65304
   5   18474.4    541.3   0.695395847  12.39189   3.16928   1.47562  -0.41245
   6   22435.5    445.7   0.021811490   0.32006   0.37014  -0.17436   0.39071
   7   23659.7    422.7   0.033429765   0.46516   0.13948   0.39118  -0.54100
   8   24672.2    405.3   0.357087309   4.76477  -1.90386  -0.57892   0.89717
   9   24971.6    400.5   0.014927021   0.19679   0.19999  -0.39561  -0.01698
  10   25533.2    391.6   0.054668505   0.70487  -0.56021   0.29185   0.55304
  11   25660.3    389.7   0.045286073   0.58100   0.42223   0.39441  -0.49716
  12   25763.5    388.1   0.089908231   1.14887   0.66779   0.16936  -0.82112
  13   26594.4    376.0   0.028663623   0.35483  -0.01150  -0.19731  -0.56193
  14   26852.1    372.4   0.268089916   3.28684  -1.71095  -0.35227   0.48516
  15   27180.5    367.9   0.196815676   2.38385  -1.07902  -0.49549   0.98694
  16   28395.4    352.2   0.189994968   2.20277  -1.31294  -0.15934   0.67348
  17   28421.2    351.8   0.076404853   0.88502   0.61446  -0.11527  -0.70298
  18   29003.7    344.8   0.032450612   0.36834  -0.12170   0.31337   0.50529
  19   29354.1    340.7   0.006161983   0.06911   0.13022   0.05742   0.22103
  20   29790.5    335.7   0.031216439   0.34497  -0.55091  -0.00320  -0.20361
  21   29975.3    333.6   0.031333280   0.34413  -0.56725  -0.14953  -0.00052
  22   30150.7    331.7   0.061339113   0.66976  -0.28074  -0.00215  -0.76872
  23   30239.4    330.7   0.044473204   0.48417  -0.11009   0.14504  -0.67158
  24   30459.4    328.3   0.001730797   0.01871   0.13437   0.00235   0.02540
  25   30698.4    325.8   0.064309707   0.68966   0.10259   0.23423  -0.79011
  26   31494.0    317.5   0.016021691   0.16748   0.22099   0.32632   0.11024
  27   31690.0    315.6   0.015111129   0.15698   0.02303  -0.16606  -0.35900
  28   31983.1    312.7   0.093682766   0.96431  -0.84836  -0.32729   0.37077
  29   32148.7    311.1   0.074396720   0.76184  -0.72141  -0.49022  -0.03299
  30   32528.5    307.4   0.002166692   0.02193  -0.08364  -0.06098   0.10590
  31   32700.1    305.8   0.047541612   0.47863  -0.45623   0.14897   0.49829
  32   32825.9    304.6   0.000206473   0.00207  -0.03026  -0.02466  -0.02338
  33   32955.6    303.4   0.012715766   0.12702   0.32376   0.10090   0.10967
  34   33107.4    302.0   0.001237482   0.01231   0.07402  -0.08137  -0.01436
  35   33426.3    299.2   0.036083367   0.35538   0.26083   0.06385  -0.53223
  36   33656.4    297.1   0.039572524   0.38708   0.43162   0.11048   0.43426
  37   33779.7    296.0   0.062583512   0.60993   0.00617   0.09674   0.77494
  38   33984.7    294.2   0.037372235   0.36203   0.30274   0.05505   0.51705
  39   34219.8    292.2   0.027013796   0.25989  -0.35923  -0.15652   0.32610
  40   34421.9    290.5   0.007613332   0.07281  -0.25729   0.02429   0.07762
  41   34797.9    287.4   0.097720668   0.92450   0.12544  -0.19830   0.93244
  42   34884.1    286.7   0.022141446   0.20896  -0.06004   0.44403  -0.09049
  43   35045.6    285.3   0.001915383   0.01799   0.01997  -0.08701   0.10011
  44   35144.6    284.5   0.031700667   0.29695  -0.12763  -0.36905   0.38008
  45   35189.0    284.2   0.018233952   0.17059  -0.00554   0.23066  -0.34257
  46   35367.7    282.7   0.057856270   0.53854  -0.41669  -0.05839   0.60125
  47   35399.6    282.5   0.065645585   0.61050  -0.03986  -0.19485  -0.75561
  48   35738.3    279.8   0.208052579   1.91652   0.70331  -0.02056   1.19225
  49   35855.2    278.9   0.128496512   1.17982   0.78390   0.09448  -0.74592
  50   35889.0    278.6   0.090416353   0.82939   0.89912   0.13901   0.04071
  51   36545.8    273.6   0.028607337   0.25770  -0.11553   0.04408  -0.49235
  52   36935.2    270.7   0.066335481   0.59126   0.26638   0.30375  -0.65425
  53   37087.7    269.6   0.098970826   0.87852   0.50495  -0.00128   0.78965
  54   37108.8    269.5   0.026251192   0.23289  -0.16131   0.08598   0.44663
  55   37324.5    267.9   0.044698905   0.39426  -0.61614  -0.09219  -0.07833
  56   37356.4    267.7   0.099556186   0.87736   0.26058  -0.12033   0.89162
  57   37507.2    266.6   0.000575141   0.00505  -0.04808   0.02309   0.04694
  58   37530.4    266.5   0.001260932   0.01106   0.01138   0.06479  -0.08206
  59   37657.8    265.5   0.004925935   0.04306   0.20152  -0.01476  -0.04726
  60   37725.3    265.1   0.012480920   0.10892   0.23037   0.13404   0.19463
  61   37875.9    264.0   0.044992467   0.39107   0.20496   0.28011  -0.52019
  62   37990.7    263.2   0.192363077   1.66694   0.61299   0.55713   0.99035
  63   38120.5    262.3   0.010534905   0.09098   0.06728   0.18437   0.22904
  64   38370.0    260.6   0.015239642   0.13076  -0.30554  -0.03767  -0.18969
  65   38571.2    259.3   0.020702964   0.17670  -0.17846  -0.27640   0.26165
  66   38631.0    258.9   0.108347396   0.92333  -0.25604   0.01456  -0.92605
  67   38984.0    256.5   0.008620798   0.07280   0.07809  -0.18019   0.18502
  68   39730.9    251.7   0.020296966   0.16818   0.03462  -0.05621   0.40475
  69   39800.5    251.3   0.025610462   0.21184  -0.22376   0.11661   0.38493

FINAL SINGLE POINT ENERGY     -5967.925709920590

DIPOLE MOMENT
-------------
                                X             Y             Z
Electronic contribution:     11.99565      -3.25885      28.56218
Nuclear contribution   :    -13.80952       0.44848     -32.09534
                        -----------------------------------------
Total Dipole Moment    :     -1.81387      -2.81037      -3.53316
                        -----------------------------------------
Magnitude (a.u.)       :      4.86534
Magnitude (Debye)      :     12.36671

Rotational constants in cm-1:     0.002838     0.000170     0.000166
Rotational constants in MHz :    85.072520     5.102067     4.976951

                             ****ORCA TERMINATED NORMALLY****
TOTAL RUN TIME: 0 days 0 hours 9 minutes 50 seconds 543 msec
