                         Program Version 4.2.0 -  RELEASE  -
|  1> # ORCA input file
|  2> # SCF done       -190.036155089289          0.000794447852
|  3> ! CAM-B3LYP def2-SVP def2/J RIJCOSX Grid4 TightSCF
|  4> %maxcore 5000
|  5> %tddft
|  6>     Mode sTDDFT
|  7>     Ethresh 5.0
|  8>     maxcore 5000
|  9> end
| 10>
| 11> %pal
| 12>   nprocs 6
| 13>   end
| 14> * xyz 0 1
| 15>    C       -1.20003        -9.43030         6.68719
| 16>    C       -0.28156        -8.89841         5.82236
| 17>    F        0.89925        -8.46563         6.29403
| 18>    C       -0.51197        -8.77788         4.43740
| 19>    F        0.47104        -8.23728         3.69145
| 20>    C       -1.68837        -9.18350         3.82496
| 21>    C       -2.64692        -9.73760         4.71007
| 22>    C       -2.40262        -9.85731         6.11319
| 23>    N       -3.49310       -10.41605         6.66119
| 24>    N       -4.29952       -10.60351         5.65577
| 25>    N       -3.87233       -10.23036         4.48236
| 26>    C       -5.58910       -11.20189         5.81245
| 27>    C       -1.95146        -9.06859         2.41995
| 28>    C       -3.13152        -9.42688         1.79429
| 29>    C       -3.08316        -9.19783         0.42223
| 30>    C       -1.85113        -8.66221        -0.00103
| 31>    S       -0.76336        -8.43794         1.29138
| 32>    C       -1.89945        -8.46909        -1.40440
| 33>    C       -3.16842        -8.88162        -1.86363
| 34>    C       -3.95079        -9.35156        -0.73164
| 35>    C       -5.22786        -9.83309        -0.74341
| 36>    C       -5.98440        -9.93603        -1.92971
| 37>    N       -6.61031       -10.02286        -2.88688
| 38>    C       -5.87784       -10.25940         0.43369
| 39>    N       -6.41326       -10.60649         1.38693
| 40>    C       -3.31878        -8.73273        -3.23515
| 41>    C       -2.17594        -8.21348        -3.83224
| 42>    S       -0.89730        -7.90596        -2.66779
| 43>    C       -1.98904        -7.93706        -5.21257
| 44>    C       -0.77095        -7.42569        -5.71014
| 45>    C       -0.56390        -7.14004        -7.10044
| 46>    N        0.62762        -6.65507        -7.50228
| 47>    C        1.56570        -6.45373        -6.63426
| 48>    C        1.36076        -6.73586        -5.25900
| 49>    N        0.23036        -7.20215        -4.83619
| 50>    F        2.32365        -6.52979        -4.36570
| 51>    F        2.72670        -5.97479        -7.07053
| 52>    C       -1.56409        -7.34447        -8.07543
| 53>    C       -2.78912        -7.85899        -7.58548
| 54>    C       -2.99663        -8.15029        -6.18454
| 55>    N       -4.22321        -8.62461        -5.96270
| 56>    S       -5.02836        -8.70021        -7.34594
| 57>    N       -3.87582        -8.13795        -8.30658
| 58>    C       -1.34364        -7.04805        -9.44662
| 59>    C       -2.25639        -7.18980       -10.48540
| 60>    C       -1.71974        -6.80690       -11.70652
| 61>    C       -0.38192        -6.36982       -11.60340
| 62>    S        0.20430        -6.42924       -10.00012
| 63>    C        0.06686        -6.00557       -12.89765
| 64>    C       -0.98437        -6.21037       -13.81252
| 65>    C       -2.14001        -6.71863       -13.09571
| 66>    C       -3.35843        -7.04011       -13.62012
| 67>    C       -3.64073        -6.90388       -14.99544
| 68>    N       -3.87848        -6.79562       -16.11246
| 69>    C       -4.41732        -7.52733       -12.82541
| 70>    N       -5.28637        -7.92677       -12.19260
| 71>    C       -0.63746        -5.87993       -15.11928
| 72>    C        0.66604        -5.42697       -15.20920
| 73>    S        1.47443        -5.40899       -13.65058
| 74>    C        1.31942        -5.01272       -16.41661
| 75>    C        2.63051        -4.56547       -16.48423
| 76>    F        3.36767        -4.50190       -15.35839
| 77>    C        3.24875        -4.16641       -17.68601
| 78>    F        4.52496        -3.75308       -17.61876
| 79>    C        2.60797        -4.18486       -18.89574
| 80>    C        1.28102        -4.62863       -18.87659
| 81>    C        0.64489        -5.03554       -17.66312
| 82>    N       -0.60548        -5.39987       -17.97958
| 83>    N       -0.68451        -5.21841       -19.26777
| 84>    N        0.38241        -4.76805       -19.86380
| 85>    C       -1.89399        -5.50259       -19.97633
| 86>    H       -1.00463        -9.51410         7.74173
| 87>    H       -6.10667       -10.73606         6.64997
| 88>    H       -5.48299       -12.26900         6.01511
| 89>    H       -6.14247       -11.05728         4.88677
| 90>    H       -3.96438        -9.83268         2.33732
| 91>    H       -4.19641        -8.97884        -3.80364
| 92>    H       -3.25274        -7.55650       -10.32171
| 93>    H       -1.27594        -5.95399       -15.97954
| 94>    H        3.09799        -3.87630       -19.80233
| 95>    H       -2.61377        -5.89908       -19.26342
| 96>    H       -1.69783        -6.23033       -20.76357
| 97>    H       -2.27920        -4.59025       -20.43237
| 98> *
| 99>
|100>                          ****END OF INPUT****

CARTESIAN COORDINATES (ANGSTROEM)
---------------------------------
  C     -1.200030   -9.430300    6.687190
  C     -0.281560   -8.898410    5.822360
  F      0.899250   -8.465630    6.294030
  C     -0.511970   -8.777880    4.437400
  F      0.471040   -8.237280    3.691450
  C     -1.688370   -9.183500    3.824960
  C     -2.646920   -9.737600    4.710070
  C     -2.402620   -9.857310    6.113190
  N     -3.493100  -10.416050    6.661190
  N     -4.299520  -10.603510    5.655770
  N     -3.872330  -10.230360    4.482360
  C     -5.589100  -11.201890    5.812450
  C     -1.951460   -9.068590    2.419950
  C     -3.131520   -9.426880    1.794290
  C     -3.083160   -9.197830    0.422230
  C     -1.851130   -8.662210   -0.001030
  S     -0.763360   -8.437940    1.291380
  C     -1.899450   -8.469090   -1.404400
  C     -3.168420   -8.881620   -1.863630
  C     -3.950790   -9.351560   -0.731640
  C     -5.227860   -9.833090   -0.743410
  C     -5.984400   -9.936030   -1.929710
  N     -6.610310  -10.022860   -2.886880
  C     -5.877840  -10.259400    0.433690
  N     -6.413260  -10.606490    1.386930
  C     -3.318780   -8.732730   -3.235150
  C     -2.175940   -8.213480   -3.832240
  S     -0.897300   -7.905960   -2.667790
  C     -1.989040   -7.937060   -5.212570
  C     -0.770950   -7.425690   -5.710140
  C     -0.563900   -7.140040   -7.100440
  N      0.627620   -6.655070   -7.502280
  C      1.565700   -6.453730   -6.634260
  C      1.360760   -6.735860   -5.259000
  N      0.230360   -7.202150   -4.836190
  F      2.323650   -6.529790   -4.365700
  F      2.726700   -5.974790   -7.070530
  C     -1.564090   -7.344470   -8.075430
  C     -2.789120   -7.858990   -7.585480
  C     -2.996630   -8.150290   -6.184540
  N     -4.223210   -8.624610   -5.962700
  S     -5.028360   -8.700210   -7.345940
  N     -3.875820   -8.137950   -8.306580
  C     -1.343640   -7.048050   -9.446620
  C     -2.256390   -7.189800  -10.485400
  C     -1.719740   -6.806900  -11.706520
  C     -0.381920   -6.369820  -11.603400
  S      0.204300   -6.429240  -10.000120
  C      0.066860   -6.005570  -12.897650
  C     -0.984370   -6.210370  -13.812520
  C     -2.140010   -6.718630  -13.095710
  C     -3.358430   -7.040110  -13.620120
  C     -3.640730   -6.903880  -14.995440
  N     -3.878480   -6.795620  -16.112460
  C     -4.417320   -7.527330  -12.825410
  N     -5.286370   -7.926770  -12.192600
  C     -0.637460   -5.879930  -15.119280
  C      0.666040   -5.426970  -15.209200
  S      1.474430   -5.408990  -13.650580
  C      1.319420   -5.012720  -16.416610
  C      2.630510   -4.565470  -16.484230
  F      3.367670   -4.501900  -15.358390
  C      3.248750   -4.166410  -17.686010
  F      4.524960   -3.753080  -17.618760
  C      2.607970   -4.184860  -18.895740
  C      1.281020   -4.628630  -18.876590
  C      0.644890   -5.035540  -17.663120
  N     -0.605480   -5.399870  -17.979580
  N     -0.684510   -5.218410  -19.267770
  N      0.382410   -4.768050  -19.863800
  C     -1.893990   -5.502590  -19.976330
  H     -1.004630   -9.514100    7.741730
  H     -6.106670  -10.736060    6.649970
  H     -5.482990  -12.269000    6.015110
  H     -6.142470  -11.057280    4.886770
  H     -3.964380   -9.832680    2.337320
  H     -4.196410   -8.978840   -3.803640
  H     -3.252740   -7.556500  -10.321710
  H     -1.275940   -5.953990  -15.979540
  H      3.097990   -3.876300  -19.802330
  H     -2.613770   -5.899080  -19.263420
  H     -1.697830   -6.230330  -20.763570
  H     -2.279200   -4.590250  -20.432370

 Total Charge           Charge          ....    0
 Multiplicity           Mult            ....    1
 Number of Electrons    NEL             ....  520
 Basis Dimension        Dim             .... 1074

ORBITAL ENERGIES
----------------

  NO   OCC          E(Eh)            E(eV)
   0   2.0000     -89.041588     -2422.9448
   1   2.0000     -88.980894     -2421.2932
   2   2.0000     -88.980809     -2421.2909
   3   2.0000     -88.977456     -2421.1997
   4   2.0000     -88.977323     -2421.1961
   5   2.0000     -24.823293      -675.4762
   6   2.0000     -24.823139      -675.4720
   7   2.0000     -24.802679      -674.9152
   8   2.0000     -24.802619      -674.9136
   9   2.0000     -24.788551      -674.5308
  10   2.0000     -24.788405      -674.5268
  11   2.0000     -14.546745      -395.8371
  12   2.0000     -14.546719      -395.8363
  13   2.0000     -14.464713      -393.6049
  14   2.0000     -14.464562      -393.6007
  15   2.0000     -14.450459      -393.2170
  16   2.0000     -14.450387      -393.2150
  17   2.0000     -14.448463      -393.1627
  18   2.0000     -14.448339      -393.1593
  19   2.0000     -14.445709      -393.0877
  20   2.0000     -14.445526      -393.0827
  21   2.0000     -14.423583      -392.4856
  22   2.0000     -14.423488      -392.4831
  23   2.0000     -14.421658      -392.4333
  24   2.0000     -14.421646      -392.4329
  25   2.0000     -10.439537      -284.0742
  26   2.0000     -10.439243      -284.0662
  27   2.0000     -10.375422      -282.3296
  28   2.0000     -10.375420      -282.3295
  29   2.0000     -10.373742      -282.2839
  30   2.0000     -10.373675      -282.2820
  31   2.0000     -10.354643      -281.7642
  32   2.0000     -10.354602      -281.7630
  33   2.0000     -10.348657      -281.6013
  34   2.0000     -10.348389      -281.5940
  35   2.0000     -10.342869      -281.4438
  36   2.0000     -10.342835      -281.4428
  37   2.0000     -10.341598      -281.4092
  38   2.0000     -10.341361      -281.4027
  39   2.0000     -10.324346      -280.9397
  40   2.0000     -10.324230      -280.9366
  41   2.0000     -10.322410      -280.8871
  42   2.0000     -10.322401      -280.8868
  43   2.0000     -10.321444      -280.8608
  44   2.0000     -10.321373      -280.8588
  45   2.0000     -10.321356      -280.8584
  46   2.0000     -10.321263      -280.8559
  47   2.0000     -10.318951      -280.7929
  48   2.0000     -10.318910      -280.7918
  49   2.0000     -10.318345      -280.7764
  50   2.0000     -10.318170      -280.7717
  51   2.0000     -10.317946      -280.7656
  52   2.0000     -10.317902      -280.7644
  53   2.0000     -10.316671      -280.7309
  54   2.0000     -10.316555      -280.7277
  55   2.0000     -10.315678      -280.7039
  56   2.0000     -10.315632      -280.7026
  57   2.0000     -10.313763      -280.6518
  58   2.0000     -10.313592      -280.6471
  59   2.0000     -10.312849      -280.6269
  60   2.0000     -10.312831      -280.6264
  61   2.0000     -10.293015      -280.0872
  62   2.0000     -10.293007      -280.0870
  63   2.0000     -10.292618      -280.0764
  64   2.0000     -10.292581      -280.0754
  65   2.0000     -10.290865      -280.0287
  66   2.0000     -10.290844      -280.0281
  67   2.0000     -10.288528      -279.9651
  68   2.0000     -10.288498      -279.9643
  69   2.0000     -10.286672      -279.9146
  70   2.0000     -10.286641      -279.9137
  71   2.0000      -8.132744      -221.3032
  72   2.0000      -8.074995      -219.7318
  73   2.0000      -8.074932      -219.7301
  74   2.0000      -8.070313      -219.6044
  75   2.0000      -8.070237      -219.6023
  76   2.0000      -6.103837      -166.0939
  77   2.0000      -6.095923      -165.8785
  78   2.0000      -6.095586      -165.8693
  79   2.0000      -6.044221      -164.4716
  80   2.0000      -6.044182      -164.4705
  81   2.0000      -6.039901      -164.3541
  82   2.0000      -6.039830      -164.3521
  83   2.0000      -6.039786      -164.3509
  84   2.0000      -6.039713      -164.3489
  85   2.0000      -6.037524      -164.2894
  86   2.0000      -6.037448      -164.2873
  87   2.0000      -6.035064      -164.2224
  88   2.0000      -6.034989      -164.2204
  89   2.0000      -6.032825      -164.1615
  90   2.0000      -6.032725      -164.1588
  91   2.0000      -1.351635       -36.7799
  92   2.0000      -1.337628       -36.3987
  93   2.0000      -1.320091       -35.9215
  94   2.0000      -1.320041       -35.9201
  95   2.0000      -1.299613       -35.3643
  96   2.0000      -1.299453       -35.3599
  97   2.0000      -1.225056       -33.3355
  98   2.0000      -1.225021       -33.3345
  99   2.0000      -1.139827       -31.0163
 100   2.0000      -1.122956       -30.5572
 101   2.0000      -1.050432       -28.5837
 102   2.0000      -1.034319       -28.1452
 103   2.0000      -1.033720       -28.1289
 104   2.0000      -1.013826       -27.5876
 105   2.0000      -1.013697       -27.5841
 106   2.0000      -1.001556       -27.2537
 107   2.0000      -1.001398       -27.2494
 108   2.0000      -0.999539       -27.1988
 109   2.0000      -0.999500       -27.1978
 110   2.0000      -0.996146       -27.1065
 111   2.0000      -0.994053       -27.0495
 112   2.0000      -0.991665       -26.9846
 113   2.0000      -0.987363       -26.8675
 114   2.0000      -0.979096       -26.6426
 115   2.0000      -0.969218       -26.3738
 116   2.0000      -0.949845       -25.8466
 117   2.0000      -0.945722       -25.7344
 118   2.0000      -0.928872       -25.2759
 119   2.0000      -0.928841       -25.2751
 120   2.0000      -0.911764       -24.8104
 121   2.0000      -0.903605       -24.5883
 122   2.0000      -0.889540       -24.2056
 123   2.0000      -0.885832       -24.1047
 124   2.0000      -0.873587       -23.7715
 125   2.0000      -0.869700       -23.6657
 126   2.0000      -0.855098       -23.2684
 127   2.0000      -0.849109       -23.1054
 128   2.0000      -0.844223       -22.9725
 129   2.0000      -0.843516       -22.9532
 130   2.0000      -0.822826       -22.3902
 131   2.0000      -0.819034       -22.2870
 132   2.0000      -0.818380       -22.2692
 133   2.0000      -0.803601       -21.8671
 134   2.0000      -0.789083       -21.4721
 135   2.0000      -0.774354       -21.0712
 136   2.0000      -0.770282       -20.9604
 137   2.0000      -0.768006       -20.8985
 138   2.0000      -0.759990       -20.6804
 139   2.0000      -0.747250       -20.3337
 140   2.0000      -0.740567       -20.1519
 141   2.0000      -0.738070       -20.0839
 142   2.0000      -0.736742       -20.0478
 143   2.0000      -0.725123       -19.7316
 144   2.0000      -0.707398       -19.2493
 145   2.0000      -0.700926       -19.0732
 146   2.0000      -0.697535       -18.9809
 147   2.0000      -0.686292       -18.6750
 148   2.0000      -0.685322       -18.6485
 149   2.0000      -0.680300       -18.5119
 150   2.0000      -0.676899       -18.4193
 151   2.0000      -0.671423       -18.2704
 152   2.0000      -0.670049       -18.2329
 153   2.0000      -0.663297       -18.0492
 154   2.0000      -0.659202       -17.9378
 155   2.0000      -0.654214       -17.8021
 156   2.0000      -0.646334       -17.5877
 157   2.0000      -0.642111       -17.4727
 158   2.0000      -0.634328       -17.2609
 159   2.0000      -0.634223       -17.2581
 160   2.0000      -0.628659       -17.1067
 161   2.0000      -0.628014       -17.0891
 162   2.0000      -0.626749       -17.0547
 163   2.0000      -0.622641       -16.9429
 164   2.0000      -0.620369       -16.8811
 165   2.0000      -0.617453       -16.8018
 166   2.0000      -0.611007       -16.6264
 167   2.0000      -0.609255       -16.5787
 168   2.0000      -0.609219       -16.5777
 169   2.0000      -0.604323       -16.4445
 170   2.0000      -0.599375       -16.3098
 171   2.0000      -0.591769       -16.1029
 172   2.0000      -0.582240       -15.8435
 173   2.0000      -0.582206       -15.8426
 174   2.0000      -0.578650       -15.7459
 175   2.0000      -0.576196       -15.6791
 176   2.0000      -0.573589       -15.6081
 177   2.0000      -0.567283       -15.4366
 178   2.0000      -0.566325       -15.4105
 179   2.0000      -0.564479       -15.3602
 180   2.0000      -0.563405       -15.3310
 181   2.0000      -0.553992       -15.0749
 182   2.0000      -0.550336       -14.9754
 183   2.0000      -0.543722       -14.7954
 184   2.0000      -0.543628       -14.7929
 185   2.0000      -0.539764       -14.6877
 186   2.0000      -0.539609       -14.6835
 187   2.0000      -0.537073       -14.6145
 188   2.0000      -0.536589       -14.6013
 189   2.0000      -0.526474       -14.3261
 190   2.0000      -0.525794       -14.3076
 191   2.0000      -0.525062       -14.2877
 192   2.0000      -0.520460       -14.1624
 193   2.0000      -0.519218       -14.1286
 194   2.0000      -0.514146       -13.9906
 195   2.0000      -0.513513       -13.9734
 196   2.0000      -0.507853       -13.8194
 197   2.0000      -0.507776       -13.8173
 198   2.0000      -0.505175       -13.7465
 199   2.0000      -0.504303       -13.7228
 200   2.0000      -0.498441       -13.5633
 201   2.0000      -0.495900       -13.4941
 202   2.0000      -0.495881       -13.4936
 203   2.0000      -0.494964       -13.4687
 204   2.0000      -0.487318       -13.2606
 205   2.0000      -0.486818       -13.2470
 206   2.0000      -0.486176       -13.2295
 207   2.0000      -0.484184       -13.1753
 208   2.0000      -0.483502       -13.1568
 209   2.0000      -0.481743       -13.1089
 210   2.0000      -0.475318       -12.9341
 211   2.0000      -0.469413       -12.7734
 212   2.0000      -0.469372       -12.7722
 213   2.0000      -0.466266       -12.6878
 214   2.0000      -0.465030       -12.6541
 215   2.0000      -0.457472       -12.4485
 216   2.0000      -0.456704       -12.4275
 217   2.0000      -0.455811       -12.4032
 218   2.0000      -0.454669       -12.3722
 219   2.0000      -0.453866       -12.3503
 220   2.0000      -0.449364       -12.2278
 221   2.0000      -0.448483       -12.2038
 222   2.0000      -0.442307       -12.0358
 223   2.0000      -0.434816       -11.8319
 224   2.0000      -0.433303       -11.7908
 225   2.0000      -0.432559       -11.7705
 226   2.0000      -0.430781       -11.7221
 227   2.0000      -0.430629       -11.7180
 228   2.0000      -0.430526       -11.7152
 229   2.0000      -0.429651       -11.6914
 230   2.0000      -0.426774       -11.6131
 231   2.0000      -0.422472       -11.4961
 232   2.0000      -0.419399       -11.4124
 233   2.0000      -0.419204       -11.4071
 234   2.0000      -0.409002       -11.1295
 235   2.0000      -0.408819       -11.1245
 236   2.0000      -0.406307       -11.0562
 237   2.0000      -0.398118       -10.8333
 238   2.0000      -0.397960       -10.8291
 239   2.0000      -0.396708       -10.7950
 240   2.0000      -0.396543       -10.7905
 241   2.0000      -0.389093       -10.5878
 242   2.0000      -0.377623       -10.2757
 243   2.0000      -0.377368       -10.2687
 244   2.0000      -0.375600       -10.2206
 245   2.0000      -0.369244       -10.0476
 246   2.0000      -0.365246        -9.9389
 247   2.0000      -0.360471        -9.8089
 248   2.0000      -0.346178        -9.4200
 249   2.0000      -0.337331        -9.1793
 250   2.0000      -0.337184        -9.1752
 251   2.0000      -0.333653        -9.0792
 252   2.0000      -0.322759        -8.7827
 253   2.0000      -0.321499        -8.7484
 254   2.0000      -0.316217        -8.6047
 255   2.0000      -0.312925        -8.5151
 256   2.0000      -0.311495        -8.4762
 257   2.0000      -0.290515        -7.9053
 258   2.0000      -0.262548        -7.1443
 259   2.0000      -0.230695        -6.2775
 260   0.0000      -0.119566        -3.2536
 261   0.0000      -0.094068        -2.5597
 262   0.0000      -0.089158        -2.4261
 263   0.0000      -0.046510        -1.2656
 264   0.0000      -0.045332        -1.2335

MULLIKEN ATOMIC CHARGES
-----------------------
   0 C :   -0.146831
   1 C :    0.258832
   2 F :   -0.183173
   3 C :    0.102214
   4 F :   -0.181967
   5 C :    0.117444
   6 C :   -0.054878
   7 C :    0.037867
   8 N :   -0.051919
   9 N :   -0.070078
  10 N :   -0.065883
  11 C :    0.138766
  12 C :   -0.135832
  13 C :   -0.062075
  14 C :    0.025716
  15 C :   -0.095849
  16 S :    0.207009
  17 C :   -0.069248
  18 C :    0.033791
  19 C :    0.319106
  20 C :   -0.313250
  21 C :   -0.190464
  22 N :    0.168293
  23 C :   -0.186818
  24 N :    0.168014
  25 C :   -0.063347
  26 C :   -0.186603
  27 S :    0.199079
  28 C :    0.183900
  29 C :   -0.063613
  30 C :   -0.064090
  31 N :   -0.043490
  32 C :    0.148707
  33 C :    0.147943
  34 N :   -0.043515
  35 F :   -0.136098
  36 F :   -0.136532
  37 C :    0.184130
  38 C :   -0.010072
  39 C :   -0.012582
  40 N :   -0.287083
  41 S :    0.575075
  42 N :   -0.289997
  43 C :   -0.186383
  44 C :   -0.062788
  45 C :    0.033365
  46 C :   -0.070789
  47 S :    0.199847
  48 C :   -0.095179
  49 C :    0.028497
  50 C :    0.318477
  51 C :   -0.314725
  52 C :   -0.187343
  53 N :    0.166848
  54 C :   -0.191142
  55 N :    0.170736
  56 C :   -0.064370
  57 C :   -0.137826
  58 S :    0.207584
  59 C :    0.121082
  60 C :    0.099349
  61 F :   -0.181829
  62 C :    0.256536
  63 F :   -0.182463
  64 C :   -0.143148
  65 C :    0.035239
  66 C :   -0.053058
  67 N :   -0.065041
  68 N :   -0.069803
  69 N :   -0.052180
  70 C :    0.138713
  71 H :   -0.009077
  72 H :    0.053369
  73 H :    0.055700
  74 H :    0.069651
  75 H :    0.017032
  76 H :    0.018426
  77 H :    0.020145
  78 H :    0.017960
  79 H :   -0.010301
  80 H :    0.069375
  81 H :    0.055038
  82 H :    0.053877
Sum of atomic charges:   -0.0000000

LOEWDIN ATOMIC CHARGES
----------------------
   0 C :   -0.047660
   1 C :    0.063865
   2 F :   -0.056881
   3 C :    0.051657
   4 F :   -0.057080
   5 C :   -0.060860
   6 C :   -0.048401
   7 C :   -0.052260
   8 N :   -0.090155
   9 N :    0.159257
  10 N :   -0.084577
  11 C :    0.033969
  12 C :   -0.167860
  13 C :   -0.019163
  14 C :   -0.071158
  15 C :   -0.183348
  16 S :    0.491619
  17 C :   -0.179403
  18 C :   -0.076496
  19 C :    0.085070
  20 C :   -0.109009
  21 C :   -0.016917
  22 N :   -0.037905
  23 C :   -0.012810
  24 N :   -0.043030
  25 C :   -0.011971
  26 C :   -0.169947
  27 S :    0.506564
  28 C :   -0.044041
  29 C :   -0.019254
  30 C :   -0.019300
  31 N :   -0.054918
  32 C :    0.061655
  33 C :    0.061535
  34 N :   -0.055008
  35 F :   -0.025702
  36 F :   -0.025832
  37 C :   -0.044044
  38 C :   -0.038547
  39 C :   -0.038673
  40 N :   -0.274166
  41 S :    0.693370
  42 N :   -0.274568
  43 C :   -0.169978
  44 C :   -0.011848
  45 C :   -0.076586
  46 C :   -0.179519
  47 S :    0.506696
  48 C :   -0.183321
  49 C :   -0.071159
  50 C :    0.085086
  51 C :   -0.109060
  52 C :   -0.012510
  53 N :   -0.043314
  54 C :   -0.017142
  55 N :   -0.037665
  56 C :   -0.019332
  57 C :   -0.168056
  58 S :    0.491841
  59 C :   -0.060624
  60 C :    0.051430
  61 F :   -0.056974
  62 C :    0.063743
  63 F :   -0.056714
  64 C :   -0.047529
  65 C :   -0.052007
  66 C :   -0.048728
  67 N :   -0.084040
  68 N :    0.159371
  69 N :   -0.090558
  70 C :    0.033891
  71 H :    0.047697
  72 H :    0.041830
  73 H :    0.041988
  74 H :    0.048383
  75 H :    0.036693
  76 H :    0.036987
  77 H :    0.037159
  78 H :    0.036738
  79 H :    0.047474
  80 H :    0.048385
  81 H :    0.041960
  82 H :    0.041694

  Mayer bond orders larger than 0.100000
B(  0-C ,  1-C ) :   1.4462 B(  0-C ,  5-C ) :   0.1294 B(  0-C ,  7-C ) :   1.1399
B(  0-C , 71-H ) :   1.0487 B(  1-C ,  2-F ) :   1.1006 B(  1-C ,  3-C ) :   1.1826
B(  3-C ,  4-F ) :   1.1280 B(  3-C ,  5-C ) :   1.3739 B(  5-C ,  6-C ) :   1.1808
B(  5-C , 12-C ) :   1.1215 B(  6-C ,  7-C ) :   1.2291 B(  6-C , 10-N ) :   1.4663
B(  7-C ,  8-N ) :   1.4606 B(  8-N ,  9-N ) :   1.2384 B(  8-N , 10-N ) :   0.1614
B(  9-N , 10-N ) :   1.2324 B(  9-N , 11-C ) :   0.9485 B( 11-C , 72-H ) :   0.9686
B( 11-C , 73-H ) :   0.9696 B( 11-C , 74-H ) :   0.9652 B( 12-C , 13-C ) :   1.4834
B( 12-C , 16-S ) :   1.0952 B( 13-C , 14-C ) :   1.2486 B( 13-C , 75-H ) :   0.9771
B( 14-C , 15-C ) :   1.4259 B( 14-C , 19-C ) :   1.0000 B( 15-C , 16-S ) :   1.1099
B( 15-C , 17-C ) :   1.1911 B( 17-C , 18-C ) :   1.4089 B( 17-C , 27-S ) :   1.0943
B( 18-C , 19-C ) :   0.9874 B( 18-C , 25-C ) :   1.2727 B( 19-C , 20-C ) :   1.7019
B( 20-C , 21-C ) :   1.1402 B( 20-C , 23-C ) :   1.1362 B( 21-C , 22-N ) :   2.9872
B( 23-C , 24-N ) :   2.9929 B( 25-C , 26-C ) :   1.4238 B( 25-C , 76-H ) :   0.9805
B( 26-C , 27-S ) :   1.0854 B( 26-C , 28-C ) :   1.1899 B( 28-C , 29-C ) :   1.2970
B( 28-C , 37-C ) :   0.1292 B( 28-C , 39-C ) :   1.1943 B( 29-C , 30-C ) :   1.1150
B( 29-C , 34-N ) :   1.3813 B( 30-C , 31-N ) :   1.3818 B( 30-C , 37-C ) :   1.2981
B( 31-N , 32-C ) :   1.6549 B( 32-C , 33-C ) :   1.1091 B( 32-C , 36-F ) :   1.1846
B( 33-C , 34-N ) :   1.6542 B( 33-C , 35-F ) :   1.1863 B( 37-C , 38-C ) :   1.1926
B( 37-C , 43-C ) :   1.1899 B( 38-C , 39-C ) :   1.1005 B( 38-C , 42-N ) :   1.5116
B( 39-C , 40-N ) :   1.5135 B( 40-N , 41-S ) :   1.2812 B( 40-N , 42-N ) :   0.1492
B( 41-S , 42-N ) :   1.2813 B( 43-C , 44-C ) :   1.4241 B( 43-C , 47-S ) :   1.0861
B( 44-C , 45-C ) :   1.2721 B( 44-C , 77-H ) :   0.9807 B( 45-C , 46-C ) :   1.4092
B( 45-C , 50-C ) :   0.9882 B( 46-C , 47-S ) :   1.0948 B( 46-C , 48-C ) :   1.1911
B( 48-C , 49-C ) :   1.4252 B( 48-C , 58-S ) :   1.1101 B( 49-C , 50-C ) :   0.9996
B( 49-C , 56-C ) :   1.2461 B( 50-C , 51-C ) :   1.7015 B( 51-C , 52-C ) :   1.1370
B( 51-C , 54-C ) :   1.1406 B( 52-C , 53-N ) :   2.9929 B( 54-C , 55-N ) :   2.9880
B( 56-C , 57-C ) :   1.4825 B( 56-C , 78-H ) :   0.9788 B( 57-C , 58-S ) :   1.0956
B( 57-C , 59-C ) :   1.1209 B( 59-C , 60-C ) :   1.3734 B( 59-C , 64-C ) :   0.1293
B( 59-C , 66-C ) :   1.1822 B( 60-C , 61-F ) :   1.1284 B( 60-C , 62-C ) :   1.1831
B( 62-C , 63-F ) :   1.1015 B( 62-C , 64-C ) :   1.4469 B( 64-C , 65-C ) :   1.1408
B( 64-C , 79-H ) :   1.0480 B( 65-C , 66-C ) :   1.2284 B( 65-C , 69-N ) :   1.4610
B( 66-C , 67-N ) :   1.4654 B( 67-N , 68-N ) :   1.2339 B( 67-N , 69-N ) :   0.1613
B( 68-N , 69-N ) :   1.2361 B( 68-N , 70-C ) :   0.9487 B( 70-C , 80-H ) :   0.9646
B( 70-C , 81-H ) :   0.9691 B( 70-C , 82-H ) :   0.9695

-----------------------------------------------------------------------------
         ABSORPTION SPECTRUM VIA TRANSITION ELECTRIC DIPOLE MOMENTS
-----------------------------------------------------------------------------
State   Energy  Wavelength   fosc         T2         TX        TY        TZ
        (cm-1)    (nm)                  (au**2)     (au)      (au)      (au)
-----------------------------------------------------------------------------
   0    9171.3   1090.4   0.798789264  28.67321   0.76845   1.07872  -5.18836
   1   12703.9    787.2   0.003011528   0.07804  -0.25819  -0.08851  -0.05952
   2   13525.1    739.4   0.005877077   0.14305  -0.05372  -0.07984   0.36578
   3   17566.9    569.3   0.001133552   0.02124  -0.13274  -0.05177  -0.03074
   4   22309.0    448.2   0.003849589   0.05681   0.03322   0.04937  -0.23080
   5   23553.5    424.6   0.000178926   0.00250   0.04447   0.02062   0.00990
   6   24421.5    409.5   0.788334553  10.62708   0.46816   0.65585  -3.15876
   7   25470.0    392.6   0.159212869   2.05790   0.20843   0.28446  -1.39052
   8   26425.4    378.4   0.470873414   5.86621   0.36035   0.47351  -2.34780
   9   26551.4    376.6   0.068117363   0.84459   0.85374   0.27284   0.20316
  10   27075.7    369.3   0.607682615   7.38878   0.38825   0.55756  -2.63195
  11   27416.8    364.7   0.080596461   0.96778  -0.91425  -0.29606  -0.21038
  12   28817.9    347.0   0.048240144   0.55109   0.69281   0.22361   0.14525
  13   29778.0    335.8   0.184659923   2.04152  -0.20403  -0.29006   1.38411
  14   30280.8    330.2   0.013730070   0.14927   0.35892   0.12012   0.07761
  15   30962.0    323.0   0.027120608   0.28837   0.50180   0.15853   0.10692
  16   30991.2    322.7   0.000412450   0.00438   0.06399   0.00345  -0.01659
  17   31326.5    319.2   0.001534905   0.01613   0.10230  -0.02918   0.06938
  18   31376.4    318.7   0.287534093   3.01691  -1.61997  -0.52575  -0.34089
  19   32000.9    312.5   0.002335396   0.02403  -0.00486  -0.02767   0.15243
  20   32012.2    312.4   0.351952125   3.61946  -0.25085  -0.40230   1.84247
  21   32451.4    308.2   0.607392603   6.16186   2.31835   0.74259   0.48544
  22   32584.6    306.9   0.000435988   0.00440  -0.02442   0.01583   0.05965
  23   32644.7    306.3   0.134368549   1.35507   1.07921   0.36182   0.24383
  24   33119.4    301.9   0.019927959   0.19809   0.05880   0.13114  -0.42123
  25   33466.0    298.8   0.009801571   0.09642   0.04468   0.04400  -0.30412
  26   34169.0    292.7   0.010297578   0.09922  -0.29321  -0.09917  -0.05840
  27   34592.3    289.1   0.248802209   2.36783   0.22894   0.29966  -1.49185
  28   34928.9    286.3   0.476704635   4.49304   1.97667   0.63560   0.42642
  29   35203.1    284.1   0.283162987   2.64808  -1.51762  -0.48806  -0.32668
  30   35707.1    280.1   0.052900408   0.48773  -0.06378  -0.12347   0.68441
  31   35720.3    280.0   0.006468115   0.05961  -0.15744  -0.07832   0.16938
  32   36280.7    275.6   0.300796046   2.72943   0.22809   0.32884  -1.60290
  33   36600.8    273.2   0.105535017   0.94925  -0.90865  -0.29753  -0.18730
  34   37102.4    269.5   0.000010631   0.00009  -0.00937  -0.00242   0.00081
  35   37196.0    268.8   0.000077033   0.00068   0.02550   0.00561   0.00002
  36   37240.0    268.5   0.000187323   0.00166  -0.00869  -0.00292   0.03965
  37   38183.3    261.9   0.023591053   0.20340  -0.42087  -0.13356  -0.09182
  38   38488.8    259.8   0.002834984   0.02425   0.02054   0.02463  -0.15238
  39   38706.4    258.4   0.004111803   0.03497   0.17339   0.05691   0.04085
  40   38939.1    256.8   0.025155084   0.21267   0.06686   0.08134  -0.44899
  41   39633.3    252.3   0.086770153   0.72075   0.78964   0.26152   0.16977
  42   40314.6    248.0   0.000025130   0.00021  -0.00275   0.00202  -0.01391

FINAL SINGLE POINT ENERGY     -5112.111804775407

DIPOLE MOMENT
-------------
                                X             Y             Z
Electronic contribution:     39.18189      13.33296       8.57099
Nuclear contribution   :    -38.48547     -13.18643      -8.43043
                        -----------------------------------------
Total Dipole Moment    :      0.69643       0.14653       0.14056
                        -----------------------------------------
Magnitude (a.u.)       :      0.72542
Magnitude (Debye)      :      1.84388

Rotational constants in cm-1:     0.002592     0.000242     0.000221
Rotational constants in MHz :    77.700522     7.254720     6.636598

                             ****ORCA TERMINATED NORMALLY****
TOTAL RUN TIME: 0 days 0 hours 7 minutes 46 seconds 478 msec
