                         Program Version 4.2.0 -  RELEASE  -
|  1> # ORCA input file
|  2> # SCF done       -189.842714611981          0.000625611911
|  3> ! CAM-B3LYP def2-SVP def2/J RIJCOSX Grid4 TightSCF
|  4> %maxcore 5000
|  5> %tddft
|  6>     Mode sTDDFT
|  7>     Ethresh 5.0
|  8>     maxcore 5000
|  9> end
| 10>
| 11> %pal
| 12>   nprocs 6
| 13>   end
| 14> * xyz 0 1
| 15>    C       -8.34072       -10.99233        -6.71831
| 16>    C       -9.14155       -11.26573        -7.78728
| 17>    S       -8.28168       -11.45819        -9.27328
| 18>    C       -6.80563       -11.14790        -8.46130
| 19>    C       -6.99135       -10.92389        -7.10441
| 20>    C       -5.68044       -10.69835        -6.47712
| 21>    O       -5.42104       -10.51551        -5.30988
| 22>    C       -4.71003       -10.69826        -7.61521
| 23>    C       -5.40748       -11.13465        -8.80917
| 24>    C       -4.89089       -11.66761        -9.96522
| 25>    C       -5.73693       -12.09709       -11.00688
| 26>    N       -6.42000       -12.43063       -11.86705
| 27>    C       -3.52610       -11.92317       -10.18680
| 28>    N       -2.43009       -12.19398       -10.39608
| 29>    C       -3.44361       -10.24166        -7.40089
| 30>    C       -2.48573        -9.77811        -8.32598
| 31>    S       -0.81742        -9.63476        -7.83449
| 32>    C       -0.36704        -8.96147        -9.36410
| 33>    C       -1.47475        -8.82709       -10.18876
| 34>    C       -2.64809        -9.28917        -9.61423
| 35>    C        0.97612        -8.61944        -9.66108
| 36>    C        1.47972        -8.08656       -10.83313
| 37>    C        2.85279        -7.86644       -10.79706
| 38>    C        3.43745        -8.22752        -9.59833
| 39>    S        2.24817        -8.85145        -8.49331
| 40>    C        4.80315        -8.14499        -9.23151
| 41>    S        5.99363        -7.48995       -10.32014
| 42>    C        7.27408        -7.76451        -9.16910
| 43>    C        6.76837        -8.33148        -8.01300
| 44>    C        5.39358        -8.54115        -8.04772
| 45>    C        8.60368        -7.40506        -9.51018
| 46>    C        9.69129        -7.62938        -8.73218
| 47>    C       11.01999        -7.26396        -9.06637
| 48>    N       12.06840        -7.57660        -8.22162
| 49>    C       13.22188        -7.11254        -8.76849
| 50>    C       14.59680        -7.01481        -8.58045
| 51>    C       15.09213        -6.32335        -9.69230
| 52>    N       14.04363        -6.01009       -10.53691
| 53>    C       12.89131        -6.48289        -9.99493
| 54>    C       11.51608        -6.57943       -10.18213
| 55>    C       16.41739        -5.93317       -10.01133
| 56>    C       17.51131        -6.21092        -9.25968
| 57>    C       18.83410        -5.80017        -9.56675
| 58>    S       20.13776        -6.26089        -8.50453
| 59>    C       21.30497        -5.42130        -9.48655
| 60>    C       20.68983        -4.82884       -10.57160
| 61>    C       19.31564        -5.04053       -10.61776
| 62>    C       22.67698        -5.39620        -9.13587
| 63>    C       23.29605        -6.01054        -8.06509
| 64>    C       24.66598        -5.77333        -8.00547
| 65>    C       25.13110        -4.96931        -9.02678
| 66>    S       23.82814        -4.50430       -10.09013
| 67>    C       26.45241        -4.51656        -9.25471
| 68>    S       27.75778        -4.97741        -8.20844
| 69>    C       28.89717        -4.02353        -9.12836
| 70>    C       28.25807        -3.40080       -10.19091
| 71>    C       26.90104        -3.67696       -10.26224
| 72>    C       30.24980        -3.96867        -8.73212
| 73>    C       31.20637        -3.20552        -9.33367
| 74>    C       32.53669        -3.18646        -8.87266
| 75>    C       33.53494        -2.41032        -9.39522
| 76>    C       34.91120        -2.36238        -8.93177
| 77>    C       35.51758        -3.07971        -7.92960
| 78>    C       36.88243        -2.88663        -7.63327
| 79>    N       37.99332        -2.73481        -7.38763
| 80>    C       34.89984        -4.04654        -7.11614
| 81>    N       34.45740        -4.84528        -6.41883
| 82>    C       35.57366        -1.38247        -9.75039
| 83>    C       34.70789        -0.83500       -10.68480
| 84>    C       35.32063         0.13097       -11.50035
| 85>    C       36.63243         0.29219       -11.16439
| 86>    S       37.14985        -0.71831        -9.86218
| 87>    C       33.38033        -1.44986       -10.52399
| 88>    O       32.38228        -1.21883       -11.17466
| 89>    H       -8.69523       -10.85153        -5.71416
| 90>    H      -10.20829       -11.37659        -7.79554
| 91>    H       -3.16818       -10.15986        -6.35351
| 92>    H       -1.41991        -8.41164       -11.17797
| 93>    H       -3.60724        -9.22409       -10.09680
| 94>    H        0.86504        -7.86829       -11.68705
| 95>    H        3.42197        -7.45895       -11.61378
| 96>    H        7.38072        -8.58112        -7.16582
| 97>    H        4.82579        -8.97134        -7.24115
| 98>    H        8.73165        -6.92531       -10.46959
| 99>    H        9.56442        -8.12713        -7.77973
|100>    H       11.97122        -8.07473        -7.35381
|101>    H       15.17766        -7.38215        -7.75927
|102>    H       14.14114        -5.51451       -11.40613
|103>    H       10.93440        -6.20872       -11.00123
|104>    H       16.53604        -5.36973       -10.92751
|105>    H       17.39455        -6.78406        -8.35151
|106>    H       21.23983        -4.26029       -11.30121
|107>    H       18.68526        -4.64726       -11.39425
|108>    H       22.75357        -6.61000        -7.35574
|109>    H       25.31560        -6.16611        -7.24328
|110>    H       28.77454        -2.76744       -10.88874
|111>    H       26.23962        -3.28500       -11.01488
|112>    H       30.52607        -4.57422        -7.87717
|113>    H       30.95707        -2.58250       -10.17784
|114>    H       32.77061        -3.83113        -8.03407
|115>    H       34.82325         0.67291       -12.28325
|116>    H       37.34554         0.95781       -11.61037
|117> *
|118>
|119>                          ****END OF INPUT****

CARTESIAN COORDINATES (ANGSTROEM)
---------------------------------
  C     -8.340720  -10.992330   -6.718310
  C     -9.141550  -11.265730   -7.787280
  S     -8.281680  -11.458190   -9.273280
  C     -6.805630  -11.147900   -8.461300
  C     -6.991350  -10.923890   -7.104410
  C     -5.680440  -10.698350   -6.477120
  O     -5.421040  -10.515510   -5.309880
  C     -4.710030  -10.698260   -7.615210
  C     -5.407480  -11.134650   -8.809170
  C     -4.890890  -11.667610   -9.965220
  C     -5.736930  -12.097090  -11.006880
  N     -6.420000  -12.430630  -11.867050
  C     -3.526100  -11.923170  -10.186800
  N     -2.430090  -12.193980  -10.396080
  C     -3.443610  -10.241660   -7.400890
  C     -2.485730   -9.778110   -8.325980
  S     -0.817420   -9.634760   -7.834490
  C     -0.367040   -8.961470   -9.364100
  C     -1.474750   -8.827090  -10.188760
  C     -2.648090   -9.289170   -9.614230
  C      0.976120   -8.619440   -9.661080
  C      1.479720   -8.086560  -10.833130
  C      2.852790   -7.866440  -10.797060
  C      3.437450   -8.227520   -9.598330
  S      2.248170   -8.851450   -8.493310
  C      4.803150   -8.144990   -9.231510
  S      5.993630   -7.489950  -10.320140
  C      7.274080   -7.764510   -9.169100
  C      6.768370   -8.331480   -8.013000
  C      5.393580   -8.541150   -8.047720
  C      8.603680   -7.405060   -9.510180
  C      9.691290   -7.629380   -8.732180
  C     11.019990   -7.263960   -9.066370
  N     12.068400   -7.576600   -8.221620
  C     13.221880   -7.112540   -8.768490
  C     14.596800   -7.014810   -8.580450
  C     15.092130   -6.323350   -9.692300
  N     14.043630   -6.010090  -10.536910
  C     12.891310   -6.482890   -9.994930
  C     11.516080   -6.579430  -10.182130
  C     16.417390   -5.933170  -10.011330
  C     17.511310   -6.210920   -9.259680
  C     18.834100   -5.800170   -9.566750
  S     20.137760   -6.260890   -8.504530
  C     21.304970   -5.421300   -9.486550
  C     20.689830   -4.828840  -10.571600
  C     19.315640   -5.040530  -10.617760
  C     22.676980   -5.396200   -9.135870
  C     23.296050   -6.010540   -8.065090
  C     24.665980   -5.773330   -8.005470
  C     25.131100   -4.969310   -9.026780
  S     23.828140   -4.504300  -10.090130
  C     26.452410   -4.516560   -9.254710
  S     27.757780   -4.977410   -8.208440
  C     28.897170   -4.023530   -9.128360
  C     28.258070   -3.400800  -10.190910
  C     26.901040   -3.676960  -10.262240
  C     30.249800   -3.968670   -8.732120
  C     31.206370   -3.205520   -9.333670
  C     32.536690   -3.186460   -8.872660
  C     33.534940   -2.410320   -9.395220
  C     34.911200   -2.362380   -8.931770
  C     35.517580   -3.079710   -7.929600
  C     36.882430   -2.886630   -7.633270
  N     37.993320   -2.734810   -7.387630
  C     34.899840   -4.046540   -7.116140
  N     34.457400   -4.845280   -6.418830
  C     35.573660   -1.382470   -9.750390
  C     34.707890   -0.835000  -10.684800
  C     35.320630    0.130970  -11.500350
  C     36.632430    0.292190  -11.164390
  S     37.149850   -0.718310   -9.862180
  C     33.380330   -1.449860  -10.523990
  O     32.382280   -1.218830  -11.174660
  H     -8.695230  -10.851530   -5.714160
  H    -10.208290  -11.376590   -7.795540
  H     -3.168180  -10.159860   -6.353510
  H     -1.419910   -8.411640  -11.177970
  H     -3.607240   -9.224090  -10.096800
  H      0.865040   -7.868290  -11.687050
  H      3.421970   -7.458950  -11.613780
  H      7.380720   -8.581120   -7.165820
  H      4.825790   -8.971340   -7.241150
  H      8.731650   -6.925310  -10.469590
  H      9.564420   -8.127130   -7.779730
  H     11.971220   -8.074730   -7.353810
  H     15.177660   -7.382150   -7.759270
  H     14.141140   -5.514510  -11.406130
  H     10.934400   -6.208720  -11.001230
  H     16.536040   -5.369730  -10.927510
  H     17.394550   -6.784060   -8.351510
  H     21.239830   -4.260290  -11.301210
  H     18.685260   -4.647260  -11.394250
  H     22.753570   -6.610000   -7.355740
  H     25.315600   -6.166110   -7.243280
  H     28.774540   -2.767440  -10.888740
  H     26.239620   -3.285000  -11.014880
  H     30.526070   -4.574220   -7.877170
  H     30.957070   -2.582500  -10.177840
  H     32.770610   -3.831130   -8.034070
  H     34.823250    0.672910  -12.283250
  H     37.345540    0.957810  -11.610370

 Total Charge           Charge          ....    0
 Multiplicity           Mult            ....    1
 Number of Electrons    NEL             ....  562
 Basis Dimension        Dim             .... 1208

ORBITAL ENERGIES
----------------

  NO   OCC          E(Eh)            E(eV)
   0   2.0000     -88.983678     -2421.3690
   1   2.0000     -88.981211     -2421.3018
   2   2.0000     -88.965665     -2420.8788
   3   2.0000     -88.965466     -2420.8734
   4   2.0000     -88.962660     -2420.7971
   5   2.0000     -88.962224     -2420.7852
   6   2.0000     -88.956622     -2420.6327
   7   2.0000     -88.956328     -2420.6248
   8   2.0000     -19.212458      -522.7976
   9   2.0000     -19.211478      -522.7709
  10   2.0000     -14.456986      -393.3946
  11   2.0000     -14.456862      -393.3912
  12   2.0000     -14.412435      -392.1823
  13   2.0000     -14.411289      -392.1511
  14   2.0000     -14.410007      -392.1162
  15   2.0000     -14.408787      -392.0830
  16   2.0000     -10.366585      -282.0891
  17   2.0000     -10.365781      -282.0673
  18   2.0000     -10.344695      -281.4935
  19   2.0000     -10.340677      -281.3841
  20   2.0000     -10.339247      -281.3452
  21   2.0000     -10.335986      -281.2565
  22   2.0000     -10.322858      -280.8993
  23   2.0000     -10.322755      -280.8965
  24   2.0000     -10.321066      -280.8505
  25   2.0000     -10.319568      -280.8097
  26   2.0000     -10.316128      -280.7161
  27   2.0000     -10.315278      -280.6930
  28   2.0000     -10.314558      -280.6734
  29   2.0000     -10.314370      -280.6683
  30   2.0000     -10.314169      -280.6628
  31   2.0000     -10.314088      -280.6606
  32   2.0000     -10.314055      -280.6597
  33   2.0000     -10.311599      -280.5929
  34   2.0000     -10.310982      -280.5761
  35   2.0000     -10.310650      -280.5671
  36   2.0000     -10.310627      -280.5664
  37   2.0000     -10.308708      -280.5142
  38   2.0000     -10.308169      -280.4995
  39   2.0000     -10.306025      -280.4412
  40   2.0000     -10.305964      -280.4395
  41   2.0000     -10.305515      -280.4273
  42   2.0000     -10.305274      -280.4208
  43   2.0000     -10.304417      -280.3974
  44   2.0000     -10.304344      -280.3955
  45   2.0000     -10.304015      -280.3865
  46   2.0000     -10.303857      -280.3822
  47   2.0000     -10.295085      -280.1435
  48   2.0000     -10.293420      -280.0982
  49   2.0000     -10.292849      -280.0827
  50   2.0000     -10.292072      -280.0615
  51   2.0000     -10.291670      -280.0506
  52   2.0000     -10.291386      -280.0428
  53   2.0000     -10.290931      -280.0305
  54   2.0000     -10.290599      -280.0214
  55   2.0000     -10.289190      -279.9831
  56   2.0000     -10.287986      -279.9503
  57   2.0000     -10.284546      -279.8567
  58   2.0000     -10.284354      -279.8515
  59   2.0000     -10.284073      -279.8439
  60   2.0000     -10.283689      -279.8334
  61   2.0000     -10.283383      -279.8251
  62   2.0000     -10.281409      -279.7714
  63   2.0000     -10.280169      -279.7376
  64   2.0000     -10.280032      -279.7339
  65   2.0000     -10.278991      -279.7056
  66   2.0000     -10.278574      -279.6942
  67   2.0000     -10.278423      -279.6901
  68   2.0000     -10.278077      -279.6807
  69   2.0000     -10.276290      -279.6321
  70   2.0000     -10.273462      -279.5551
  71   2.0000     -10.273011      -279.5428
  72   2.0000     -10.262532      -279.2577
  73   2.0000     -10.262447      -279.2554
  74   2.0000      -8.078335      -219.8227
  75   2.0000      -8.075844      -219.7549
  76   2.0000      -8.061325      -219.3598
  77   2.0000      -8.061296      -219.3590
  78   2.0000      -8.058104      -219.2722
  79   2.0000      -8.057965      -219.2684
  80   2.0000      -8.052327      -219.1150
  81   2.0000      -8.052054      -219.1075
  82   2.0000      -6.047670      -164.5655
  83   2.0000      -6.045156      -164.4971
  84   2.0000      -6.043040      -164.4395
  85   2.0000      -6.040893      -164.3810
  86   2.0000      -6.040560      -164.3720
  87   2.0000      -6.038395      -164.3131
  88   2.0000      -6.030570      -164.1002
  89   2.0000      -6.030555      -164.0998
  90   2.0000      -6.027488      -164.0163
  91   2.0000      -6.027337      -164.0122
  92   2.0000      -6.026555      -163.9909
  93   2.0000      -6.026445      -163.9879
  94   2.0000      -6.023453      -163.9065
  95   2.0000      -6.023404      -163.9052
  96   2.0000      -6.023397      -163.9050
  97   2.0000      -6.023239      -163.9007
  98   2.0000      -6.021605      -163.8562
  99   2.0000      -6.021347      -163.8492
 100   2.0000      -6.019961      -163.8115
 101   2.0000      -6.019843      -163.8082
 102   2.0000      -6.017612      -163.7476
 103   2.0000      -6.017334      -163.7400
 104   2.0000      -6.014341      -163.6585
 105   2.0000      -6.014050      -163.6506
 106   2.0000      -1.126630       -30.6572
 107   2.0000      -1.126499       -30.6536
 108   2.0000      -1.088199       -29.6114
 109   2.0000      -1.052027       -28.6271
 110   2.0000      -1.024513       -27.8784
 111   2.0000      -1.021785       -27.8042
 112   2.0000      -1.005746       -27.3677
 113   2.0000      -1.004584       -27.3361
 114   2.0000      -1.002427       -27.2774
 115   2.0000      -1.001700       -27.2576
 116   2.0000      -0.991971       -26.9929
 117   2.0000      -0.990544       -26.9541
 118   2.0000      -0.988330       -26.8938
 119   2.0000      -0.987986       -26.8845
 120   2.0000      -0.972811       -26.4715
 121   2.0000      -0.972766       -26.4703
 122   2.0000      -0.956484       -26.0273
 123   2.0000      -0.955851       -26.0100
 124   2.0000      -0.918228       -24.9862
 125   2.0000      -0.906279       -24.6611
 126   2.0000      -0.903836       -24.5946
 127   2.0000      -0.901475       -24.5304
 128   2.0000      -0.895543       -24.3690
 129   2.0000      -0.889480       -24.2040
 130   2.0000      -0.878067       -23.8934
 131   2.0000      -0.868672       -23.6378
 132   2.0000      -0.863659       -23.5013
 133   2.0000      -0.858337       -23.3565
 134   2.0000      -0.852555       -23.1992
 135   2.0000      -0.849490       -23.1158
 136   2.0000      -0.848048       -23.0766
 137   2.0000      -0.847487       -23.0613
 138   2.0000      -0.843147       -22.9432
 139   2.0000      -0.838379       -22.8135
 140   2.0000      -0.836007       -22.7489
 141   2.0000      -0.828877       -22.5549
 142   2.0000      -0.827082       -22.5061
 143   2.0000      -0.822615       -22.3845
 144   2.0000      -0.811835       -22.0911
 145   2.0000      -0.793708       -21.5979
 146   2.0000      -0.784083       -21.3360
 147   2.0000      -0.769191       -20.9307
 148   2.0000      -0.763598       -20.7786
 149   2.0000      -0.758038       -20.6273
 150   2.0000      -0.748067       -20.3559
 151   2.0000      -0.743169       -20.2227
 152   2.0000      -0.735137       -20.0041
 153   2.0000      -0.708093       -19.2682
 154   2.0000      -0.699819       -19.0430
 155   2.0000      -0.698249       -19.0003
 156   2.0000      -0.695930       -18.9372
 157   2.0000      -0.692464       -18.8429
 158   2.0000      -0.687490       -18.7076
 159   2.0000      -0.684933       -18.6380
 160   2.0000      -0.676746       -18.4152
 161   2.0000      -0.674379       -18.3508
 162   2.0000      -0.666138       -18.1265
 163   2.0000      -0.664510       -18.0822
 164   2.0000      -0.661516       -18.0008
 165   2.0000      -0.660309       -17.9679
 166   2.0000      -0.652490       -17.7552
 167   2.0000      -0.648635       -17.6502
 168   2.0000      -0.633623       -17.2418
 169   2.0000      -0.630700       -17.1622
 170   2.0000      -0.627052       -17.0629
 171   2.0000      -0.623553       -16.9677
 172   2.0000      -0.619416       -16.8552
 173   2.0000      -0.618382       -16.8270
 174   2.0000      -0.616486       -16.7754
 175   2.0000      -0.615669       -16.7532
 176   2.0000      -0.615166       -16.7395
 177   2.0000      -0.613251       -16.6874
 178   2.0000      -0.604212       -16.4414
 179   2.0000      -0.601428       -16.3657
 180   2.0000      -0.592997       -16.1363
 181   2.0000      -0.589824       -16.0499
 182   2.0000      -0.587718       -15.9926
 183   2.0000      -0.584657       -15.9093
 184   2.0000      -0.572609       -15.5815
 185   2.0000      -0.560791       -15.2599
 186   2.0000      -0.553868       -15.0715
 187   2.0000      -0.551476       -15.0064
 188   2.0000      -0.548742       -14.9320
 189   2.0000      -0.545322       -14.8390
 190   2.0000      -0.538407       -14.6508
 191   2.0000      -0.536617       -14.6021
 192   2.0000      -0.536396       -14.5961
 193   2.0000      -0.533285       -14.5114
 194   2.0000      -0.531284       -14.4570
 195   2.0000      -0.526611       -14.3298
 196   2.0000      -0.524351       -14.2683
 197   2.0000      -0.522134       -14.2080
 198   2.0000      -0.519386       -14.1332
 199   2.0000      -0.516983       -14.0678
 200   2.0000      -0.511543       -13.9198
 201   2.0000      -0.508426       -13.8350
 202   2.0000      -0.507562       -13.8115
 203   2.0000      -0.506112       -13.7720
 204   2.0000      -0.502630       -13.6772
 205   2.0000      -0.501011       -13.6332
 206   2.0000      -0.498986       -13.5781
 207   2.0000      -0.497948       -13.5498
 208   2.0000      -0.495704       -13.4888
 209   2.0000      -0.493288       -13.4230
 210   2.0000      -0.492109       -13.3910
 211   2.0000      -0.490433       -13.3454
 212   2.0000      -0.488925       -13.3043
 213   2.0000      -0.488048       -13.2805
 214   2.0000      -0.486396       -13.2355
 215   2.0000      -0.485094       -13.2001
 216   2.0000      -0.478170       -13.0117
 217   2.0000      -0.476225       -12.9587
 218   2.0000      -0.475495       -12.9389
 219   2.0000      -0.474575       -12.9139
 220   2.0000      -0.472431       -12.8555
 221   2.0000      -0.471384       -12.8270
 222   2.0000      -0.468939       -12.7605
 223   2.0000      -0.467713       -12.7271
 224   2.0000      -0.465918       -12.6783
 225   2.0000      -0.465732       -12.6732
 226   2.0000      -0.462804       -12.5935
 227   2.0000      -0.460482       -12.5303
 228   2.0000      -0.457197       -12.4410
 229   2.0000      -0.455322       -12.3899
 230   2.0000      -0.451984       -12.2991
 231   2.0000      -0.451117       -12.2755
 232   2.0000      -0.449107       -12.2208
 233   2.0000      -0.445471       -12.1219
 234   2.0000      -0.444777       -12.1030
 235   2.0000      -0.443334       -12.0637
 236   2.0000      -0.442909       -12.0522
 237   2.0000      -0.441862       -12.0237
 238   2.0000      -0.438946       -11.9443
 239   2.0000      -0.436858       -11.8875
 240   2.0000      -0.436468       -11.8769
 241   2.0000      -0.434620       -11.8266
 242   2.0000      -0.429199       -11.6791
 243   2.0000      -0.427130       -11.6228
 244   2.0000      -0.423811       -11.5325
 245   2.0000      -0.421911       -11.4808
 246   2.0000      -0.421813       -11.4781
 247   2.0000      -0.419738       -11.4217
 248   2.0000      -0.419316       -11.4102
 249   2.0000      -0.418931       -11.3997
 250   2.0000      -0.415385       -11.3032
 251   2.0000      -0.411405       -11.1949
 252   2.0000      -0.409546       -11.1443
 253   2.0000      -0.406567       -11.0632
 254   2.0000      -0.406323       -11.0566
 255   2.0000      -0.404585       -11.0093
 256   2.0000      -0.397929       -10.8282
 257   2.0000      -0.392544       -10.6817
 258   2.0000      -0.375349       -10.2138
 259   2.0000      -0.366145        -9.9633
 260   2.0000      -0.351777        -9.5723
 261   2.0000      -0.342005        -9.3064
 262   2.0000      -0.340392        -9.2625
 263   2.0000      -0.338998        -9.2246
 264   2.0000      -0.336997        -9.1702
 265   2.0000      -0.336647        -9.1606
 266   2.0000      -0.333480        -9.0745
 267   2.0000      -0.331890        -9.0312
 268   2.0000      -0.331184        -9.0120
 269   2.0000      -0.328546        -8.9402
 270   2.0000      -0.324704        -8.8357
 271   2.0000      -0.323300        -8.7975
 272   2.0000      -0.318147        -8.6572
 273   2.0000      -0.303607        -8.2616
 274   2.0000      -0.301417        -8.2020
 275   2.0000      -0.294627        -8.0172
 276   2.0000      -0.287865        -7.8332
 277   2.0000      -0.276822        -7.5327
 278   2.0000      -0.252376        -6.8675
 279   2.0000      -0.237501        -6.4627
 280   2.0000      -0.207176        -5.6376
 281   0.0000      -0.088900        -2.4191
 282   0.0000      -0.085885        -2.3370
 283   0.0000      -0.066797        -1.8176
 284   0.0000      -0.063326        -1.7232
 285   0.0000      -0.050433        -1.3724

MULLIKEN ATOMIC CHARGES
-----------------------
   0 C :    0.019237
   1 C :   -0.058661
   2 S :    0.213637
   3 C :   -0.177050
   4 C :    0.026225
   5 C :    0.141822
   6 O :   -0.141132
   7 C :   -0.147391
   8 C :    0.238558
   9 C :   -0.334651
  10 C :   -0.196910
  11 N :    0.157523
  12 C :   -0.209744
  13 N :    0.179260
  14 C :    0.084741
  15 C :   -0.113883
  16 S :    0.150630
  17 C :   -0.018883
  18 C :   -0.015124
  19 C :    0.062788
  20 C :   -0.042043
  21 C :    0.013650
  22 C :   -0.015988
  23 C :   -0.019500
  24 S :    0.126931
  25 C :   -0.054409
  26 S :    0.118661
  27 C :   -0.062402
  28 C :    0.005534
  29 C :   -0.004958
  30 C :    0.044008
  31 C :    0.009573
  32 C :    0.103016
  33 N :   -0.037014
  34 C :    0.114369
  35 C :   -0.179626
  36 C :    0.102956
  37 N :   -0.037089
  38 C :    0.113851
  39 C :   -0.179627
  40 C :    0.009366
  41 C :    0.043217
  42 C :   -0.061284
  43 S :    0.118374
  44 C :   -0.055774
  45 C :   -0.004197
  46 C :    0.003760
  47 C :   -0.021535
  48 C :   -0.012438
  49 C :   -0.001539
  50 C :   -0.038786
  51 S :    0.118963
  52 C :   -0.035461
  53 S :    0.139572
  54 C :   -0.090010
  55 C :    0.039442
  56 C :   -0.015611
  57 C :    0.094417
  58 C :   -0.019537
  59 C :   -0.040678
  60 C :   -0.087332
  61 C :    0.268303
  62 C :   -0.337564
  63 C :   -0.207754
  64 N :    0.155411
  65 C :   -0.184333
  66 N :    0.142730
  67 C :   -0.161224
  68 C :    0.019843
  69 C :    0.015426
  70 C :   -0.055110
  71 S :    0.215881
  72 C :    0.158748
  73 O :   -0.152333
  74 H :    0.004945
  75 H :    0.042202
  76 H :    0.023198
  77 H :   -0.014325
  78 H :    0.001644
  79 H :   -0.014880
  80 H :   -0.010871
  81 H :   -0.023736
  82 H :   -0.011706
  83 H :   -0.022974
  84 H :   -0.035018
  85 H :    0.119136
  86 H :   -0.037672
  87 H :    0.118912
  88 H :   -0.037742
  89 H :   -0.035432
  90 H :   -0.022586
  91 H :   -0.013692
  92 H :   -0.024191
  93 H :   -0.010089
  94 H :   -0.007990
  95 H :    0.001968
  96 H :   -0.007058
  97 H :    0.002826
  98 H :    0.021917
  99 H :    0.007514
 100 H :    0.002850
 101 H :    0.041009
Sum of atomic charges:   -0.0000000

LOEWDIN ATOMIC CHARGES
----------------------
   0 C :   -0.036442
   1 C :   -0.157136
   2 S :    0.503947
   3 C :   -0.175261
   4 C :   -0.072197
   5 C :    0.081773
   6 O :   -0.141691
   7 C :   -0.102459
   8 C :    0.053605
   9 C :   -0.149345
  10 C :   -0.036291
  11 N :   -0.050566
  12 C :   -0.022461
  13 N :   -0.040762
  14 C :    0.046220
  15 C :   -0.193470
  16 S :    0.450347
  17 C :   -0.154084
  18 C :   -0.053980
  19 C :   -0.007932
  20 C :   -0.195436
  21 C :   -0.035496
  22 C :   -0.066631
  23 C :   -0.167387
  24 S :    0.433197
  25 C :   -0.195118
  26 S :    0.430825
  27 C :   -0.159184
  28 C :   -0.063534
  29 C :   -0.052429
  30 C :   -0.052773
  31 C :   -0.025420
  32 C :   -0.004399
  33 N :    0.068375
  34 C :   -0.021172
  35 C :   -0.094471
  36 C :   -0.004562
  37 N :    0.068176
  38 C :   -0.021220
  39 C :   -0.094629
  40 C :   -0.025683
  41 C :   -0.053047
  42 C :   -0.159477
  43 S :    0.430677
  44 C :   -0.195043
  45 C :   -0.054139
  46 C :   -0.064020
  47 C :   -0.169222
  48 C :   -0.065707
  49 C :   -0.047432
  50 C :   -0.192506
  51 S :    0.435198
  52 C :   -0.163782
  53 S :    0.445241
  54 C :   -0.185849
  55 C :   -0.020466
  56 C :   -0.065288
  57 C :    0.015407
  58 C :   -0.040749
  59 C :    0.062151
  60 C :   -0.103337
  61 C :    0.063157
  62 C :   -0.149166
  63 C :   -0.034745
  64 N :   -0.052291
  65 C :   -0.021564
  66 N :   -0.056132
  67 C :   -0.176974
  68 C :   -0.069094
  69 C :   -0.037774
  70 C :   -0.156374
  71 S :    0.506149
  72 C :    0.084407
  73 O :   -0.146973
  74 H :    0.041824
  75 H :    0.029580
  76 H :    0.045613
  77 H :    0.032282
  78 H :    0.035257
  79 H :    0.032109
  80 H :    0.027917
  81 H :    0.026539
  82 H :    0.027031
  83 H :    0.026236
  84 H :    0.025400
  85 H :    0.087804
  86 H :    0.022203
  87 H :    0.087655
  88 H :    0.022173
  89 H :    0.025181
  90 H :    0.026255
  91 H :    0.026147
  92 H :    0.026294
  93 H :    0.027889
  94 H :    0.028936
  95 H :    0.038471
  96 H :    0.028522
  97 H :    0.035535
  98 H :    0.031377
  99 H :    0.041412
 100 H :    0.040974
 101 H :    0.029304

  Mayer bond orders larger than 0.100000
B(  0-C ,  1-C ) :   1.5483 B(  0-C ,  4-C ) :   1.2737 B(  0-C , 74-H ) :   1.0070
B(  1-C ,  2-S ) :   1.1645 B(  1-C , 75-H ) :   0.9687 B(  2-S ,  3-C ) :   1.1513
B(  3-C ,  4-C ) :   1.4490 B(  3-C ,  8-C ) :   1.0857 B(  4-C ,  5-C ) :   0.9382
B(  5-C ,  6-O ) :   2.2585 B(  5-C ,  7-C ) :   0.9415 B(  7-C ,  8-C ) :   1.0494
B(  7-C , 14-C ) :   1.6698 B(  8-C ,  9-C ) :   1.6317 B(  9-C , 10-C ) :   1.1280
B(  9-C , 12-C ) :   1.1660 B( 10-C , 11-N ) :   3.0092 B( 12-C , 13-N ) :   3.0103
B( 14-C , 15-C ) :   1.1465 B( 14-C , 76-H ) :   0.9280 B( 15-C , 16-S ) :   1.0946
B( 15-C , 17-C ) :   0.1020 B( 15-C , 19-C ) :   1.4255 B( 16-S , 17-C ) :   1.1579
B( 17-C , 18-C ) :   1.4669 B( 17-C , 20-C ) :   1.1286 B( 18-C , 19-C ) :   1.3349
B( 18-C , 77-H ) :   0.9949 B( 19-C , 78-H ) :   0.9882 B( 20-C , 21-C ) :   1.5093
B( 20-C , 23-C ) :   0.1048 B( 20-C , 24-S ) :   1.1036 B( 21-C , 22-C ) :   1.2811
B( 21-C , 79-H ) :   0.9947 B( 22-C , 23-C ) :   1.4823 B( 22-C , 80-H ) :   0.9925
B( 23-C , 24-S ) :   1.1340 B( 23-C , 25-C ) :   1.1655 B( 25-C , 26-S ) :   1.1168
B( 25-C , 29-C ) :   1.4825 B( 26-S , 27-C ) :   1.1189 B( 27-C , 28-C ) :   1.4859
B( 27-C , 30-C ) :   1.1208 B( 28-C , 29-C ) :   1.2894 B( 28-C , 81-H ) :   0.9916
B( 29-C , 82-H ) :   0.9910 B( 30-C , 31-C ) :   1.6893 B( 30-C , 83-H ) :   0.9620
B( 31-C , 32-C ) :   1.1204 B( 31-C , 84-H ) :   0.9602 B( 32-C , 33-N ) :   1.1663
B( 32-C , 39-C ) :   1.4040 B( 33-N , 34-C ) :   1.1669 B( 33-N , 85-H ) :   0.9370
B( 34-C , 35-C ) :   1.2597 B( 34-C , 38-C ) :   1.3127 B( 35-C , 36-C ) :   1.4036
B( 35-C , 86-H ) :   1.0309 B( 36-C , 37-N ) :   1.1660 B( 36-C , 40-C ) :   1.1209
B( 37-N , 38-C ) :   1.1668 B( 37-N , 87-H ) :   0.9370 B( 38-C , 39-C ) :   1.2595
B( 39-C , 88-H ) :   1.0309 B( 40-C , 41-C ) :   1.6883 B( 40-C , 89-H ) :   0.9605
B( 41-C , 42-C ) :   1.1215 B( 41-C , 90-H ) :   0.9622 B( 42-C , 43-S ) :   1.1178
B( 42-C , 46-C ) :   1.4861 B( 43-S , 44-C ) :   1.1177 B( 44-C , 45-C ) :   1.4833
B( 44-C , 47-C ) :   1.1628 B( 45-C , 46-C ) :   1.2883 B( 45-C , 91-H ) :   0.9913
B( 46-C , 92-H ) :   0.9916 B( 47-C , 48-C ) :   1.4894 B( 47-C , 51-S ) :   1.1280
B( 48-C , 49-C ) :   1.2786 B( 48-C , 93-H ) :   0.9935 B( 49-C , 50-C ) :   1.4911
B( 49-C , 94-H ) :   0.9926 B( 50-C , 51-S ) :   1.1074 B( 50-C , 52-C ) :   1.1688
B( 52-C , 53-S ) :   1.1524 B( 52-C , 56-C ) :   1.4479 B( 53-S , 54-C ) :   1.0941
B( 54-C , 55-C ) :   1.4555 B( 54-C , 57-C ) :   1.1398 B( 55-C , 56-C ) :   1.3148
B( 55-C , 95-H ) :   0.9936 B( 56-C , 96-H ) :   0.9921 B( 57-C , 58-C ) :   1.5685
B( 57-C , 97-H ) :   0.9720 B( 58-C , 59-C ) :   1.1893 B( 58-C , 98-H ) :   0.9766
B( 59-C , 60-C ) :   1.5394 B( 59-C , 99-H ) :   0.9659 B( 60-C , 61-C ) :   1.0787
B( 60-C , 72-C ) :   0.9400 B( 61-C , 62-C ) :   1.6215 B( 61-C , 67-C ) :   1.0880
B( 62-C , 63-C ) :   1.1425 B( 62-C , 65-C ) :   1.1492 B( 63-C , 64-N ) :   3.0022
B( 65-C , 66-N ) :   2.9645 B( 67-C , 68-C ) :   1.4496 B( 67-C , 71-S ) :   1.1422
B( 68-C , 69-C ) :   1.2694 B( 68-C , 72-C ) :   0.9636 B( 69-C , 70-C ) :   1.5431
B( 69-C ,100-H ) :   1.0076 B( 70-C , 71-S ) :   1.1668 B( 70-C ,101-H ) :   0.9687
B( 72-C , 73-O ) :   2.1903

-----------------------------------------------------------------------------
         ABSORPTION SPECTRUM VIA TRANSITION ELECTRIC DIPOLE MOMENTS
-----------------------------------------------------------------------------
State   Energy  Wavelength   fosc         T2         TX        TY        TZ
        (cm-1)    (nm)                  (au**2)     (au)      (au)      (au)
-----------------------------------------------------------------------------
   0   15039.4    664.9   4.159505777  91.05154   9.33277   1.98746  -0.03178
   1   16681.5    599.5   0.030281728   0.59762  -0.72542   0.12294  -0.23722
   2   19814.1    504.7   0.166436941   2.76536  -1.62590   0.16261   0.30882
   3   21289.6    469.7   0.116867860   1.80719   1.33704   0.12857   0.05464
   4   22092.2    452.6   0.761470572  11.34725  -3.23608  -0.92955  -0.10471
   5   22449.3    445.4   0.063434015   0.93024   0.92074   0.27205  -0.09201
   6   23452.7    426.4   0.052938320   0.74311  -0.53342  -0.52856   0.42332
   7   25721.6    388.8   0.005662876   0.07248   0.21388   0.01401  -0.16290
   8   26848.8    372.5   0.221997308   2.72206   1.54003   0.48535  -0.33884
   9   26983.4    370.6   0.039391212   0.48059   0.69311  -0.00798  -0.01150
  10   28071.1    356.2   0.052239699   0.61266   0.73785   0.16574   0.20190
  11   28443.9    351.6   0.018522332   0.21438  -0.25874  -0.38192  -0.03963
  12   29303.8    341.3   0.001620575   0.01821  -0.07538   0.07914   0.07913
  13   30390.5    329.1   0.108801268   1.17862  -0.59746   0.00048   0.90645
  14   30632.8    326.4   0.148561833   1.59660   0.75743  -1.00734   0.09040
  15   30992.8    322.7   0.000438419   0.00466   0.01299  -0.04038   0.05346
  16   31031.6    322.3   0.014291511   0.15162  -0.34962  -0.00691  -0.17127
  17   31153.0    321.0   0.038157860   0.40324  -0.25279   0.12008   0.57001
  18   31622.6    316.2   0.272863492   2.84069  -1.05972  -0.69557   1.11079
  19   32174.5    310.8   0.026899165   0.27523   0.15075   0.45833  -0.20602
  20   32467.1    308.0   0.094124077   0.95441   0.83016   0.39540  -0.32999
  21   33033.5    302.7   0.003002994   0.02993   0.05259  -0.08862  -0.13896
  22   33240.5    300.8   0.139376237   1.38037  -0.76009   0.62855  -0.63841
  23   33405.9    299.3   0.159125901   1.56817   0.60731  -0.16306  -1.08294
  24   33632.4    297.3   0.160719094   1.57320  -0.99601  -0.35540   0.67444
  25   33868.4    295.3   0.031259842   0.30386  -0.11572  -0.34737   0.41207
  26   34529.5    289.6   0.364306663   3.47338   0.20972  -1.20382   1.40720
  27   34758.3    287.7   0.024058559   0.22787  -0.45911  -0.07372   0.10796
  28   35057.6    285.2   0.196155250   1.84201  -0.91461   0.14504   0.99220
  29   35980.9    277.9   0.006501929   0.05949  -0.03008   0.13186   0.20298
  30   36010.5    277.7   0.069933931   0.63934   0.77950   0.07807  -0.16007
  31   36461.5    274.3   0.013686824   0.12358  -0.30415  -0.07762   0.15825
  32   36618.7    273.1   0.015054769   0.13535   0.28405  -0.03536  -0.23111
  33   37262.0    268.4   0.052545227   0.46424  -0.59888  -0.25076  -0.20664
  34   37425.1    267.2   0.022040958   0.19388   0.24690  -0.25051   0.26489
  35   37488.0    266.8   0.109836767   0.96456   0.38175  -0.50200   0.75288
  36   37526.7    266.5   0.155818158   1.36695  -0.37367   0.32626   1.05871
  37   37697.0    265.3   0.030877349   0.26966  -0.11742   0.12517  -0.49010
  38   38076.9    262.6   0.037478016   0.32403  -0.33127  -0.31751   0.33688
  39   38334.7    260.9   0.010638233   0.09136   0.27974   0.00525   0.11437
  40   38566.4    259.3   0.015214892   0.12988  -0.21302   0.17781  -0.22996
  41   38862.9    257.3   0.019291105   0.16342  -0.33930  -0.00046  -0.21976
  42   39352.1    254.1   0.070554534   0.59025  -0.57397  -0.34409   0.37738
  43   39479.0    253.3   0.010097497   0.08420  -0.25892  -0.09886  -0.08597
  44   39669.6    252.1   0.006930417   0.05751  -0.03285  -0.16796   0.16800
  45   40102.3    249.4   0.053795317   0.44162   0.14309  -0.34251   0.55121
  46   40240.7    248.5   0.016663086   0.13632  -0.32594   0.08345  -0.15205
  47   40321.7    248.0   0.007190710   0.05871  -0.18200   0.00395  -0.15991

FINAL SINGLE POINT ENERGY     -5886.939135798122

DIPOLE MOMENT
-------------
                                X             Y             Z
Electronic contribution:    -10.78203      -9.14359       5.76817
Nuclear contribution   :      8.63557      11.20629      -6.78577
                        -----------------------------------------
Total Dipole Moment    :     -2.14646       2.06270      -1.01761
                        -----------------------------------------
Magnitude (a.u.)       :      3.14603
Magnitude (Debye)      :      7.99658

Rotational constants in cm-1:     0.006345     0.000064     0.000063
Rotational constants in MHz :   190.226789     1.911205     1.900697

                             ****ORCA TERMINATED NORMALLY****
TOTAL RUN TIME: 0 days 0 hours 10 minutes 7 seconds 407 msec
