                         Program Version 4.2.0 -  RELEASE  -
|  1> # ORCA input file
|  2> # SCF done       -182.149491966025          0.000536680369
|  3> ! CAM-B3LYP def2-SVP def2/J RIJCOSX Grid4 TightSCF
|  4> %maxcore 5000
|  5> %tddft
|  6>     Mode sTDDFT
|  7>     Ethresh 5.0
|  8>     maxcore 5000
|  9> end
| 10>
| 11> %pal
| 12>   nprocs 6
| 13>   end
| 14> * xyz 0 1
| 15>    C       -2.67049        -1.13609        -0.03459
| 16>    C       -2.56496        -0.20065        -1.02163
| 17>    S       -1.10223        -0.30430        -1.93263
| 18>    C       -0.59237        -1.62319        -0.96760
| 19>    C       -1.53306        -1.95962        -0.00013
| 20>    C       -1.04116        -3.11021         0.76336
| 21>    O       -1.58275        -3.73271         1.64505
| 22>    C        0.34876        -3.34548         0.24074
| 23>    C        0.53455        -2.51766        -0.94448
| 24>    C        1.42725        -2.66019        -1.97596
| 25>    C        1.37735        -1.80561        -3.09919
| 26>    N        1.34150        -1.11700        -4.01543
| 27>    C        2.38804        -3.68038        -2.08761
| 28>    N        3.16665        -4.50997        -2.24369
| 29>    C        1.17645        -4.15440         0.94806
| 30>    C        2.58745        -4.26594         0.87183
| 31>    C        3.50358        -3.33003         0.42201
| 32>    C        4.81233        -3.79125         0.51455
| 33>    C        4.89868        -5.09018         1.04999
| 34>    S        3.37319        -5.72507         1.45698
| 35>    C        6.26509        -5.47958         1.06121
| 36>    C        7.03027        -4.42778         0.52826
| 37>    C        6.14300        -3.34426         0.14079
| 38>    C        6.47489        -2.19574        -0.51503
| 39>    C        5.49228        -1.24479        -0.86427
| 40>    N        4.67578        -0.48792        -1.13750
| 41>    C        7.79867        -1.92034        -0.92185
| 42>    N        8.87026        -1.72032        -1.27644
| 43>    C        8.39334        -4.70912         0.50247
| 44>    C        8.66409        -5.96998         0.99917
| 45>    S        7.22319        -6.82013         1.50960
| 46>    C        9.97266        -6.55391         1.08386
| 47>    C       10.25340        -7.84477         1.40016
| 48>    C       11.60721        -8.31008         1.39591
| 49>    C       11.93536        -9.61575         1.71467
| 50>    C       13.26554       -10.06533         1.70379
| 51>    N       14.35756       -10.42148         1.69118
| 52>    C       10.95516       -10.55625         2.07012
| 53>    N       10.14432       -11.31614         2.36130
| 54>    C       12.60073        -7.34255         1.03984
| 55>    C       12.23977        -6.06412         0.75777
| 56>    O       10.94469        -5.65543         0.77973
| 57>    C       13.13051        -4.98866         0.42261
| 58>    C       12.77221        -3.65547         0.36858
| 59>    C       13.84745        -2.84868         0.00478
| 60>    C       15.02275        -3.58084        -0.23695
| 61>    S       14.81052        -5.25690         0.01618
| 62>    C       16.04731        -2.68205        -0.63475
| 63>    C       15.50561        -1.37649        -0.63585
| 64>    C       14.11394        -1.43731        -0.21483
| 65>    C       13.24531        -0.40422        -0.02212
| 66>    C       11.93966        -0.61269         0.47458
| 67>    N       10.89512        -0.78485         0.91472
| 68>    C       13.60791         0.93877        -0.26149
| 69>    N       13.90116         2.03006        -0.45283
| 70>    C       16.43592        -0.42666        -1.02020
| 71>    C       17.67982        -0.98863        -1.32074
| 72>    S       17.68149        -2.73625        -1.11030
| 73>    C       18.76899        -0.19777        -1.73830
| 74>    C       20.03764        -0.55700        -2.09029
| 75>    C       21.08988         0.36271        -2.51418
| 76>    C       21.05911         1.72812        -2.62495
| 77>    C       22.20117         2.43705        -3.05710
| 78>    N       23.12782         3.01521        -3.40720
| 79>    C       19.95823         2.55814        -2.33828
| 80>    N       19.09826         3.28681        -2.12035
| 81>    C       22.23321        -0.45744        -2.80787
| 82>    C       21.96068        -1.80225        -2.58978
| 83>    C       23.05622        -2.63659        -2.86634
| 84>    C       24.12901        -1.90631        -3.28582
| 85>    S       23.83679        -0.20573        -3.35345
| 86>    C       20.57876        -1.93390        -2.12578
| 87>    O       19.98905        -2.95716        -1.82983
| 88>    H       -3.51240        -1.23149         0.62549
| 89>    H       -3.27814         0.55707        -1.28189
| 90>    H        0.68602        -4.75528         1.70820
| 91>    H        3.22384        -2.34781         0.08732
| 92>    H        9.15600        -4.04653         0.13760
| 93>    H        9.45561        -8.52908         1.64199
| 94>    H       13.63951        -7.63095         1.01085
| 95>    H       11.78136        -3.30613         0.59180
| 96>    H       16.24987         0.63043        -1.09261
| 97>    H       18.52996         0.85869        -1.78082
| 98>    H       23.05132        -3.70563        -2.76212
| 99>    H       25.09784        -2.27109        -3.56613
|100> *
|101>
|102>                          ****END OF INPUT****

CARTESIAN COORDINATES (ANGSTROEM)
---------------------------------
  C     -2.670490   -1.136090   -0.034590
  C     -2.564960   -0.200650   -1.021630
  S     -1.102230   -0.304300   -1.932630
  C     -0.592370   -1.623190   -0.967600
  C     -1.533060   -1.959620   -0.000130
  C     -1.041160   -3.110210    0.763360
  O     -1.582750   -3.732710    1.645050
  C      0.348760   -3.345480    0.240740
  C      0.534550   -2.517660   -0.944480
  C      1.427250   -2.660190   -1.975960
  C      1.377350   -1.805610   -3.099190
  N      1.341500   -1.117000   -4.015430
  C      2.388040   -3.680380   -2.087610
  N      3.166650   -4.509970   -2.243690
  C      1.176450   -4.154400    0.948060
  C      2.587450   -4.265940    0.871830
  C      3.503580   -3.330030    0.422010
  C      4.812330   -3.791250    0.514550
  C      4.898680   -5.090180    1.049990
  S      3.373190   -5.725070    1.456980
  C      6.265090   -5.479580    1.061210
  C      7.030270   -4.427780    0.528260
  C      6.143000   -3.344260    0.140790
  C      6.474890   -2.195740   -0.515030
  C      5.492280   -1.244790   -0.864270
  N      4.675780   -0.487920   -1.137500
  C      7.798670   -1.920340   -0.921850
  N      8.870260   -1.720320   -1.276440
  C      8.393340   -4.709120    0.502470
  C      8.664090   -5.969980    0.999170
  S      7.223190   -6.820130    1.509600
  C      9.972660   -6.553910    1.083860
  C     10.253400   -7.844770    1.400160
  C     11.607210   -8.310080    1.395910
  C     11.935360   -9.615750    1.714670
  C     13.265540  -10.065330    1.703790
  N     14.357560  -10.421480    1.691180
  C     10.955160  -10.556250    2.070120
  N     10.144320  -11.316140    2.361300
  C     12.600730   -7.342550    1.039840
  C     12.239770   -6.064120    0.757770
  O     10.944690   -5.655430    0.779730
  C     13.130510   -4.988660    0.422610
  C     12.772210   -3.655470    0.368580
  C     13.847450   -2.848680    0.004780
  C     15.022750   -3.580840   -0.236950
  S     14.810520   -5.256900    0.016180
  C     16.047310   -2.682050   -0.634750
  C     15.505610   -1.376490   -0.635850
  C     14.113940   -1.437310   -0.214830
  C     13.245310   -0.404220   -0.022120
  C     11.939660   -0.612690    0.474580
  N     10.895120   -0.784850    0.914720
  C     13.607910    0.938770   -0.261490
  N     13.901160    2.030060   -0.452830
  C     16.435920   -0.426660   -1.020200
  C     17.679820   -0.988630   -1.320740
  S     17.681490   -2.736250   -1.110300
  C     18.768990   -0.197770   -1.738300
  C     20.037640   -0.557000   -2.090290
  C     21.089880    0.362710   -2.514180
  C     21.059110    1.728120   -2.624950
  C     22.201170    2.437050   -3.057100
  N     23.127820    3.015210   -3.407200
  C     19.958230    2.558140   -2.338280
  N     19.098260    3.286810   -2.120350
  C     22.233210   -0.457440   -2.807870
  C     21.960680   -1.802250   -2.589780
  C     23.056220   -2.636590   -2.866340
  C     24.129010   -1.906310   -3.285820
  S     23.836790   -0.205730   -3.353450
  C     20.578760   -1.933900   -2.125780
  O     19.989050   -2.957160   -1.829830
  H     -3.512400   -1.231490    0.625490
  H     -3.278140    0.557070   -1.281890
  H      0.686020   -4.755280    1.708200
  H      3.223840   -2.347810    0.087320
  H      9.156000   -4.046530    0.137600
  H      9.455610   -8.529080    1.641990
  H     13.639510   -7.630950    1.010850
  H     11.781360   -3.306130    0.591800
  H     16.249870    0.630430   -1.092610
  H     18.529960    0.858690   -1.780820
  H     23.051320   -3.705630   -2.762120
  H     25.097840   -2.271090   -3.566130

 Total Charge           Charge          ....    0
 Multiplicity           Mult            ....    1
 Number of Electrons    NEL             ....  526
 Basis Dimension        Dim             .... 1106

ORBITAL ENERGIES
----------------

  NO   OCC          E(Eh)            E(eV)
   0   2.0000     -89.013121     -2422.1702
   1   2.0000     -89.012650     -2422.1574
   2   2.0000     -89.006377     -2421.9866
   3   2.0000     -89.000394     -2421.8239
   4   2.0000     -88.998352     -2421.7683
   5   2.0000     -88.995918     -2421.7020
   6   2.0000     -19.334414      -526.1162
   7   2.0000     -19.239255      -523.5267
   8   2.0000     -19.228266      -523.2277
   9   2.0000     -14.441597      -392.9758
  10   2.0000     -14.440149      -392.9364
  11   2.0000     -14.439217      -392.9111
  12   2.0000     -14.438309      -392.8864
  13   2.0000     -14.428984      -392.6326
  14   2.0000     -14.428502      -392.6195
  15   2.0000     -14.426036      -392.5524
  16   2.0000     -14.423678      -392.4882
  17   2.0000     -14.403330      -391.9345
  18   2.0000     -14.403260      -391.9326
  19   2.0000     -10.401557      -283.0407
  20   2.0000     -10.401509      -283.0394
  21   2.0000     -10.390760      -282.7470
  22   2.0000     -10.382375      -282.5188
  23   2.0000     -10.378218      -282.4057
  24   2.0000     -10.376592      -282.3614
  25   2.0000     -10.363830      -282.0141
  26   2.0000     -10.363145      -281.9955
  27   2.0000     -10.361190      -281.9423
  28   2.0000     -10.360273      -281.9174
  29   2.0000     -10.357342      -281.8376
  30   2.0000     -10.356705      -281.8203
  31   2.0000     -10.355002      -281.7739
  32   2.0000     -10.353037      -281.7205
  33   2.0000     -10.352106      -281.6951
  34   2.0000     -10.346480      -281.5420
  35   2.0000     -10.346447      -281.5411
  36   2.0000     -10.345564      -281.5171
  37   2.0000     -10.343525      -281.4616
  38   2.0000     -10.341392      -281.4036
  39   2.0000     -10.339500      -281.3521
  40   2.0000     -10.339348      -281.3480
  41   2.0000     -10.338602      -281.3277
  42   2.0000     -10.338156      -281.3155
  43   2.0000     -10.338064      -281.3130
  44   2.0000     -10.337598      -281.3004
  45   2.0000     -10.337344      -281.2934
  46   2.0000     -10.337005      -281.2842
  47   2.0000     -10.333803      -281.1971
  48   2.0000     -10.330801      -281.1154
  49   2.0000     -10.330335      -281.1027
  50   2.0000     -10.330200      -281.0990
  51   2.0000     -10.328080      -281.0413
  52   2.0000     -10.326851      -281.0079
  53   2.0000     -10.325485      -280.9707
  54   2.0000     -10.324334      -280.9394
  55   2.0000     -10.323540      -280.9178
  56   2.0000     -10.323448      -280.9153
  57   2.0000     -10.322361      -280.8857
  58   2.0000     -10.321811      -280.8707
  59   2.0000     -10.321775      -280.8698
  60   2.0000     -10.321249      -280.8555
  61   2.0000     -10.319123      -280.7976
  62   2.0000     -10.316933      -280.7380
  63   2.0000     -10.316633      -280.7298
  64   2.0000     -10.316121      -280.7159
  65   2.0000     -10.315570      -280.7009
  66   2.0000     -10.315310      -280.6939
  67   2.0000     -10.309725      -280.5419
  68   2.0000     -10.309273      -280.5296
  69   2.0000     -10.307360      -280.4775
  70   2.0000     -10.306871      -280.4642
  71   2.0000     -10.306843      -280.4635
  72   2.0000     -10.306783      -280.4618
  73   2.0000      -8.107402      -220.6136
  74   2.0000      -8.106883      -220.5995
  75   2.0000      -8.101017      -220.4399
  76   2.0000      -8.092854      -220.2178
  77   2.0000      -8.092787      -220.2159
  78   2.0000      -8.090581      -220.1559
  79   2.0000      -6.076710      -165.3557
  80   2.0000      -6.076146      -165.3403
  81   2.0000      -6.072480      -165.2406
  82   2.0000      -6.071952      -165.2262
  83   2.0000      -6.070189      -165.1783
  84   2.0000      -6.069711      -165.1652
  85   2.0000      -6.069258      -165.1529
  86   2.0000      -6.065996      -165.0642
  87   2.0000      -6.063535      -164.9972
  88   2.0000      -6.062199      -164.9608
  89   2.0000      -6.062124      -164.9588
  90   2.0000      -6.059891      -164.8980
  91   2.0000      -6.057541      -164.8341
  92   2.0000      -6.057418      -164.8307
  93   2.0000      -6.055494      -164.7784
  94   2.0000      -6.055364      -164.7748
  95   2.0000      -6.055239      -164.7714
  96   2.0000      -6.053167      -164.7150
  97   2.0000      -1.246823       -33.9278
  98   2.0000      -1.155141       -31.4330
  99   2.0000      -1.144171       -31.1345
 100   2.0000      -1.062601       -28.9148
 101   2.0000      -1.060048       -28.8454
 102   2.0000      -1.040915       -28.3247
 103   2.0000      -1.039116       -28.2758
 104   2.0000      -1.033164       -28.1138
 105   2.0000      -1.031258       -28.0620
 106   2.0000      -1.021554       -27.7979
 107   2.0000      -1.019273       -27.7358
 108   2.0000      -1.017971       -27.7004
 109   2.0000      -1.017394       -27.6847
 110   2.0000      -1.015763       -27.6403
 111   2.0000      -1.014065       -27.5941
 112   2.0000      -1.005519       -27.3616
 113   2.0000      -1.004609       -27.3368
 114   2.0000      -1.003369       -27.3031
 115   2.0000      -0.982796       -26.7432
 116   2.0000      -0.981819       -26.7167
 117   2.0000      -0.978016       -26.6132
 118   2.0000      -0.971211       -26.4280
 119   2.0000      -0.969999       -26.3950
 120   2.0000      -0.966237       -26.2926
 121   2.0000      -0.950849       -25.8739
 122   2.0000      -0.932463       -25.3736
 123   2.0000      -0.924123       -25.1467
 124   2.0000      -0.916467       -24.9383
 125   2.0000      -0.913065       -24.8458
 126   2.0000      -0.895880       -24.3781
 127   2.0000      -0.893536       -24.3144
 128   2.0000      -0.885913       -24.1069
 129   2.0000      -0.881216       -23.9791
 130   2.0000      -0.876783       -23.8585
 131   2.0000      -0.872837       -23.7511
 132   2.0000      -0.870764       -23.6947
 133   2.0000      -0.864568       -23.5261
 134   2.0000      -0.862675       -23.4746
 135   2.0000      -0.832548       -22.6548
 136   2.0000      -0.823100       -22.3977
 137   2.0000      -0.800944       -21.7948
 138   2.0000      -0.800167       -21.7736
 139   2.0000      -0.791901       -21.5487
 140   2.0000      -0.786613       -21.4048
 141   2.0000      -0.778741       -21.1906
 142   2.0000      -0.776435       -21.1279
 143   2.0000      -0.757264       -20.6062
 144   2.0000      -0.755753       -20.5651
 145   2.0000      -0.726402       -19.7664
 146   2.0000      -0.719211       -19.5707
 147   2.0000      -0.716866       -19.5069
 148   2.0000      -0.715165       -19.4606
 149   2.0000      -0.705466       -19.1967
 150   2.0000      -0.699622       -19.0377
 151   2.0000      -0.698418       -19.0049
 152   2.0000      -0.693245       -18.8641
 153   2.0000      -0.686962       -18.6932
 154   2.0000      -0.681349       -18.5404
 155   2.0000      -0.679839       -18.4994
 156   2.0000      -0.677205       -18.4277
 157   2.0000      -0.668973       -18.2037
 158   2.0000      -0.653413       -17.7803
 159   2.0000      -0.649846       -17.6832
 160   2.0000      -0.646208       -17.5842
 161   2.0000      -0.638343       -17.3702
 162   2.0000      -0.636630       -17.3236
 163   2.0000      -0.632151       -17.2017
 164   2.0000      -0.630672       -17.1615
 165   2.0000      -0.626346       -17.0437
 166   2.0000      -0.622992       -16.9525
 167   2.0000      -0.614691       -16.7266
 168   2.0000      -0.611209       -16.6318
 169   2.0000      -0.605733       -16.4828
 170   2.0000      -0.603090       -16.4109
 171   2.0000      -0.601681       -16.3726
 172   2.0000      -0.589770       -16.0484
 173   2.0000      -0.584009       -15.8917
 174   2.0000      -0.577037       -15.7020
 175   2.0000      -0.572176       -15.5697
 176   2.0000      -0.563437       -15.3319
 177   2.0000      -0.561866       -15.2891
 178   2.0000      -0.560649       -15.2560
 179   2.0000      -0.557070       -15.1587
 180   2.0000      -0.556656       -15.1474
 181   2.0000      -0.552249       -15.0274
 182   2.0000      -0.551716       -15.0130
 183   2.0000      -0.541550       -14.7363
 184   2.0000      -0.535974       -14.5846
 185   2.0000      -0.533493       -14.5171
 186   2.0000      -0.527178       -14.3453
 187   2.0000      -0.526737       -14.3332
 188   2.0000      -0.520525       -14.1642
 189   2.0000      -0.519063       -14.1244
 190   2.0000      -0.517965       -14.0945
 191   2.0000      -0.515543       -14.0286
 192   2.0000      -0.514336       -13.9958
 193   2.0000      -0.512318       -13.9409
 194   2.0000      -0.510091       -13.8803
 195   2.0000      -0.509722       -13.8702
 196   2.0000      -0.503955       -13.7133
 197   2.0000      -0.501789       -13.6544
 198   2.0000      -0.501049       -13.6342
 199   2.0000      -0.499134       -13.5821
 200   2.0000      -0.496693       -13.5157
 201   2.0000      -0.495044       -13.4708
 202   2.0000      -0.490325       -13.3424
 203   2.0000      -0.489804       -13.3282
 204   2.0000      -0.487725       -13.2717
 205   2.0000      -0.486447       -13.2369
 206   2.0000      -0.484230       -13.1766
 207   2.0000      -0.481707       -13.1079
 208   2.0000      -0.479101       -13.0370
 209   2.0000      -0.475420       -12.9368
 210   2.0000      -0.471447       -12.8287
 211   2.0000      -0.469705       -12.7813
 212   2.0000      -0.467848       -12.7308
 213   2.0000      -0.467130       -12.7113
 214   2.0000      -0.465986       -12.6801
 215   2.0000      -0.465027       -12.6540
 216   2.0000      -0.462164       -12.5761
 217   2.0000      -0.459708       -12.5093
 218   2.0000      -0.458998       -12.4900
 219   2.0000      -0.457877       -12.4595
 220   2.0000      -0.455558       -12.3964
 221   2.0000      -0.453306       -12.3351
 222   2.0000      -0.451083       -12.2746
 223   2.0000      -0.450092       -12.2476
 224   2.0000      -0.449158       -12.2222
 225   2.0000      -0.447744       -12.1837
 226   2.0000      -0.446630       -12.1534
 227   2.0000      -0.443261       -12.0617
 228   2.0000      -0.441394       -12.0110
 229   2.0000      -0.438368       -11.9286
 230   2.0000      -0.437935       -11.9168
 231   2.0000      -0.437796       -11.9130
 232   2.0000      -0.437322       -11.9001
 233   2.0000      -0.435855       -11.8602
 234   2.0000      -0.434091       -11.8122
 235   2.0000      -0.433994       -11.8096
 236   2.0000      -0.428146       -11.6504
 237   2.0000      -0.427296       -11.6273
 238   2.0000      -0.424277       -11.5452
 239   2.0000      -0.420963       -11.4550
 240   2.0000      -0.420745       -11.4491
 241   2.0000      -0.420587       -11.4448
 242   2.0000      -0.419395       -11.4123
 243   2.0000      -0.417723       -11.3668
 244   2.0000      -0.413111       -11.2413
 245   2.0000      -0.405023       -11.0212
 246   2.0000      -0.397772       -10.8239
 247   2.0000      -0.388039       -10.5591
 248   2.0000      -0.365496        -9.9457
 249   2.0000      -0.364751        -9.9254
 250   2.0000      -0.359719        -9.7884
 251   2.0000      -0.356975        -9.7138
 252   2.0000      -0.355135        -9.6637
 253   2.0000      -0.354031        -9.6337
 254   2.0000      -0.350905        -9.5486
 255   2.0000      -0.342532        -9.3208
 256   2.0000      -0.334161        -9.0930
 257   2.0000      -0.332051        -9.0356
 258   2.0000      -0.318808        -8.6752
 259   2.0000      -0.316459        -8.6113
 260   2.0000      -0.301789        -8.2121
 261   2.0000      -0.279726        -7.6117
 262   2.0000      -0.275327        -7.4920
 263   0.0000      -0.122445        -3.3319
 264   0.0000      -0.122153        -3.3240
 265   0.0000      -0.096146        -2.6163
 266   0.0000      -0.096015        -2.6127
 267   0.0000      -0.082728        -2.2511

MULLIKEN ATOMIC CHARGES
-----------------------
   0 C :    0.017945
   1 C :   -0.053777
   2 S :    0.229440
   3 C :   -0.176263
   4 C :    0.030465
   5 C :    0.141539
   6 O :   -0.132267
   7 C :   -0.133265
   8 C :    0.241796
   9 C :   -0.328504
  10 C :   -0.188530
  11 N :    0.170975
  12 C :   -0.194970
  13 N :    0.172939
  14 C :    0.069454
  15 C :   -0.106490
  16 C :   -0.010562
  17 C :    0.007271
  18 C :   -0.081497
  19 S :    0.223152
  20 C :   -0.089827
  21 C :    0.017430
  22 C :    0.300101
  23 C :   -0.273543
  24 C :   -0.185745
  25 N :    0.173897
  26 C :   -0.175738
  27 N :    0.177994
  28 C :   -0.015610
  29 C :   -0.102480
  30 S :    0.225989
  31 C :    0.265292
  32 C :   -0.170927
  33 C :    0.283574
  34 C :   -0.347641
  35 C :   -0.173943
  36 N :    0.127914
  37 C :   -0.174473
  38 N :    0.129173
  39 C :   -0.168291
  40 C :    0.258450
  41 O :   -0.239996
  42 C :   -0.099077
  43 C :   -0.019357
  44 C :    0.019029
  45 C :   -0.093475
  46 S :    0.229434
  47 C :   -0.079042
  48 C :    0.052935
  49 C :    0.301056
  50 C :   -0.280713
  51 C :   -0.175033
  52 N :    0.172237
  53 C :   -0.195000
  54 N :    0.188010
  55 C :   -0.062263
  56 C :   -0.052051
  57 S :    0.247110
  58 C :   -0.041309
  59 C :   -0.088967
  60 C :    0.256092
  61 C :   -0.329936
  62 C :   -0.202569
  63 N :    0.167532
  64 C :   -0.183618
  65 N :    0.160438
  66 C :   -0.158811
  67 C :    0.019632
  68 C :    0.013906
  69 C :   -0.048997
  70 S :    0.229300
  71 C :    0.183549
  72 O :   -0.177094
  73 H :    0.010440
  74 H :    0.047636
  75 H :    0.027199
  76 H :    0.025404
  77 H :    0.017416
  78 H :    0.028469
  79 H :    0.027997
  80 H :    0.017322
  81 H :    0.029386
  82 H :    0.019147
  83 H :    0.009368
  84 H :    0.046821
Sum of atomic charges:   -0.0000000

LOEWDIN ATOMIC CHARGES
----------------------
   0 C :   -0.034520
   1 C :   -0.150559
   2 S :    0.518228
   3 C :   -0.172643
   4 C :   -0.071299
   5 C :    0.082974
   6 O :   -0.132703
   7 C :   -0.079355
   8 C :    0.051529
   9 C :   -0.136283
  10 C :   -0.033912
  11 N :   -0.034656
  12 C :   -0.016885
  13 N :   -0.043836
  14 C :    0.035601
  15 C :   -0.177013
  16 C :    0.003486
  17 C :   -0.058317
  18 C :   -0.168913
  19 S :    0.504448
  20 C :   -0.165210
  21 C :   -0.061224
  22 C :    0.078997
  23 C :   -0.087449
  24 C :   -0.012378
  25 N :   -0.026842
  26 C :   -0.014046
  27 N :   -0.022103
  28 C :   -0.002429
  29 C :   -0.192433
  30 S :    0.506036
  31 C :    0.078592
  32 C :   -0.060266
  33 C :    0.056393
  34 C :   -0.175461
  35 C :   -0.030258
  36 N :   -0.067877
  37 C :   -0.030169
  38 N :   -0.067662
  39 C :   -0.058459
  40 C :    0.077364
  41 O :    0.000925
  42 C :   -0.189617
  43 C :   -0.005153
  44 C :   -0.059225
  45 C :   -0.169004
  46 S :    0.506704
  47 C :   -0.176250
  48 C :   -0.071458
  49 C :    0.074418
  50 C :   -0.090610
  51 C :   -0.013163
  52 N :   -0.025575
  53 C :   -0.019745
  54 N :   -0.019018
  55 C :    0.007657
  56 C :   -0.180989
  57 S :    0.551582
  58 C :    0.049209
  59 C :   -0.099819
  60 C :    0.061341
  61 C :   -0.135970
  62 C :   -0.034171
  63 N :   -0.039037
  64 C :   -0.024910
  65 N :   -0.038733
  66 C :   -0.175038
  67 C :   -0.070618
  68 C :   -0.033886
  69 C :   -0.150610
  70 S :    0.517849
  71 C :    0.086549
  72 O :   -0.163907
  73 H :    0.043919
  74 H :    0.032259
  75 H :    0.047677
  76 H :    0.042680
  77 H :    0.044576
  78 H :    0.043645
  79 H :    0.043951
  80 H :    0.044000
  81 H :    0.048499
  82 H :    0.054644
  83 H :    0.043780
  84 H :    0.032149

  Mayer bond orders larger than 0.100000
B(  0-C ,  1-C ) :   1.5459 B(  0-C ,  4-C ) :   1.2761 B(  0-C , 73-H ) :   1.0070
B(  1-C ,  2-S ) :   1.1687 B(  1-C , 74-H ) :   0.9682 B(  2-S ,  3-C ) :   1.1587
B(  3-C ,  4-C ) :   1.4320 B(  3-C ,  8-C ) :   1.0953 B(  4-C ,  5-C ) :   0.9433
B(  5-C ,  6-O ) :   2.2649 B(  5-C ,  7-C ) :   0.9257 B(  7-C ,  8-C ) :   1.0212
B(  7-C , 14-C ) :   1.7368 B(  8-C ,  9-C ) :   1.6539 B(  9-C , 10-C ) :   1.1237
B(  9-C , 12-C ) :   1.1748 B( 10-C , 11-N ) :   3.0107 B( 12-C , 13-N ) :   2.9953
B( 14-C , 15-C ) :   1.0967 B( 14-C , 75-H ) :   0.9268 B( 15-C , 16-C ) :   1.4217
B( 15-C , 19-S ) :   1.1031 B( 16-C , 17-C ) :   1.3401 B( 16-C , 76-H ) :   0.9826
B( 17-C , 18-C ) :   1.4304 B( 17-C , 22-C ) :   0.9998 B( 18-C , 19-S ) :   1.1451
B( 18-C , 20-C ) :   1.1892 B( 20-C , 21-C ) :   1.4396 B( 20-C , 30-S ) :   1.1374
B( 21-C , 22-C ) :   0.9934 B( 21-C , 28-C ) :   1.2801 B( 22-C , 23-C ) :   1.7269
B( 23-C , 24-C ) :   1.1357 B( 23-C , 26-C ) :   1.1285 B( 24-C , 25-N ) :   2.9821
B( 26-C , 27-N ) :   2.9747 B( 28-C , 29-C ) :   1.4404 B( 28-C , 77-H ) :   1.0035
B( 29-C , 30-S ) :   1.1118 B( 29-C , 31-C ) :   1.0898 B( 31-C , 32-C ) :   1.5615
B( 31-C , 41-O ) :   1.1315 B( 32-C , 33-C ) :   1.1380 B( 32-C , 78-H ) :   0.9625
B( 33-C , 34-C ) :   1.5480 B( 33-C , 39-C ) :   1.1319 B( 34-C , 35-C ) :   1.1309
B( 34-C , 37-C ) :   1.1320 B( 35-C , 36-N ) :   3.0059 B( 37-C , 38-N ) :   3.0055
B( 39-C , 40-C ) :   1.5645 B( 39-C , 79-H ) :   0.9649 B( 40-C , 41-O ) :   1.1322
B( 40-C , 42-C ) :   1.0823 B( 42-C , 43-C ) :   1.4426 B( 42-C , 46-S ) :   1.1145
B( 43-C , 44-C ) :   1.2778 B( 43-C , 80-H ) :   1.0030 B( 44-C , 45-C ) :   1.4329
B( 44-C , 49-C ) :   0.9959 B( 45-C , 46-S ) :   1.1354 B( 45-C , 47-C ) :   1.1966
B( 47-C , 48-C ) :   1.3787 B( 47-C , 57-S ) :   1.1194 B( 48-C , 49-C ) :   0.9854
B( 48-C , 55-C ) :   1.3157 B( 49-C , 50-C ) :   1.7245 B( 50-C , 51-C ) :   1.1312
B( 50-C , 53-C ) :   1.1353 B( 51-C , 52-N ) :   2.9661 B( 53-C , 54-N ) :   2.9960
B( 55-C , 56-C ) :   1.3534 B( 55-C , 81-H ) :   1.0092 B( 56-C , 57-S ) :   1.0864
B( 56-C , 58-C ) :   1.2260 B( 58-C , 59-C ) :   1.5650 B( 58-C , 82-H ) :   0.9438
B( 59-C , 60-C ) :   1.0681 B( 59-C , 71-C ) :   0.9587 B( 60-C , 61-C ) :   1.6426
B( 60-C , 66-C ) :   1.0929 B( 61-C , 62-C ) :   1.1437 B( 61-C , 64-C ) :   1.1421
B( 62-C , 63-N ) :   3.0028 B( 64-C , 65-N ) :   2.9639 B( 66-C , 67-C ) :   1.4357
B( 66-C , 70-S ) :   1.1510 B( 67-C , 68-C ) :   1.2679 B( 67-C , 71-C ) :   0.9855
B( 68-C , 69-C ) :   1.5443 B( 68-C , 83-H ) :   1.0088 B( 69-C , 70-S ) :   1.1686
B( 69-C , 84-H ) :   0.9674 B( 71-C , 72-O ) :   2.1215

-----------------------------------------------------------------------------
         ABSORPTION SPECTRUM VIA TRANSITION ELECTRIC DIPOLE MOMENTS
-----------------------------------------------------------------------------
State   Energy  Wavelength   fosc         T2         TX        TY        TZ
        (cm-1)    (nm)                  (au**2)     (au)      (au)      (au)
-----------------------------------------------------------------------------
   0   15480.9    646.0   0.245464534   5.21997   2.23539  -0.44954   0.14472
   1   16102.4    621.0   0.235617117   4.81717  -1.48699  -1.45741   0.69426
   2   21346.1    468.5   0.069206664   1.06735   1.02980   0.08268  -0.00484
   3   21612.4    462.7   0.166592788   2.53764   0.72177  -1.30008   0.57140
   4   22225.4    449.9   0.626103462   9.27409  -3.01289   0.10578  -0.43055
   5   23265.7    429.8   0.746468539  10.56260  -2.31312  -1.93011   1.21932
   6   25235.6    396.3   0.107728229   1.40537   1.06835   0.34368  -0.38195
   7   25654.0    389.8   0.056828498   0.72927   0.77288   0.36318  -0.00511
   8   26208.5    381.6   0.437085037   5.49033  -1.83013  -1.32473   0.62132
   9   26651.7    375.2   0.219544263   2.71189   0.72973  -1.32259   0.65584
  10   27353.4    365.6   0.455810742   5.48592  -1.85456   1.42058  -0.16878
  11   28622.2    349.4   0.031345564   0.36054   0.58464   0.07357  -0.11541
  12   29032.4    344.4   0.098781410   1.12013   0.97956  -0.38539  -0.10987
  13   29277.1    341.6   0.052468187   0.58999  -0.19106  -0.72797  -0.15347
  14   29856.6    334.9   0.312306058   3.44362   1.34605   0.97383  -0.82670
  15   30136.7    331.8   0.057562218   0.62881  -0.15470   0.77255  -0.08964
  16   30244.8    330.6   0.058279987   0.63437   0.52462  -0.53246  -0.27502
  17   30504.6    327.8   0.513593319   5.54281  -1.66944   1.61209   0.39615
  18   31248.0    320.0   0.223943651   2.35935  -0.51786   1.36601  -0.47454
  19   31339.2    319.1   0.147709641   1.55166   0.83043  -0.91388  -0.16390
  20   31671.2    315.7   0.047935713   0.49828  -0.46767  -0.20511   0.48733
  21   31932.6    313.2   0.001005554   0.01037  -0.07521   0.04340   0.05317
  22   32084.2    311.7   0.107691214   1.10501  -0.69331  -0.34920   0.70879
  23   32197.3    310.6   0.307575455   3.14491  -1.53944   0.61964   0.62536
  24   32460.2    308.1   0.072040059   0.73063  -0.64488   0.49953  -0.25541
  25   33118.3    301.9   0.787116519   7.82433   1.77317  -2.16267  -0.05554
  26   33229.0    300.9   0.064923466   0.64322  -0.69974  -0.39109   0.02530
  27   33411.1    299.3   0.079710629   0.78542  -0.72869  -0.50116  -0.05712
  28   33497.1    298.5   0.243859793   2.39667  -0.35011   1.46991  -0.33685
  29   33770.5    296.1   0.234256765   2.28366  -1.22441  -0.75581   0.46178
  30   33982.2    294.3   0.266441204   2.58122  -1.41150   0.69032   0.33519
  31   34071.2    293.5   0.057952079   0.55996  -0.18224   0.71261   0.13763
  32   34398.8    290.7   0.056768233   0.54330  -0.26983   0.67534   0.12003
  33   34604.1    289.0   0.020925442   0.19908  -0.42879   0.05773  -0.10902
  34   34673.6    288.4   0.021595995   0.20505  -0.22571   0.39057   0.03942
  35   35010.5    285.6   0.305524280   2.87292   0.01168  -1.63481   0.44741
  36   35288.0    283.4   0.111327106   1.03860  -0.30250  -0.91460   0.33258
  37   35412.2    282.4   0.021816745   0.20282   0.29617  -0.01863  -0.33876
  38   35948.8    278.2   0.187523929   1.71731  -1.03930   0.09464   0.79260
  39   36095.9    277.0   0.021091178   0.19236   0.25362  -0.30072  -0.19392
  40   36228.3    276.0   0.018763431   0.17051  -0.09994   0.39618   0.05963
  41   36321.4    275.3   0.253021074   2.29335  -0.42048   1.42851  -0.27549
  42   36593.6    273.3   0.030545280   0.27480   0.50411   0.04355  -0.13701
  43   37131.9    269.3   0.037654893   0.33385  -0.56389  -0.05147   0.11500
  44   37308.9    268.0   0.070098253   0.61854   0.66781   0.23296  -0.34395
  45   37513.5    266.6   0.000643338   0.00565   0.03163  -0.06814  -0.00147
  46   38042.3    262.9   0.002068145   0.01790   0.05310  -0.02687  -0.11982
  47   38126.7    262.3   0.007215489   0.06230  -0.22260  -0.04563   0.10330
  48   38709.3    258.3   0.008567978   0.07287   0.21442  -0.02667  -0.16180
  49   39005.3    256.4   0.054056538   0.45625   0.19376  -0.63803   0.10781
  50   39183.4    255.2   0.010222687   0.08589   0.23913  -0.16706  -0.02826
  51   39336.7    254.2   0.066398236   0.55569  -0.43531  -0.17971   0.57785
  52   39425.5    253.6   0.010870383   0.09077  -0.00249  -0.27932   0.11290
  53   40028.6    249.8   0.019556696   0.16084  -0.07765   0.32355   0.22389
  54   40275.5    248.3   0.035606323   0.29105  -0.00296  -0.38304   0.37989

FINAL SINGLE POINT ENERGY     -5222.705159632257

DIPOLE MOMENT
-------------
                                X             Y             Z
Electronic contribution:      3.23087      -0.83321      -0.83565
Nuclear contribution   :     -3.82627       0.81473       1.38512
                        -----------------------------------------
Total Dipole Moment    :     -0.59540      -0.01848       0.54947
                        -----------------------------------------
Magnitude (a.u.)       :      0.81040
Magnitude (Debye)      :      2.05988

Rotational constants in cm-1:     0.001399     0.000261     0.000226
Rotational constants in MHz :    41.933247     7.835076     6.761435

                             ****ORCA TERMINATED NORMALLY****
TOTAL RUN TIME: 0 days 0 hours 8 minutes 45 seconds 430 msec
