                         Program Version 4.2.0 -  RELEASE  -
|  1> # ORCA input file
|  2> # SCF done       -195.738342606230          0.001999620238
|  3> ! CAM-B3LYP def2-SVP def2/J RIJCOSX Grid4 TightSCF
|  4> %maxcore 5000
|  5> %tddft
|  6>     Mode sTDDFT
|  7>     Ethresh 5.0
|  8>     maxcore 5000
|  9> end
| 10>
| 11> %pal
| 12>   nprocs 6
| 13>   end
| 14> * xyz 0 1
| 15>    C       12.60479         7.09283        -2.79923
| 16>    C       12.53341         7.85297        -1.66919
| 17>    S       11.39443         7.27545        -0.50712
| 18>    C       11.00509         5.96518        -1.53790
| 19>    C       11.72267         6.00176        -2.72818
| 20>    C       11.31033         4.87271        -3.57254
| 21>    O       11.65708         4.59231        -4.69403
| 22>    C       10.38070         4.07833        -2.70316
| 23>    C       10.06695         4.87593        -1.52580
| 24>    C        8.96413         4.79687        -0.71419
| 25>    C        8.77063         5.71213         0.34157
| 26>    N        8.61698         6.44348         1.21205
| 27>    C        7.90320         3.89154        -0.90620
| 28>    N        7.00729         3.19043        -1.06166
| 29>    C       10.07588         2.79952        -3.03733
| 30>    C        9.58507         1.75632        -2.21128
| 31>    C        8.91208         0.62200        -2.63522
| 32>    C        8.59745        -0.22840        -1.57997
| 33>    C        9.08006         0.23956        -0.34001
| 34>    S        9.89530         1.72606        -0.47684
| 35>    C        8.71225        -0.67378         0.67305
| 36>    C        7.98177        -1.72283         0.07488
| 37>    C        7.89593        -1.48175        -1.35774
| 38>    C        7.28654        -2.26743        -2.29074
| 39>    C        7.27949        -1.93700        -3.66292
| 40>    N        7.27932        -1.68026        -4.78024
| 41>    C        6.63424        -3.47134        -1.94825
| 42>    N        6.10652        -4.45163        -1.67485
| 43>    C        7.54035        -2.66044         0.99652
| 44>    C        7.92978        -2.33978         2.29335
| 45>    S        8.86865        -0.85974         2.36368
| 46>    C        7.61086        -3.05526         3.47769
| 47>    C        8.08836        -2.64373         4.74162
| 48>    C        7.73220        -3.31488         5.95628
| 49>    N        8.22221        -2.86102         7.12682
| 50>    C        9.00685        -1.83261         7.14124
| 51>    C        9.36192        -1.16931         5.93702
| 52>    N        8.90764        -1.57510         4.79579
| 53>    F       10.17279        -0.11768         5.94706
| 54>    F        9.47064        -1.41876         8.31441
| 55>    C        6.87085        -4.43385         5.98186
| 56>    C        6.41544        -4.87483         4.71602
| 57>    C        6.78094        -4.20208         3.48930
| 58>    N        6.23025        -4.79369         2.42801
| 59>    S        5.35783        -6.04890         2.90475
| 60>    N        5.61984        -5.91901         4.47899
| 61>    C        6.48082        -5.04448         7.20333
| 62>    C        5.59782        -6.10903         7.35609
| 63>    C        5.40511        -6.43773         8.68991
| 64>    C        6.15526        -5.62207         9.56438
| 65>    S        7.08806        -4.45208         8.73846
| 66>    C        5.87984        -6.02398        10.89004
| 67>    C        4.94531        -7.08641        10.86298
| 68>    C        4.63559        -7.39196         9.47510
| 69>    C        3.81878        -8.37366         8.99817
| 70>    C        3.60915        -8.56087         7.61437
| 71>    N        3.43682        -8.71403         6.49125
| 72>    C        3.14326        -9.28952         9.83458
| 73>    N        2.59738       -10.05888        10.48531
| 74>    C        4.57964        -7.52351        12.12904
| 75>    C        5.23176        -6.81884        13.13349
| 76>    S        6.32782        -5.59716        12.47129
| 77>    C        5.21713        -6.92162        14.54148
| 78>    C        4.38911        -7.60305        15.38413
| 79>    C        4.57382        -7.63297        16.83360
| 80>    C        5.62793        -7.17623        17.58351
| 81>    C        5.61615        -7.31096        18.98860
| 82>    N        5.60891        -7.41967        20.13074
| 83>    C        6.80232        -6.57206        17.09596
| 84>    N        7.78813        -6.08498        16.76490
| 85>    C        3.42163        -8.29971        17.37066
| 86>    C        2.56177        -8.71092        16.36245
| 87>    C        1.42219        -9.37233        16.84839
| 88>    C        1.44705        -9.44732        18.21008
| 89>    S        2.84233        -8.72553        18.92667
| 90>    C        3.11553        -8.31575        15.06106
| 91>    O        2.61820        -8.49893        13.97248
| 92>    H       13.24700         7.30418        -3.63346
| 93>    H       13.08610         8.74441        -1.44494
| 94>    H       10.30497         2.51935        -4.06144
| 95>    H        8.64090         0.46218        -3.66309
| 96>    H        6.95902        -3.53709         0.77829
| 97>    H        5.13629        -6.58907         6.51310
| 98>    H        3.87064        -8.30443        12.33679
| 99>    H        6.00007        -6.33952        15.01424
|100>    H        0.63759        -9.76823        16.23105
|101>    H        0.71533        -9.89541        18.85375
|102> *
|103>
|104>                          ****END OF INPUT****

CARTESIAN COORDINATES (ANGSTROEM)
---------------------------------
  C     12.604790    7.092830   -2.799230
  C     12.533410    7.852970   -1.669190
  S     11.394430    7.275450   -0.507120
  C     11.005090    5.965180   -1.537900
  C     11.722670    6.001760   -2.728180
  C     11.310330    4.872710   -3.572540
  O     11.657080    4.592310   -4.694030
  C     10.380700    4.078330   -2.703160
  C     10.066950    4.875930   -1.525800
  C      8.964130    4.796870   -0.714190
  C      8.770630    5.712130    0.341570
  N      8.616980    6.443480    1.212050
  C      7.903200    3.891540   -0.906200
  N      7.007290    3.190430   -1.061660
  C     10.075880    2.799520   -3.037330
  C      9.585070    1.756320   -2.211280
  C      8.912080    0.622000   -2.635220
  C      8.597450   -0.228400   -1.579970
  C      9.080060    0.239560   -0.340010
  S      9.895300    1.726060   -0.476840
  C      8.712250   -0.673780    0.673050
  C      7.981770   -1.722830    0.074880
  C      7.895930   -1.481750   -1.357740
  C      7.286540   -2.267430   -2.290740
  C      7.279490   -1.937000   -3.662920
  N      7.279320   -1.680260   -4.780240
  C      6.634240   -3.471340   -1.948250
  N      6.106520   -4.451630   -1.674850
  C      7.540350   -2.660440    0.996520
  C      7.929780   -2.339780    2.293350
  S      8.868650   -0.859740    2.363680
  C      7.610860   -3.055260    3.477690
  C      8.088360   -2.643730    4.741620
  C      7.732200   -3.314880    5.956280
  N      8.222210   -2.861020    7.126820
  C      9.006850   -1.832610    7.141240
  C      9.361920   -1.169310    5.937020
  N      8.907640   -1.575100    4.795790
  F     10.172790   -0.117680    5.947060
  F      9.470640   -1.418760    8.314410
  C      6.870850   -4.433850    5.981860
  C      6.415440   -4.874830    4.716020
  C      6.780940   -4.202080    3.489300
  N      6.230250   -4.793690    2.428010
  S      5.357830   -6.048900    2.904750
  N      5.619840   -5.919010    4.478990
  C      6.480820   -5.044480    7.203330
  C      5.597820   -6.109030    7.356090
  C      5.405110   -6.437730    8.689910
  C      6.155260   -5.622070    9.564380
  S      7.088060   -4.452080    8.738460
  C      5.879840   -6.023980   10.890040
  C      4.945310   -7.086410   10.862980
  C      4.635590   -7.391960    9.475100
  C      3.818780   -8.373660    8.998170
  C      3.609150   -8.560870    7.614370
  N      3.436820   -8.714030    6.491250
  C      3.143260   -9.289520    9.834580
  N      2.597380  -10.058880   10.485310
  C      4.579640   -7.523510   12.129040
  C      5.231760   -6.818840   13.133490
  S      6.327820   -5.597160   12.471290
  C      5.217130   -6.921620   14.541480
  C      4.389110   -7.603050   15.384130
  C      4.573820   -7.632970   16.833600
  C      5.627930   -7.176230   17.583510
  C      5.616150   -7.310960   18.988600
  N      5.608910   -7.419670   20.130740
  C      6.802320   -6.572060   17.095960
  N      7.788130   -6.084980   16.764900
  C      3.421630   -8.299710   17.370660
  C      2.561770   -8.710920   16.362450
  C      1.422190   -9.372330   16.848390
  C      1.447050   -9.447320   18.210080
  S      2.842330   -8.725530   18.926670
  C      3.115530   -8.315750   15.061060
  O      2.618200   -8.498930   13.972480
  H     13.247000    7.304180   -3.633460
  H     13.086100    8.744410   -1.444940
  H     10.304970    2.519350   -4.061440
  H      8.640900    0.462180   -3.663090
  H      6.959020   -3.537090    0.778290
  H      5.136290   -6.589070    6.513100
  H      3.870640   -8.304430   12.336790
  H      6.000070   -6.339520   15.014240
  H      0.637590   -9.768230   16.231050
  H      0.715330   -9.895410   18.853750

 Total Charge           Charge          ....    0
 Multiplicity           Mult            ....    1
 Number of Electrons    NEL             ....  564
 Basis Dimension        Dim             .... 1156

ORBITAL ENERGIES
----------------

  NO   OCC          E(Eh)            E(eV)
   0   2.0000     -89.053896     -2423.2797
   1   2.0000     -88.997291     -2421.7394
   2   2.0000     -88.995986     -2421.7039
   3   2.0000     -88.994955     -2421.6758
   4   2.0000     -88.991191     -2421.5734
   5   2.0000     -88.991071     -2421.5702
   6   2.0000     -88.989912     -2421.5386
   7   2.0000     -24.834957      -675.7935
   8   2.0000     -24.834652      -675.7852
   9   2.0000     -19.224230      -523.1179
  10   2.0000     -19.224135      -523.1153
  11   2.0000     -14.477127      -393.9427
  12   2.0000     -14.476954      -393.9380
  13   2.0000     -14.462225      -393.5372
  14   2.0000     -14.461968      -393.5302
  15   2.0000     -14.432467      -392.7274
  16   2.0000     -14.431993      -392.7145
  17   2.0000     -14.431203      -392.6930
  18   2.0000     -14.428437      -392.6177
  19   2.0000     -14.424011      -392.4973
  20   2.0000     -14.422291      -392.4505
  21   2.0000     -14.422092      -392.4451
  22   2.0000     -14.418253      -392.3406
  23   2.0000     -10.452491      -284.4267
  24   2.0000     -10.452082      -284.4156
  25   2.0000     -10.379072      -282.4289
  26   2.0000     -10.378925      -282.4249
  27   2.0000     -10.367549      -282.1154
  28   2.0000     -10.366597      -282.0894
  29   2.0000     -10.362240      -281.9709
  30   2.0000     -10.361887      -281.9613
  31   2.0000     -10.357955      -281.8543
  32   2.0000     -10.355067      -281.7757
  33   2.0000     -10.354250      -281.7535
  34   2.0000     -10.354007      -281.7468
  35   2.0000     -10.353692      -281.7383
  36   2.0000     -10.353508      -281.7333
  37   2.0000     -10.352125      -281.6956
  38   2.0000     -10.347773      -281.5772
  39   2.0000     -10.344497      -281.4881
  40   2.0000     -10.343907      -281.4720
  41   2.0000     -10.335234      -281.2360
  42   2.0000     -10.333051      -281.1766
  43   2.0000     -10.332688      -281.1667
  44   2.0000     -10.332542      -281.1628
  45   2.0000     -10.332329      -281.1570
  46   2.0000     -10.332186      -281.1531
  47   2.0000     -10.331875      -281.1446
  48   2.0000     -10.331609      -281.1374
  49   2.0000     -10.331340      -281.1300
  50   2.0000     -10.330204      -281.0991
  51   2.0000     -10.329561      -281.0816
  52   2.0000     -10.329477      -281.0794
  53   2.0000     -10.328895      -281.0635
  54   2.0000     -10.328677      -281.0576
  55   2.0000     -10.328577      -281.0549
  56   2.0000     -10.327830      -281.0345
  57   2.0000     -10.327200      -281.0174
  58   2.0000     -10.325112      -280.9606
  59   2.0000     -10.324888      -280.9545
  60   2.0000     -10.324608      -280.9469
  61   2.0000     -10.322429      -280.8876
  62   2.0000     -10.319719      -280.8138
  63   2.0000     -10.314785      -280.6796
  64   2.0000     -10.310271      -280.5567
  65   2.0000     -10.309136      -280.5259
  66   2.0000     -10.308486      -280.5082
  67   2.0000     -10.307530      -280.4822
  68   2.0000     -10.307338      -280.4769
  69   2.0000     -10.307168      -280.4723
  70   2.0000     -10.306806      -280.4625
  71   2.0000     -10.305697      -280.4323
  72   2.0000     -10.305382      -280.4237
  73   2.0000     -10.302178      -280.3365
  74   2.0000     -10.301631      -280.3216
  75   2.0000     -10.300760      -280.2979
  76   2.0000     -10.300076      -280.2793
  77   2.0000      -8.144953      -221.6354
  78   2.0000      -8.091620      -220.1842
  79   2.0000      -8.090691      -220.1589
  80   2.0000      -8.089686      -220.1316
  81   2.0000      -8.084353      -219.9864
  82   2.0000      -8.084083      -219.9791
  83   2.0000      -8.083840      -219.9725
  84   2.0000      -6.116020      -166.4254
  85   2.0000      -6.108071      -166.2091
  86   2.0000      -6.107893      -166.2042
  87   2.0000      -6.060862      -164.9244
  88   2.0000      -6.059741      -164.8939
  89   2.0000      -6.059001      -164.8738
  90   2.0000      -6.056624      -164.8091
  91   2.0000      -6.055662      -164.7830
  92   2.0000      -6.054386      -164.7482
  93   2.0000      -6.054036      -164.7387
  94   2.0000      -6.053685      -164.7291
  95   2.0000      -6.053551      -164.7255
  96   2.0000      -6.053350      -164.7200
  97   2.0000      -6.053325      -164.7194
  98   2.0000      -6.052244      -164.6899
  99   2.0000      -6.049045      -164.6029
 100   2.0000      -6.048835      -164.5972
 101   2.0000      -6.048568      -164.5899
 102   2.0000      -6.046966      -164.5463
 103   2.0000      -6.046564      -164.5354
 104   2.0000      -6.046345      -164.5294
 105   2.0000      -1.363808       -37.1111
 106   2.0000      -1.349770       -36.7291
 107   2.0000      -1.152122       -31.3508
 108   2.0000      -1.140305       -31.0293
 109   2.0000      -1.140155       -31.0252
 110   2.0000      -1.135827       -30.9074
 111   2.0000      -1.063388       -28.9363
 112   2.0000      -1.049499       -28.5583
 113   2.0000      -1.047924       -28.5155
 114   2.0000      -1.036912       -28.2158
 115   2.0000      -1.032170       -28.0868
 116   2.0000      -1.024396       -27.8752
 117   2.0000      -1.022339       -27.8193
 118   2.0000      -1.015013       -27.6199
 119   2.0000      -1.011934       -27.5361
 120   2.0000      -1.010909       -27.5082
 121   2.0000      -1.009665       -27.4744
 122   2.0000      -1.008326       -27.4380
 123   2.0000      -1.006446       -27.3868
 124   2.0000      -1.001651       -27.2563
 125   2.0000      -0.998467       -27.1697
 126   2.0000      -0.997044       -27.1309
 127   2.0000      -0.985747       -26.8235
 128   2.0000      -0.971080       -26.4244
 129   2.0000      -0.966991       -26.3132
 130   2.0000      -0.960992       -26.1499
 131   2.0000      -0.957395       -26.0520
 132   2.0000      -0.927018       -25.2254
 133   2.0000      -0.921256       -25.0687
 134   2.0000      -0.912474       -24.8297
 135   2.0000      -0.907574       -24.6963
 136   2.0000      -0.902132       -24.5483
 137   2.0000      -0.898193       -24.4411
 138   2.0000      -0.884127       -24.0583
 139   2.0000      -0.881246       -23.9799
 140   2.0000      -0.871092       -23.7036
 141   2.0000      -0.863352       -23.4930
 142   2.0000      -0.861221       -23.4350
 143   2.0000      -0.858924       -23.3725
 144   2.0000      -0.857858       -23.3435
 145   2.0000      -0.855875       -23.2895
 146   2.0000      -0.833513       -22.6810
 147   2.0000      -0.820108       -22.3163
 148   2.0000      -0.806852       -21.9555
 149   2.0000      -0.791991       -21.5512
 150   2.0000      -0.787998       -21.4425
 151   2.0000      -0.780915       -21.2498
 152   2.0000      -0.778442       -21.1825
 153   2.0000      -0.773136       -21.0381
 154   2.0000      -0.767624       -20.8881
 155   2.0000      -0.760261       -20.6878
 156   2.0000      -0.752466       -20.4757
 157   2.0000      -0.733908       -19.9707
 158   2.0000      -0.715080       -19.4583
 159   2.0000      -0.709050       -19.2942
 160   2.0000      -0.706859       -19.2346
 161   2.0000      -0.702775       -19.1235
 162   2.0000      -0.697304       -18.9746
 163   2.0000      -0.696839       -18.9619
 164   2.0000      -0.690906       -18.8005
 165   2.0000      -0.688695       -18.7404
 166   2.0000      -0.685502       -18.6534
 167   2.0000      -0.680470       -18.5165
 168   2.0000      -0.674693       -18.3593
 169   2.0000      -0.672112       -18.2891
 170   2.0000      -0.668492       -18.1906
 171   2.0000      -0.666061       -18.1244
 172   2.0000      -0.649034       -17.6611
 173   2.0000      -0.643955       -17.5229
 174   2.0000      -0.638839       -17.3837
 175   2.0000      -0.637952       -17.3595
 176   2.0000      -0.635956       -17.3052
 177   2.0000      -0.635125       -17.2826
 178   2.0000      -0.630115       -17.1463
 179   2.0000      -0.626931       -17.0597
 180   2.0000      -0.620195       -16.8764
 181   2.0000      -0.618828       -16.8392
 182   2.0000      -0.615814       -16.7571
 183   2.0000      -0.608473       -16.5574
 184   2.0000      -0.601573       -16.3696
 185   2.0000      -0.596406       -16.2290
 186   2.0000      -0.590311       -16.0632
 187   2.0000      -0.584039       -15.8925
 188   2.0000      -0.579720       -15.7750
 189   2.0000      -0.576114       -15.6769
 190   2.0000      -0.574535       -15.6339
 191   2.0000      -0.562938       -15.3183
 192   2.0000      -0.559273       -15.2186
 193   2.0000      -0.554620       -15.0920
 194   2.0000      -0.551851       -15.0166
 195   2.0000      -0.551239       -15.0000
 196   2.0000      -0.548969       -14.9382
 197   2.0000      -0.547315       -14.8932
 198   2.0000      -0.545735       -14.8502
 199   2.0000      -0.538853       -14.6629
 200   2.0000      -0.537251       -14.6193
 201   2.0000      -0.535926       -14.5833
 202   2.0000      -0.531422       -14.4607
 203   2.0000      -0.531268       -14.4565
 204   2.0000      -0.530015       -14.4224
 205   2.0000      -0.526260       -14.3203
 206   2.0000      -0.518717       -14.1150
 207   2.0000      -0.516462       -14.0537
 208   2.0000      -0.514102       -13.9894
 209   2.0000      -0.509171       -13.8553
 210   2.0000      -0.506183       -13.7739
 211   2.0000      -0.504878       -13.7384
 212   2.0000      -0.503943       -13.7130
 213   2.0000      -0.501298       -13.6410
 214   2.0000      -0.500452       -13.6180
 215   2.0000      -0.498777       -13.5724
 216   2.0000      -0.496754       -13.5174
 217   2.0000      -0.495148       -13.4737
 218   2.0000      -0.492111       -13.3910
 219   2.0000      -0.489507       -13.3202
 220   2.0000      -0.487727       -13.2717
 221   2.0000      -0.484881       -13.1943
 222   2.0000      -0.484605       -13.1868
 223   2.0000      -0.478290       -13.0149
 224   2.0000      -0.477530       -12.9943
 225   2.0000      -0.476077       -12.9547
 226   2.0000      -0.473579       -12.8867
 227   2.0000      -0.470179       -12.7942
 228   2.0000      -0.468359       -12.7447
 229   2.0000      -0.464333       -12.6351
 230   2.0000      -0.463236       -12.6053
 231   2.0000      -0.462597       -12.5879
 232   2.0000      -0.461565       -12.5598
 233   2.0000      -0.459128       -12.4935
 234   2.0000      -0.458587       -12.4788
 235   2.0000      -0.456257       -12.4154
 236   2.0000      -0.455059       -12.3828
 237   2.0000      -0.452952       -12.3255
 238   2.0000      -0.451676       -12.2907
 239   2.0000      -0.450733       -12.2651
 240   2.0000      -0.449506       -12.2317
 241   2.0000      -0.447168       -12.1681
 242   2.0000      -0.445328       -12.1180
 243   2.0000      -0.442376       -12.0377
 244   2.0000      -0.441338       -12.0094
 245   2.0000      -0.439789       -11.9673
 246   2.0000      -0.439322       -11.9546
 247   2.0000      -0.438528       -11.9329
 248   2.0000      -0.436049       -11.8655
 249   2.0000      -0.431995       -11.7552
 250   2.0000      -0.431655       -11.7459
 251   2.0000      -0.429755       -11.6942
 252   2.0000      -0.428885       -11.6706
 253   2.0000      -0.426086       -11.5944
 254   2.0000      -0.425737       -11.5849
 255   2.0000      -0.425355       -11.5745
 256   2.0000      -0.418735       -11.3944
 257   2.0000      -0.418464       -11.3870
 258   2.0000      -0.414193       -11.2708
 259   2.0000      -0.410970       -11.1831
 260   2.0000      -0.406109       -11.0508
 261   2.0000      -0.401739       -10.9319
 262   2.0000      -0.391875       -10.6635
 263   2.0000      -0.389188       -10.5903
 264   2.0000      -0.387548       -10.5457
 265   2.0000      -0.377899       -10.2831
 266   2.0000      -0.363735        -9.8977
 267   2.0000      -0.358012        -9.7420
 268   2.0000      -0.353233        -9.6120
 269   2.0000      -0.352722        -9.5981
 270   2.0000      -0.351471        -9.5640
 271   2.0000      -0.349648        -9.5144
 272   2.0000      -0.347949        -9.4682
 273   2.0000      -0.345434        -9.3997
 274   2.0000      -0.342526        -9.3206
 275   2.0000      -0.325646        -8.8613
 276   2.0000      -0.324110        -8.8195
 277   2.0000      -0.316843        -8.6217
 278   2.0000      -0.312044        -8.4912
 279   2.0000      -0.306985        -8.3535
 280   2.0000      -0.281242        -7.6530
 281   2.0000      -0.248090        -6.7509
 282   0.0000      -0.135876        -3.6974
 283   0.0000      -0.109197        -2.9714
 284   0.0000      -0.101533        -2.7629
 285   0.0000      -0.091004        -2.4763
 286   0.0000      -0.088321        -2.4033

MULLIKEN ATOMIC CHARGES
-----------------------
   0 C :    0.018707
   1 C :   -0.053658
   2 S :    0.220243
   3 C :   -0.170778
   4 C :    0.025431
   5 C :    0.147766
   6 O :   -0.129474
   7 C :   -0.143600
   8 C :    0.216474
   9 C :   -0.322341
  10 C :   -0.193490
  11 N :    0.163115
  12 C :   -0.203146
  13 N :    0.179787
  14 C :    0.044815
  15 C :   -0.101407
  16 C :    0.008875
  17 C :    0.026843
  18 C :   -0.088070
  19 S :    0.201743
  20 C :   -0.064726
  21 C :    0.040741
  22 C :    0.308147
  23 C :   -0.295392
  24 C :   -0.191914
  25 N :    0.175331
  26 C :   -0.185417
  27 N :    0.174391
  28 C :   -0.061585
  29 C :   -0.178254
  30 S :    0.210547
  31 C :    0.185962
  32 C :   -0.059628
  33 C :   -0.061273
  34 N :   -0.043822
  35 C :    0.152520
  36 C :    0.152486
  37 N :   -0.047592
  38 F :   -0.132247
  39 F :   -0.130341
  40 C :    0.185877
  41 C :   -0.012274
  42 C :   -0.014564
  43 N :   -0.284061
  44 S :    0.585335
  45 N :   -0.285909
  46 C :   -0.175778
  47 C :   -0.062257
  48 C :    0.042874
  49 C :   -0.068864
  50 S :    0.208572
  51 C :   -0.088690
  52 C :   -0.006601
  53 C :    0.312365
  54 C :   -0.302439
  55 C :   -0.187203
  56 N :    0.169457
  57 C :   -0.192612
  58 N :    0.192750
  59 C :   -0.002220
  60 C :   -0.114266
  61 S :    0.204798
  62 C :    0.025952
  63 C :   -0.092359
  64 C :    0.242416
  65 C :   -0.339491
  66 C :   -0.207489
  67 N :    0.160724
  68 C :   -0.178017
  69 N :    0.153419
  70 C :   -0.153806
  71 C :    0.020395
  72 C :    0.017710
  73 C :   -0.050891
  74 S :    0.222270
  75 C :    0.167571
  76 O :   -0.139015
  77 H :    0.009758
  78 H :    0.045370
  79 H :    0.036122
  80 H :    0.017257
  81 H :    0.021638
  82 H :    0.022045
  83 H :    0.036147
  84 H :    0.007833
  85 H :    0.009737
  86 H :    0.044642
Sum of atomic charges:   -0.0000000

LOEWDIN ATOMIC CHARGES
----------------------
   0 C :   -0.034602
   1 C :   -0.151809
   2 S :    0.509199
   3 C :   -0.174617
   4 C :   -0.069845
   5 C :    0.082210
   6 O :   -0.131916
   7 C :   -0.094879
   8 C :    0.046418
   9 C :   -0.146678
  10 C :   -0.035282
  11 N :   -0.042681
  12 C :   -0.038029
  13 N :   -0.044804
  14 C :    0.044886
  15 C :   -0.178763
  16 C :    0.009876
  17 C :   -0.067065
  18 C :   -0.154986
  19 S :    0.507790
  20 C :   -0.186128
  21 C :   -0.063084
  22 C :    0.080659
  23 C :   -0.098514
  24 C :   -0.017366
  25 N :   -0.029716
  26 C :   -0.016070
  27 N :   -0.030639
  28 C :   -0.010067
  29 C :   -0.161702
  30 S :    0.515064
  31 C :   -0.039975
  32 C :   -0.016860
  33 C :   -0.016021
  34 N :   -0.055493
  35 C :    0.065514
  36 C :    0.065028
  37 N :   -0.055022
  38 F :   -0.021527
  39 F :   -0.020551
  40 C :   -0.042629
  41 C :   -0.037520
  42 C :   -0.038270
  43 N :   -0.272890
  44 S :    0.704184
  45 N :   -0.273012
  46 C :   -0.159958
  47 C :   -0.012727
  48 C :   -0.061669
  49 C :   -0.190622
  50 S :    0.512967
  51 C :   -0.161617
  52 C :   -0.071315
  53 C :    0.076417
  54 C :   -0.096243
  55 C :   -0.015026
  56 N :   -0.032380
  57 C :   -0.022487
  58 N :   -0.019086
  59 C :    0.014439
  60 C :   -0.177053
  61 S :    0.495863
  62 C :    0.033913
  63 C :   -0.091412
  64 C :    0.063149
  65 C :   -0.145220
  66 C :   -0.034586
  67 N :   -0.045638
  68 C :   -0.025104
  69 N :   -0.049885
  70 C :   -0.177793
  71 C :   -0.067271
  72 C :   -0.033933
  73 C :   -0.151777
  74 S :    0.511416
  75 C :    0.085899
  76 O :   -0.128469
  77 H :    0.043789
  78 H :    0.031374
  79 H :    0.055393
  80 H :    0.046961
  81 H :    0.038427
  82 H :    0.038252
  83 H :    0.043621
  84 H :    0.042513
  85 H :    0.043952
  86 H :    0.031109

  Mayer bond orders larger than 0.100000
B(  0-C ,  1-C ) :   1.5484 B(  0-C ,  4-C ) :   1.2752 B(  0-C , 77-H ) :   1.0072
B(  1-C ,  2-S ) :   1.1663 B(  1-C , 78-H ) :   0.9684 B(  2-S ,  3-C ) :   1.1554
B(  3-C ,  4-C ) :   1.4385 B(  3-C ,  8-C ) :   1.0941 B(  4-C ,  5-C ) :   0.9402
B(  5-C ,  6-O ) :   2.2741 B(  5-C ,  7-C ) :   0.9264 B(  7-C ,  8-C ) :   1.0278
B(  7-C , 14-C ) :   1.6904 B(  8-C ,  9-C ) :   1.6521 B(  9-C , 10-C ) :   1.1285
B(  9-C , 12-C ) :   1.1590 B( 10-C , 11-N ) :   3.0134 B( 12-C , 13-N ) :   3.0199
B( 14-C , 15-C ) :   1.1147 B( 14-C , 79-H ) :   0.9459 B( 15-C , 16-C ) :   1.4113
B( 15-C , 19-S ) :   1.0927 B( 16-C , 17-C ) :   1.3018 B( 16-C , 80-H ) :   1.0007
B( 17-C , 18-C ) :   1.3993 B( 17-C , 22-C ) :   0.9885 B( 18-C , 19-S ) :   1.1484
B( 18-C , 20-C ) :   1.2124 B( 20-C , 21-C ) :   1.3998 B( 20-C , 30-S ) :   1.0880
B( 21-C , 22-C ) :   0.9932 B( 21-C , 28-C ) :   1.2814 B( 22-C , 23-C ) :   1.7153
B( 23-C , 24-C ) :   1.1315 B( 23-C , 26-C ) :   1.1384 B( 24-C , 25-N ) :   2.9946
B( 26-C , 27-N ) :   2.9855 B( 28-C , 29-C ) :   1.4142 B( 28-C , 81-H ) :   0.9811
B( 29-C , 30-S ) :   1.0958 B( 29-C , 31-C ) :   1.1905 B( 31-C , 32-C ) :   1.2949
B( 31-C , 40-C ) :   0.1281 B( 31-C , 42-C ) :   1.1989 B( 32-C , 33-C ) :   1.1228
B( 32-C , 37-N ) :   1.3779 B( 33-C , 34-N ) :   1.3788 B( 33-C , 40-C ) :   1.2989
B( 34-N , 35-C ) :   1.6522 B( 35-C , 36-C ) :   1.1076 B( 35-C , 39-F ) :   1.1925
B( 36-C , 37-N ) :   1.6538 B( 36-C , 38-F ) :   1.1894 B( 40-C , 41-C ) :   1.1962
B( 40-C , 46-C ) :   1.1879 B( 41-C , 42-C ) :   1.1009 B( 41-C , 45-N ) :   1.5109
B( 42-C , 43-N ) :   1.5126 B( 43-N , 44-S ) :   1.2860 B( 43-N , 45-N ) :   0.1486
B( 44-S , 45-N ) :   1.2863 B( 46-C , 47-C ) :   1.4147 B( 46-C , 50-S ) :   1.0980
B( 47-C , 48-C ) :   1.2794 B( 47-C , 82-H ) :   0.9815 B( 48-C , 49-C ) :   1.4027
B( 48-C , 53-C ) :   0.9917 B( 49-C , 50-S ) :   1.0823 B( 49-C , 51-C ) :   1.2079
B( 51-C , 52-C ) :   1.3792 B( 51-C , 61-S ) :   1.1611 B( 52-C , 53-C ) :   0.9935
B( 52-C , 59-C ) :   1.3157 B( 53-C , 54-C ) :   1.7148 B( 54-C , 55-C ) :   1.1401
B( 54-C , 57-C ) :   1.1342 B( 55-C , 56-N ) :   2.9830 B( 57-C , 58-N ) :   2.9986
B( 59-C , 60-C ) :   1.4049 B( 59-C , 83-H ) :   0.9751 B( 60-C , 61-S ) :   1.0803
B( 60-C , 62-C ) :   1.1937 B( 62-C , 63-C ) :   1.6435 B( 62-C , 84-H ) :   0.9137
B( 63-C , 64-C ) :   1.0801 B( 63-C , 75-C ) :   0.9204 B( 64-C , 65-C ) :   1.6279
B( 64-C , 70-C ) :   1.0960 B( 65-C , 66-C ) :   1.1445 B( 65-C , 68-C ) :   1.1410
B( 66-C , 67-N ) :   3.0038 B( 68-C , 69-N ) :   2.9706 B( 70-C , 71-C ) :   1.4375
B( 70-C , 74-S ) :   1.1440 B( 71-C , 72-C ) :   1.2733 B( 71-C , 75-C ) :   0.9700
B( 72-C , 73-C ) :   1.5422 B( 72-C , 85-H ) :   1.0070 B( 73-C , 74-S ) :   1.1683
B( 73-C , 86-H ) :   0.9674 B( 75-C , 76-O ) :   2.1850

-----------------------------------------------------------------------------
         ABSORPTION SPECTRUM VIA TRANSITION ELECTRIC DIPOLE MOMENTS
-----------------------------------------------------------------------------
State   Energy  Wavelength   fosc         T2         TX        TY        TZ
        (cm-1)    (nm)                  (au**2)     (au)      (au)      (au)
-----------------------------------------------------------------------------
   0    9585.4   1043.3   1.003395344  34.46168   1.44108   2.97005  -4.85425
   1   13812.0    724.0   0.024675849   0.58815   0.10565  -0.36981  -0.66350
   2   14904.3    670.9   0.000461634   0.01020  -0.05308  -0.07831   0.03531
   3   18005.0    555.4   0.026108209   0.47737   0.15742  -0.45618  -0.49446
   4   19935.2    501.6   0.267724805   4.42124   0.36669   1.97163  -0.63201
   5   21526.1    464.6   0.660166819  10.09635   0.38968   0.55905  -3.10354
   6   23081.0    433.3   0.006699201   0.09555   0.26017  -0.00193   0.16692
   7   24662.6    405.5   0.016428910   0.21930  -0.13234   0.06890  -0.44389
   8   24932.8    401.1   0.377343965   4.98243  -0.50461  -1.08594   1.88375
   9   25601.7    390.6   0.158001113   2.03174   0.29975   0.42537  -1.32701
  10   25907.6    386.0   0.128020725   1.62678   0.70430   1.04335  -0.20531
  11   26207.1    381.6   0.061926857   0.77792  -0.32162   0.32982   0.75213
  12   26530.9    376.9   0.060366789   0.74907  -0.35688  -0.60622   0.50418
  13   26886.7    371.9   0.022534288   0.27592   0.19804   0.04833   0.48411
  14   27346.6    365.7   0.107316628   1.29193  -0.36276  -0.92888   0.54546
  15   27784.1    359.9   0.158607501   1.87933  -0.94817  -0.80689   0.57379
  16   28883.7    346.2   0.054686476   0.62331  -0.13064   0.64165   0.44106
  17   29853.3    335.0   0.123603939   1.36306  -0.47460  -0.69310  -0.81082
  18   29938.0    334.0   0.035055339   0.38548  -0.31873  -0.52815   0.07037
  19   30344.7    329.5   0.076880392   0.83408   0.48388   0.38144   0.67412
  20   30490.3    328.0   0.103350818   1.11591  -0.49920  -0.89921  -0.24110
  21   30671.3    326.0   0.017737047   0.19038   0.02893   0.42196   0.10722
  22   30992.4    322.7   0.163500343   1.73676   0.73886   1.09108   0.01973
  23   31137.4    321.2   0.051878682   0.54851  -0.29310  -0.58335  -0.34971
  24   31335.6    319.1   0.175600080   1.84485  -0.07242  -0.13556  -1.34953
  25   31367.3    318.8   0.088650393   0.93042   0.58418   0.56994   0.51413
  26   31562.9    316.8   0.299183328   3.12059   1.16526   1.30169   0.26144
  27   31693.1    315.5   0.002623295   0.02725   0.08625   0.00207   0.14074
  28   31738.1    315.1   0.436242047   4.52503   0.77556   0.71641  -1.84670
  29   31937.7    313.1   0.143174948   1.47584  -0.43298  -0.74207   0.85889
  30   32321.5    309.4   0.238381343   2.42804  -1.04010  -0.19656   1.14350
  31   32541.1    307.3   0.149600838   1.51348  -0.90695  -0.15911  -0.81585
  32   32738.8    305.4   0.452944422   4.55468   1.52340   1.41370   0.48517
  33   32901.7    303.9   0.026054762   0.26070   0.32376   0.24701  -0.30801
  34   33452.3    298.9   0.035108990   0.34552   0.41463   0.00314  -0.41664
  35   33560.0    298.0   0.191033545   1.87397  -1.24380  -0.47351  -0.32050
  36   33924.8    294.8   0.097587771   0.94701   0.64620   0.46523   0.55945
  37   34458.6    290.2   0.422856158   4.03990  -1.40630  -1.43586  -0.02265
  38   34572.9    289.2   0.042390702   0.40365   0.02598  -0.36268  -0.52101
  39   34909.4    286.5   0.120363517   1.13509  -0.42570  -0.67560   0.70529
  40   34968.3    286.0   0.002316193   0.02181  -0.10997  -0.05097   0.08435
  41   35159.8    284.4   0.107944714   1.01072  -0.71193  -0.69503  -0.14423
  42   35360.7    282.8   0.037933219   0.35316  -0.12416   0.16482   0.55730
  43   35633.3    280.6   0.107015976   0.98871  -0.65017  -0.59246  -0.46366
  44   35815.7    279.2   0.366121170   3.36533  -0.14136  -0.46322  -1.76940
  45   35899.8    278.6   0.485999598   4.45677  -1.39134  -1.57946   0.16202
  46   36092.8    277.1   0.057844717   0.52762   0.50750   0.25461   0.45304
  47   36212.6    276.1   0.028174934   0.25614  -0.02277  -0.19820   0.46512
  48   36339.8    275.2   0.153510114   1.39069   0.46543   0.52361   0.94863
  49   36473.4    274.2   0.037095691   0.33483   0.55948  -0.03349   0.14382
  50   36731.4    272.2   0.001492799   0.01338  -0.01798  -0.08764  -0.07332
  51   37288.3    268.2   0.027398702   0.24190  -0.06821   0.45529   0.17307
  52   37400.6    267.4   0.015502706   0.13646   0.13062   0.21894   0.26733
  53   37544.9    266.3   0.103233563   0.90520  -0.64988  -0.55252  -0.42141
  54   37755.5    264.9   0.031239557   0.27240   0.00070   0.00905  -0.52184
  55   38028.3    263.0   0.002512958   0.02175  -0.06792   0.00230  -0.13091
  56   38572.5    259.3   0.028708810   0.24503   0.31333   0.33757  -0.18138
  57   38656.7    258.7   0.026017631   0.22157  -0.10734   0.01494   0.45807
  58   38724.4    258.2   0.009388080   0.07981   0.12859   0.07282   0.24078
  59   38884.9    257.2   0.003491519   0.02956   0.04002  -0.00693   0.16706
  60   38985.0    256.5   0.030724706   0.25946  -0.04705  -0.08443   0.50011
  61   39102.6    255.7   0.005218388   0.04393   0.07418   0.07114  -0.18267
  62   39385.2    253.9   0.000217363   0.00182  -0.00249  -0.03774   0.01966
  63   39689.6    252.0   0.005806888   0.04817  -0.14064  -0.15819  -0.05799
  64   40098.0    249.4   0.026554628   0.21802   0.16336   0.29119  -0.32641

FINAL SINGLE POINT ENERGY     -5853.341951125983

DIPOLE MOMENT
-------------
                                X             Y             Z
Electronic contribution:      8.91178       2.99227       3.96820
Nuclear contribution   :     -7.39026      -1.64051      -3.87010
                        -----------------------------------------
Total Dipole Moment    :      1.52152       1.35175       0.09810
                        -----------------------------------------
Magnitude (a.u.)       :      2.03762
Magnitude (Debye)      :      5.17921

Rotational constants in cm-1:     0.001681     0.000203     0.000185
Rotational constants in MHz :    50.396802     6.085322     5.553878

                             ****ORCA TERMINATED NORMALLY****
TOTAL RUN TIME: 0 days 0 hours 10 minutes 16 seconds 829 msec
