                         Program Version 4.2.0 -  RELEASE  -
|  1> # ORCA input file
|  2> # SCF done       -188.490140531968          0.000614974983
|  3> ! CAM-B3LYP def2-SVP def2/J RIJCOSX Grid4 TightSCF
|  4> %maxcore 5000
|  5> %tddft
|  6>     Mode sTDDFT
|  7>     Ethresh 5.0
|  8>     maxcore 5000
|  9> end
| 10>
| 11> %pal
| 12>   nprocs 6
| 13>   end
| 14> * xyz 0 1
| 15>    C        5.84282        -1.08890       -10.99710
| 16>    C        6.50046        -1.23233       -12.18859
| 17>    C        7.88444        -1.01602       -12.26396
| 18>    C        8.59105        -0.65889       -11.14795
| 19>    C        7.94515        -0.49919        -9.90528
| 20>    C        8.66789        -0.11523        -8.75202
| 21>    C        8.00566         0.03555        -7.56424
| 22>    C        6.60278        -0.20965        -7.48881
| 23>    C        5.87986        -0.57328        -8.58802
| 24>    C        6.53982        -0.72233        -9.82891
| 25>    C        6.14655        -0.01492        -6.10019
| 26>    O        5.01951        -0.08402        -5.66562
| 27>    C        7.39021         0.22431        -5.31415
| 28>    C        8.46823         0.46557        -6.24949
| 29>    C        9.58543         1.22250        -6.00943
| 30>    C        9.81560         1.88543        -4.78620
| 31>    N        9.99560         2.48449        -3.82353
| 32>    C       10.56254         1.50628        -6.98339
| 33>    N       11.39366         1.74566        -7.73823
| 34>    C        7.36476         0.08849        -3.96108
| 35>    C        8.43006        -0.14478        -3.06003
| 36>    C        8.37180         0.02941        -1.68741
| 37>    C        9.56005        -0.32510        -1.06102
| 38>    C       10.53630        -0.82020        -1.94287
| 39>    S        9.97228        -0.82568        -3.56705
| 40>    C       11.71705        -1.17490        -1.29466
| 41>    C       11.64294        -0.94434         0.08890
| 42>    S       10.10548        -0.29559         0.59213
| 43>    C       12.80971        -1.26843         0.76844
| 44>    C       13.78815        -1.74872        -0.08775
| 45>    S       13.26022        -1.80801        -1.75750
| 46>    C       15.10500        -2.15517         0.25465
| 47>    C       15.99336        -2.61233        -0.74591
| 48>    C       17.33619        -3.00749        -0.45672
| 49>    N       18.13150        -3.42855        -1.45479
| 50>    C       17.66700        -3.46807        -2.67172
| 51>    C       16.34210        -3.07788        -2.95690
| 52>    N       15.54476        -2.66708        -2.01144
| 53>    C       17.87434        -2.96757         0.85025
| 54>    C       16.99059        -2.52514         1.85876
| 55>    C       15.62807        -2.12681         1.56605
| 56>    N       14.98294        -1.74595         2.67090
| 57>    S       15.96592        -1.87147         3.93029
| 58>    N       17.26334        -2.41228         3.16058
| 59>    C       19.22409        -3.34466         1.08124
| 60>    C       19.90517        -3.33186         2.28870
| 61>    C       21.22275        -3.74653         2.14359
| 62>    C       21.55928        -4.08671         0.82314
| 63>    S       20.22047        -3.88242        -0.25504
| 64>    C       22.88860        -4.48672         0.71018
| 65>    C       23.57419        -4.44646         1.94131
| 66>    S       22.55493        -3.92111         3.25515
| 67>    C       24.90673        -4.82144         1.86052
| 68>    C       25.27337        -5.15858         0.56532
| 69>    S       23.91428        -5.01476        -0.55864
| 70>    C       26.48369        -5.59917        -0.00344
| 71>    C       27.74906        -5.69239         0.50948
| 72>    C       28.88403        -6.17857        -0.25976
| 73>    C       28.84143        -6.90241        -1.42360
| 74>    C       29.98747        -7.35269        -2.11208
| 75>    N       30.87615        -7.74584        -2.72370
| 76>    C       27.67447        -7.34736        -2.08018
| 77>    N       26.78227        -7.76857        -2.66878
| 78>    C       30.09892        -5.83114         0.46680
| 79>    C       29.72583        -5.25769         1.71431
| 80>    C       30.65366        -4.83792         2.62305
| 81>    C       32.02644        -4.96625         2.31415
| 82>    C       33.03040        -4.54608         3.20842
| 83>    C       34.35393        -4.67341         2.88424
| 84>    C       34.73129        -5.22750         1.65200
| 85>    C       33.78072        -5.64648         0.76140
| 86>    C       32.40861        -5.53011         1.06291
| 87>    C       31.42375        -5.96259         0.14523
| 88>    C       28.25672        -5.20094         1.81347
| 89>    O       27.62673        -4.81422         2.77681
| 90>    H        4.77722        -1.25419       -10.93292
| 91>    H        5.95812        -1.51302       -13.07909
| 92>    H        8.38813        -1.13276       -13.21186
| 93>    H        9.65613        -0.48736       -11.20184
| 94>    H        9.73231         0.04204        -8.83325
| 95>    H        4.81609        -0.74376        -8.51375
| 96>    H        6.37302         0.08004        -3.51775
| 97>    H        7.51067         0.42986        -1.18482
| 98>    H       12.96554        -1.16529         1.82559
| 99>    H       18.34151        -3.81215        -3.44230
|100>    H       15.94027        -3.10459        -3.95936
|101>    H       19.44417        -3.02862         3.20960
|102>    H       25.59347        -4.84638         2.68633
|103>    H       26.37533        -5.87734        -1.04591
|104>    H       30.34380        -4.40929         3.56464
|105>    H       32.73385        -4.11977         4.15569
|106>    H       35.11712        -4.34750         3.57510
|107>    H       35.77979        -5.32073         1.41160
|108>    H       34.06597        -6.07501        -0.18822
|109>    H       31.74572        -6.38033        -0.79529
|110> *
|111>
|112>                          ****END OF INPUT****

CARTESIAN COORDINATES (ANGSTROEM)
---------------------------------
  C      5.842820   -1.088900  -10.997100
  C      6.500460   -1.232330  -12.188590
  C      7.884440   -1.016020  -12.263960
  C      8.591050   -0.658890  -11.147950
  C      7.945150   -0.499190   -9.905280
  C      8.667890   -0.115230   -8.752020
  C      8.005660    0.035550   -7.564240
  C      6.602780   -0.209650   -7.488810
  C      5.879860   -0.573280   -8.588020
  C      6.539820   -0.722330   -9.828910
  C      6.146550   -0.014920   -6.100190
  O      5.019510   -0.084020   -5.665620
  C      7.390210    0.224310   -5.314150
  C      8.468230    0.465570   -6.249490
  C      9.585430    1.222500   -6.009430
  C      9.815600    1.885430   -4.786200
  N      9.995600    2.484490   -3.823530
  C     10.562540    1.506280   -6.983390
  N     11.393660    1.745660   -7.738230
  C      7.364760    0.088490   -3.961080
  C      8.430060   -0.144780   -3.060030
  C      8.371800    0.029410   -1.687410
  C      9.560050   -0.325100   -1.061020
  C     10.536300   -0.820200   -1.942870
  S      9.972280   -0.825680   -3.567050
  C     11.717050   -1.174900   -1.294660
  C     11.642940   -0.944340    0.088900
  S     10.105480   -0.295590    0.592130
  C     12.809710   -1.268430    0.768440
  C     13.788150   -1.748720   -0.087750
  S     13.260220   -1.808010   -1.757500
  C     15.105000   -2.155170    0.254650
  C     15.993360   -2.612330   -0.745910
  C     17.336190   -3.007490   -0.456720
  N     18.131500   -3.428550   -1.454790
  C     17.667000   -3.468070   -2.671720
  C     16.342100   -3.077880   -2.956900
  N     15.544760   -2.667080   -2.011440
  C     17.874340   -2.967570    0.850250
  C     16.990590   -2.525140    1.858760
  C     15.628070   -2.126810    1.566050
  N     14.982940   -1.745950    2.670900
  S     15.965920   -1.871470    3.930290
  N     17.263340   -2.412280    3.160580
  C     19.224090   -3.344660    1.081240
  C     19.905170   -3.331860    2.288700
  C     21.222750   -3.746530    2.143590
  C     21.559280   -4.086710    0.823140
  S     20.220470   -3.882420   -0.255040
  C     22.888600   -4.486720    0.710180
  C     23.574190   -4.446460    1.941310
  S     22.554930   -3.921110    3.255150
  C     24.906730   -4.821440    1.860520
  C     25.273370   -5.158580    0.565320
  S     23.914280   -5.014760   -0.558640
  C     26.483690   -5.599170   -0.003440
  C     27.749060   -5.692390    0.509480
  C     28.884030   -6.178570   -0.259760
  C     28.841430   -6.902410   -1.423600
  C     29.987470   -7.352690   -2.112080
  N     30.876150   -7.745840   -2.723700
  C     27.674470   -7.347360   -2.080180
  N     26.782270   -7.768570   -2.668780
  C     30.098920   -5.831140    0.466800
  C     29.725830   -5.257690    1.714310
  C     30.653660   -4.837920    2.623050
  C     32.026440   -4.966250    2.314150
  C     33.030400   -4.546080    3.208420
  C     34.353930   -4.673410    2.884240
  C     34.731290   -5.227500    1.652000
  C     33.780720   -5.646480    0.761400
  C     32.408610   -5.530110    1.062910
  C     31.423750   -5.962590    0.145230
  C     28.256720   -5.200940    1.813470
  O     27.626730   -4.814220    2.776810
  H      4.777220   -1.254190  -10.932920
  H      5.958120   -1.513020  -13.079090
  H      8.388130   -1.132760  -13.211860
  H      9.656130   -0.487360  -11.201840
  H      9.732310    0.042040   -8.833250
  H      4.816090   -0.743760   -8.513750
  H      6.373020    0.080040   -3.517750
  H      7.510670    0.429860   -1.184820
  H     12.965540   -1.165290    1.825590
  H     18.341510   -3.812150   -3.442300
  H     15.940270   -3.104590   -3.959360
  H     19.444170   -3.028620    3.209600
  H     25.593470   -4.846380    2.686330
  H     26.375330   -5.877340   -1.045910
  H     30.343800   -4.409290    3.564640
  H     32.733850   -4.119770    4.155690
  H     35.117120   -4.347500    3.575100
  H     35.779790   -5.320730    1.411600
  H     34.065970   -6.075010   -0.188220
  H     31.745720   -6.380330   -0.795290

 Total Charge           Charge          ....    0
 Multiplicity           Mult            ....    1
 Number of Electrons    NEL             ....  552
 Basis Dimension        Dim             .... 1178

ORBITAL ENERGIES
----------------

  NO   OCC          E(Eh)            E(eV)
   0   2.0000     -89.047455     -2423.1044
   1   2.0000     -88.968488     -2420.9556
   2   2.0000     -88.966881     -2420.9119
   3   2.0000     -88.961917     -2420.7768
   4   2.0000     -88.960735     -2420.7447
   5   2.0000     -88.960559     -2420.7399
   6   2.0000     -88.960456     -2420.7371
   7   2.0000     -19.212921      -522.8101
   8   2.0000     -19.208589      -522.6923
   9   2.0000     -14.456316      -393.3764
  10   2.0000     -14.456004      -393.3679
  11   2.0000     -14.450512      -393.2184
  12   2.0000     -14.450302      -393.2127
  13   2.0000     -14.411054      -392.1447
  14   2.0000     -14.409246      -392.0955
  15   2.0000     -14.407229      -392.0406
  16   2.0000     -14.406537      -392.0218
  17   2.0000     -10.364040      -282.0199
  18   2.0000     -10.360453      -281.9223
  19   2.0000     -10.345043      -281.5029
  20   2.0000     -10.345000      -281.5018
  21   2.0000     -10.344776      -281.4957
  22   2.0000     -10.344636      -281.4919
  23   2.0000     -10.339965      -281.3648
  24   2.0000     -10.339618      -281.3553
  25   2.0000     -10.337252      -281.2909
  26   2.0000     -10.335694      -281.2485
  27   2.0000     -10.334035      -281.2034
  28   2.0000     -10.333397      -281.1860
  29   2.0000     -10.319142      -280.7981
  30   2.0000     -10.318789      -280.7885
  31   2.0000     -10.317960      -280.7660
  32   2.0000     -10.317527      -280.7542
  33   2.0000     -10.317418      -280.7512
  34   2.0000     -10.316997      -280.7398
  35   2.0000     -10.316964      -280.7389
  36   2.0000     -10.316480      -280.7257
  37   2.0000     -10.316169      -280.7172
  38   2.0000     -10.314877      -280.6821
  39   2.0000     -10.313686      -280.6497
  40   2.0000     -10.312433      -280.6156
  41   2.0000     -10.310706      -280.5686
  42   2.0000     -10.310479      -280.5624
  43   2.0000     -10.308931      -280.5203
  44   2.0000     -10.308895      -280.5193
  45   2.0000     -10.307990      -280.4947
  46   2.0000     -10.307465      -280.4804
  47   2.0000     -10.302302      -280.3399
  48   2.0000     -10.302108      -280.3346
  49   2.0000     -10.301349      -280.3139
  50   2.0000     -10.299246      -280.2567
  51   2.0000     -10.296722      -280.1881
  52   2.0000     -10.294306      -280.1223
  53   2.0000     -10.293851      -280.1099
  54   2.0000     -10.293346      -280.0962
  55   2.0000     -10.293063      -280.0885
  56   2.0000     -10.292919      -280.0846
  57   2.0000     -10.292573      -280.0751
  58   2.0000     -10.292567      -280.0750
  59   2.0000     -10.291765      -280.0532
  60   2.0000     -10.291627      -280.0494
  61   2.0000     -10.291440      -280.0443
  62   2.0000     -10.291156      -280.0366
  63   2.0000     -10.286356      -279.9060
  64   2.0000     -10.285929      -279.8943
  65   2.0000     -10.285250      -279.8759
  66   2.0000     -10.283368      -279.8247
  67   2.0000     -10.283087      -279.8170
  68   2.0000     -10.283014      -279.8150
  69   2.0000     -10.282750      -279.8079
  70   2.0000     -10.282475      -279.8004
  71   2.0000     -10.282275      -279.7949
  72   2.0000     -10.281992      -279.7872
  73   2.0000     -10.281695      -279.7792
  74   2.0000     -10.281172      -279.7649
  75   2.0000      -8.138729      -221.4661
  76   2.0000      -8.063287      -219.4132
  77   2.0000      -8.062285      -219.3859
  78   2.0000      -8.057166      -219.2466
  79   2.0000      -8.055715      -219.2071
  80   2.0000      -8.053611      -219.1499
  81   2.0000      -8.053403      -219.1442
  82   2.0000      -6.109863      -166.2578
  83   2.0000      -6.101899      -166.0411
  84   2.0000      -6.101596      -166.0329
  85   2.0000      -6.032859      -164.1624
  86   2.0000      -6.031660      -164.1298
  87   2.0000      -6.028755      -164.0508
  88   2.0000      -6.027696      -164.0219
  89   2.0000      -6.026921      -164.0009
  90   2.0000      -6.025447      -163.9607
  91   2.0000      -6.024826      -163.9438
  92   2.0000      -6.023989      -163.9211
  93   2.0000      -6.023556      -163.9093
  94   2.0000      -6.023368      -163.9042
  95   2.0000      -6.023065      -163.8959
  96   2.0000      -6.021627      -163.8568
  97   2.0000      -6.018774      -163.7792
  98   2.0000      -6.018573      -163.7737
  99   2.0000      -6.018073      -163.7601
 100   2.0000      -6.016610      -163.7203
 101   2.0000      -6.015184      -163.6815
 102   2.0000      -6.014958      -163.6753
 103   2.0000      -1.144238       -31.1363
 104   2.0000      -1.127461       -30.6798
 105   2.0000      -1.123821       -30.5807
 106   2.0000      -1.108876       -30.1741
 107   2.0000      -1.036857       -28.2143
 108   2.0000      -1.023711       -27.8566
 109   2.0000      -1.021592       -27.7989
 110   2.0000      -1.012529       -27.5523
 111   2.0000      -1.011778       -27.5319
 112   2.0000      -0.999403       -27.1951
 113   2.0000      -0.993324       -27.0297
 114   2.0000      -0.992917       -27.0186
 115   2.0000      -0.990725       -26.9590
 116   2.0000      -0.987170       -26.8623
 117   2.0000      -0.986638       -26.8478
 118   2.0000      -0.980339       -26.6764
 119   2.0000      -0.969794       -26.3894
 120   2.0000      -0.966396       -26.2970
 121   2.0000      -0.964668       -26.2499
 122   2.0000      -0.935857       -25.4660
 123   2.0000      -0.929145       -25.2833
 124   2.0000      -0.918213       -24.9858
 125   2.0000      -0.917252       -24.9597
 126   2.0000      -0.896517       -24.3955
 127   2.0000      -0.894318       -24.3356
 128   2.0000      -0.888746       -24.1840
 129   2.0000      -0.886996       -24.1364
 130   2.0000      -0.878231       -23.8979
 131   2.0000      -0.876833       -23.8598
 132   2.0000      -0.874078       -23.7849
 133   2.0000      -0.872673       -23.7466
 134   2.0000      -0.858379       -23.3577
 135   2.0000      -0.848625       -23.0922
 136   2.0000      -0.838472       -22.8160
 137   2.0000      -0.837841       -22.7988
 138   2.0000      -0.824497       -22.4357
 139   2.0000      -0.823361       -22.4048
 140   2.0000      -0.818857       -22.2822
 141   2.0000      -0.807911       -21.9844
 142   2.0000      -0.805087       -21.9075
 143   2.0000      -0.798182       -21.7196
 144   2.0000      -0.789131       -21.4733
 145   2.0000      -0.776827       -21.1385
 146   2.0000      -0.771303       -20.9882
 147   2.0000      -0.757748       -20.6194
 148   2.0000      -0.756252       -20.5787
 149   2.0000      -0.752437       -20.4748
 150   2.0000      -0.738441       -20.0940
 151   2.0000      -0.719602       -19.5814
 152   2.0000      -0.717411       -19.5218
 153   2.0000      -0.704678       -19.1753
 154   2.0000      -0.699448       -19.0329
 155   2.0000      -0.698607       -19.0101
 156   2.0000      -0.694277       -18.8922
 157   2.0000      -0.691400       -18.8139
 158   2.0000      -0.680982       -18.5305
 159   2.0000      -0.671952       -18.2848
 160   2.0000      -0.671741       -18.2790
 161   2.0000      -0.668005       -18.1773
 162   2.0000      -0.659601       -17.9486
 163   2.0000      -0.654672       -17.8145
 164   2.0000      -0.654154       -17.8004
 165   2.0000      -0.644086       -17.5265
 166   2.0000      -0.641219       -17.4484
 167   2.0000      -0.634447       -17.2642
 168   2.0000      -0.632283       -17.2053
 169   2.0000      -0.628415       -17.1000
 170   2.0000      -0.624509       -16.9937
 171   2.0000      -0.620136       -16.8748
 172   2.0000      -0.616887       -16.7864
 173   2.0000      -0.603548       -16.4234
 174   2.0000      -0.602083       -16.3835
 175   2.0000      -0.601382       -16.3644
 176   2.0000      -0.597250       -16.2520
 177   2.0000      -0.589002       -16.0276
 178   2.0000      -0.582312       -15.8455
 179   2.0000      -0.574272       -15.6267
 180   2.0000      -0.572893       -15.5892
 181   2.0000      -0.570077       -15.5126
 182   2.0000      -0.567933       -15.4542
 183   2.0000      -0.560654       -15.2562
 184   2.0000      -0.556209       -15.1352
 185   2.0000      -0.553172       -15.0526
 186   2.0000      -0.545485       -14.8434
 187   2.0000      -0.545043       -14.8314
 188   2.0000      -0.542942       -14.7742
 189   2.0000      -0.542144       -14.7525
 190   2.0000      -0.540748       -14.7145
 191   2.0000      -0.535994       -14.5851
 192   2.0000      -0.534512       -14.5448
 193   2.0000      -0.531549       -14.4642
 194   2.0000      -0.530427       -14.4336
 195   2.0000      -0.525367       -14.2960
 196   2.0000      -0.524942       -14.2844
 197   2.0000      -0.522533       -14.2189
 198   2.0000      -0.519377       -14.1330
 199   2.0000      -0.515300       -14.0220
 200   2.0000      -0.514730       -14.0065
 201   2.0000      -0.511877       -13.9289
 202   2.0000      -0.508927       -13.8486
 203   2.0000      -0.507941       -13.8218
 204   2.0000      -0.504545       -13.7294
 205   2.0000      -0.502275       -13.6676
 206   2.0000      -0.501250       -13.6397
 207   2.0000      -0.497968       -13.5504
 208   2.0000      -0.495414       -13.4809
 209   2.0000      -0.491121       -13.3641
 210   2.0000      -0.490019       -13.3341
 211   2.0000      -0.488431       -13.2909
 212   2.0000      -0.486518       -13.2388
 213   2.0000      -0.484210       -13.1760
 214   2.0000      -0.482985       -13.1427
 215   2.0000      -0.479547       -13.0491
 216   2.0000      -0.477950       -13.0057
 217   2.0000      -0.476886       -12.9767
 218   2.0000      -0.472788       -12.8652
 219   2.0000      -0.464329       -12.6350
 220   2.0000      -0.461803       -12.5663
 221   2.0000      -0.459806       -12.5120
 222   2.0000      -0.459518       -12.5041
 223   2.0000      -0.454754       -12.3745
 224   2.0000      -0.451148       -12.2764
 225   2.0000      -0.450239       -12.2516
 226   2.0000      -0.446529       -12.1507
 227   2.0000      -0.444066       -12.0836
 228   2.0000      -0.442755       -12.0480
 229   2.0000      -0.441493       -12.0136
 230   2.0000      -0.438323       -11.9274
 231   2.0000      -0.438057       -11.9201
 232   2.0000      -0.435903       -11.8615
 233   2.0000      -0.435051       -11.8383
 234   2.0000      -0.433894       -11.8069
 235   2.0000      -0.429248       -11.6804
 236   2.0000      -0.428135       -11.6501
 237   2.0000      -0.427634       -11.6365
 238   2.0000      -0.426525       -11.6063
 239   2.0000      -0.425209       -11.5705
 240   2.0000      -0.422643       -11.5007
 241   2.0000      -0.419997       -11.4287
 242   2.0000      -0.417840       -11.3700
 243   2.0000      -0.417320       -11.3559
 244   2.0000      -0.415760       -11.3134
 245   2.0000      -0.412970       -11.2375
 246   2.0000      -0.410589       -11.1727
 247   2.0000      -0.410160       -11.1610
 248   2.0000      -0.409454       -11.1418
 249   2.0000      -0.399960       -10.8835
 250   2.0000      -0.399583       -10.8732
 251   2.0000      -0.393080       -10.6963
 252   2.0000      -0.388364       -10.5679
 253   2.0000      -0.383363       -10.4318
 254   2.0000      -0.377251       -10.2655
 255   2.0000      -0.376061       -10.2331
 256   2.0000      -0.368799       -10.0355
 257   2.0000      -0.366778        -9.9805
 258   2.0000      -0.365453        -9.9445
 259   2.0000      -0.353155        -9.6098
 260   2.0000      -0.347231        -9.4486
 261   2.0000      -0.338097        -9.2001
 262   2.0000      -0.334627        -9.1057
 263   2.0000      -0.333830        -9.0840
 264   2.0000      -0.332110        -9.0372
 265   2.0000      -0.329688        -8.9713
 266   2.0000      -0.326759        -8.8916
 267   2.0000      -0.313044        -8.5184
 268   2.0000      -0.311398        -8.4736
 269   2.0000      -0.300349        -8.1729
 270   2.0000      -0.291220        -7.9245
 271   2.0000      -0.288752        -7.8574
 272   2.0000      -0.286692        -7.8013
 273   2.0000      -0.284960        -7.7541
 274   2.0000      -0.267046        -7.2667
 275   2.0000      -0.234668        -6.3856
 276   0.0000      -0.123189        -3.3521
 277   0.0000      -0.088378        -2.4049
 278   0.0000      -0.084497        -2.2993
 279   0.0000      -0.052753        -1.4355
 280   0.0000      -0.050637        -1.3779

MULLIKEN ATOMIC CHARGES
-----------------------
   0 C :   -0.017468
   1 C :    0.034868
   2 C :    0.036656
   3 C :   -0.019448
   4 C :    0.097020
   5 C :   -0.083489
   6 C :    0.038675
   7 C :    0.013174
   8 C :   -0.084448
   9 C :    0.094884
  10 C :    0.139266
  11 O :   -0.145893
  12 C :   -0.138963
  13 C :    0.249409
  14 C :   -0.318727
  15 C :   -0.206606
  16 N :    0.166424
  17 C :   -0.170233
  18 N :    0.146080
  19 C :    0.046930
  20 C :   -0.089065
  21 C :    0.006035
  22 C :   -0.010973
  23 C :   -0.076586
  24 S :    0.167786
  25 C :   -0.036129
  26 C :   -0.005544
  27 S :    0.162135
  28 C :   -0.059035
  29 C :   -0.160341
  30 S :    0.168912
  31 C :    0.181970
  32 C :   -0.046956
  33 C :   -0.041762
  34 N :   -0.078888
  35 C :    0.048543
  36 C :    0.047915
  37 N :   -0.076564
  38 C :    0.180091
  39 C :   -0.014053
  40 C :   -0.010348
  41 N :   -0.293450
  42 S :    0.549889
  43 N :   -0.293175
  44 C :   -0.158568
  45 C :   -0.062291
  46 C :   -0.000122
  47 C :   -0.043383
  48 S :    0.168400
  49 C :   -0.068928
  50 C :   -0.034647
  51 S :    0.162236
  52 C :   -0.007714
  53 C :   -0.109162
  54 S :    0.162866
  55 C :    0.042033
  56 C :   -0.096036
  57 C :    0.310138
  58 C :   -0.354353
  59 C :   -0.183878
  60 N :    0.142123
  61 C :   -0.202557
  62 N :    0.156155
  63 C :    0.044893
  64 C :    0.000668
  65 C :   -0.086375
  66 C :    0.099192
  67 C :   -0.015933
  68 C :    0.035838
  69 C :    0.033731
  70 C :   -0.018582
  71 C :    0.097081
  72 C :   -0.083338
  73 C :    0.160332
  74 O :   -0.160932
  75 H :   -0.017567
  76 H :   -0.007036
  77 H :   -0.006598
  78 H :   -0.011607
  79 H :   -0.007046
  80 H :   -0.012316
  81 H :    0.025877
  82 H :   -0.001308
  83 H :   -0.001323
  84 H :    0.025265
  85 H :    0.024769
  86 H :   -0.001597
  87 H :    0.018474
  88 H :    0.012735
  89 H :   -0.016144
  90 H :   -0.020123
  91 H :   -0.006554
  92 H :   -0.005840
  93 H :   -0.010240
  94 H :   -0.009224
Sum of atomic charges:   -0.0000000

LOEWDIN ATOMIC CHARGES
----------------------
   0 C :   -0.009698
   1 C :   -0.014694
   2 C :   -0.014066
   3 C :   -0.007497
   4 C :   -0.005613
   5 C :    0.013407
   6 C :   -0.021503
   7 C :   -0.056161
   8 C :    0.031049
   9 C :   -0.009777
  10 C :    0.082874
  11 O :   -0.147241
  12 C :   -0.101180
  13 C :    0.060672
  14 C :   -0.143145
  15 C :   -0.036411
  16 N :   -0.049809
  17 C :   -0.018299
  18 N :   -0.056134
  19 C :    0.050983
  20 C :   -0.173871
  21 C :   -0.017959
  22 C :   -0.191000
  23 C :   -0.192203
  24 S :    0.457902
  25 C :   -0.222053
  26 C :   -0.182721
  27 S :    0.408031
  28 C :   -0.048469
  29 C :   -0.153023
  30 S :    0.462865
  31 C :   -0.039101
  32 C :   -0.015062
  33 C :   -0.013820
  34 N :   -0.042528
  35 C :    0.025393
  36 C :    0.024302
  37 N :   -0.041349
  38 C :   -0.042838
  39 C :   -0.037302
  40 C :   -0.038018
  41 N :   -0.280044
  42 S :    0.675843
  43 N :   -0.280830
  44 C :   -0.150665
  45 C :   -0.051427
  46 C :   -0.180724
  47 C :   -0.227484
  48 S :    0.463157
  49 C :   -0.195538
  50 C :   -0.192847
  51 S :    0.406539
  52 C :   -0.014548
  53 C :   -0.173466
  54 S :    0.443758
  55 C :    0.046144
  56 C :   -0.100395
  57 C :    0.077603
  58 C :   -0.146686
  59 C :   -0.017143
  60 N :   -0.059510
  61 C :   -0.026362
  62 N :   -0.055495
  63 C :   -0.025591
  64 C :   -0.053842
  65 C :    0.029381
  66 C :   -0.008872
  67 C :   -0.010454
  68 C :   -0.014010
  69 C :   -0.015126
  70 C :   -0.005740
  71 C :   -0.006799
  72 C :    0.018299
  73 C :    0.087480
  74 O :   -0.147889
  75 H :    0.031561
  76 H :    0.032079
  77 H :    0.032429
  78 H :    0.033740
  79 H :    0.038030
  80 H :    0.038948
  81 H :    0.051628
  82 H :    0.040572
  83 H :    0.032931
  84 H :    0.032909
  85 H :    0.032750
  86 H :    0.032739
  87 H :    0.038654
  88 H :    0.043151
  89 H :    0.037593
  90 H :    0.030927
  91 H :    0.032175
  92 H :    0.032582
  93 H :    0.034358
  94 H :    0.038598

  Mayer bond orders larger than 0.100000
B(  0-C ,  1-C ) :   1.4896 B(  0-C ,  9-C ) :   1.2452 B(  0-C , 75-H ) :   0.9974
B(  1-C ,  2-C ) :   1.2604 B(  1-C , 76-H ) :   0.9885 B(  2-C ,  3-C ) :   1.4902
B(  2-C , 77-H ) :   0.9886 B(  3-C ,  4-C ) :   1.2411 B(  3-C , 78-H ) :   0.9972
B(  4-C ,  5-C ) :   1.2020 B(  4-C ,  9-C ) :   1.2578 B(  5-C ,  6-C ) :   1.4615
B(  5-C , 79-H ) :   0.9941 B(  6-C ,  7-C ) :   1.2154 B(  6-C , 13-C ) :   1.0009
B(  7-C ,  8-C ) :   1.4779 B(  7-C , 10-C ) :   0.9209 B(  8-C ,  9-C ) :   1.1841
B(  8-C , 80-H ) :   1.0153 B( 10-C , 11-O ) :   2.2685 B( 10-C , 12-C ) :   0.9417
B( 12-C , 13-C ) :   1.0371 B( 12-C , 19-C ) :   1.6299 B( 13-C , 14-C ) :   1.6553
B( 14-C , 15-C ) :   1.1482 B( 14-C , 17-C ) :   1.1356 B( 15-C , 16-N ) :   3.0258
B( 17-C , 18-N ) :   2.9874 B( 19-C , 20-C ) :   1.1531 B( 19-C , 81-H ) :   0.9472
B( 20-C , 21-C ) :   1.4359 B( 20-C , 24-S ) :   1.0816 B( 21-C , 22-C ) :   1.2997
B( 21-C , 82-H ) :   1.0043 B( 22-C , 23-C ) :   1.4105 B( 22-C , 27-S ) :   1.0423
B( 23-C , 24-S ) :   1.0906 B( 23-C , 25-C ) :   1.3374 B( 25-C , 26-C ) :   1.4186
B( 25-C , 30-S ) :   1.0104 B( 26-C , 27-S ) :   1.0490 B( 26-C , 28-C ) :   1.2641
B( 28-C , 29-C ) :   1.4670 B( 28-C , 83-H ) :   0.9901 B( 29-C , 30-S ) :   1.0892
B( 29-C , 31-C ) :   1.2031 B( 31-C , 32-C ) :   1.2700 B( 31-C , 38-C ) :   0.1306
B( 31-C , 40-C ) :   1.2062 B( 32-C , 33-C ) :   1.1357 B( 32-C , 37-N ) :   1.3927
B( 33-C , 34-N ) :   1.3893 B( 33-C , 38-C ) :   1.2742 B( 34-N , 35-C ) :   1.6593
B( 35-C , 36-C ) :   1.1958 B( 35-C , 84-H ) :   0.9738 B( 36-C , 37-N ) :   1.6572
B( 36-C , 85-H ) :   0.9745 B( 38-C , 39-C ) :   1.2062 B( 38-C , 44-C ) :   1.1978
B( 39-C , 40-C ) :   1.0997 B( 39-C , 43-N ) :   1.5038 B( 40-C , 41-N ) :   1.5020
B( 41-N , 42-S ) :   1.2827 B( 41-N , 43-N ) :   0.1536 B( 42-S , 43-N ) :   1.2808
B( 44-C , 45-C ) :   1.4684 B( 44-C , 48-S ) :   1.0920 B( 45-C , 46-C ) :   1.2637
B( 45-C , 86-H ) :   0.9895 B( 46-C , 47-C ) :   1.4222 B( 46-C , 51-S ) :   1.0464
B( 47-C , 48-S ) :   1.0097 B( 47-C , 49-C ) :   1.3267 B( 49-C , 50-C ) :   1.3927
B( 49-C , 54-S ) :   1.1023 B( 50-C , 51-S ) :   1.0424 B( 50-C , 52-C ) :   1.3022
B( 52-C , 53-C ) :   1.4320 B( 52-C , 87-H ) :   0.9794 B( 53-C , 54-S ) :   1.0641
B( 53-C , 55-C ) :   1.2388 B( 55-C , 56-C ) :   1.5751 B( 55-C , 88-H ) :   0.9149
B( 56-C , 57-C ) :   1.0809 B( 56-C , 73-C ) :   0.9442 B( 57-C , 58-C ) :   1.6196
B( 57-C , 63-C ) :   0.9831 B( 58-C , 59-C ) :   1.1486 B( 58-C , 61-C ) :   1.1382
B( 59-C , 60-N ) :   2.9653 B( 61-C , 62-N ) :   2.9885 B( 63-C , 64-C ) :   1.2154
B( 63-C , 72-C ) :   1.4535 B( 64-C , 65-C ) :   1.4745 B( 64-C , 73-C ) :   0.9512
B( 65-C , 66-C ) :   1.1761 B( 65-C , 89-H ) :   1.0156 B( 66-C , 67-C ) :   1.2476
B( 66-C , 71-C ) :   1.2556 B( 67-C , 68-C ) :   1.4878 B( 67-C , 90-H ) :   0.9966
B( 68-C , 69-C ) :   1.2599 B( 68-C , 91-H ) :   0.9888 B( 69-C , 70-C ) :   1.4886
B( 69-C , 92-H ) :   0.9889 B( 70-C , 71-C ) :   1.2407 B( 70-C , 93-H ) :   0.9968
B( 71-C , 72-C ) :   1.2046 B( 72-C , 94-H ) :   0.9897 B( 73-C , 74-O ) :   2.1663

-----------------------------------------------------------------------------
         ABSORPTION SPECTRUM VIA TRANSITION ELECTRIC DIPOLE MOMENTS
-----------------------------------------------------------------------------
State   Energy  Wavelength   fosc         T2         TX        TY        TZ
        (cm-1)    (nm)                  (au**2)     (au)      (au)      (au)
-----------------------------------------------------------------------------
   0    9584.1   1043.4   1.116685541  38.35782  -5.73015   1.71324  -1.60871
   1   17751.7    563.3   0.212623694   3.94319  -0.44320  -0.21441   1.92374
   2   18678.8    535.4   0.535127940   9.43158   2.34897  -0.98492   1.71577
   3   19706.1    507.5   0.725770916  12.12482  -3.26964   0.85639   0.83718
   4   19971.9    500.7   0.055132191   0.90879  -0.91760   0.24129   0.09262
   5   20210.3    494.8   0.044899153   0.73138   0.00045  -0.12118  -0.84658
   6   22746.3    439.6   0.000784901   0.01136  -0.03449  -0.08874   0.04792
   7   24460.1    408.8   0.027119300   0.36500   0.31486  -0.50579   0.10020
   8   25449.5    392.9   0.029327463   0.37938  -0.46138  -0.13189  -0.38615
   9   25784.7    387.8   0.011163690   0.14253   0.37174  -0.06348  -0.01775
  10   26196.2    381.7   0.018192614   0.22863   0.32220   0.04288   0.35068
  11   26781.3    373.4   0.046976655   0.57747   0.68164   0.01318   0.33565
  12   26868.7    372.2   0.132658424   1.62541   1.01813   0.24508   0.72716
  13   27253.4    366.9   0.213845789   2.58319  -1.57489   0.10506  -0.30311
  14   27456.1    364.2   0.150009741   1.79869  -1.10375   0.01429  -0.76172
  15   27921.3    358.1   0.084856544   1.00052   0.50276   0.15063  -0.85151
  16   28094.5    355.9   0.054168807   0.63475   0.60848  -0.11538  -0.50119
  17   28477.9    351.1   0.157308199   1.81852   0.74913   0.01762   1.12117
  18   29051.6    344.2   0.080603260   0.91339   0.84535   0.06766   0.44069
  19   29354.5    340.7   0.048817292   0.54749  -0.23686   0.19203   0.67417
  20   29491.2    339.1   0.003645603   0.04070  -0.00898   0.03194  -0.19898
  21   30186.9    331.3   0.103165424   1.12510   0.09647  -0.22202  -1.03272
  22   30296.4    330.1   0.018196990   0.19774  -0.14912   0.05495   0.41530
  23   30738.8    325.3   0.019222822   0.20588   0.07766   0.20496   0.39729
  24   30778.7    324.9   0.175256127   1.87456   1.05961   0.27466   0.82241
  25   31206.3    320.4   0.173279065   1.82801   1.28165   0.14680   0.40478
  26   31784.6    314.6   0.273885425   2.83679  -1.48887   0.76927   0.16820
  27   31875.4    313.7   0.001222295   0.01262  -0.08667   0.05465   0.04611
  28   32088.0    311.6   0.000218135   0.00224  -0.03001  -0.03011  -0.02077
  29   32667.1    306.1   0.228683160   2.30462   0.96530   0.48678   1.06577
  30   32730.8    305.5   0.146924479   1.47779  -0.77962  -0.41112  -0.83723
  31   33427.8    299.2   0.062625860   0.61677   0.73841   0.05962  -0.26071
  32   33823.3    295.7   0.060095744   0.58493   0.38998  -0.06863  -0.65432
  33   33992.4    294.2   0.130978152   1.26851   1.02636   0.39396   0.24472
  34   34583.7    289.2   0.161293701   1.53540  -0.43292  -0.53718  -1.02928
  35   34656.1    288.5   0.045619793   0.43336   0.25224   0.28073   0.53938
  36   34887.7    286.6   0.234332778   2.21124   0.67600   0.48462   1.23264
  37   35084.9    285.0   0.147089937   1.38019   0.56462   0.48384   0.90956
  38   35341.7    283.0   0.002643012   0.02462  -0.06627   0.00299  -0.14220
  39   35617.3    280.8   0.279680796   2.58510   0.18145   0.60287   1.47943
  40   35819.5    279.2   0.070435624   0.64736  -0.44094  -0.44354  -0.50617
  41   35945.0    278.2   0.161407823   1.47830   0.88991   0.22294   0.79791
  42   36061.2    277.3   0.027870992   0.25444  -0.31799  -0.19959   0.33688
  43   36252.0    275.8   0.163228411   1.48231  -0.66199  -0.23299  -0.99489
  44   36411.1    274.6   0.175607748   1.58776  -0.10176  -0.31403  -1.21606
  45   36514.9    273.9   0.148730320   1.34093  -0.80141   0.10879   0.82876
  46   36641.4    272.9   0.034556254   0.31048   0.24545   0.16927   0.47072
  47   37477.8    266.8   0.078099271   0.68604  -0.66326  -0.35501  -0.34654
  48   37554.2    266.3   0.176497203   1.54723  -0.00175   0.38133   1.18398
  49   37607.7    265.9   0.263983764   2.31088  -0.19380   0.35296   1.46586
  50   37655.1    265.6   0.020443622   0.17873  -0.30068  -0.07424  -0.28778
  51   37808.7    264.5   0.015761122   0.13724   0.34946   0.03816   0.11687
  52   38339.3    260.8   0.017088394   0.14673   0.24223   0.09673   0.28054
  53   38920.3    256.9   0.012736941   0.10774  -0.15332  -0.11428  -0.26678
  54   39039.7    256.1   0.003900959   0.03290   0.05146   0.16376   0.05856
  55   39258.7    254.7   0.073744253   0.61840   0.32371  -0.32842  -0.63698
  56   39414.2    253.7   0.067792908   0.56625  -0.57415   0.00308   0.48641
  57   39637.1    252.3   0.072287952   0.60040  -0.11512   0.41462   0.64439
  58   39991.7    250.1   0.002727669   0.02245  -0.09945  -0.07220  -0.08573
  59   40069.2    249.6   0.038815649   0.31891   0.48278  -0.17870   0.23216
  60   40172.5    248.9   0.004742643   0.03887  -0.18571  -0.05646  -0.03449

FINAL SINGLE POINT ENERGY     -5593.539813981402

DIPOLE MOMENT
-------------
                                X             Y             Z
Electronic contribution:    -20.31907       3.13255      27.27004
Nuclear contribution   :     19.57184      -3.17125     -25.96559
                        -----------------------------------------
Total Dipole Moment    :     -0.74723      -0.03870       1.30445
                        -----------------------------------------
Magnitude (a.u.)       :      1.50381
Magnitude (Debye)      :      3.82238

Rotational constants in cm-1:     0.001583     0.000175     0.000160
Rotational constants in MHz :    47.451447     5.240372     4.810226

                             ****ORCA TERMINATED NORMALLY****
TOTAL RUN TIME: 0 days 0 hours 9 minutes 36 seconds 999 msec
