                         Program Version 4.2.0 -  RELEASE  -
|  1> # ORCA input file
|  2> # SCF done       -171.149798107980          0.000866033797
|  3> ! CAM-B3LYP def2-SVP def2/J RIJCOSX Grid4 TightSCF
|  4> %maxcore 5000
|  5> %tddft
|  6>     Mode sTDDFT
|  7>     Ethresh 5.0
|  8>     maxcore 5000
|  9> end
| 10>
| 11> %pal
| 12>   nprocs 6
| 13>   end
| 14> * xyz 0 1
| 15>    C        0.10879         2.48789        -4.53616
| 16>    C       -0.90209         3.31256        -4.12239
| 17>    C       -0.65836         4.30379        -3.16035
| 18>    C        0.59192         4.45706        -2.62564
| 19>    C        1.65624         3.62646        -3.03043
| 20>    C        2.95288         3.78796        -2.48917
| 21>    C        3.96280         2.96442        -2.90705
| 22>    C        3.70281         1.94540        -3.86953
| 23>    C        2.46383         1.77302        -4.41467
| 24>    C        1.40715         2.61815        -4.00576
| 25>    C        4.93965         1.18196        -4.11420
| 26>    O        5.11810         0.28084        -4.90106
| 27>    C        5.93052         1.71604        -3.13473
| 28>    C        5.38087         2.92291        -2.56298
| 29>    C        6.08982         3.96350        -2.01684
| 30>    C        7.49577         4.00666        -1.96334
| 31>    N        8.63877         4.10923        -1.91750
| 32>    C        5.50115         5.13854        -1.51006
| 33>    N        5.07479         6.09781        -1.04450
| 34>    C        7.05086         0.98270        -2.87892
| 35>    C        7.94122         1.01271        -1.78317
| 36>    C        7.79995         1.57853        -0.53248
| 37>    C        8.87908         1.33482         0.32122
| 38>    S        8.97374         2.07660         1.90096
| 39>    C        7.93532         3.55962         1.65853
| 40>    C        9.87314         0.53353        -0.26801
| 41>    S        9.46111         0.16264        -1.91439
| 42>    C       11.08717         0.02409         0.26141
| 43>    C       12.05965        -0.54171        -0.60952
| 44>    C       13.33942        -1.02047        -0.17153
| 45>    N       14.20916        -1.49036        -1.08768
| 46>    C       13.85766        -1.53008        -2.34241
| 47>    C       12.58294        -1.11132        -2.76633
| 48>    N       11.73087        -0.62762        -1.90655
| 49>    C       13.69667        -1.00809         1.20060
| 50>    C       12.70717        -0.51796         2.07508
| 51>    C       11.42558        -0.02354         1.62873
| 52>    N       10.64974         0.30755         2.65935
| 53>    S       11.44223         0.06867         4.03177
| 54>    N       12.80993        -0.48692         3.40493
| 55>    C       14.93734        -1.48498         1.71696
| 56>    C       15.99645        -2.05003         1.03770
| 57>    C       17.06634        -2.42984         1.85669
| 58>    S       18.52178        -2.97956         1.07386
| 59>    C       19.85996        -2.52577         2.20550
| 60>    C       16.82523        -2.19250         3.21394
| 61>    S       15.27922        -1.37798         3.41769
| 62>    C       17.52404        -2.50132         4.39289
| 63>    C       18.33005        -3.58882         4.62583
| 64>    C       19.11874        -3.83062         5.81234
| 65>    C       19.50766        -2.88481         6.72763
| 66>    C       20.31641        -3.15855         7.84785
| 67>    N       20.97091        -3.32586         8.77640
| 68>    C       19.20197        -1.51308         6.62293
| 69>    N       19.01855        -0.38048         6.57028
| 70>    C       19.53559        -5.22795         5.79176
| 71>    C       19.10235        -5.80901         4.56516
| 72>    C       19.35192        -7.11427         4.25969
| 73>    C       20.05716        -7.91594         5.18692
| 74>    C       20.33864        -9.27134         4.92938
| 75>    C       21.01161       -10.03312         5.84621
| 76>    C       21.43519        -9.47123         7.05917
| 77>    C       21.17902        -8.15634         7.33911
| 78>    C       20.48701        -7.34427         6.41841
| 79>    C       20.21605        -5.98594         6.70580
| 80>    C       18.35181        -4.80415         3.78825
| 81>    O       17.79877        -4.96726         2.71635
| 82>    H       -0.07287         1.72254        -5.27649
| 83>    H       -1.89455         3.20527        -4.53386
| 84>    H       -1.46649         4.94674        -2.84529
| 85>    H        0.78517         5.22146        -1.88730
| 86>    H        3.11218         4.55545        -1.74761
| 87>    H        2.29061         1.00207        -5.15064
| 88>    H        7.24256         0.19449        -3.60169
| 89>    H        6.91332         2.09875        -0.22057
| 90>    H        8.17603         4.21149         2.49230
| 91>    H        6.88053         3.30504         1.69589
| 92>    H        8.19473         4.04358         0.72303
| 93>    H       14.59314        -1.90795        -3.03910
| 94>    H       12.26245        -1.17048        -3.79620
| 95>    H       15.99963        -2.17656        -0.02838
| 96>    H       20.72664        -2.33884         1.57842
| 97>    H       20.07513        -3.34121         2.89381
| 98>    H       19.58917        -1.62927         2.75426
| 99>    H       17.29261        -1.85855         5.23458
|100>    H       19.01406        -7.53325         3.32337
|101>    H       20.00967        -9.69907         3.99346
|102>    H       21.22048       -11.07260         5.64132
|103>    H       21.96495       -10.08546         7.77189
|104>    H       21.50350        -7.71833         8.27170
|105>    H       20.54504        -5.58178         7.65027
|106> *
|107>
|108>                          ****END OF INPUT****

CARTESIAN COORDINATES (ANGSTROEM)
---------------------------------
  C      0.108790    2.487890   -4.536160
  C     -0.902090    3.312560   -4.122390
  C     -0.658360    4.303790   -3.160350
  C      0.591920    4.457060   -2.625640
  C      1.656240    3.626460   -3.030430
  C      2.952880    3.787960   -2.489170
  C      3.962800    2.964420   -2.907050
  C      3.702810    1.945400   -3.869530
  C      2.463830    1.773020   -4.414670
  C      1.407150    2.618150   -4.005760
  C      4.939650    1.181960   -4.114200
  O      5.118100    0.280840   -4.901060
  C      5.930520    1.716040   -3.134730
  C      5.380870    2.922910   -2.562980
  C      6.089820    3.963500   -2.016840
  C      7.495770    4.006660   -1.963340
  N      8.638770    4.109230   -1.917500
  C      5.501150    5.138540   -1.510060
  N      5.074790    6.097810   -1.044500
  C      7.050860    0.982700   -2.878920
  C      7.941220    1.012710   -1.783170
  C      7.799950    1.578530   -0.532480
  C      8.879080    1.334820    0.321220
  S      8.973740    2.076600    1.900960
  C      7.935320    3.559620    1.658530
  C      9.873140    0.533530   -0.268010
  S      9.461110    0.162640   -1.914390
  C     11.087170    0.024090    0.261410
  C     12.059650   -0.541710   -0.609520
  C     13.339420   -1.020470   -0.171530
  N     14.209160   -1.490360   -1.087680
  C     13.857660   -1.530080   -2.342410
  C     12.582940   -1.111320   -2.766330
  N     11.730870   -0.627620   -1.906550
  C     13.696670   -1.008090    1.200600
  C     12.707170   -0.517960    2.075080
  C     11.425580   -0.023540    1.628730
  N     10.649740    0.307550    2.659350
  S     11.442230    0.068670    4.031770
  N     12.809930   -0.486920    3.404930
  C     14.937340   -1.484980    1.716960
  C     15.996450   -2.050030    1.037700
  C     17.066340   -2.429840    1.856690
  S     18.521780   -2.979560    1.073860
  C     19.859960   -2.525770    2.205500
  C     16.825230   -2.192500    3.213940
  S     15.279220   -1.377980    3.417690
  C     17.524040   -2.501320    4.392890
  C     18.330050   -3.588820    4.625830
  C     19.118740   -3.830620    5.812340
  C     19.507660   -2.884810    6.727630
  C     20.316410   -3.158550    7.847850
  N     20.970910   -3.325860    8.776400
  C     19.201970   -1.513080    6.622930
  N     19.018550   -0.380480    6.570280
  C     19.535590   -5.227950    5.791760
  C     19.102350   -5.809010    4.565160
  C     19.351920   -7.114270    4.259690
  C     20.057160   -7.915940    5.186920
  C     20.338640   -9.271340    4.929380
  C     21.011610  -10.033120    5.846210
  C     21.435190   -9.471230    7.059170
  C     21.179020   -8.156340    7.339110
  C     20.487010   -7.344270    6.418410
  C     20.216050   -5.985940    6.705800
  C     18.351810   -4.804150    3.788250
  O     17.798770   -4.967260    2.716350
  H     -0.072870    1.722540   -5.276490
  H     -1.894550    3.205270   -4.533860
  H     -1.466490    4.946740   -2.845290
  H      0.785170    5.221460   -1.887300
  H      3.112180    4.555450   -1.747610
  H      2.290610    1.002070   -5.150640
  H      7.242560    0.194490   -3.601690
  H      6.913320    2.098750   -0.220570
  H      8.176030    4.211490    2.492300
  H      6.880530    3.305040    1.695890
  H      8.194730    4.043580    0.723030
  H     14.593140   -1.907950   -3.039100
  H     12.262450   -1.170480   -3.796200
  H     15.999630   -2.176560   -0.028380
  H     20.726640   -2.338840    1.578420
  H     20.075130   -3.341210    2.893810
  H     19.589170   -1.629270    2.754260
  H     17.292610   -1.858550    5.234580
  H     19.014060   -7.533250    3.323370
  H     20.009670   -9.699070    3.993460
  H     21.220480  -11.072600    5.641320
  H     21.964950  -10.085460    7.771890
  H     21.503500   -7.718330    8.271700
  H     20.545040   -5.581780    7.650270

 Total Charge           Charge          ....    0
 Multiplicity           Mult            ....    1
 Number of Electrons    NEL             ....  488
 Basis Dimension        Dim             .... 1078

ORBITAL ENERGIES
----------------

  NO   OCC          E(Eh)            E(eV)
   0   2.0000     -89.043965     -2423.0095
   1   2.0000     -88.961722     -2420.7715
   2   2.0000     -88.950397     -2420.4634
   3   2.0000     -88.931273     -2419.9430
   4   2.0000     -88.927758     -2419.8473
   5   2.0000     -19.213411      -522.8235
   6   2.0000     -19.201948      -522.5116
   7   2.0000     -14.452727      -393.2787
   8   2.0000     -14.448378      -393.1604
   9   2.0000     -14.446919      -393.1207
  10   2.0000     -14.441003      -392.9597
  11   2.0000     -14.417330      -392.3155
  12   2.0000     -14.416804      -392.3012
  13   2.0000     -14.405026      -391.9807
  14   2.0000     -14.404827      -391.9753
  15   2.0000     -10.364560      -282.0340
  16   2.0000     -10.348862      -281.6068
  17   2.0000     -10.343369      -281.4574
  18   2.0000     -10.342623      -281.4371
  19   2.0000     -10.342512      -281.4341
  20   2.0000     -10.340375      -281.3759
  21   2.0000     -10.340243      -281.3723
  22   2.0000     -10.338816      -281.3335
  23   2.0000     -10.338496      -281.3248
  24   2.0000     -10.338347      -281.3207
  25   2.0000     -10.330278      -281.1011
  26   2.0000     -10.329052      -281.0678
  27   2.0000     -10.322309      -280.8843
  28   2.0000     -10.321205      -280.8543
  29   2.0000     -10.320126      -280.8249
  30   2.0000     -10.319205      -280.7999
  31   2.0000     -10.318289      -280.7749
  32   2.0000     -10.315892      -280.7097
  33   2.0000     -10.314901      -280.6827
  34   2.0000     -10.311635      -280.5939
  35   2.0000     -10.308608      -280.5115
  36   2.0000     -10.308288      -280.5028
  37   2.0000     -10.308249      -280.5017
  38   2.0000     -10.308169      -280.4996
  39   2.0000     -10.305052      -280.4147
  40   2.0000     -10.303922      -280.3840
  41   2.0000     -10.301178      -280.3093
  42   2.0000     -10.298346      -280.2322
  43   2.0000     -10.297933      -280.2210
  44   2.0000     -10.297924      -280.2207
  45   2.0000     -10.297469      -280.2084
  46   2.0000     -10.297178      -280.2005
  47   2.0000     -10.292208      -280.0652
  48   2.0000     -10.291279      -280.0399
  49   2.0000     -10.289800      -279.9997
  50   2.0000     -10.289377      -279.9882
  51   2.0000     -10.288553      -279.9657
  52   2.0000     -10.288084      -279.9530
  53   2.0000     -10.287563      -279.9388
  54   2.0000     -10.287000      -279.9235
  55   2.0000     -10.286595      -279.9125
  56   2.0000     -10.286366      -279.9063
  57   2.0000     -10.285952      -279.8950
  58   2.0000     -10.285407      -279.8802
  59   2.0000     -10.284850      -279.8650
  60   2.0000     -10.282756      -279.8080
  61   2.0000     -10.278884      -279.7027
  62   2.0000     -10.278564      -279.6939
  63   2.0000     -10.278140      -279.6824
  64   2.0000     -10.277972      -279.6778
  65   2.0000     -10.277476      -279.6643
  66   2.0000     -10.271841      -279.5110
  67   2.0000      -8.134913      -221.3622
  68   2.0000      -8.054884      -219.1845
  69   2.0000      -8.045026      -218.9163
  70   2.0000      -8.025884      -218.3954
  71   2.0000      -8.022162      -218.2941
  72   2.0000      -6.105994      -166.1525
  73   2.0000      -6.098268      -165.9423
  74   2.0000      -6.097701      -165.9269
  75   2.0000      -6.024564      -163.9367
  76   2.0000      -6.019796      -163.8070
  77   2.0000      -6.016918      -163.7287
  78   2.0000      -6.014616      -163.6660
  79   2.0000      -6.010237      -163.5469
  80   2.0000      -6.006649      -163.4492
  81   2.0000      -5.996080      -163.1616
  82   2.0000      -5.992576      -163.0663
  83   2.0000      -5.992000      -163.0506
  84   2.0000      -5.988257      -162.9488
  85   2.0000      -5.986098      -162.8900
  86   2.0000      -5.981922      -162.7764
  87   2.0000      -1.141211       -31.0539
  88   2.0000      -1.128713       -30.7138
  89   2.0000      -1.115567       -30.3561
  90   2.0000      -1.103245       -30.0208
  91   2.0000      -1.029620       -28.0174
  92   2.0000      -1.019937       -27.7539
  93   2.0000      -1.007757       -27.4225
  94   2.0000      -1.002329       -27.2748
  95   2.0000      -0.999324       -27.1930
  96   2.0000      -0.999050       -27.1855
  97   2.0000      -0.994686       -27.0668
  98   2.0000      -0.988233       -26.8912
  99   2.0000      -0.984561       -26.7913
 100   2.0000      -0.983363       -26.7587
 101   2.0000      -0.971959       -26.4483
 102   2.0000      -0.965765       -26.2798
 103   2.0000      -0.960942       -26.1486
 104   2.0000      -0.925763       -25.1913
 105   2.0000      -0.916086       -24.9280
 106   2.0000      -0.910904       -24.7870
 107   2.0000      -0.905628       -24.6434
 108   2.0000      -0.894860       -24.3504
 109   2.0000      -0.892807       -24.2945
 110   2.0000      -0.886469       -24.1220
 111   2.0000      -0.883715       -24.0471
 112   2.0000      -0.881663       -23.9913
 113   2.0000      -0.872881       -23.7523
 114   2.0000      -0.869853       -23.6699
 115   2.0000      -0.861256       -23.4360
 116   2.0000      -0.833515       -22.6811
 117   2.0000      -0.828801       -22.5528
 118   2.0000      -0.823419       -22.4064
 119   2.0000      -0.821678       -22.3590
 120   2.0000      -0.819129       -22.2896
 121   2.0000      -0.810591       -22.0573
 122   2.0000      -0.803378       -21.8610
 123   2.0000      -0.786499       -21.4017
 124   2.0000      -0.772442       -21.0192
 125   2.0000      -0.762419       -20.7465
 126   2.0000      -0.759476       -20.6664
 127   2.0000      -0.750499       -20.4221
 128   2.0000      -0.739530       -20.1236
 129   2.0000      -0.733035       -19.9469
 130   2.0000      -0.724673       -19.7194
 131   2.0000      -0.713377       -19.4120
 132   2.0000      -0.710286       -19.3279
 133   2.0000      -0.703725       -19.1493
 134   2.0000      -0.700285       -19.0557
 135   2.0000      -0.694622       -18.9016
 136   2.0000      -0.688863       -18.7449
 137   2.0000      -0.686425       -18.6786
 138   2.0000      -0.677849       -18.4452
 139   2.0000      -0.674122       -18.3438
 140   2.0000      -0.666060       -18.1244
 141   2.0000      -0.662814       -18.0361
 142   2.0000      -0.647890       -17.6300
 143   2.0000      -0.641434       -17.4543
 144   2.0000      -0.634375       -17.2622
 145   2.0000      -0.632739       -17.2177
 146   2.0000      -0.625523       -17.0213
 147   2.0000      -0.619621       -16.8607
 148   2.0000      -0.616404       -16.7732
 149   2.0000      -0.608903       -16.5691
 150   2.0000      -0.607261       -16.5244
 151   2.0000      -0.597780       -16.2664
 152   2.0000      -0.592749       -16.1295
 153   2.0000      -0.591548       -16.0968
 154   2.0000      -0.579725       -15.7751
 155   2.0000      -0.571320       -15.5464
 156   2.0000      -0.568519       -15.4702
 157   2.0000      -0.566926       -15.4268
 158   2.0000      -0.562104       -15.2956
 159   2.0000      -0.559603       -15.2276
 160   2.0000      -0.551926       -15.0187
 161   2.0000      -0.547121       -14.8879
 162   2.0000      -0.545483       -14.8434
 163   2.0000      -0.540747       -14.7145
 164   2.0000      -0.538234       -14.6461
 165   2.0000      -0.538016       -14.6401
 166   2.0000      -0.536794       -14.6069
 167   2.0000      -0.534432       -14.5426
 168   2.0000      -0.528688       -14.3863
 169   2.0000      -0.524189       -14.2639
 170   2.0000      -0.522366       -14.2143
 171   2.0000      -0.520096       -14.1525
 172   2.0000      -0.517532       -14.0828
 173   2.0000      -0.516682       -14.0596
 174   2.0000      -0.514305       -13.9949
 175   2.0000      -0.511920       -13.9300
 176   2.0000      -0.509643       -13.8681
 177   2.0000      -0.507783       -13.8175
 178   2.0000      -0.503284       -13.6951
 179   2.0000      -0.503005       -13.6875
 180   2.0000      -0.501912       -13.6577
 181   2.0000      -0.498190       -13.5564
 182   2.0000      -0.495886       -13.4937
 183   2.0000      -0.494238       -13.4489
 184   2.0000      -0.488849       -13.3022
 185   2.0000      -0.486985       -13.2515
 186   2.0000      -0.486227       -13.2309
 187   2.0000      -0.484669       -13.1885
 188   2.0000      -0.482530       -13.1303
 189   2.0000      -0.482383       -13.1263
 190   2.0000      -0.478909       -13.0318
 191   2.0000      -0.473829       -12.8936
 192   2.0000      -0.467492       -12.7211
 193   2.0000      -0.466789       -12.7020
 194   2.0000      -0.462794       -12.5933
 195   2.0000      -0.455253       -12.3881
 196   2.0000      -0.454171       -12.3586
 197   2.0000      -0.452275       -12.3070
 198   2.0000      -0.450075       -12.2472
 199   2.0000      -0.447805       -12.1854
 200   2.0000      -0.444884       -12.1059
 201   2.0000      -0.440816       -11.9952
 202   2.0000      -0.440269       -11.9803
 203   2.0000      -0.439293       -11.9538
 204   2.0000      -0.437340       -11.9006
 205   2.0000      -0.435125       -11.8403
 206   2.0000      -0.434073       -11.8117
 207   2.0000      -0.431482       -11.7412
 208   2.0000      -0.430864       -11.7244
 209   2.0000      -0.427758       -11.6399
 210   2.0000      -0.425901       -11.5894
 211   2.0000      -0.424998       -11.5648
 212   2.0000      -0.422687       -11.5019
 213   2.0000      -0.421031       -11.4568
 214   2.0000      -0.418921       -11.3994
 215   2.0000      -0.416826       -11.3424
 216   2.0000      -0.411728       -11.2037
 217   2.0000      -0.411136       -11.1876
 218   2.0000      -0.403116       -10.9693
 219   2.0000      -0.401513       -10.9257
 220   2.0000      -0.397943       -10.8286
 221   2.0000      -0.391126       -10.6431
 222   2.0000      -0.381866       -10.3911
 223   2.0000      -0.377600       -10.2750
 224   2.0000      -0.373573       -10.1654
 225   2.0000      -0.370638       -10.0856
 226   2.0000      -0.366977        -9.9860
 227   2.0000      -0.358279        -9.7493
 228   2.0000      -0.351623        -9.5682
 229   2.0000      -0.349070        -9.4987
 230   2.0000      -0.347258        -9.4494
 231   2.0000      -0.338610        -9.2140
 232   2.0000      -0.336479        -9.1561
 233   2.0000      -0.326560        -8.8861
 234   2.0000      -0.322526        -8.7764
 235   2.0000      -0.319720        -8.7000
 236   2.0000      -0.315270        -8.5789
 237   2.0000      -0.309060        -8.4099
 238   2.0000      -0.297202        -8.0873
 239   2.0000      -0.293923        -7.9980
 240   2.0000      -0.287458        -7.8221
 241   2.0000      -0.279194        -7.5972
 242   2.0000      -0.266486        -7.2515
 243   2.0000      -0.239466        -6.5162
 244   0.0000      -0.122715        -3.3393
 245   0.0000      -0.085405        -2.3240
 246   0.0000      -0.075390        -2.0515
 247   0.0000      -0.054388        -1.4800
 248   0.0000      -0.043545        -1.1849

MULLIKEN ATOMIC CHARGES
-----------------------
   0 C :   -0.017488
   1 C :    0.037769
   2 C :    0.036753
   3 C :   -0.021396
   4 C :    0.097645
   5 C :   -0.088116
   6 C :    0.034698
   7 C :    0.016461
   8 C :   -0.085204
   9 C :    0.096738
  10 C :    0.137545
  11 O :   -0.143698
  12 C :   -0.134068
  13 C :    0.275910
  14 C :   -0.348168
  15 C :   -0.191703
  16 N :    0.161732
  17 C :   -0.174823
  18 N :    0.155158
  19 C :    0.087739
  20 C :   -0.048090
  21 C :   -0.008218
  22 C :    0.015299
  23 S :    0.019552
  24 C :   -0.089972
  25 C :   -0.204568
  26 S :    0.182123
  27 C :    0.160942
  28 C :   -0.038085
  29 C :   -0.062046
  30 N :   -0.021885
  31 C :    0.037527
  32 C :    0.052281
  33 N :   -0.089392
  34 C :    0.212489
  35 C :   -0.026318
  36 C :    0.019294
  37 N :   -0.299330
  38 S :    0.561104
  39 N :   -0.326971
  40 C :   -0.162050
  41 C :   -0.014070
  42 C :    0.051702
  43 S :    0.032722
  44 C :   -0.076150
  45 C :   -0.122123
  46 S :    0.163202
  47 C :   -0.004836
  48 C :   -0.128174
  49 C :    0.309929
  50 C :   -0.344711
  51 C :   -0.182012
  52 N :    0.142468
  53 C :   -0.212214
  54 N :    0.158820
  55 C :    0.051828
  56 C :    0.000574
  57 C :   -0.091817
  58 C :    0.098620
  59 C :   -0.018017
  60 C :    0.035241
  61 C :    0.033877
  62 C :   -0.020550
  63 C :    0.097493
  64 C :   -0.092398
  65 C :    0.115609
  66 O :   -0.141137
  67 H :   -0.016839
  68 H :   -0.005826
  69 H :   -0.004734
  70 H :   -0.010516
  71 H :   -0.006346
  72 H :   -0.011624
  73 H :    0.020587
  74 H :   -0.011674
  75 H :    0.056413
  76 H :    0.059118
  77 H :    0.073543
  78 H :    0.023350
  79 H :    0.021230
  80 H :   -0.006827
  81 H :    0.064337
  82 H :    0.069907
  83 H :    0.075356
  84 H :    0.028202
  85 H :   -0.018642
  86 H :   -0.021395
  87 H :   -0.008481
  88 H :   -0.007587
  89 H :   -0.012646
  90 H :   -0.009950
Sum of atomic charges:    0.0000000

LOEWDIN ATOMIC CHARGES
----------------------
   0 C :   -0.009294
   1 C :   -0.012999
   2 C :   -0.013222
   3 C :   -0.006783
   4 C :   -0.005763
   5 C :    0.014372
   6 C :   -0.023382
   7 C :   -0.056446
   8 C :    0.032219
   9 C :   -0.009065
  10 C :    0.083028
  11 O :   -0.143807
  12 C :   -0.091039
  13 C :    0.069018
  14 C :   -0.145034
  15 C :   -0.016847
  16 N :   -0.044884
  17 C :   -0.021098
  18 N :   -0.054427
  19 C :    0.051581
  20 C :   -0.185200
  21 C :   -0.042576
  22 C :   -0.166822
  23 S :    0.341789
  24 C :   -0.168653
  25 C :   -0.170901
  26 S :    0.498242
  27 C :   -0.033923
  28 C :   -0.014180
  29 C :    0.000509
  30 N :   -0.021233
  31 C :    0.019976
  32 C :    0.021170
  33 N :   -0.045174
  34 C :   -0.048563
  35 C :   -0.042937
  36 C :   -0.041750
  37 N :   -0.278433
  38 S :    0.683482
  39 N :   -0.304832
  40 C :   -0.144036
  41 C :   -0.057066
  42 C :   -0.157765
  43 S :    0.367321
  44 C :   -0.148993
  45 C :   -0.202366
  46 S :    0.466463
  47 C :    0.031973
  48 C :   -0.106201
  49 C :    0.074938
  50 C :   -0.147251
  51 C :   -0.018237
  52 N :   -0.060594
  53 C :   -0.026154
  54 N :   -0.058536
  55 C :   -0.027419
  56 C :   -0.051610
  57 C :    0.022802
  58 C :   -0.008670
  59 C :   -0.012207
  60 C :   -0.015175
  61 C :   -0.018083
  62 C :   -0.006239
  63 C :   -0.009775
  64 C :    0.017302
  65 C :    0.055567
  66 O :   -0.148345
  67 H :    0.031957
  68 H :    0.032662
  69 H :    0.033198
  70 H :    0.034156
  71 H :    0.038309
  72 H :    0.039392
  73 H :    0.044683
  74 H :    0.028758
  75 H :    0.031917
  76 H :    0.019738
  77 H :    0.029085
  78 H :    0.031167
  79 H :    0.031307
  80 H :    0.028038
  81 H :    0.033339
  82 H :    0.023633
  83 H :    0.036015
  84 H :    0.043145
  85 H :    0.036887
  86 H :    0.030335
  87 H :    0.031291
  88 H :    0.031731
  89 H :    0.033486
  90 H :    0.038008

  Mayer bond orders larger than 0.100000
B(  0-C ,  1-C ) :   1.4881 B(  0-C ,  9-C ) :   1.2446 B(  0-C , 67-H ) :   0.9983
B(  1-C ,  2-C ) :   1.2603 B(  1-C , 68-H ) :   0.9889 B(  2-C ,  3-C ) :   1.4887
B(  2-C , 69-H ) :   0.9885 B(  3-C ,  4-C ) :   1.2413 B(  3-C , 70-H ) :   0.9981
B(  4-C ,  5-C ) :   1.2008 B(  4-C ,  9-C ) :   1.2583 B(  5-C ,  6-C ) :   1.4566
B(  5-C , 71-H ) :   0.9947 B(  6-C ,  7-C ) :   1.2138 B(  6-C , 13-C ) :   1.0003
B(  7-C ,  8-C ) :   1.4754 B(  7-C , 10-C ) :   0.9192 B(  8-C ,  9-C ) :   1.1806
B(  8-C , 72-H ) :   1.0172 B( 10-C , 11-O ) :   2.2659 B( 10-C , 12-C ) :   0.9411
B( 12-C , 13-C ) :   1.0447 B( 12-C , 19-C ) :   1.6461 B( 13-C , 14-C ) :   1.6311
B( 14-C , 15-C ) :   1.1841 B( 14-C , 17-C ) :   1.1321 B( 15-C , 16-N ) :   2.9304
B( 17-C , 18-N ) :   2.9853 B( 19-C , 20-C ) :   1.1414 B( 19-C , 73-H ) :   0.9280
B( 20-C , 21-C ) :   1.4259 B( 20-C , 26-S ) :   1.0525 B( 21-C , 22-C ) :   1.3116
B( 21-C , 74-H ) :   0.9844 B( 22-C , 23-S ) :   1.0478 B( 22-C , 25-C ) :   1.4319
B( 23-S , 24-C ) :   0.9784 B( 24-C , 75-H ) :   0.9677 B( 24-C , 76-H ) :   0.9631
B( 24-C , 77-H ) :   0.9632 B( 25-C , 26-S ) :   1.1470 B( 25-C , 27-C ) :   1.1891
B( 27-C , 28-C ) :   1.2542 B( 27-C , 34-C ) :   0.1255 B( 27-C , 36-C ) :   1.2098
B( 28-C , 29-C ) :   1.1345 B( 28-C , 33-N ) :   1.3883 B( 29-C , 30-N ) :   1.4626
B( 29-C , 34-C ) :   1.2752 B( 30-N , 31-C ) :   1.6722 B( 31-C , 32-C ) :   1.2006
B( 31-C , 78-H ) :   0.9749 B( 32-C , 33-N ) :   1.6386 B( 32-C , 79-H ) :   0.9732
B( 34-C , 35-C ) :   1.2070 B( 34-C , 40-C ) :   1.1548 B( 35-C , 36-C ) :   1.1055
B( 35-C , 39-N ) :   1.4724 B( 36-C , 37-N ) :   1.4616 B( 37-N , 38-S ) :   1.2899
B( 37-N , 39-N ) :   0.1526 B( 38-S , 39-N ) :   1.2689 B( 40-C , 41-C ) :   1.4736
B( 40-C , 46-S ) :   1.1389 B( 41-C , 42-C ) :   1.2350 B( 41-C , 80-H ) :   0.9805
B( 42-C , 43-S ) :   1.0786 B( 42-C , 45-C ) :   1.3944 B( 43-S , 44-C ) :   1.0256
B( 44-C , 81-H ) :   0.9675 B( 44-C , 82-H ) :   0.9486 B( 44-C , 83-H ) :   0.9635
B( 45-C , 46-S ) :   1.0510 B( 45-C , 47-C ) :   1.2406 B( 47-C , 48-C ) :   1.5269
B( 47-C , 84-H ) :   0.9323 B( 48-C , 49-C ) :   1.0724 B( 48-C , 65-C ) :   0.9736
B( 49-C , 50-C ) :   1.6290 B( 49-C , 55-C ) :   0.9880 B( 50-C , 51-C ) :   1.1443
B( 50-C , 53-C ) :   1.1460 B( 51-C , 52-N ) :   2.9688 B( 53-C , 54-N ) :   2.9984
B( 55-C , 56-C ) :   1.2138 B( 55-C , 64-C ) :   1.4548 B( 56-C , 57-C ) :   1.4836
B( 56-C , 65-C ) :   0.9262 B( 57-C , 58-C ) :   1.1678 B( 57-C , 85-H ) :   1.0179
B( 58-C , 59-C ) :   1.2485 B( 58-C , 63-C ) :   1.2621 B( 59-C , 60-C ) :   1.4851
B( 59-C , 86-H ) :   0.9970 B( 60-C , 61-C ) :   1.2633 B( 60-C , 87-H ) :   0.9886
B( 61-C , 62-C ) :   1.4871 B( 61-C , 88-H ) :   0.9881 B( 62-C , 63-C ) :   1.2421
B( 62-C , 89-H ) :   0.9971 B( 63-C , 64-C ) :   1.1973 B( 64-C , 90-H ) :   0.9916
B( 65-C , 66-O ) :   2.1966

-----------------------------------------------------------------------------
         ABSORPTION SPECTRUM VIA TRANSITION ELECTRIC DIPOLE MOMENTS
-----------------------------------------------------------------------------
State   Energy  Wavelength   fosc         T2         TX        TY        TZ
        (cm-1)    (nm)                  (au**2)     (au)      (au)      (au)
-----------------------------------------------------------------------------
   0   10186.6    981.7   0.955457275  30.87857   4.61865  -2.33280   2.02601
   1   16728.3    597.8   0.034575577   0.68045   0.20810  -0.05734  -0.79615
   2   18078.6    553.1   0.041133699   0.74905   0.41980   0.16637   0.73833
   3   18583.5    538.1   0.163723581   2.90040   1.25138  -0.67728   0.93581
   4   21025.1    475.6   0.419661088   6.57107  -1.64739   0.84568  -1.77257
   5   21248.2    470.6   0.087803358   1.36039   0.83166  -0.46499   0.67270
   6   22737.6    439.8   0.020374140   0.29499   0.36490  -0.28791   0.28098
   7   23759.6    420.9   0.038614251   0.53504   0.56600  -0.08381  -0.45570
   8   24630.4    406.0   0.009514896   0.12718   0.26776   0.13860  -0.19045
   9   25099.0    398.4   0.016095342   0.21112   0.37327   0.26790  -0.00376
  10   25891.3    386.2   0.029780368   0.37866  -0.32523   0.41561  -0.31648
  11   26131.3    382.7   0.009039582   0.11388  -0.21744  -0.22784  -0.12123
  12   26409.9    378.6   0.075063521   0.93570  -0.82527   0.43980  -0.24739
  13   26633.5    375.5   0.066625939   0.82355   0.82760  -0.07778   0.36411
  14   27073.4    369.4   0.020886788   0.25398  -0.12580   0.46311  -0.15391
  15   27802.8    359.7   0.140881774   1.66817  -0.30428   1.22478  -0.27478
  16   27947.5    357.8   0.061788421   0.72785  -0.64010  -0.10478  -0.55420
  17   28306.2    353.3   0.125440287   1.45892  -0.79878   0.43423  -0.79518
  18   28754.1    347.8   0.007401391   0.08474  -0.20029  -0.09301  -0.18967
  19   29150.9    343.0   0.081110738   0.91601   0.74760  -0.48731   0.34587
  20   29538.3    338.5   0.142009789   1.58274  -0.32361   0.37162  -1.15755
  21   29873.7    334.7   0.044270581   0.48787   0.39593  -0.52379  -0.23822
  22   30091.3    332.3   0.045678489   0.49974   0.39529  -0.56860  -0.14205
  23   30381.1    329.2   0.093983399   1.01841  -0.01621   0.31432   0.95883
  24   30500.5    327.9   0.193636213   2.09004   0.19824   1.40418  -0.28109
  25   30894.6    323.7   0.086153635   0.91805  -0.91593  -0.15349  -0.23573
  26   31470.4    317.8   0.172208124   1.80147   1.31817  -0.22347   0.11817
  27   31810.4    314.4   0.199054346   2.06005  -1.41902  -0.01058  -0.21525
  28   32345.7    309.2   0.188205662   1.91554   0.86707  -0.96881   0.47449
  29   32444.5    308.2   0.010090411   0.10239  -0.18769  -0.20229  -0.16198
  30   32743.0    305.4   0.010161562   0.10217   0.24917   0.14702   0.13589
  31   33035.0    302.7   0.040259727   0.40121   0.54205  -0.32075   0.06715
  32   33391.4    299.5   0.032107784   0.31656  -0.03940  -0.55666  -0.07164
  33   33459.7    298.9   0.025248258   0.24842   0.38572   0.31565   0.00174
  34   33778.9    296.0   0.141206007   1.37620   0.80298  -0.36346   0.77416
  35   33953.3    294.5   0.031769526   0.30804  -0.33228   0.44336  -0.03253
  36   34758.3    287.7   0.064859851   0.61432  -0.52833   0.45091  -0.36313
  37   34854.9    286.9   0.038424423   0.36293   0.53779  -0.18062  -0.20269
  38   35054.1    285.3   0.148691259   1.39644  -0.31461  -0.59490   0.97137
  39   35517.5    281.6   0.578928179   5.36608   0.34284  -1.95461  -1.19501
  40   35937.4    278.3   0.345994914   3.16956   1.32515   0.61998   1.01447
  41   36250.2    275.9   0.124451974   1.13023  -0.80687  -0.52312  -0.45335
  42   36523.4    273.8   0.091201945   0.82207  -0.81057   0.25711  -0.31455
  43   36666.8    272.7   0.127523454   1.14497  -0.82108  -0.57304  -0.37738
  44   37001.0    270.3   0.082346986   0.73267  -0.38896  -0.01694  -0.76230
  45   37104.1    269.5   0.014146620   0.12552  -0.20561   0.02060   0.28778
  46   37187.0    268.9   0.082287852   0.72849   0.11398  -0.79372   0.29241
  47   37670.3    265.5   0.051811477   0.45280   0.50385  -0.03883   0.44433
  48   37863.5    264.1   0.071243288   0.61944  -0.59644  -0.17842   0.48152
  49   37994.0    263.2   0.111169996   0.96327   0.69240  -0.57535  -0.39093
  50   38049.2    262.8   0.100290786   0.86774  -0.16765  -0.10578   0.91019
  51   38081.4    262.6   0.069425646   0.60018  -0.30620   0.44045   0.55895
  52   38565.5    259.3   0.205748957   1.75636  -0.24391   0.66340   1.12106
  53   38706.1    258.4   0.027143248   0.23086   0.06408  -0.30589  -0.36495
  54   38984.3    256.5   0.066238519   0.55937  -0.01069  -0.27880  -0.69392
  55   39145.1    255.5   0.013007398   0.10939  -0.17982   0.14287   0.23800
  56   39238.4    254.9   0.018381119   0.15422   0.02430   0.32225  -0.22312
  57   39602.3    252.5   0.081966810   0.68139   0.77971  -0.26180  -0.06999
  58   40289.7    248.2   0.082592511   0.67487   0.45664  -0.65904  -0.17894

FINAL SINGLE POINT ENERGY     -4571.401616691481

DIPOLE MOMENT
-------------
                                X             Y             Z
Electronic contribution:      4.06080       9.28720       4.08295
Nuclear contribution   :     -6.61824     -11.17526      -5.93965
                        -----------------------------------------
Total Dipole Moment    :     -2.55743      -1.88805      -1.85669
                        -----------------------------------------
Magnitude (a.u.)       :      3.68138
Magnitude (Debye)      :      9.35731

Rotational constants in cm-1:     0.003150     0.000275     0.000268
Rotational constants in MHz :    94.441203     8.250900     8.030397

                             ****ORCA TERMINATED NORMALLY****
TOTAL RUN TIME: 0 days 0 hours 8 minutes 22 seconds 107 msec
