                         Program Version 4.2.0 -  RELEASE  -
|  1> # ORCA input file
|  2> # SCF done       -195.966621655929          0.000617450638
|  3> ! CAM-B3LYP def2-SVP def2/J RIJCOSX Grid4 TightSCF
|  4> %maxcore 5000
|  5> %tddft
|  6>     Mode sTDDFT
|  7>     Ethresh 5.0
|  8>     maxcore 5000
|  9> end
| 10>
| 11> %pal
| 12>   nprocs 6
| 13>   end
| 14> * xyz 0 1
| 15>    C        3.98511        -5.07608        -7.98759
| 16>    C        2.77360        -5.71245        -8.00407
| 17>    C        2.12146        -6.02788        -6.80220
| 18>    C        2.68959        -5.70467        -5.60008
| 19>    C        3.93795        -5.05180        -5.54571
| 20>    C        4.53453        -4.72652        -4.30698
| 21>    C        5.75000        -4.09542        -4.29244
| 22>    C        6.39437        -3.74835        -5.51827
| 23>    C        5.84215        -4.05942        -6.72891
| 24>    C        4.59816        -4.72713        -6.76776
| 25>    C        7.64556        -3.03359        -5.23075
| 26>    O        8.49018        -2.64018        -5.99728
| 27>    C        7.63278        -2.81934        -3.74352
| 28>    C        6.59653        -3.67848        -3.18435
| 29>    C        6.56412        -4.19401        -1.91868
| 30>    C        7.53359        -3.91689        -0.93278
| 31>    N        8.32242        -3.74858        -0.11600
| 32>    C        5.60374        -5.13447        -1.48501
| 33>    N        4.84898        -5.90241        -1.09083
| 34>    C        8.40638        -1.86061        -3.19922
| 35>    C        8.27655        -1.30141        -1.87406
| 36>    C        7.06906        -1.08950        -1.29737
| 37>    C        6.87370        -0.55459         0.00771
| 38>    C        5.58368        -0.37059         0.49960
| 39>    C        5.34784         0.17691         1.77037
| 40>    N        5.17244         0.65028         2.80235
| 41>    C        4.45952        -0.73316        -0.25696
| 42>    N        3.56087        -1.04750        -0.90115
| 43>    C        7.99422        -0.24900         0.82786
| 44>    C        9.29988        -0.38428         0.47510
| 45>    S        9.79977        -0.87208        -1.13104
| 46>    C       10.37866        -0.11548         1.39965
| 47>    C       10.24109        -0.25450         2.79866
| 48>    C       11.31611         0.07050         3.70613
| 49>    N       11.06184         0.11036         5.02572
| 50>    C        9.90598        -0.28602         5.48489
| 51>    C        8.92761        -0.84413         4.58981
| 52>    N        9.10525        -0.76959         3.29942
| 53>    C        7.75894        -1.46737         5.09807
| 54>    N        6.83252        -1.96976         5.54408
| 55>    C        9.62761        -0.15221         6.86925
| 56>    N        9.37165        -0.04537         7.97955
| 57>    C       12.60347         0.42600         3.24654
| 58>    C       12.74140         0.54467         1.85520
| 59>    C       11.65141         0.26822         0.94932
| 60>    N       12.02028         0.43571        -0.32453
| 61>    S       13.55424         0.88679        -0.37703
| 62>    N       13.84809         0.89978         1.19478
| 63>    C       13.70454         0.68287         4.14854
| 64>    C       13.79693         0.08264         5.36471
| 65>    C       14.79383         0.33928         6.34710
| 66>    C       14.75661        -0.34912         7.55691
| 67>    C       15.68733        -0.11440         8.58142
| 68>    N       16.44124         0.08416         9.42496
| 69>    C       13.78540        -1.33020         7.81466
| 70>    N       12.99137        -2.13853         8.00496
| 71>    C       15.81486         1.30349         6.10538
| 72>    C       15.98903         1.96449         4.93543
| 73>    S       14.91918         1.79277         3.55257
| 74>    C       17.02930         2.93757         4.71615
| 75>    C       18.29642         2.87364         5.18720
| 76>    C       19.31316         3.90983         5.04335
| 77>    C       19.08575         5.21913         4.71731
| 78>    C       20.10018         6.19697         4.62366
| 79>    N       20.87872         7.03386         4.52400
| 80>    C       17.81770         5.78039         4.45272
| 81>    N       16.82005         6.30483         4.23495
| 82>    C       20.59773         3.32521         5.39460
| 83>    C       20.39037         1.97599         5.80383
| 84>    C       21.42290         1.17559         6.20411
| 85>    C       22.73431         1.69875         6.21562
| 86>    C       23.83697         0.92433         6.62716
| 87>    C       25.09998         1.45166         6.62690
| 88>    C       25.31560         2.77603         6.21614
| 89>    C       24.26635         3.55559         5.81134
| 90>    C       22.95197         3.04541         5.79987
| 91>    C       21.86484         3.84877         5.38862
| 92>    C       18.96254         1.64210         5.72612
| 93>    O       18.45017         0.57390         5.97000
| 94>    H        4.49064        -4.82984        -8.90975
| 95>    H        2.31042        -5.97511        -8.94320
| 96>    H        1.16583        -6.52894        -6.83392
| 97>    H        2.19334        -5.94752        -4.67233
| 98>    H        4.00960        -4.96899        -3.39622
| 99>    H        6.34788        -3.79678        -7.64616
|100>    H        9.18075        -1.44290        -3.83378
|101>    H        6.18047        -1.32957        -1.86810
|102>    H        7.77385         0.10776         1.82364
|103>    H       13.04182        -0.64421         5.62772
|104>    H       16.48719         1.51765         6.92386
|105>    H       16.74497         3.76733         4.08018
|106>    H       21.23713         0.15797         6.51380
|107>    H       23.66470        -0.09397         6.94294
|108>    H       25.93978         0.85159         6.94323
|109>    H       26.31823         3.17615         6.22297
|110>    H       24.42721         4.57615         5.49662
|111>    H       22.06254         4.86122         5.07412
|112> *
|113>
|114>                          ****END OF INPUT****

CARTESIAN COORDINATES (ANGSTROEM)
---------------------------------
  C      3.985110   -5.076080   -7.987590
  C      2.773600   -5.712450   -8.004070
  C      2.121460   -6.027880   -6.802200
  C      2.689590   -5.704670   -5.600080
  C      3.937950   -5.051800   -5.545710
  C      4.534530   -4.726520   -4.306980
  C      5.750000   -4.095420   -4.292440
  C      6.394370   -3.748350   -5.518270
  C      5.842150   -4.059420   -6.728910
  C      4.598160   -4.727130   -6.767760
  C      7.645560   -3.033590   -5.230750
  O      8.490180   -2.640180   -5.997280
  C      7.632780   -2.819340   -3.743520
  C      6.596530   -3.678480   -3.184350
  C      6.564120   -4.194010   -1.918680
  C      7.533590   -3.916890   -0.932780
  N      8.322420   -3.748580   -0.116000
  C      5.603740   -5.134470   -1.485010
  N      4.848980   -5.902410   -1.090830
  C      8.406380   -1.860610   -3.199220
  C      8.276550   -1.301410   -1.874060
  C      7.069060   -1.089500   -1.297370
  C      6.873700   -0.554590    0.007710
  C      5.583680   -0.370590    0.499600
  C      5.347840    0.176910    1.770370
  N      5.172440    0.650280    2.802350
  C      4.459520   -0.733160   -0.256960
  N      3.560870   -1.047500   -0.901150
  C      7.994220   -0.249000    0.827860
  C      9.299880   -0.384280    0.475100
  S      9.799770   -0.872080   -1.131040
  C     10.378660   -0.115480    1.399650
  C     10.241090   -0.254500    2.798660
  C     11.316110    0.070500    3.706130
  N     11.061840    0.110360    5.025720
  C      9.905980   -0.286020    5.484890
  C      8.927610   -0.844130    4.589810
  N      9.105250   -0.769590    3.299420
  C      7.758940   -1.467370    5.098070
  N      6.832520   -1.969760    5.544080
  C      9.627610   -0.152210    6.869250
  N      9.371650   -0.045370    7.979550
  C     12.603470    0.426000    3.246540
  C     12.741400    0.544670    1.855200
  C     11.651410    0.268220    0.949320
  N     12.020280    0.435710   -0.324530
  S     13.554240    0.886790   -0.377030
  N     13.848090    0.899780    1.194780
  C     13.704540    0.682870    4.148540
  C     13.796930    0.082640    5.364710
  C     14.793830    0.339280    6.347100
  C     14.756610   -0.349120    7.556910
  C     15.687330   -0.114400    8.581420
  N     16.441240    0.084160    9.424960
  C     13.785400   -1.330200    7.814660
  N     12.991370   -2.138530    8.004960
  C     15.814860    1.303490    6.105380
  C     15.989030    1.964490    4.935430
  S     14.919180    1.792770    3.552570
  C     17.029300    2.937570    4.716150
  C     18.296420    2.873640    5.187200
  C     19.313160    3.909830    5.043350
  C     19.085750    5.219130    4.717310
  C     20.100180    6.196970    4.623660
  N     20.878720    7.033860    4.524000
  C     17.817700    5.780390    4.452720
  N     16.820050    6.304830    4.234950
  C     20.597730    3.325210    5.394600
  C     20.390370    1.975990    5.803830
  C     21.422900    1.175590    6.204110
  C     22.734310    1.698750    6.215620
  C     23.836970    0.924330    6.627160
  C     25.099980    1.451660    6.626900
  C     25.315600    2.776030    6.216140
  C     24.266350    3.555590    5.811340
  C     22.951970    3.045410    5.799870
  C     21.864840    3.848770    5.388620
  C     18.962540    1.642100    5.726120
  O     18.450170    0.573900    5.970000
  H      4.490640   -4.829840   -8.909750
  H      2.310420   -5.975110   -8.943200
  H      1.165830   -6.528940   -6.833920
  H      2.193340   -5.947520   -4.672330
  H      4.009600   -4.968990   -3.396220
  H      6.347880   -3.796780   -7.646160
  H      9.180750   -1.442900   -3.833780
  H      6.180470   -1.329570   -1.868100
  H      7.773850    0.107760    1.823640
  H     13.041820   -0.644210    5.627720
  H     16.487190    1.517650    6.923860
  H     16.744970    3.767330    4.080180
  H     21.237130    0.157970    6.513800
  H     23.664700   -0.093970    6.942940
  H     25.939780    0.851590    6.943230
  H     26.318230    3.176150    6.222970
  H     24.427210    4.576150    5.496620
  H     22.062540    4.861220    5.074120

 Total Charge           Charge          ....    0
 Multiplicity           Mult            ....    1
 Number of Electrons    NEL             ....  540
 Basis Dimension        Dim             .... 1208

ORBITAL ENERGIES
----------------

  NO   OCC          E(Eh)            E(eV)
   0   2.0000     -89.079419     -2423.9742
   1   2.0000     -88.993017     -2421.6231
   2   2.0000     -88.991187     -2421.5733
   3   2.0000     -19.235119      -523.4142
   4   2.0000     -19.234681      -523.4023
   5   2.0000     -14.484505      -394.1434
   6   2.0000     -14.484384      -394.1401
   7   2.0000     -14.482245      -394.0819
   8   2.0000     -14.481403      -394.0590
   9   2.0000     -14.439503      -392.9189
  10   2.0000     -14.438392      -392.8886
  11   2.0000     -14.433238      -392.7484
  12   2.0000     -14.432109      -392.7177
  13   2.0000     -14.431555      -392.7026
  14   2.0000     -14.427371      -392.5887
  15   2.0000     -14.410106      -392.1189
  16   2.0000     -14.408667      -392.0798
  17   2.0000     -14.408043      -392.0628
  18   2.0000     -14.406533      -392.0217
  19   2.0000     -10.402869      -283.0764
  20   2.0000     -10.402638      -283.0702
  21   2.0000     -10.387748      -282.6650
  22   2.0000     -10.385678      -282.6087
  23   2.0000     -10.379530      -282.4414
  24   2.0000     -10.379222      -282.4330
  25   2.0000     -10.376267      -282.3526
  26   2.0000     -10.375967      -282.3444
  27   2.0000     -10.363011      -281.9919
  28   2.0000     -10.362919      -281.9894
  29   2.0000     -10.362849      -281.9875
  30   2.0000     -10.362088      -281.9668
  31   2.0000     -10.358750      -281.8759
  32   2.0000     -10.358603      -281.8719
  33   2.0000     -10.356911      -281.8259
  34   2.0000     -10.355029      -281.7747
  35   2.0000     -10.354775      -281.7677
  36   2.0000     -10.352586      -281.7082
  37   2.0000     -10.343865      -281.4709
  38   2.0000     -10.343133      -281.4509
  39   2.0000     -10.342491      -281.4335
  40   2.0000     -10.341119      -281.3961
  41   2.0000     -10.334999      -281.2296
  42   2.0000     -10.334607      -281.2190
  43   2.0000     -10.333881      -281.1992
  44   2.0000     -10.333513      -281.1892
  45   2.0000     -10.333239      -281.1817
  46   2.0000     -10.330952      -281.1195
  47   2.0000     -10.329657      -281.0843
  48   2.0000     -10.329232      -281.0727
  49   2.0000     -10.328496      -281.0527
  50   2.0000     -10.327797      -281.0337
  51   2.0000     -10.322001      -280.8759
  52   2.0000     -10.321365      -280.8586
  53   2.0000     -10.321279      -280.8563
  54   2.0000     -10.320262      -280.8286
  55   2.0000     -10.318309      -280.7755
  56   2.0000     -10.317292      -280.7478
  57   2.0000     -10.312831      -280.6264
  58   2.0000     -10.311393      -280.5873
  59   2.0000     -10.310970      -280.5758
  60   2.0000     -10.310852      -280.5726
  61   2.0000     -10.310797      -280.5710
  62   2.0000     -10.310648      -280.5670
  63   2.0000     -10.310571      -280.5649
  64   2.0000     -10.310459      -280.5618
  65   2.0000     -10.309201      -280.5276
  66   2.0000     -10.309046      -280.5234
  67   2.0000     -10.308834      -280.5176
  68   2.0000     -10.308799      -280.5167
  69   2.0000     -10.304066      -280.3879
  70   2.0000     -10.303826      -280.3814
  71   2.0000     -10.297696      -280.2145
  72   2.0000     -10.297374      -280.2058
  73   2.0000     -10.297094      -280.1982
  74   2.0000     -10.296811      -280.1905
  75   2.0000     -10.296105      -280.1713
  76   2.0000     -10.295590      -280.1572
  77   2.0000     -10.294869      -280.1376
  78   2.0000     -10.294239      -280.1205
  79   2.0000      -8.170255      -222.3239
  80   2.0000      -8.087777      -220.0796
  81   2.0000      -8.086320      -220.0400
  82   2.0000      -6.141167      -167.1097
  83   2.0000      -6.133416      -166.8987
  84   2.0000      -6.133368      -166.8974
  85   2.0000      -6.057597      -164.8356
  86   2.0000      -6.056173      -164.7968
  87   2.0000      -6.052942      -164.7089
  88   2.0000      -6.051486      -164.6693
  89   2.0000      -6.049043      -164.6028
  90   2.0000      -6.047492      -164.5606
  91   2.0000      -1.175957       -31.9994
  92   2.0000      -1.151450       -31.3325
  93   2.0000      -1.150456       -31.3055
  94   2.0000      -1.144405       -31.1408
  95   2.0000      -1.070232       -29.1225
  96   2.0000      -1.037625       -28.2352
  97   2.0000      -1.036056       -28.1925
  98   2.0000      -1.034463       -28.1492
  99   2.0000      -1.031469       -28.0677
 100   2.0000      -1.019296       -27.7364
 101   2.0000      -1.016738       -27.6668
 102   2.0000      -1.014163       -27.5968
 103   2.0000      -1.013149       -27.5692
 104   2.0000      -1.012348       -27.5474
 105   2.0000      -1.010320       -27.4922
 106   2.0000      -1.007202       -27.4074
 107   2.0000      -1.006780       -27.3959
 108   2.0000      -0.998686       -27.1756
 109   2.0000      -0.994491       -27.0615
 110   2.0000      -0.987686       -26.8763
 111   2.0000      -0.985784       -26.8245
 112   2.0000      -0.985602       -26.8196
 113   2.0000      -0.983827       -26.7713
 114   2.0000      -0.954308       -25.9680
 115   2.0000      -0.948247       -25.8031
 116   2.0000      -0.945651       -25.7325
 117   2.0000      -0.938593       -25.5404
 118   2.0000      -0.935461       -25.4552
 119   2.0000      -0.932760       -25.3817
 120   2.0000      -0.926860       -25.2212
 121   2.0000      -0.910797       -24.7840
 122   2.0000      -0.905551       -24.6413
 123   2.0000      -0.894512       -24.3409
 124   2.0000      -0.893047       -24.3010
 125   2.0000      -0.886849       -24.1324
 126   2.0000      -0.870441       -23.6859
 127   2.0000      -0.860789       -23.4233
 128   2.0000      -0.860456       -23.4142
 129   2.0000      -0.859385       -23.3851
 130   2.0000      -0.856171       -23.2976
 131   2.0000      -0.841650       -22.9025
 132   2.0000      -0.840077       -22.8597
 133   2.0000      -0.824809       -22.4442
 134   2.0000      -0.813598       -22.1391
 135   2.0000      -0.812062       -22.0973
 136   2.0000      -0.794899       -21.6303
 137   2.0000      -0.778171       -21.1751
 138   2.0000      -0.777107       -21.1462
 139   2.0000      -0.762190       -20.7403
 140   2.0000      -0.759822       -20.6758
 141   2.0000      -0.758324       -20.6351
 142   2.0000      -0.753465       -20.5028
 143   2.0000      -0.728162       -19.8143
 144   2.0000      -0.724734       -19.7210
 145   2.0000      -0.720765       -19.6130
 146   2.0000      -0.718487       -19.5510
 147   2.0000      -0.714123       -19.4323
 148   2.0000      -0.713019       -19.4022
 149   2.0000      -0.708600       -19.2820
 150   2.0000      -0.704581       -19.1726
 151   2.0000      -0.696226       -18.9453
 152   2.0000      -0.691002       -18.8031
 153   2.0000      -0.690106       -18.7787
 154   2.0000      -0.677156       -18.4264
 155   2.0000      -0.672099       -18.2888
 156   2.0000      -0.666685       -18.1414
 157   2.0000      -0.663033       -18.0420
 158   2.0000      -0.649269       -17.6675
 159   2.0000      -0.648845       -17.6560
 160   2.0000      -0.646396       -17.5893
 161   2.0000      -0.636437       -17.3183
 162   2.0000      -0.632395       -17.2083
 163   2.0000      -0.629793       -17.1375
 164   2.0000      -0.623251       -16.9595
 165   2.0000      -0.619734       -16.8638
 166   2.0000      -0.619536       -16.8584
 167   2.0000      -0.614962       -16.7340
 168   2.0000      -0.608671       -16.5628
 169   2.0000      -0.603056       -16.4100
 170   2.0000      -0.596209       -16.2237
 171   2.0000      -0.592112       -16.1122
 172   2.0000      -0.589475       -16.0404
 173   2.0000      -0.582959       -15.8631
 174   2.0000      -0.582507       -15.8508
 175   2.0000      -0.572365       -15.5748
 176   2.0000      -0.568008       -15.4563
 177   2.0000      -0.566205       -15.4072
 178   2.0000      -0.562412       -15.3040
 179   2.0000      -0.559619       -15.2280
 180   2.0000      -0.557982       -15.1835
 181   2.0000      -0.557480       -15.1698
 182   2.0000      -0.554899       -15.0996
 183   2.0000      -0.552489       -15.0340
 184   2.0000      -0.551025       -14.9942
 185   2.0000      -0.546899       -14.8819
 186   2.0000      -0.544643       -14.8205
 187   2.0000      -0.543804       -14.7977
 188   2.0000      -0.535416       -14.5694
 189   2.0000      -0.534027       -14.5316
 190   2.0000      -0.532905       -14.5011
 191   2.0000      -0.526580       -14.3290
 192   2.0000      -0.524753       -14.2793
 193   2.0000      -0.522765       -14.2252
 194   2.0000      -0.520797       -14.1716
 195   2.0000      -0.520106       -14.1528
 196   2.0000      -0.516158       -14.0454
 197   2.0000      -0.513319       -13.9681
 198   2.0000      -0.511998       -13.9322
 199   2.0000      -0.510124       -13.8812
 200   2.0000      -0.506160       -13.7733
 201   2.0000      -0.502372       -13.6702
 202   2.0000      -0.501246       -13.6396
 203   2.0000      -0.498998       -13.5784
 204   2.0000      -0.497966       -13.5504
 205   2.0000      -0.488877       -13.3030
 206   2.0000      -0.484298       -13.1784
 207   2.0000      -0.481120       -13.0919
 208   2.0000      -0.478882       -13.0310
 209   2.0000      -0.477131       -12.9834
 210   2.0000      -0.476687       -12.9713
 211   2.0000      -0.469711       -12.7815
 212   2.0000      -0.466302       -12.6887
 213   2.0000      -0.465717       -12.6728
 214   2.0000      -0.464358       -12.6358
 215   2.0000      -0.463875       -12.6227
 216   2.0000      -0.461003       -12.5445
 217   2.0000      -0.459554       -12.5051
 218   2.0000      -0.459397       -12.5008
 219   2.0000      -0.455105       -12.3840
 220   2.0000      -0.453300       -12.3349
 221   2.0000      -0.450767       -12.2660
 222   2.0000      -0.450507       -12.2589
 223   2.0000      -0.448728       -12.2105
 224   2.0000      -0.448024       -12.1914
 225   2.0000      -0.447119       -12.1667
 226   2.0000      -0.445763       -12.1298
 227   2.0000      -0.445398       -12.1199
 228   2.0000      -0.443102       -12.0574
 229   2.0000      -0.442676       -12.0458
 230   2.0000      -0.440813       -11.9951
 231   2.0000      -0.440630       -11.9902
 232   2.0000      -0.438707       -11.9378
 233   2.0000      -0.438394       -11.9293
 234   2.0000      -0.437580       -11.9072
 235   2.0000      -0.436027       -11.8649
 236   2.0000      -0.434731       -11.8296
 237   2.0000      -0.432127       -11.7588
 238   2.0000      -0.428890       -11.6707
 239   2.0000      -0.428260       -11.6535
 240   2.0000      -0.425518       -11.5789
 241   2.0000      -0.424595       -11.5538
 242   2.0000      -0.423430       -11.5221
 243   2.0000      -0.421731       -11.4759
 244   2.0000      -0.421523       -11.4702
 245   2.0000      -0.419957       -11.4276
 246   2.0000      -0.418895       -11.3987
 247   2.0000      -0.416739       -11.3400
 248   2.0000      -0.408649       -11.1199
 249   2.0000      -0.406420       -11.0592
 250   2.0000      -0.404533       -11.0079
 251   2.0000      -0.401501       -10.9254
 252   2.0000      -0.395645       -10.7661
 253   2.0000      -0.394890       -10.7455
 254   2.0000      -0.387543       -10.5456
 255   2.0000      -0.386312       -10.5121
 256   2.0000      -0.384115       -10.4523
 257   2.0000      -0.376093       -10.2340
 258   2.0000      -0.369817       -10.0632
 259   2.0000      -0.359393        -9.7796
 260   2.0000      -0.358277        -9.7492
 261   2.0000      -0.348110        -9.4725
 262   2.0000      -0.342413        -9.3175
 263   2.0000      -0.330297        -8.9878
 264   2.0000      -0.328337        -8.9345
 265   2.0000      -0.317589        -8.6420
 266   2.0000      -0.306522        -8.3409
 267   2.0000      -0.305082        -8.3017
 268   2.0000      -0.282649        -7.6913
 269   2.0000      -0.276378        -7.5206
 270   0.0000      -0.151827        -4.1314
 271   0.0000      -0.116995        -3.1836
 272   0.0000      -0.111802        -3.0423
 273   0.0000      -0.078209        -2.1282
 274   0.0000      -0.077426        -2.1069

MULLIKEN ATOMIC CHARGES
-----------------------
   0 C :   -0.013851
   1 C :    0.038425
   2 C :    0.040338
   3 C :   -0.013593
   4 C :    0.091840
   5 C :   -0.065275
   6 C :    0.033193
   7 C :    0.013308
   8 C :   -0.075576
   9 C :    0.095015
  10 C :    0.135664
  11 O :   -0.129615
  12 C :   -0.093946
  13 C :    0.245781
  14 C :   -0.314956
  15 C :   -0.177686
  16 N :    0.168598
  17 C :   -0.175712
  18 N :    0.171928
  19 C :    0.068334
  20 C :   -0.074528
  21 C :   -0.054955
  22 C :    0.249144
  23 C :   -0.323340
  24 C :   -0.160360
  25 N :    0.133998
  26 C :   -0.165890
  27 N :    0.126964
  28 C :   -0.049796
  29 C :   -0.061987
  30 S :    0.191512
  31 C :    0.124247
  32 C :   -0.039442
  33 C :   -0.049104
  34 N :    0.025468
  35 C :   -0.118224
  36 C :   -0.118479
  37 N :    0.032785
  38 C :   -0.186173
  39 N :    0.259321
  40 C :   -0.185104
  41 N :    0.254276
  42 C :    0.119013
  43 C :    0.010040
  44 C :    0.001225
  45 N :   -0.301850
  46 S :    0.590069
  47 N :   -0.295484
  48 C :   -0.084582
  49 C :   -0.046098
  50 C :    0.218074
  51 C :   -0.316629
  52 C :   -0.164948
  53 N :    0.139378
  54 C :   -0.160347
  55 N :    0.130391
  56 C :    0.014438
  57 C :   -0.050737
  58 S :    0.171859
  59 C :    0.005930
  60 C :   -0.070981
  61 C :    0.295607
  62 C :   -0.325751
  63 C :   -0.181993
  64 N :    0.163260
  65 C :   -0.205135
  66 N :    0.168018
  67 C :    0.051969
  68 C :   -0.014624
  69 C :   -0.065949
  70 C :    0.095034
  71 C :   -0.012079
  72 C :    0.038774
  73 C :    0.038241
  74 C :   -0.016107
  75 C :    0.097142
  76 C :   -0.079013
  77 C :    0.154072
  78 O :   -0.127539
  79 H :   -0.014885
  80 H :   -0.001086
  81 H :    0.000894
  82 H :   -0.004527
  83 H :    0.005878
  84 H :   -0.008369
  85 H :    0.036976
  86 H :    0.037889
  87 H :    0.033102
  88 H :    0.033546
  89 H :    0.030482
  90 H :    0.044224
  91 H :   -0.004567
  92 H :   -0.012256
  93 H :    0.000272
  94 H :   -0.000165
  95 H :   -0.006342
  96 H :   -0.006305
Sum of atomic charges:   -0.0000000

LOEWDIN ATOMIC CHARGES
----------------------
   0 C :   -0.007679
   1 C :   -0.007759
   2 C :   -0.007188
   3 C :   -0.001818
   4 C :   -0.002188
   5 C :    0.026809
   6 C :   -0.024206
   7 C :   -0.061320
   8 C :    0.038496
   9 C :   -0.006996
  10 C :    0.086508
  11 O :   -0.129401
  12 C :   -0.050324
  13 C :    0.063045
  14 C :   -0.120183
  15 C :   -0.016242
  16 N :   -0.045940
  17 C :   -0.018973
  18 N :   -0.031368
  19 C :    0.035120
  20 C :   -0.138779
  21 C :   -0.019654
  22 C :    0.042427
  23 C :   -0.153006
  24 C :   -0.028380
  25 N :   -0.056639
  26 C :   -0.027780
  27 N :   -0.063217
  28 C :    0.005837
  29 C :   -0.119658
  30 S :    0.486025
  31 C :   -0.026206
  32 C :    0.006691
  33 C :    0.005566
  34 N :    0.005098
  35 C :   -0.007709
  36 C :   -0.006048
  37 N :    0.009337
  38 C :   -0.036722
  39 N :    0.024987
  40 C :   -0.036715
  41 N :    0.022480
  42 C :   -0.028754
  43 C :   -0.044338
  44 C :   -0.044024
  45 N :   -0.293585
  46 S :    0.715056
  47 N :   -0.291146
  48 C :   -0.128711
  49 C :    0.001136
  50 C :    0.037673
  51 C :   -0.143587
  52 C :   -0.027463
  53 N :   -0.053649
  54 C :   -0.027036
  55 N :   -0.056263
  56 C :    0.015979
  57 C :   -0.144599
  58 S :    0.467344
  59 C :    0.039420
  60 C :   -0.058379
  61 C :    0.071528
  62 C :   -0.124263
  63 C :   -0.017246
  64 N :   -0.039700
  65 C :   -0.024365
  66 N :   -0.039353
  67 C :   -0.027783
  68 C :   -0.058379
  69 C :    0.041871
  70 C :   -0.006244
  71 C :   -0.005840
  72 C :   -0.007210
  73 C :   -0.008045
  74 C :   -0.004080
  75 C :   -0.003639
  76 C :    0.023010
  77 C :    0.084270
  78 O :   -0.122204
  79 H :    0.032962
  80 H :    0.034627
  81 H :    0.035649
  82 H :    0.037187
  83 H :    0.043056
  84 H :    0.040990
  85 H :    0.048673
  86 H :    0.046573
  87 H :    0.044610
  88 H :    0.044930
  89 H :    0.048959
  90 H :    0.044927
  91 H :    0.042791
  92 H :    0.034246
  93 H :    0.035184
  94 H :    0.035256
  95 H :    0.035859
  96 H :    0.039791

  Mayer bond orders larger than 0.100000
B(  0-C ,  1-C ) :   1.4906 B(  0-C ,  9-C ) :   1.2422 B(  0-C , 79-H ) :   0.9983
B(  1-C ,  2-C ) :   1.2585 B(  1-C , 80-H ) :   0.9891 B(  2-C ,  3-C ) :   1.4905
B(  2-C , 81-H ) :   0.9887 B(  3-C ,  4-C ) :   1.2387 B(  3-C , 82-H ) :   0.9984
B(  4-C ,  5-C ) :   1.2119 B(  4-C ,  9-C ) :   1.2512 B(  5-C ,  6-C ) :   1.4514
B(  5-C , 83-H ) :   0.9941 B(  6-C ,  7-C ) :   1.2101 B(  6-C , 13-C ) :   1.0072
B(  7-C ,  8-C ) :   1.4615 B(  7-C , 10-C ) :   0.9260 B(  8-C ,  9-C ) :   1.1920
B(  8-C , 84-H ) :   1.0167 B( 10-C , 11-O ) :   2.2858 B( 10-C , 12-C ) :   0.9116
B( 12-C , 13-C ) :   0.9951 B( 12-C , 19-C ) :   1.8126 B( 13-C , 14-C ) :   1.6926
B( 14-C , 15-C ) :   1.1583 B( 14-C , 17-C ) :   1.1279 B( 15-C , 16-N ) :   2.9952
B( 17-C , 18-N ) :   2.9967 B( 19-C , 20-C ) :   0.9963 B( 19-C , 85-H ) :   0.9268
B( 20-C , 21-C ) :   1.6148 B( 20-C , 30-S ) :   1.0576 B( 21-C , 22-C ) :   1.1362
B( 21-C , 86-H ) :   0.9641 B( 22-C , 23-C ) :   1.5345 B( 22-C , 28-C ) :   1.1496
B( 23-C , 24-C ) :   1.1276 B( 23-C , 26-C ) :   1.1352 B( 24-C , 25-N ) :   2.9825
B( 26-C , 27-N ) :   2.9851 B( 28-C , 29-C ) :   1.5926 B( 28-C , 87-H ) :   0.9489
B( 29-C , 30-S ) :   1.0700 B( 29-C , 31-C ) :   1.0867 B( 31-C , 32-C ) :   1.3158
B( 31-C , 42-C ) :   0.1271 B( 31-C , 44-C ) :   1.2235 B( 32-C , 33-C ) :   1.1200
B( 32-C , 37-N ) :   1.3973 B( 33-C , 34-N ) :   1.4007 B( 33-C , 42-C ) :   1.3156
B( 34-N , 35-C ) :   1.7435 B( 35-C , 36-C ) :   1.1698 B( 35-C , 40-C ) :   1.1469
B( 36-C , 37-N ) :   1.7473 B( 36-C , 38-C ) :   1.1481 B( 38-C , 39-N ) :   3.0438
B( 40-C , 41-N ) :   3.0452 B( 42-C , 43-C ) :   1.2278 B( 42-C , 48-C ) :   1.0790
B( 43-C , 44-C ) :   1.1153 B( 43-C , 47-N ) :   1.4727 B( 44-C , 45-N ) :   1.4690
B( 45-N , 46-S ) :   1.2989 B( 45-N , 47-N ) :   0.1546 B( 46-S , 47-N ) :   1.3018
B( 48-C , 49-C ) :   1.5911 B( 48-C , 58-S ) :   1.0780 B( 49-C , 50-C ) :   1.1375
B( 49-C , 88-H ) :   0.9527 B( 50-C , 51-C ) :   1.5326 B( 50-C , 56-C ) :   1.1543
B( 51-C , 52-C ) :   1.1313 B( 51-C , 54-C ) :   1.1308 B( 52-C , 53-N ) :   2.9962
B( 54-C , 55-N ) :   2.9809 B( 56-C , 57-C ) :   1.6302 B( 56-C , 89-H ) :   0.9495
B( 57-C , 58-S ) :   1.0391 B( 57-C , 59-C ) :   1.0353 B( 59-C , 60-C ) :   1.7388
B( 59-C , 90-H ) :   0.9285 B( 60-C , 61-C ) :   1.0361 B( 60-C , 77-C ) :   0.9089
B( 61-C , 62-C ) :   1.6619 B( 61-C , 67-C ) :   1.0032 B( 62-C , 63-C ) :   1.1421
B( 62-C , 65-C ) :   1.1367 B( 63-C , 64-N ) :   2.9713 B( 65-C , 66-N ) :   2.9897
B( 67-C , 68-C ) :   1.2051 B( 67-C , 76-C ) :   1.4418 B( 68-C , 69-C ) :   1.4685
B( 68-C , 77-C ) :   0.9501 B( 69-C , 70-C ) :   1.1864 B( 69-C , 91-H ) :   1.0152
B( 70-C , 71-C ) :   1.2439 B( 70-C , 75-C ) :   1.2487 B( 71-C , 72-C ) :   1.4913
B( 71-C , 92-H ) :   0.9973 B( 72-C , 73-C ) :   1.2572 B( 72-C , 93-H ) :   0.9886
B( 73-C , 74-C ) :   1.4915 B( 73-C , 94-H ) :   0.9887 B( 74-C , 75-C ) :   1.2383
B( 74-C , 95-H ) :   0.9969 B( 75-C , 76-C ) :   1.2141 B( 76-C , 96-H ) :   0.9890
B( 77-C , 78-O ) :   2.2413

-----------------------------------------------------------------------------
         ABSORPTION SPECTRUM VIA TRANSITION ELECTRIC DIPOLE MOMENTS
-----------------------------------------------------------------------------
State   Energy  Wavelength   fosc         T2         TX        TY        TZ
        (cm-1)    (nm)                  (au**2)     (au)      (au)      (au)
-----------------------------------------------------------------------------
   0   11231.7    890.3   0.211065916   6.18655   1.93423  -0.02522   1.56354
   1   12430.4    804.5   0.029808067   0.78945   0.87678   0.11459  -0.08701
   2   18639.5    536.5   0.151142786   2.66949   0.61848   1.00052  -1.13398
   3   19002.8    526.2   0.101573924   1.75971  -1.30194   0.25375   0.01676
   4   19490.8    513.1   0.396666579   6.69995  -1.83655  -0.97815  -1.53957
   5   22832.9    438.0   0.017019409   0.24539   0.47355   0.00824   0.14517
   6   23551.4    424.6   0.024101460   0.33690  -0.32089   0.33713  -0.34681
   7   24493.0    408.3   0.024536774   0.32980   0.35055   0.44328   0.10205
   8   24596.1    406.6   0.025001980   0.33464  -0.49518  -0.29845   0.01915
   9   24907.5    401.5   0.013074229   0.17281  -0.23550   0.17620   0.29377
  10   25127.2    398.0   0.030681365   0.40198   0.49532  -0.15217   0.36536
  11   26034.2    384.1   0.098219904   1.24203   0.79860   0.33633   0.70082
  12   26108.9    383.0   0.014973503   0.18880   0.03087   0.20277  -0.38306
  13   26626.6    375.6   0.057857489   0.71535  -0.81510   0.06685   0.21562
  14   27079.8    369.3   0.078001300   0.94827  -0.10486  -0.27830   0.92727
  15   27249.8    367.0   0.029594978   0.35755   0.39781  -0.41353   0.16819
  16   27570.3    362.7   0.009710708   0.11595  -0.08931  -0.18536  -0.27133
  17   27806.0    359.6   0.014994479   0.17753   0.12539  -0.33614  -0.22095
  18   27961.3    357.6   0.172653244   2.03279  -1.15638   0.60489  -0.57418
  19   28045.9    356.6   0.033502539   0.39326  -0.25371   0.56389  -0.10449
  20   28686.7    348.6   0.022991054   0.26385  -0.50157  -0.10103   0.04545
  21   28732.1    348.0   0.009347460   0.10710   0.12163  -0.16387  -0.25584
  22   28965.6    345.2   0.054053367   0.61435   0.44884  -0.27296  -0.58171
  23   29126.7    343.3   0.015572522   0.17601   0.14869  -0.29575  -0.25775
  24   29352.4    340.7   0.025057111   0.28104  -0.00858   0.48205   0.22044
  25   29568.9    338.2   0.061499132   0.68471  -0.46152  -0.14383   0.67158
  26   29857.9    334.9   0.070309544   0.77523  -0.41389  -0.77670   0.02561
  27   30337.7    329.6   0.199559400   2.16553   1.10089   0.77723   0.59118
  28   30479.7    328.1   0.176344156   1.90469  -1.05404  -0.49039  -0.74379
  29   30694.3    325.8   0.419675945   4.50123   1.14844   0.45722  -1.72432
  30   31084.4    321.7   0.115462215   1.22285  -0.97138   0.52798  -0.02275
  31   31817.8    314.3   0.229639377   2.37603   1.13328   0.08742  -1.04119
  32   32151.4    311.0   0.073797621   0.75565   0.80266   0.06972  -0.32638
  33   32643.9    306.3   0.613187243   6.18396  -1.86713   1.42168  -0.82255
  34   32747.9    305.4   0.061249709   0.61574   0.03582   0.14258   0.77080
  35   33061.3    302.5   0.738713009   7.35584   1.90626   0.51974   1.85793
  36   33383.2    299.6   0.238273931   2.34976  -0.48243   0.15202   1.44704
  37   33850.1    295.4   0.341326832   3.31960  -1.03490  -1.07300  -1.04750
  38   33949.7    294.6   0.036938034   0.35819   0.17623  -0.37432   0.43245
  39   34787.2    287.5   0.062989555   0.59611   0.09749   0.43383   0.63118
  40   34839.6    287.0   0.267795088   2.53049   1.57733   0.17180   0.11404
  41   34969.0    286.0   0.091121271   0.85785  -0.63975  -0.47771   0.46943
  42   35122.3    284.7   0.079159110   0.74198  -0.80778   0.10752  -0.27912
  43   35302.4    283.3   0.294462011   2.74600  -1.47637   0.17782  -0.73124
  44   35424.5    282.3   0.216027969   2.00762  -1.01381  -0.19759  -0.96993
  45   35522.4    281.5   0.004068741   0.03771   0.02556   0.18962  -0.03315
  46   35722.0    279.9   0.011626252   0.10715   0.29275   0.13065  -0.06616
  47   36148.1    276.6   0.000201229   0.00183   0.04253   0.00312  -0.00376
  48   36220.8    276.1   0.039680472   0.36066   0.38557   0.34282  -0.30736
  49   36416.6    274.6   0.016604549   0.15011   0.07125  -0.09012   0.37001
  50   36529.2    273.8   0.080361768   0.72424  -0.43142  -0.45753   0.57340
  51   37072.3    269.7   0.199292395   1.76977   1.20251   0.12900  -0.55416
  52   37174.6    269.0   0.244923360   2.16900  -0.45435   0.04366   1.40023
  53   37564.7    266.2   0.181970880   1.59477   0.69572   0.09225  -1.04987
  54   37853.0    264.2   0.018758307   0.16314  -0.28532   0.27402  -0.08156
  55   38039.0    262.9   0.276649911   2.39429   0.37115   1.23188  -0.85965
  56   38266.7    261.3   0.080413518   0.69181   0.66619   0.46455   0.17939
  57   38707.4    258.3   0.124521827   1.05908   0.88500   0.51119  -0.12055
  58   38898.0    257.1   0.110824744   0.93796  -0.46412  -0.46243   0.71324
  59   39242.6    254.8   0.148345080   1.24449  -0.35298   0.98340   0.39092
  60   39290.6    254.5   0.260852217   2.18566  -0.74058  -0.79690   1.00107
  61   39465.2    253.4   0.059905060   0.49972   0.61826   0.17081  -0.29716
  62   39540.5    252.9   0.098543153   0.82046  -0.67167  -0.58752  -0.15540
  63   39901.6    250.6   0.086995347   0.71776  -0.05565  -0.38527   0.75249
  64   40272.5    248.3   0.013320486   0.10889  -0.12130  -0.20338   0.22981

FINAL SINGLE POINT ENERGY     -4404.068009536350

DIPOLE MOMENT
-------------
                                X             Y             Z
Electronic contribution:    -11.84115      10.67846      16.10734
Nuclear contribution   :     15.98624     -10.94132     -22.23043
                        -----------------------------------------
Total Dipole Moment    :      4.14509      -0.26286      -6.12308
                        -----------------------------------------
Magnitude (a.u.)       :      7.39885
Magnitude (Debye)      :     18.80638

Rotational constants in cm-1:     0.001667     0.000269     0.000250
Rotational constants in MHz :    49.976390     8.055282     7.484396

                             ****ORCA TERMINATED NORMALLY****
TOTAL RUN TIME: 0 days 0 hours 10 minutes 57 seconds 860 msec
