                         Program Version 4.2.0 -  RELEASE  -
|  1> # ORCA input file
|  2> # SCF done       -204.247351018954          0.000752102908
|  3> ! CAM-B3LYP def2-SVP def2/J RIJCOSX Grid4 TightSCF
|  4> %maxcore 5000
|  5> %tddft
|  6>     Mode sTDDFT
|  7>     Ethresh 5.0
|  8>     maxcore 5000
|  9> end
| 10>
| 11> %pal
| 12>   nprocs 6
| 13>   end
| 14> * xyz 0 1
| 15>    C        1.37402         4.74241        -2.87914
| 16>    C        0.35799         4.82020        -1.96544
| 17>    C        0.32742         3.95105        -0.86501
| 18>    C        1.31203         3.01624        -0.69369
| 19>    C        2.37184         2.90742        -1.61637
| 20>    C        3.38644         1.93598        -1.44921
| 21>    C        4.40051         1.85852        -2.36461
| 22>    C        4.43748         2.76120        -3.46671
| 23>    C        3.46739         3.70117        -3.65857
| 24>    C        2.40381         3.79278        -2.73189
| 25>    C        5.64683         2.49769        -4.26680
| 26>    O        5.99071         3.03074        -5.29722
| 27>    C        6.40624         1.46493        -3.50544
| 28>    C        5.54307         0.95337        -2.46932
| 29>    C        5.62649        -0.27339        -1.85649
| 30>    C        6.59335        -1.24724        -2.16889
| 31>    N        7.34403        -2.08606        -2.39706
| 32>    C        4.71372        -0.73309        -0.88730
| 33>    N        4.02762        -1.14512        -0.06331
| 34>    C        7.71751         1.26427        -3.83417
| 35>    C        8.76950         0.67845        -3.10717
| 36>    C        8.85759         0.36145        -1.75529
| 37>    C       10.09701        -0.16822        -1.43278
| 38>    C       10.99158        -0.24853        -2.53668
| 39>    S       10.27130         0.35047        -3.97470
| 40>    C       12.17340        -0.79687        -2.05611
| 41>    C       11.96796        -1.04556        -0.67167
| 42>    N       10.70630        -0.65533        -0.30837
| 43>    C       10.09025        -0.79760         0.98134
| 44>    C       13.07642        -1.59159        -0.04155
| 45>    C       14.13753        -1.75850        -0.92468
| 46>    S       13.76463        -1.24172        -2.56267
| 47>    C       15.42550        -2.26005        -0.60799
| 48>    C       16.44079        -2.32911        -1.58969
| 49>    C       17.77655        -2.77401        -1.29236
| 50>    N       18.69479        -2.79459        -2.26368
| 51>    C       18.37800        -2.41784        -3.47820
| 52>    C       17.04540        -1.98393        -3.77631
| 53>    N       16.13407        -1.95275        -2.83506
| 54>    C       16.70044        -1.58622        -5.09165
| 55>    N       16.45847        -1.27116        -6.16585
| 56>    C       19.36429        -2.44819        -4.49497
| 57>    N       20.13549        -2.45818        -5.34167
| 58>    C       18.16961        -3.19175        -0.00002
| 59>    C       17.14572        -3.16555         0.97840
| 60>    C       15.80500        -2.70375         0.68252
| 61>    N       15.02138        -2.75708         1.75948
| 62>    S       15.86127        -3.32479         3.00447
| 63>    N       17.26587        -3.53136         2.25447
| 64>    C       19.50712        -3.58073         0.26658
| 65>    C       20.01160        -4.02805         1.48273
| 66>    C       21.37134        -4.29116         1.40532
| 67>    C       21.92348        -4.03668         0.12040
| 68>    S       20.72449        -3.49057        -0.99871
| 69>    C       23.27879        -4.32368         0.21165
| 70>    C       23.52073        -4.75210         1.54970
| 71>    N       22.34780        -4.73456         2.25629
| 72>    C       22.18253        -5.06927         3.64331
| 73>    C       24.84366        -5.07182         1.80744
| 74>    C       25.64161        -4.90002         0.68209
| 75>    S       24.72171        -4.31688        -0.71732
| 76>    C       27.02237        -5.06734         0.47953
| 77>    C       27.99797        -5.60979         1.27637
| 78>    C       29.39891        -5.65699         0.88966
| 79>    C       30.01001        -4.90462        -0.08036
| 80>    C       31.38389        -4.98724        -0.38896
| 81>    N       32.49113        -5.00873        -0.69211
| 82>    C       29.39121        -3.90743        -0.86389
| 83>    N       28.97849        -3.05862        -1.51860
| 84>    C       30.08184        -6.58225         1.78559
| 85>    C       29.15821        -6.99748         2.78470
| 86>    C       29.51185        -7.86015         3.78159
| 87>    C       30.83103        -8.36480         3.81929
| 88>    C       31.25439        -9.26016         4.82094
| 89>    C       32.53564        -9.74105         4.83344
| 90>    C       33.44962        -9.34690         3.84508
| 91>    C       33.07023        -8.47781         2.85854
| 92>    C       31.75884        -7.96283         2.81587
| 93>    C       31.36413        -7.06222         1.79950
| 94>    C       27.84899        -6.36742         2.54060
| 95>    O       26.86844        -6.48434         3.25081
| 96>    H        1.40306         5.40906        -3.72862
| 97>    H       -0.42708         5.55167        -2.08573
| 98>    H       -0.48131         4.02498        -0.15343
| 99>    H        1.29046         2.34212         0.15013
|100>    H        3.33955         1.28278        -0.59174
|101>    H        3.50942         4.36784        -4.50699
|102>    H        8.00157         1.69797        -4.78928
|103>    H        8.07177         0.55783        -1.04934
|104>    H       10.76940        -1.32984         1.64299
|105>    H        9.16045        -1.36393         0.89328
|106>    H        9.86664         0.18181         1.41228
|107>    H       13.15480        -1.86182         0.99452
|108>    H       19.39111        -4.13564         2.35210
|109>    H       22.99674        -5.72204         3.95272
|110>    H       21.23362        -5.58675         3.78458
|111>    H       22.19088        -4.17134         4.26798
|112>    H       25.24164        -5.41670         2.74332
|113>    H       27.34781        -4.72298        -0.49576
|114>    H       28.79315        -8.15659         4.53132
|115>    H       30.54610        -9.56048         5.57942
|116>    H       32.85158       -10.42783         5.60450
|117>    H       34.45672        -9.73547         3.86920
|118>    H       33.77066        -8.17005         2.09603
|119>    H       32.08844        -6.78159         1.05163
|120> *
|121>
|122>                          ****END OF INPUT****

CARTESIAN COORDINATES (ANGSTROEM)
---------------------------------
  C      1.374020    4.742410   -2.879140
  C      0.357990    4.820200   -1.965440
  C      0.327420    3.951050   -0.865010
  C      1.312030    3.016240   -0.693690
  C      2.371840    2.907420   -1.616370
  C      3.386440    1.935980   -1.449210
  C      4.400510    1.858520   -2.364610
  C      4.437480    2.761200   -3.466710
  C      3.467390    3.701170   -3.658570
  C      2.403810    3.792780   -2.731890
  C      5.646830    2.497690   -4.266800
  O      5.990710    3.030740   -5.297220
  C      6.406240    1.464930   -3.505440
  C      5.543070    0.953370   -2.469320
  C      5.626490   -0.273390   -1.856490
  C      6.593350   -1.247240   -2.168890
  N      7.344030   -2.086060   -2.397060
  C      4.713720   -0.733090   -0.887300
  N      4.027620   -1.145120   -0.063310
  C      7.717510    1.264270   -3.834170
  C      8.769500    0.678450   -3.107170
  C      8.857590    0.361450   -1.755290
  C     10.097010   -0.168220   -1.432780
  C     10.991580   -0.248530   -2.536680
  S     10.271300    0.350470   -3.974700
  C     12.173400   -0.796870   -2.056110
  C     11.967960   -1.045560   -0.671670
  N     10.706300   -0.655330   -0.308370
  C     10.090250   -0.797600    0.981340
  C     13.076420   -1.591590   -0.041550
  C     14.137530   -1.758500   -0.924680
  S     13.764630   -1.241720   -2.562670
  C     15.425500   -2.260050   -0.607990
  C     16.440790   -2.329110   -1.589690
  C     17.776550   -2.774010   -1.292360
  N     18.694790   -2.794590   -2.263680
  C     18.378000   -2.417840   -3.478200
  C     17.045400   -1.983930   -3.776310
  N     16.134070   -1.952750   -2.835060
  C     16.700440   -1.586220   -5.091650
  N     16.458470   -1.271160   -6.165850
  C     19.364290   -2.448190   -4.494970
  N     20.135490   -2.458180   -5.341670
  C     18.169610   -3.191750   -0.000020
  C     17.145720   -3.165550    0.978400
  C     15.805000   -2.703750    0.682520
  N     15.021380   -2.757080    1.759480
  S     15.861270   -3.324790    3.004470
  N     17.265870   -3.531360    2.254470
  C     19.507120   -3.580730    0.266580
  C     20.011600   -4.028050    1.482730
  C     21.371340   -4.291160    1.405320
  C     21.923480   -4.036680    0.120400
  S     20.724490   -3.490570   -0.998710
  C     23.278790   -4.323680    0.211650
  C     23.520730   -4.752100    1.549700
  N     22.347800   -4.734560    2.256290
  C     22.182530   -5.069270    3.643310
  C     24.843660   -5.071820    1.807440
  C     25.641610   -4.900020    0.682090
  S     24.721710   -4.316880   -0.717320
  C     27.022370   -5.067340    0.479530
  C     27.997970   -5.609790    1.276370
  C     29.398910   -5.656990    0.889660
  C     30.010010   -4.904620   -0.080360
  C     31.383890   -4.987240   -0.388960
  N     32.491130   -5.008730   -0.692110
  C     29.391210   -3.907430   -0.863890
  N     28.978490   -3.058620   -1.518600
  C     30.081840   -6.582250    1.785590
  C     29.158210   -6.997480    2.784700
  C     29.511850   -7.860150    3.781590
  C     30.831030   -8.364800    3.819290
  C     31.254390   -9.260160    4.820940
  C     32.535640   -9.741050    4.833440
  C     33.449620   -9.346900    3.845080
  C     33.070230   -8.477810    2.858540
  C     31.758840   -7.962830    2.815870
  C     31.364130   -7.062220    1.799500
  C     27.848990   -6.367420    2.540600
  O     26.868440   -6.484340    3.250810
  H      1.403060    5.409060   -3.728620
  H     -0.427080    5.551670   -2.085730
  H     -0.481310    4.024980   -0.153430
  H      1.290460    2.342120    0.150130
  H      3.339550    1.282780   -0.591740
  H      3.509420    4.367840   -4.506990
  H      8.001570    1.697970   -4.789280
  H      8.071770    0.557830   -1.049340
  H     10.769400   -1.329840    1.642990
  H      9.160450   -1.363930    0.893280
  H      9.866640    0.181810    1.412280
  H     13.154800   -1.861820    0.994520
  H     19.391110   -4.135640    2.352100
  H     22.996740   -5.722040    3.952720
  H     21.233620   -5.586750    3.784580
  H     22.190880   -4.171340    4.267980
  H     25.241640   -5.416700    2.743320
  H     27.347810   -4.722980   -0.495760
  H     28.793150   -8.156590    4.531320
  H     30.546100   -9.560480    5.579420
  H     32.851580  -10.427830    5.604500
  H     34.456720   -9.735470    3.869200
  H     33.770660   -8.170050    2.096030
  H     32.088440   -6.781590    1.051630

 Total Charge           Charge          ....    0
 Multiplicity           Mult            ....    1
 Number of Electrons    NEL             ....  576
 Basis Dimension        Dim             .... 1274

ORBITAL ENERGIES
----------------

  NO   OCC          E(Eh)            E(eV)
   0   2.0000     -89.055560     -2423.3250
   1   2.0000     -88.966992     -2420.9149
   2   2.0000     -88.963872     -2420.8300
   3   2.0000     -88.961969     -2420.7782
   4   2.0000     -88.961933     -2420.7773
   5   2.0000     -19.213915      -522.8372
   6   2.0000     -19.208376      -522.6865
   7   2.0000     -14.477485      -393.9524
   8   2.0000     -14.476369      -393.9220
   9   2.0000     -14.471596      -393.7921
  10   2.0000     -14.471271      -393.7833
  11   2.0000     -14.466204      -393.6454
  12   2.0000     -14.465883      -393.6367
  13   2.0000     -14.433763      -392.7627
  14   2.0000     -14.433696      -392.7608
  15   2.0000     -14.413561      -392.2129
  16   2.0000     -14.413203      -392.2032
  17   2.0000     -14.407438      -392.0463
  18   2.0000     -14.406374      -392.0174
  19   2.0000     -10.390098      -282.7289
  20   2.0000     -10.389701      -282.7181
  21   2.0000     -10.365100      -282.0487
  22   2.0000     -10.359664      -281.9008
  23   2.0000     -10.355388      -281.7844
  24   2.0000     -10.355137      -281.7776
  25   2.0000     -10.354758      -281.7673
  26   2.0000     -10.354517      -281.7607
  27   2.0000     -10.339011      -281.3388
  28   2.0000     -10.338170      -281.3159
  29   2.0000     -10.333077      -281.1773
  30   2.0000     -10.332507      -281.1618
  31   2.0000     -10.329155      -281.0706
  32   2.0000     -10.328079      -281.0413
  33   2.0000     -10.327065      -281.0137
  34   2.0000     -10.326989      -281.0117
  35   2.0000     -10.326802      -281.0066
  36   2.0000     -10.326075      -280.9868
  37   2.0000     -10.323124      -280.9065
  38   2.0000     -10.322436      -280.8878
  39   2.0000     -10.322296      -280.8840
  40   2.0000     -10.322031      -280.8767
  41   2.0000     -10.321350      -280.8582
  42   2.0000     -10.321263      -280.8559
  43   2.0000     -10.318090      -280.7695
  44   2.0000     -10.317979      -280.7665
  45   2.0000     -10.317507      -280.7536
  46   2.0000     -10.316997      -280.7398
  47   2.0000     -10.315025      -280.6861
  48   2.0000     -10.314664      -280.6763
  49   2.0000     -10.311933      -280.6020
  50   2.0000     -10.311431      -280.5883
  51   2.0000     -10.310511      -280.5633
  52   2.0000     -10.309842      -280.5451
  53   2.0000     -10.302686      -280.3504
  54   2.0000     -10.300256      -280.2842
  55   2.0000     -10.299862      -280.2735
  56   2.0000     -10.299251      -280.2569
  57   2.0000     -10.296732      -280.1883
  58   2.0000     -10.295136      -280.1449
  59   2.0000     -10.294647      -280.1316
  60   2.0000     -10.293914      -280.1117
  61   2.0000     -10.293528      -280.1011
  62   2.0000     -10.293318      -280.0954
  63   2.0000     -10.293020      -280.0873
  64   2.0000     -10.292869      -280.0832
  65   2.0000     -10.292116      -280.0627
  66   2.0000     -10.292092      -280.0621
  67   2.0000     -10.292033      -280.0604
  68   2.0000     -10.291316      -280.0409
  69   2.0000     -10.291023      -280.0330
  70   2.0000     -10.290521      -280.0193
  71   2.0000     -10.285416      -279.8804
  72   2.0000     -10.284272      -279.8493
  73   2.0000     -10.283979      -279.8413
  74   2.0000     -10.283685      -279.8333
  75   2.0000     -10.283583      -279.8305
  76   2.0000     -10.283388      -279.8252
  77   2.0000     -10.283096      -279.8173
  78   2.0000     -10.282576      -279.8031
  79   2.0000     -10.282022      -279.7880
  80   2.0000     -10.281434      -279.7720
  81   2.0000      -8.146947      -221.6897
  82   2.0000      -8.061841      -219.3738
  83   2.0000      -8.058806      -219.2913
  84   2.0000      -8.054806      -219.1824
  85   2.0000      -8.054777      -219.1816
  86   2.0000      -6.118110      -166.4822
  87   2.0000      -6.110227      -166.2677
  88   2.0000      -6.109622      -166.2513
  89   2.0000      -6.031414      -164.1231
  90   2.0000      -6.028335      -164.0393
  91   2.0000      -6.027391      -164.0136
  92   2.0000      -6.024822      -163.9437
  93   2.0000      -6.024803      -163.9432
  94   2.0000      -6.024354      -163.9310
  95   2.0000      -6.023333      -163.9032
  96   2.0000      -6.020293      -163.8205
  97   2.0000      -6.020109      -163.8155
  98   2.0000      -6.020074      -163.8145
  99   2.0000      -6.016154      -163.7079
 100   2.0000      -6.016150      -163.7078
 101   2.0000      -1.153254       -31.3816
 102   2.0000      -1.132007       -30.8035
 103   2.0000      -1.127755       -30.6878
 104   2.0000      -1.123835       -30.5811
 105   2.0000      -1.105845       -30.0916
 106   2.0000      -1.104575       -30.0570
 107   2.0000      -1.059860       -28.8403
 108   2.0000      -1.019563       -27.7437
 109   2.0000      -1.016080       -27.6490
 110   2.0000      -1.011543       -27.5255
 111   2.0000      -1.011080       -27.5129
 112   2.0000      -1.006918       -27.3996
 113   2.0000      -0.996814       -27.1247
 114   2.0000      -0.995483       -27.0885
 115   2.0000      -0.993282       -27.0286
 116   2.0000      -0.992557       -27.0089
 117   2.0000      -0.986680       -26.8489
 118   2.0000      -0.986315       -26.8390
 119   2.0000      -0.984344       -26.7854
 120   2.0000      -0.980621       -26.6841
 121   2.0000      -0.968710       -26.3599
 122   2.0000      -0.967537       -26.3280
 123   2.0000      -0.965566       -26.2744
 124   2.0000      -0.922778       -25.1101
 125   2.0000      -0.920935       -25.0599
 126   2.0000      -0.917539       -24.9675
 127   2.0000      -0.914927       -24.8964
 128   2.0000      -0.906253       -24.6604
 129   2.0000      -0.898385       -24.4463
 130   2.0000      -0.888852       -24.1869
 131   2.0000      -0.882236       -24.0069
 132   2.0000      -0.878526       -23.9059
 133   2.0000      -0.875925       -23.8351
 134   2.0000      -0.865891       -23.5621
 135   2.0000      -0.859748       -23.3949
 136   2.0000      -0.852173       -23.1888
 137   2.0000      -0.847994       -23.0751
 138   2.0000      -0.845794       -23.0152
 139   2.0000      -0.844102       -22.9692
 140   2.0000      -0.843404       -22.9502
 141   2.0000      -0.825633       -22.4666
 142   2.0000      -0.823569       -22.4105
 143   2.0000      -0.816816       -22.2267
 144   2.0000      -0.814228       -22.1563
 145   2.0000      -0.804278       -21.8855
 146   2.0000      -0.800506       -21.7829
 147   2.0000      -0.778055       -21.1720
 148   2.0000      -0.773069       -21.0363
 149   2.0000      -0.764582       -20.8053
 150   2.0000      -0.756254       -20.5787
 151   2.0000      -0.755980       -20.5713
 152   2.0000      -0.749498       -20.3949
 153   2.0000      -0.736100       -20.0303
 154   2.0000      -0.721852       -19.6426
 155   2.0000      -0.719415       -19.5763
 156   2.0000      -0.714955       -19.4549
 157   2.0000      -0.704251       -19.1636
 158   2.0000      -0.699557       -19.0359
 159   2.0000      -0.699101       -19.0235
 160   2.0000      -0.694320       -18.8934
 161   2.0000      -0.692928       -18.8555
 162   2.0000      -0.683202       -18.5909
 163   2.0000      -0.673666       -18.3314
 164   2.0000      -0.672524       -18.3003
 165   2.0000      -0.670217       -18.2375
 166   2.0000      -0.662270       -18.0213
 167   2.0000      -0.658941       -17.9307
 168   2.0000      -0.653302       -17.7772
 169   2.0000      -0.651105       -17.7175
 170   2.0000      -0.644959       -17.5502
 171   2.0000      -0.641555       -17.4576
 172   2.0000      -0.635946       -17.3050
 173   2.0000      -0.632104       -17.2004
 174   2.0000      -0.628982       -17.1155
 175   2.0000      -0.624205       -16.9855
 176   2.0000      -0.612169       -16.6580
 177   2.0000      -0.606775       -16.5112
 178   2.0000      -0.604542       -16.4504
 179   2.0000      -0.602340       -16.3905
 180   2.0000      -0.601260       -16.3611
 181   2.0000      -0.597278       -16.2528
 182   2.0000      -0.594150       -16.1676
 183   2.0000      -0.590346       -16.0641
 184   2.0000      -0.588750       -16.0207
 185   2.0000      -0.578616       -15.7449
 186   2.0000      -0.575853       -15.6698
 187   2.0000      -0.574824       -15.6418
 188   2.0000      -0.573293       -15.6001
 189   2.0000      -0.568551       -15.4710
 190   2.0000      -0.567393       -15.4396
 191   2.0000      -0.560084       -15.2407
 192   2.0000      -0.552090       -15.0231
 193   2.0000      -0.548947       -14.9376
 194   2.0000      -0.545142       -14.8341
 195   2.0000      -0.543733       -14.7957
 196   2.0000      -0.542228       -14.7548
 197   2.0000      -0.540898       -14.7186
 198   2.0000      -0.532642       -14.4939
 199   2.0000      -0.531211       -14.4550
 200   2.0000      -0.529940       -14.4204
 201   2.0000      -0.527031       -14.3412
 202   2.0000      -0.525338       -14.2952
 203   2.0000      -0.522784       -14.2257
 204   2.0000      -0.517007       -14.0685
 205   2.0000      -0.516703       -14.0602
 206   2.0000      -0.514793       -14.0082
 207   2.0000      -0.513903       -13.9840
 208   2.0000      -0.512728       -13.9520
 209   2.0000      -0.509920       -13.8756
 210   2.0000      -0.509395       -13.8613
 211   2.0000      -0.508636       -13.8407
 212   2.0000      -0.502909       -13.6849
 213   2.0000      -0.501759       -13.6536
 214   2.0000      -0.500581       -13.6215
 215   2.0000      -0.499230       -13.5847
 216   2.0000      -0.496644       -13.5144
 217   2.0000      -0.496088       -13.4992
 218   2.0000      -0.493752       -13.4357
 219   2.0000      -0.493210       -13.4209
 220   2.0000      -0.490211       -13.3393
 221   2.0000      -0.486388       -13.2353
 222   2.0000      -0.483511       -13.1570
 223   2.0000      -0.482858       -13.1392
 224   2.0000      -0.482219       -13.1218
 225   2.0000      -0.478023       -13.0077
 226   2.0000      -0.476899       -12.9771
 227   2.0000      -0.472752       -12.8642
 228   2.0000      -0.468849       -12.7580
 229   2.0000      -0.465481       -12.6664
 230   2.0000      -0.464246       -12.6328
 231   2.0000      -0.461634       -12.5617
 232   2.0000      -0.460152       -12.5214
 233   2.0000      -0.459473       -12.5029
 234   2.0000      -0.458103       -12.4656
 235   2.0000      -0.456773       -12.4294
 236   2.0000      -0.451845       -12.2953
 237   2.0000      -0.449217       -12.2238
 238   2.0000      -0.448059       -12.1923
 239   2.0000      -0.445031       -12.1099
 240   2.0000      -0.442332       -12.0365
 241   2.0000      -0.440747       -11.9933
 242   2.0000      -0.437859       -11.9148
 243   2.0000      -0.437809       -11.9134
 244   2.0000      -0.434878       -11.8336
 245   2.0000      -0.434585       -11.8257
 246   2.0000      -0.432345       -11.7647
 247   2.0000      -0.430656       -11.7188
 248   2.0000      -0.429487       -11.6869
 249   2.0000      -0.429034       -11.6746
 250   2.0000      -0.427802       -11.6411
 251   2.0000      -0.427574       -11.6349
 252   2.0000      -0.425668       -11.5830
 253   2.0000      -0.425056       -11.5664
 254   2.0000      -0.424633       -11.5549
 255   2.0000      -0.419579       -11.4173
 256   2.0000      -0.417941       -11.3728
 257   2.0000      -0.417447       -11.3593
 258   2.0000      -0.415750       -11.3131
 259   2.0000      -0.413364       -11.2482
 260   2.0000      -0.411998       -11.2110
 261   2.0000      -0.407803       -11.0969
 262   2.0000      -0.401149       -10.9158
 263   2.0000      -0.398113       -10.8332
 264   2.0000      -0.396597       -10.7920
 265   2.0000      -0.391725       -10.6594
 266   2.0000      -0.380911       -10.3651
 267   2.0000      -0.378680       -10.3044
 268   2.0000      -0.376827       -10.2540
 269   2.0000      -0.369800       -10.0628
 270   2.0000      -0.365446        -9.9443
 271   2.0000      -0.358367        -9.7517
 272   2.0000      -0.349645        -9.5143
 273   2.0000      -0.348964        -9.4958
 274   2.0000      -0.338437        -9.2093
 275   2.0000      -0.336807        -9.1650
 276   2.0000      -0.335236        -9.1222
 277   2.0000      -0.332797        -9.0559
 278   2.0000      -0.327940        -8.9237
 279   2.0000      -0.314137        -8.5481
 280   2.0000      -0.312343        -8.4993
 281   2.0000      -0.302292        -8.2258
 282   2.0000      -0.292795        -7.9674
 283   2.0000      -0.288790        -7.8584
 284   2.0000      -0.282338        -7.6828
 285   2.0000      -0.281167        -7.6509
 286   2.0000      -0.264466        -7.1965
 287   2.0000      -0.231696        -6.3048
 288   0.0000      -0.137544        -3.7428
 289   0.0000      -0.089668        -2.4400
 290   0.0000      -0.086105        -2.3430
 291   0.0000      -0.059600        -1.6218
 292   0.0000      -0.053765        -1.4630

MULLIKEN ATOMIC CHARGES
-----------------------
   0 C :   -0.016191
   1 C :    0.033162
   2 C :    0.034513
   3 C :   -0.019645
   4 C :    0.093949
   5 C :   -0.085564
   6 C :    0.032328
   7 C :    0.017778
   8 C :   -0.083680
   9 C :    0.094741
  10 C :    0.136501
  11 O :   -0.146365
  12 C :   -0.150762
  13 C :    0.279490
  14 C :   -0.350985
  15 C :   -0.212737
  16 N :    0.171323
  17 C :   -0.173916
  18 N :    0.143009
  19 C :    0.086423
  20 C :   -0.113074
  21 C :   -0.031577
  22 C :    0.141835
  23 C :   -0.095260
  24 S :    0.171837
  25 C :   -0.085218
  26 C :    0.196048
  27 N :   -0.166403
  28 C :    0.125660
  29 C :   -0.117521
  30 C :   -0.168773
  31 S :    0.170173
  32 C :    0.184882
  33 C :   -0.062327
  34 C :   -0.065704
  35 N :    0.011528
  36 C :   -0.103153
  37 C :   -0.107558
  38 N :    0.009189
  39 C :   -0.238078
  40 N :    0.253108
  41 C :   -0.240045
  42 N :    0.254704
  43 C :    0.187537
  44 C :   -0.010698
  45 C :   -0.011416
  46 N :   -0.290355
  47 S :    0.548170
  48 N :   -0.292118
  49 C :   -0.169040
  50 C :   -0.118079
  51 C :    0.197551
  52 C :   -0.083892
  53 S :    0.169880
  54 C :   -0.105291
  55 C :    0.149787
  56 N :   -0.166743
  57 C :    0.123357
  58 C :   -0.056357
  59 C :   -0.115911
  60 S :    0.166764
  61 C :    0.038064
  62 C :   -0.096888
  63 C :    0.303311
  64 C :   -0.349311
  65 C :   -0.183962
  66 N :    0.143314
  67 C :   -0.207245
  68 N :    0.158574
  69 C :    0.046424
  70 C :    0.006139
  71 C :   -0.087755
  72 C :    0.099660
  73 C :   -0.018343
  74 C :    0.035222
  75 C :    0.037405
  76 C :   -0.019938
  77 C :    0.095757
  78 C :   -0.082757
  79 C :    0.160084
  80 O :   -0.172575
  81 H :   -0.016691
  82 H :   -0.005439
  83 H :   -0.005438
  84 H :   -0.011958
  85 H :   -0.007860
  86 H :   -0.011921
  87 H :    0.022185
  88 H :   -0.004869
  89 H :    0.041237
  90 H :    0.052787
  91 H :    0.041131
  92 H :   -0.008523
  93 H :   -0.011432
  94 H :    0.053092
  95 H :    0.040239
  96 H :    0.044399
  97 H :    0.007160
  98 H :    0.017806
  99 H :   -0.018571
 100 H :   -0.020565
 101 H :   -0.007381
 102 H :   -0.006970
 103 H :   -0.009755
 104 H :   -0.008637
Sum of atomic charges:   -0.0000000

LOEWDIN ATOMIC CHARGES
----------------------
   0 C :   -0.009647
   1 C :   -0.014621
   2 C :   -0.014715
   3 C :   -0.007776
   4 C :   -0.006532
   5 C :    0.012238
   6 C :   -0.022986
   7 C :   -0.055611
   8 C :    0.030960
   9 C :   -0.009734
  10 C :    0.081859
  11 O :   -0.146971
  12 C :   -0.102140
  13 C :    0.067547
  14 C :   -0.153072
  15 C :   -0.021316
  16 N :   -0.047536
  17 C :   -0.020732
  18 N :   -0.061418
  19 C :    0.046978
  20 C :   -0.169557
  21 C :   -0.028322
  22 C :   -0.003538
  23 C :   -0.198201
  24 S :    0.445260
  25 C :   -0.217816
  26 C :   -0.003689
  27 N :    0.027824
  28 C :    0.040804
  29 C :   -0.054340
  30 C :   -0.152093
  31 S :    0.455589
  32 C :   -0.040066
  33 C :   -0.013248
  34 C :   -0.012624
  35 N :   -0.012166
  36 C :   -0.020215
  37 C :   -0.021724
  38 N :   -0.011524
  39 C :   -0.038446
  40 N :    0.001740
  41 C :   -0.038570
  42 N :    0.003018
  43 C :   -0.043203
  44 C :   -0.034760
  45 C :   -0.035383
  46 N :   -0.277047
  47 S :    0.669221
  48 N :   -0.277692
  49 C :   -0.150640
  50 C :   -0.057032
  51 C :   -0.004586
  52 C :   -0.219645
  53 S :    0.455886
  54 C :   -0.200382
  55 C :   -0.011481
  56 N :    0.026449
  57 C :    0.041141
  58 C :   -0.028140
  59 C :   -0.166997
  60 S :    0.438764
  61 C :    0.045624
  62 C :   -0.102213
  63 C :    0.075922
  64 C :   -0.145886
  65 C :   -0.017258
  66 N :   -0.059269
  67 C :   -0.027838
  68 N :   -0.052958
  69 C :   -0.024769
  70 C :   -0.053625
  71 C :    0.027814
  72 C :   -0.009398
  73 C :   -0.011365
  74 C :   -0.014508
  75 C :   -0.014975
  76 C :   -0.005766
  77 C :   -0.006652
  78 C :    0.017684
  79 C :    0.088341
  80 O :   -0.156566
  81 H :    0.031836
  82 H :    0.032386
  83 H :    0.032583
  84 H :    0.033514
  85 H :    0.037577
  86 H :    0.039176
  87 H :    0.045980
  88 H :    0.035747
  89 H :    0.037793
  90 H :    0.037066
  91 H :    0.030456
  92 H :    0.028791
  93 H :    0.029146
  94 H :    0.040720
  95 H :    0.033973
  96 H :    0.030397
  97 H :    0.033997
  98 H :    0.044317
  99 H :    0.036572
 100 H :    0.030570
 101 H :    0.031837
 102 H :    0.032462
 103 H :    0.034603
 104 H :    0.038815

  Mayer bond orders larger than 0.100000
B(  0-C ,  1-C ) :   1.4884 B(  0-C ,  9-C ) :   1.2465 B(  0-C , 81-H ) :   0.9975
B(  1-C ,  2-C ) :   1.2620 B(  1-C , 82-H ) :   0.9887 B(  2-C ,  3-C ) :   1.4892
B(  2-C , 83-H ) :   0.9883 B(  3-C ,  4-C ) :   1.2437 B(  3-C , 84-H ) :   0.9968
B(  4-C ,  5-C ) :   1.2012 B(  4-C ,  9-C ) :   1.2591 B(  5-C ,  6-C ) :   1.4631
B(  5-C , 85-H ) :   0.9924 B(  6-C ,  7-C ) :   1.2150 B(  6-C , 13-C ) :   0.9965
B(  7-C ,  8-C ) :   1.4802 B(  7-C , 10-C ) :   0.9186 B(  8-C ,  9-C ) :   1.1809
B(  8-C , 86-H ) :   1.0161 B( 10-C , 11-O ) :   2.2598 B( 10-C , 12-C ) :   0.9486
B( 12-C , 13-C ) :   1.0611 B( 12-C , 19-C ) :   1.6113 B( 13-C , 14-C ) :   1.6154
B( 14-C , 15-C ) :   1.1726 B( 14-C , 17-C ) :   1.1308 B( 15-C , 16-N ) :   2.9935
B( 17-C , 18-N ) :   2.9810 B( 19-C , 20-C ) :   1.1905 B( 19-C , 87-H ) :   0.9228
B( 20-C , 21-C ) :   1.3712 B( 20-C , 24-S ) :   1.0803 B( 21-C , 22-C ) :   1.3216
B( 21-C , 88-H ) :   0.9939 B( 22-C , 23-C ) :   1.3326 B( 22-C , 27-N ) :   1.1490
B( 23-C , 24-S ) :   1.0549 B( 23-C , 25-C ) :   1.4270 B( 25-C , 26-C ) :   1.3441
B( 25-C , 31-S ) :   0.9816 B( 26-C , 27-N ) :   1.1428 B( 26-C , 29-C ) :   1.2243
B( 27-N , 28-C ) :   0.9651 B( 28-C , 89-H ) :   0.9733 B( 28-C , 90-H ) :   0.9708
B( 28-C , 91-H ) :   0.9717 B( 29-C , 30-C ) :   1.4101 B( 29-C , 92-H ) :   0.9970
B( 30-C , 31-S ) :   1.0879 B( 30-C , 32-C ) :   1.2406 B( 32-C , 33-C ) :   1.2443
B( 32-C , 43-C ) :   0.1170 B( 32-C , 45-C ) :   1.1853 B( 33-C , 34-C ) :   1.1082
B( 33-C , 38-N ) :   1.4105 B( 34-C , 35-N ) :   1.4105 B( 34-C , 43-C ) :   1.2466
B( 35-N , 36-C ) :   1.6975 B( 36-C , 37-C ) :   1.2172 B( 36-C , 41-C ) :   1.1664
B( 37-C , 38-N ) :   1.6974 B( 37-C , 39-C ) :   1.1662 B( 39-C , 40-N ) :   3.0401
B( 41-C , 42-N ) :   3.0405 B( 43-C , 44-C ) :   1.1896 B( 43-C , 49-C ) :   1.2324
B( 44-C , 45-C ) :   1.0978 B( 44-C , 48-N ) :   1.5197 B( 45-C , 46-N ) :   1.5214
B( 46-N , 47-S ) :   1.2717 B( 46-N , 48-N ) :   0.1478 B( 47-S , 48-N ) :   1.2708
B( 49-C , 50-C ) :   1.4115 B( 49-C , 53-S ) :   1.0905 B( 50-C , 51-C ) :   1.2184
B( 50-C , 93-H ) :   1.0025 B( 51-C , 52-C ) :   1.3436 B( 51-C , 56-N ) :   1.1502
B( 52-C , 53-S ) :   0.9827 B( 52-C , 54-C ) :   1.4266 B( 54-C , 55-C ) :   1.3171
B( 54-C , 60-S ) :   1.0606 B( 55-C , 56-N ) :   1.1414 B( 55-C , 58-C ) :   1.2613
B( 56-N , 57-C ) :   0.9643 B( 57-C , 94-H ) :   0.9718 B( 57-C , 95-H ) :   0.9710
B( 57-C , 96-H ) :   0.9736 B( 58-C , 59-C ) :   1.3940 B( 58-C , 97-H ) :   0.9845
B( 59-C , 60-S ) :   1.0670 B( 59-C , 61-C ) :   1.2539 B( 61-C , 62-C ) :   1.5521
B( 61-C , 98-H ) :   0.9188 B( 62-C , 63-C ) :   1.0851 B( 62-C , 79-C ) :   0.9517
B( 63-C , 64-C ) :   1.6218 B( 63-C , 69-C ) :   0.9805 B( 64-C , 65-C ) :   1.1476
B( 64-C , 67-C ) :   1.1362 B( 65-C , 66-N ) :   2.9665 B( 67-C , 68-N ) :   2.9953
B( 69-C , 70-C ) :   1.2172 B( 69-C , 78-C ) :   1.4553 B( 70-C , 71-C ) :   1.4715
B( 70-C , 79-C ) :   0.9546 B( 71-C , 72-C ) :   1.1763 B( 71-C , 99-H ) :   1.0157
B( 72-C , 73-C ) :   1.2446 B( 72-C , 77-C ) :   1.2584 B( 73-C , 74-C ) :   1.4878
B( 73-C ,100-H ) :   0.9971 B( 74-C , 75-C ) :   1.2611 B( 74-C ,101-H ) :   0.9889
B( 75-C , 76-C ) :   1.4876 B( 75-C ,102-H ) :   0.9882 B( 76-C , 77-C ) :   1.2420
B( 76-C ,103-H ) :   0.9969 B( 77-C , 78-C ) :   1.2013 B( 78-C ,104-H ) :   0.9901
B( 79-C , 80-O ) :   2.1455

-----------------------------------------------------------------------------
         ABSORPTION SPECTRUM VIA TRANSITION ELECTRIC DIPOLE MOMENTS
-----------------------------------------------------------------------------
State   Energy  Wavelength   fosc         T2         TX        TY        TZ
        (cm-1)    (nm)                  (au**2)     (au)      (au)      (au)
-----------------------------------------------------------------------------
   0    6199.0   1613.2   0.798796627  42.42214   6.11423  -1.93535   1.13697
   1   14682.0    681.1   0.002656383   0.05956  -0.04088   0.15357   0.18523
   2   15516.1    644.5   0.068116491   1.44526  -1.14671   0.34033  -0.12037
   3   15733.7    635.6   0.014075312   0.29451   0.01418  -0.13812   0.52463
   4   17641.6    566.8   1.227180770  22.90054   4.64143  -1.10543   0.36831
   5   18779.5    532.5   0.752729739  13.19566   3.44017  -0.90700   0.73366
   6   22107.9    452.3   0.101212572   1.50717  -1.20247   0.23767  -0.06900
   7   22702.7    440.5   0.067714853   0.98194  -0.76720   0.21513   0.58912
   8   23129.3    432.4   0.023342545   0.33225   0.48292   0.10362  -0.29715
   9   23913.2    418.2   0.000940823   0.01295   0.05215   0.10028  -0.01327
  10   24271.1    412.0   0.011368780   0.15421   0.36001   0.01874   0.15570
  11   24574.4    406.9   0.018239646   0.24435   0.25427  -0.32622   0.27069
  12   24751.5    404.0   0.060470965   0.80430   0.67623  -0.13018  -0.57452
  13   25664.1    389.6   0.007607898   0.09759  -0.02042   0.22345   0.21736
  14   26026.1    384.2   0.395975066   5.00881   1.38329  -1.33096   1.15059
  15   26370.9    379.2   0.014975193   0.18695  -0.02369   0.08379  -0.42352
  16   27083.5    369.2   0.049929289   0.60691   0.75798  -0.06594   0.16744
  17   27210.6    367.5   0.025221136   0.30514   0.50356  -0.12708  -0.18821
  18   27448.0    364.3   0.041718435   0.50037  -0.16628   0.38535  -0.56941
  19   27883.9    358.6   0.035793981   0.42260   0.34376  -0.40853   0.37085
  20   28132.5    355.5   0.006480754   0.07584  -0.02002   0.06353  -0.26721
  21   28190.2    354.7   0.054090557   0.63168  -0.59269   0.52328  -0.08115
  22   28769.6    347.6   0.027968888   0.32005   0.52563  -0.06167  -0.19989
  23   28938.6    345.6   0.028831486   0.32799   0.44020  -0.32445   0.17015
  24   29482.3    339.2   0.019786301   0.22094   0.40093  -0.18347  -0.16289
  25   29863.3    334.9   0.445634026   4.91266  -1.67612   1.39856  -0.38378
  26   30034.8    332.9   0.069974726   0.76699  -0.03696  -0.13023   0.86526
  27   30761.4    325.1   0.039770381   0.42563  -0.64200  -0.07545  -0.08811
  28   31279.0    319.7   0.359669971   3.78554  -0.54331  -0.21517   1.85582
  29   31431.7    318.2   0.075831910   0.79425   0.47361   0.32888  -0.67955
  30   31434.5    318.1   0.089325625   0.93550  -0.86290   0.25647  -0.35375
  31   31612.0    316.3   0.001376061   0.01433   0.09338  -0.06891   0.02935
  32   31873.9    313.7   0.035786062   0.36962  -0.06246  -0.25441   0.54863
  33   32137.1    311.2   0.009368325   0.09597   0.09923  -0.06270  -0.28669
  34   32297.7    309.6   0.001254113   0.01278  -0.02635  -0.00083   0.10995
  35   32381.0    308.8   0.029960637   0.30460   0.52928  -0.14690  -0.05371
  36   32834.9    304.6   0.038321350   0.38422   0.33086  -0.05192  -0.52159
  37   32859.9    304.3   0.120639647   1.20865  -0.08568   0.42715  -1.00938
  38   33575.9    297.8   0.122022522   1.19643  -0.59164   0.91999  -0.00403
  39   33955.1    294.5   0.008408069   0.08152   0.20245  -0.20057  -0.01744
  40   34180.2    292.6   0.028630383   0.27576  -0.14396   0.24134  -0.44361
  41   34369.6    291.0   0.025481474   0.24408   0.37075  -0.25857  -0.19941
  42   34434.5    290.4   0.254728763   2.43534  -0.08620  -0.74563   1.36819
  43   34673.6    288.4   0.222096835   2.10872  -0.50483   1.14258  -0.74052
  44   34779.0    287.5   0.117657018   1.11372   0.07655  -0.42277   0.96391
  45   35079.6    285.1   0.030769543   0.28876   0.41808  -0.32785  -0.08052
  46   35104.3    284.9   0.180413426   1.69194  -1.09605   0.69011   0.11985
  47   35322.4    283.1   0.036194923   0.33734   0.31136  -0.34782   0.34558
  48   35461.6    282.0   0.008321072   0.07725  -0.10399   0.15246  -0.20783
  49   35486.1    281.8   0.242680437   2.25140   0.55239  -1.11309   0.84101
  50   35700.8    280.1   0.331046427   3.05271  -1.06900   1.27394  -0.53576
  51   35847.2    279.0   0.007377429   0.06775   0.25178  -0.00466   0.06584
  52   35896.0    278.6   0.184186380   1.68922  -0.95690   0.77561   0.41472
  53   36038.4    277.5   0.016710557   0.15265  -0.35216   0.13794   0.09801
  54   36180.4    276.4   0.004193921   0.03816  -0.00830  -0.19465   0.01429
  55   36744.6    272.1   0.157453514   1.41070   0.21328  -0.93681   0.69828
  56   37091.1    269.6   0.020658644   0.18336   0.28636  -0.16461  -0.27251
  57   37921.8    263.7   0.036727313   0.31884  -0.00275   0.26435  -0.49895
  58   38311.4    261.0   0.002505697   0.02153   0.12889   0.05360  -0.04523
  59   38745.2    258.1   0.012476036   0.10601  -0.21680  -0.17538   0.16806
  60   38894.8    257.1   0.059800489   0.50616  -0.42197  -0.16250   0.54927
  61   39477.4    253.3   0.178975797   1.49252  -0.50282  -0.34038   1.06011
  62   39628.3    252.3   0.196961160   1.63625  -0.72796  -0.25660   1.02004
  63   39840.6    251.0   0.043264867   0.35751   0.12594   0.13185   0.56944
  64   39938.0    250.4   0.027752515   0.22877  -0.11540   0.19399  -0.42169
  65   39982.4    250.1   0.044336281   0.36506  -0.00545   0.36862  -0.47869
  66   40166.6    249.0   0.076525041   0.62721  -0.44310  -0.22857   0.61533

FINAL SINGLE POINT ENERGY     -5170.723574226830

DIPOLE MOMENT
-------------
                                X             Y             Z
Electronic contribution:      8.29098       2.45415     -32.93317
Nuclear contribution   :    -10.75516      -2.92578      39.00725
                        -----------------------------------------
Total Dipole Moment    :     -2.46418      -0.47163       6.07408
                        -----------------------------------------
Magnitude (a.u.)       :      6.57184
Magnitude (Debye)      :     16.70429

Rotational constants in cm-1:     0.002854     0.000143     0.000138
Rotational constants in MHz :    85.571724     4.300676     4.144773

                             ****ORCA TERMINATED NORMALLY****
TOTAL RUN TIME: 0 days 0 hours 11 minutes 53 seconds 120 msec
