                         Program Version 4.2.0 -  RELEASE  -
|  1> # ORCA input file
|  2> # SCF done       -171.204515610728          0.000563472364
|  3> ! CAM-B3LYP def2-SVP def2/J RIJCOSX Grid4 TightSCF
|  4> %maxcore 5000
|  5> %tddft
|  6>     Mode sTDDFT
|  7>     Ethresh 5.0
|  8>     maxcore 5000
|  9> end
| 10>
| 11> %pal
| 12>   nprocs 6
| 13>   end
| 14> * xyz 0 1
| 15>    C        6.27935         1.00141       -13.33921
| 16>    C        5.09048         0.73620       -13.96305
| 17>    C        4.13220        -0.07949       -13.34328
| 18>    C        4.37548        -0.61856       -12.10929
| 19>    C        5.59036        -0.36855       -11.43965
| 20>    C        5.85246        -0.93471       -10.17039
| 21>    C        7.04608        -0.67678        -9.55218
| 22>    C        8.00528         0.17137       -10.17873
| 23>    C        7.78143         0.72619       -11.40528
| 24>    C        6.56199         0.46211       -12.06892
| 25>    C        9.17546         0.31722        -9.29549
| 26>    O       10.20236         0.91869        -9.50912
| 27>    C        8.80706        -0.39160        -8.03447
| 28>    C        7.60148        -1.14868        -8.28643
| 29>    C        7.18278        -2.26887        -7.61386
| 30>    C        7.89142        -2.86163        -6.55046
| 31>    N        8.44192        -3.40648        -5.70304
| 32>    C        6.03381        -3.00772        -7.96043
| 33>    N        5.09543        -3.63114        -8.18205
| 34>    C        9.55367        -0.16255        -6.91782
| 35>    C        9.24455        -0.38462        -5.55783
| 36>    C        8.00976        -0.54068        -4.94059
| 37>    C        8.08029        -0.69832        -3.56353
| 38>    C        6.90032        -0.89804        -2.68027
| 39>    C        9.40271        -0.66338        -3.10331
| 40>    S       10.53558        -0.39682        -4.39045
| 41>    C        9.88902        -0.80914        -1.79366
| 42>    C       11.24377        -0.69907        -1.44142
| 43>    C       11.49321        -0.88697        -0.04008
| 44>    N       12.73575        -0.81413         0.44275
| 45>    C       13.70006        -0.56513        -0.41718
| 46>    C       15.07839        -0.49275         0.13094
| 47>    O       15.32009        -0.63800         1.31091
| 48>    C       16.13193        -0.23056        -0.86427
| 49>    C       15.89171        -0.04177        -2.16586
| 50>    C       14.54436        -0.07317        -2.76318
| 51>    O       14.35347         0.12762        -3.94367
| 52>    C       13.44593        -0.36737        -1.81084
| 53>    N       12.22546        -0.43645        -2.29925
| 54>    C       10.32173        -1.14459         0.68762
| 55>    S        8.94802        -1.14797        -0.37827
| 56>    C       10.20031        -1.37386         2.06979
| 57>    C       11.23896        -1.35457         2.99827
| 58>    C       10.81562        -1.61337         4.28817
| 59>    C       11.73657        -1.64370         5.45920
| 60>    C        9.42512        -1.84935         4.37315
| 61>    S        8.67017        -1.73448         2.80362
| 62>    C        8.77807        -2.12550         5.58328
| 63>    C        7.46152        -2.41560         5.84545
| 64>    C        6.90283        -2.68714         7.15540
| 65>    C        7.53106        -2.56151         8.36948
| 66>    C        6.91231        -2.82643         9.60882
| 67>    N        6.47293        -3.02921        10.65009
| 68>    C        8.85970        -2.13482         8.56798
| 69>    N        9.92729        -1.78514         8.81120
| 70>    C        5.51196        -3.08942         6.96564
| 71>    C        5.20439        -3.01187         5.57698
| 72>    C        3.97084        -3.33059         5.08860
| 73>    C        2.96584        -3.75723         5.98571
| 74>    C        1.67561        -4.10589         5.54163
| 75>    C        0.71970        -4.52257         6.42829
| 76>    C        1.01280        -4.60725         7.79721
| 77>    C        2.25678        -4.27450         8.26101
| 78>    C        3.26475        -3.84239         7.37584
| 79>    C        4.55243        -3.50042         7.85167
| 80>    C        6.39862        -2.56676         4.84442
| 81>    O        6.48035        -2.37239         3.64298
| 82>    H        7.02130         1.62874       -13.81122
| 83>    H        4.88219         1.15323       -14.93698
| 84>    H        3.19972        -0.27977       -13.84942
| 85>    H        3.64203        -1.25036       -11.63007
| 86>    H        5.09554        -1.55382        -9.71452
| 87>    H        8.52652         1.35783       -11.86562
| 88>    H       10.50806         0.32077        -7.10718
| 89>    H        7.07760        -0.49978        -5.47661
| 90>    H        5.98336        -0.83669        -3.25969
| 91>    H        6.87204        -0.14704        -1.89075
| 92>    H        6.94580        -1.87732        -2.20362
| 93>    H       17.13735        -0.19472        -0.46671
| 94>    H       16.69522         0.15316        -2.86337
| 95>    H       12.25679        -1.15490         2.71447
| 96>    H       12.74630        -1.40689         5.13647
| 97>    H       11.74288        -2.62920         5.92370
| 98>    H       11.43357        -0.92245         6.21726
| 99>    H        9.44442        -2.11758         6.43557
|100>    H        3.76494        -3.26165         4.03072
|101>    H        1.45628        -4.03911         4.48597
|102>    H       -0.26661        -4.78956         6.07929
|103>    H        0.24775        -4.93793         8.48356
|104>    H        2.48676        -4.33772         9.31449
|105>    H        4.74565        -3.57932         8.90956
|106> *
|107>
|108>                          ****END OF INPUT****

CARTESIAN COORDINATES (ANGSTROEM)
---------------------------------
  C      6.279350    1.001410  -13.339210
  C      5.090480    0.736200  -13.963050
  C      4.132200   -0.079490  -13.343280
  C      4.375480   -0.618560  -12.109290
  C      5.590360   -0.368550  -11.439650
  C      5.852460   -0.934710  -10.170390
  C      7.046080   -0.676780   -9.552180
  C      8.005280    0.171370  -10.178730
  C      7.781430    0.726190  -11.405280
  C      6.561990    0.462110  -12.068920
  C      9.175460    0.317220   -9.295490
  O     10.202360    0.918690   -9.509120
  C      8.807060   -0.391600   -8.034470
  C      7.601480   -1.148680   -8.286430
  C      7.182780   -2.268870   -7.613860
  C      7.891420   -2.861630   -6.550460
  N      8.441920   -3.406480   -5.703040
  C      6.033810   -3.007720   -7.960430
  N      5.095430   -3.631140   -8.182050
  C      9.553670   -0.162550   -6.917820
  C      9.244550   -0.384620   -5.557830
  C      8.009760   -0.540680   -4.940590
  C      8.080290   -0.698320   -3.563530
  C      6.900320   -0.898040   -2.680270
  C      9.402710   -0.663380   -3.103310
  S     10.535580   -0.396820   -4.390450
  C      9.889020   -0.809140   -1.793660
  C     11.243770   -0.699070   -1.441420
  C     11.493210   -0.886970   -0.040080
  N     12.735750   -0.814130    0.442750
  C     13.700060   -0.565130   -0.417180
  C     15.078390   -0.492750    0.130940
  O     15.320090   -0.638000    1.310910
  C     16.131930   -0.230560   -0.864270
  C     15.891710   -0.041770   -2.165860
  C     14.544360   -0.073170   -2.763180
  O     14.353470    0.127620   -3.943670
  C     13.445930   -0.367370   -1.810840
  N     12.225460   -0.436450   -2.299250
  C     10.321730   -1.144590    0.687620
  S      8.948020   -1.147970   -0.378270
  C     10.200310   -1.373860    2.069790
  C     11.238960   -1.354570    2.998270
  C     10.815620   -1.613370    4.288170
  C     11.736570   -1.643700    5.459200
  C      9.425120   -1.849350    4.373150
  S      8.670170   -1.734480    2.803620
  C      8.778070   -2.125500    5.583280
  C      7.461520   -2.415600    5.845450
  C      6.902830   -2.687140    7.155400
  C      7.531060   -2.561510    8.369480
  C      6.912310   -2.826430    9.608820
  N      6.472930   -3.029210   10.650090
  C      8.859700   -2.134820    8.567980
  N      9.927290   -1.785140    8.811200
  C      5.511960   -3.089420    6.965640
  C      5.204390   -3.011870    5.576980
  C      3.970840   -3.330590    5.088600
  C      2.965840   -3.757230    5.985710
  C      1.675610   -4.105890    5.541630
  C      0.719700   -4.522570    6.428290
  C      1.012800   -4.607250    7.797210
  C      2.256780   -4.274500    8.261010
  C      3.264750   -3.842390    7.375840
  C      4.552430   -3.500420    7.851670
  C      6.398620   -2.566760    4.844420
  O      6.480350   -2.372390    3.642980
  H      7.021300    1.628740  -13.811220
  H      4.882190    1.153230  -14.936980
  H      3.199720   -0.279770  -13.849420
  H      3.642030   -1.250360  -11.630070
  H      5.095540   -1.553820   -9.714520
  H      8.526520    1.357830  -11.865620
  H     10.508060    0.320770   -7.107180
  H      7.077600   -0.499780   -5.476610
  H      5.983360   -0.836690   -3.259690
  H      6.872040   -0.147040   -1.890750
  H      6.945800   -1.877320   -2.203620
  H     17.137350   -0.194720   -0.466710
  H     16.695220    0.153160   -2.863370
  H     12.256790   -1.154900    2.714470
  H     12.746300   -1.406890    5.136470
  H     11.742880   -2.629200    5.923700
  H     11.433570   -0.922450    6.217260
  H      9.444420   -2.117580    6.435570
  H      3.764940   -3.261650    4.030720
  H      1.456280   -4.039110    4.485970
  H     -0.266610   -4.789560    6.079290
  H      0.247750   -4.937930    8.483560
  H      2.486760   -4.337720    9.314490
  H      4.745650   -3.579320    8.909560

 Total Charge           Charge          ....    0
 Multiplicity           Mult            ....    1
 Number of Electrons    NEL             ....  470
 Basis Dimension        Dim             .... 1070

ORBITAL ENERGIES
----------------

  NO   OCC          E(Eh)            E(eV)
   0   2.0000     -89.004875     -2421.9458
   1   2.0000     -88.966810     -2420.9100
   2   2.0000     -88.964282     -2420.8412
   3   2.0000     -19.233169      -523.3611
   4   2.0000     -19.231434      -523.3139
   5   2.0000     -19.216617      -522.9107
   6   2.0000     -19.211519      -522.7720
   7   2.0000     -14.457113      -393.3980
   8   2.0000     -14.453953      -393.3121
   9   2.0000     -14.415027      -392.2528
  10   2.0000     -14.413875      -392.2215
  11   2.0000     -14.413329      -392.2066
  12   2.0000     -14.408136      -392.0653
  13   2.0000     -10.381641      -282.4988
  14   2.0000     -10.380954      -282.4801
  15   2.0000     -10.364628      -282.0359
  16   2.0000     -10.362595      -281.9805
  17   2.0000     -10.347956      -281.5822
  18   2.0000     -10.347521      -281.5704
  19   2.0000     -10.342544      -281.4349
  20   2.0000     -10.341497      -281.4064
  21   2.0000     -10.341173      -281.3976
  22   2.0000     -10.340595      -281.3819
  23   2.0000     -10.338700      -281.3303
  24   2.0000     -10.335791      -281.2512
  25   2.0000     -10.335252      -281.2365
  26   2.0000     -10.334437      -281.2143
  27   2.0000     -10.325877      -280.9814
  28   2.0000     -10.319853      -280.8175
  29   2.0000     -10.318621      -280.7840
  30   2.0000     -10.317895      -280.7642
  31   2.0000     -10.317621      -280.7567
  32   2.0000     -10.316812      -280.7347
  33   2.0000     -10.315282      -280.6931
  34   2.0000     -10.313644      -280.6485
  35   2.0000     -10.312924      -280.6289
  36   2.0000     -10.312329      -280.6127
  37   2.0000     -10.311811      -280.5987
  38   2.0000     -10.310469      -280.5621
  39   2.0000     -10.302379      -280.3420
  40   2.0000     -10.300975      -280.3038
  41   2.0000     -10.298682      -280.2414
  42   2.0000     -10.298493      -280.2362
  43   2.0000     -10.296896      -280.1928
  44   2.0000     -10.296444      -280.1805
  45   2.0000     -10.296385      -280.1789
  46   2.0000     -10.295763      -280.1620
  47   2.0000     -10.295540      -280.1559
  48   2.0000     -10.294338      -280.1232
  49   2.0000     -10.293982      -280.1135
  50   2.0000     -10.293454      -280.0991
  51   2.0000     -10.292621      -280.0765
  52   2.0000     -10.291912      -280.0572
  53   2.0000     -10.291653      -280.0501
  54   2.0000     -10.287598      -279.9398
  55   2.0000     -10.285757      -279.8897
  56   2.0000     -10.285369      -279.8791
  57   2.0000     -10.285138      -279.8728
  58   2.0000     -10.284914      -279.8667
  59   2.0000     -10.284711      -279.8612
  60   2.0000     -10.284232      -279.8482
  61   2.0000     -10.283979      -279.8413
  62   2.0000     -10.283428      -279.8263
  63   2.0000     -10.282879      -279.8113
  64   2.0000     -10.282372      -279.7976
  65   2.0000     -10.275610      -279.6136
  66   2.0000     -10.270118      -279.4641
  67   2.0000      -8.098544      -220.3726
  68   2.0000      -8.061039      -219.3520
  69   2.0000      -8.057835      -219.2648
  70   2.0000      -6.067630      -165.1086
  71   2.0000      -6.063235      -164.9890
  72   2.0000      -6.061546      -164.9431
  73   2.0000      -6.030440      -164.0966
  74   2.0000      -6.027369      -164.0130
  75   2.0000      -6.026059      -163.9774
  76   2.0000      -6.023103      -163.8970
  77   2.0000      -6.022788      -163.8884
  78   2.0000      -6.019861      -163.8088
  79   2.0000      -1.149427       -31.2775
  80   2.0000      -1.144673       -31.1481
  81   2.0000      -1.131670       -30.7943
  82   2.0000      -1.127055       -30.6687
  83   2.0000      -1.107572       -30.1386
  84   2.0000      -1.035523       -28.1780
  85   2.0000      -1.019898       -27.7528
  86   2.0000      -1.016825       -27.6692
  87   2.0000      -1.013914       -27.5900
  88   2.0000      -0.999230       -27.1904
  89   2.0000      -0.997036       -27.1307
  90   2.0000      -0.995336       -27.0845
  91   2.0000      -0.992467       -27.0064
  92   2.0000      -0.989015       -26.9125
  93   2.0000      -0.985924       -26.8283
  94   2.0000      -0.969898       -26.3923
  95   2.0000      -0.967393       -26.3241
  96   2.0000      -0.944512       -25.7015
  97   2.0000      -0.925194       -25.1758
  98   2.0000      -0.921712       -25.0811
  99   2.0000      -0.912427       -24.8284
 100   2.0000      -0.903465       -24.5845
 101   2.0000      -0.891444       -24.2574
 102   2.0000      -0.886942       -24.1349
 103   2.0000      -0.880355       -23.9557
 104   2.0000      -0.878460       -23.9041
 105   2.0000      -0.876562       -23.8525
 106   2.0000      -0.873420       -23.7670
 107   2.0000      -0.868214       -23.6253
 108   2.0000      -0.856537       -23.3076
 109   2.0000      -0.833331       -22.6761
 110   2.0000      -0.827283       -22.5115
 111   2.0000      -0.824952       -22.4481
 112   2.0000      -0.817216       -22.2376
 113   2.0000      -0.801467       -21.8090
 114   2.0000      -0.799286       -21.7497
 115   2.0000      -0.795623       -21.6500
 116   2.0000      -0.785782       -21.3822
 117   2.0000      -0.776073       -21.1180
 118   2.0000      -0.764847       -20.8126
 119   2.0000      -0.758916       -20.6512
 120   2.0000      -0.758540       -20.6409
 121   2.0000      -0.741201       -20.1691
 122   2.0000      -0.730598       -19.8806
 123   2.0000      -0.712950       -19.4003
 124   2.0000      -0.702151       -19.1065
 125   2.0000      -0.701664       -19.0932
 126   2.0000      -0.698215       -18.9994
 127   2.0000      -0.696300       -18.9473
 128   2.0000      -0.689651       -18.7663
 129   2.0000      -0.682097       -18.5608
 130   2.0000      -0.675138       -18.3714
 131   2.0000      -0.672637       -18.3034
 132   2.0000      -0.669052       -18.2058
 133   2.0000      -0.662065       -18.0157
 134   2.0000      -0.652007       -17.7420
 135   2.0000      -0.639838       -17.4109
 136   2.0000      -0.632782       -17.2189
 137   2.0000      -0.631024       -17.1710
 138   2.0000      -0.624041       -16.9810
 139   2.0000      -0.620646       -16.8886
 140   2.0000      -0.608578       -16.5602
 141   2.0000      -0.608022       -16.5451
 142   2.0000      -0.606176       -16.4949
 143   2.0000      -0.602906       -16.4059
 144   2.0000      -0.595219       -16.1967
 145   2.0000      -0.590060       -16.0564
 146   2.0000      -0.586636       -15.9632
 147   2.0000      -0.574495       -15.6328
 148   2.0000      -0.573090       -15.5946
 149   2.0000      -0.570079       -15.5126
 150   2.0000      -0.564832       -15.3699
 151   2.0000      -0.554865       -15.0986
 152   2.0000      -0.552657       -15.0386
 153   2.0000      -0.548978       -14.9384
 154   2.0000      -0.545642       -14.8477
 155   2.0000      -0.544822       -14.8254
 156   2.0000      -0.539722       -14.6866
 157   2.0000      -0.538263       -14.6469
 158   2.0000      -0.537077       -14.6146
 159   2.0000      -0.535942       -14.5837
 160   2.0000      -0.533622       -14.5206
 161   2.0000      -0.530629       -14.4391
 162   2.0000      -0.525439       -14.2979
 163   2.0000      -0.524372       -14.2689
 164   2.0000      -0.521427       -14.1887
 165   2.0000      -0.520760       -14.1706
 166   2.0000      -0.519475       -14.1356
 167   2.0000      -0.516143       -14.0450
 168   2.0000      -0.513959       -13.9855
 169   2.0000      -0.513087       -13.9618
 170   2.0000      -0.512056       -13.9337
 171   2.0000      -0.510704       -13.8970
 172   2.0000      -0.508256       -13.8304
 173   2.0000      -0.503780       -13.7085
 174   2.0000      -0.501983       -13.6597
 175   2.0000      -0.497473       -13.5369
 176   2.0000      -0.496220       -13.5028
 177   2.0000      -0.494128       -13.4459
 178   2.0000      -0.492970       -13.4144
 179   2.0000      -0.491326       -13.3697
 180   2.0000      -0.489311       -13.3148
 181   2.0000      -0.486300       -13.2329
 182   2.0000      -0.484907       -13.1950
 183   2.0000      -0.481691       -13.1075
 184   2.0000      -0.476870       -12.9763
 185   2.0000      -0.473558       -12.8862
 186   2.0000      -0.465687       -12.6720
 187   2.0000      -0.462850       -12.5948
 188   2.0000      -0.459956       -12.5160
 189   2.0000      -0.457960       -12.4617
 190   2.0000      -0.456508       -12.4222
 191   2.0000      -0.453573       -12.3424
 192   2.0000      -0.448832       -12.2133
 193   2.0000      -0.447843       -12.1864
 194   2.0000      -0.443750       -12.0751
 195   2.0000      -0.442671       -12.0457
 196   2.0000      -0.442187       -12.0325
 197   2.0000      -0.441306       -12.0085
 198   2.0000      -0.438542       -11.9333
 199   2.0000      -0.437743       -11.9116
 200   2.0000      -0.435989       -11.8639
 201   2.0000      -0.432358       -11.7651
 202   2.0000      -0.431012       -11.7284
 203   2.0000      -0.430336       -11.7100
 204   2.0000      -0.429242       -11.6803
 205   2.0000      -0.425594       -11.5810
 206   2.0000      -0.422714       -11.5026
 207   2.0000      -0.420131       -11.4324
 208   2.0000      -0.417850       -11.3703
 209   2.0000      -0.411650       -11.2016
 210   2.0000      -0.407053       -11.0765
 211   2.0000      -0.405187       -11.0257
 212   2.0000      -0.401289       -10.9196
 213   2.0000      -0.400235       -10.8909
 214   2.0000      -0.397158       -10.8072
 215   2.0000      -0.381181       -10.3725
 216   2.0000      -0.377721       -10.2783
 217   2.0000      -0.376625       -10.2485
 218   2.0000      -0.369521       -10.0552
 219   2.0000      -0.368641       -10.0312
 220   2.0000      -0.359102        -9.7717
 221   2.0000      -0.354386        -9.6433
 222   2.0000      -0.352309        -9.5868
 223   2.0000      -0.340768        -9.2728
 224   2.0000      -0.335704        -9.1350
 225   2.0000      -0.329708        -8.9718
 226   2.0000      -0.329234        -8.9589
 227   2.0000      -0.326032        -8.8718
 228   2.0000      -0.324105        -8.8194
 229   2.0000      -0.315211        -8.5773
 230   2.0000      -0.313491        -8.5305
 231   2.0000      -0.296780        -8.0758
 232   2.0000      -0.292887        -7.9699
 233   2.0000      -0.285300        -7.7634
 234   2.0000      -0.243951        -6.6382
 235   0.0000      -0.119182        -3.2431
 236   0.0000      -0.097783        -2.6608
 237   0.0000      -0.080950        -2.2028
 238   0.0000      -0.077149        -2.0993
 239   0.0000      -0.054713        -1.4888

MULLIKEN ATOMIC CHARGES
-----------------------
   0 C :   -0.017706
   1 C :    0.036574
   2 C :    0.037989
   3 C :   -0.021041
   4 C :    0.097828
   5 C :   -0.087118
   6 C :    0.037700
   7 C :    0.015060
   8 C :   -0.086769
   9 C :    0.095472
  10 C :    0.136843
  11 O :   -0.141230
  12 C :   -0.138254
  13 C :    0.273910
  14 C :   -0.346438
  15 C :   -0.204202
  16 N :    0.176112
  17 C :   -0.177064
  18 N :    0.151436
  19 C :    0.091576
  20 C :   -0.089806
  21 C :    0.006992
  22 C :   -0.101107
  23 C :    0.120639
  24 C :   -0.091710
  25 S :    0.215221
  26 C :   -0.120513
  27 C :    0.016608
  28 C :    0.042930
  29 N :    0.067674
  30 C :   -0.112967
  31 C :    0.143060
  32 O :   -0.106511
  33 C :   -0.013390
  34 C :   -0.019008
  35 C :    0.140200
  36 O :   -0.100784
  37 C :   -0.115735
  38 N :    0.040814
  39 C :   -0.105735
  40 S :    0.204971
  41 C :   -0.056029
  42 C :   -0.049375
  43 C :   -0.053171
  44 C :    0.138199
  45 C :   -0.066826
  46 S :    0.173029
  47 C :   -0.045214
  48 C :   -0.096901
  49 C :    0.325926
  50 C :   -0.361425
  51 C :   -0.183998
  52 N :    0.142757
  53 C :   -0.186822
  54 N :    0.142164
  55 C :    0.044264
  56 C :    0.004759
  57 C :   -0.087636
  58 C :    0.100949
  59 C :   -0.020998
  60 C :    0.038453
  61 C :    0.036416
  62 C :   -0.022187
  63 C :    0.099451
  64 C :   -0.089672
  65 C :    0.162493
  66 O :   -0.185290
  67 H :   -0.017162
  68 H :   -0.006229
  69 H :   -0.005811
  70 H :   -0.010747
  71 H :   -0.007364
  72 H :   -0.011809
  73 H :    0.029706
  74 H :   -0.009490
  75 H :    0.021183
  76 H :    0.034801
  77 H :    0.045939
  78 H :    0.019405
  79 H :    0.020579
  80 H :    0.002279
  81 H :    0.023875
  82 H :    0.041166
  83 H :    0.050236
  84 H :   -0.011067
  85 H :   -0.015704
  86 H :   -0.018918
  87 H :   -0.007319
  88 H :   -0.005463
  89 H :   -0.009170
  90 H :   -0.008756
Sum of atomic charges:    0.0000000

LOEWDIN ATOMIC CHARGES
----------------------
   0 C :   -0.009436
   1 C :   -0.013378
   2 C :   -0.013491
   3 C :   -0.007072
   4 C :   -0.005866
   5 C :    0.014006
   6 C :   -0.023088
   7 C :   -0.056612
   8 C :    0.031993
   9 C :   -0.009256
  10 C :    0.082247
  11 O :   -0.142247
  12 C :   -0.091905
  13 C :    0.066684
  14 C :   -0.143263
  15 C :   -0.019045
  16 N :   -0.044675
  17 C :   -0.019900
  18 N :   -0.055527
  19 C :    0.050719
  20 C :   -0.180871
  21 C :   -0.022538
  22 C :   -0.040301
  23 C :   -0.053903
  24 C :   -0.175184
  25 S :    0.517278
  26 C :   -0.179189
  27 C :   -0.050708
  28 C :   -0.033963
  29 N :    0.009039
  30 C :   -0.036574
  31 C :    0.057544
  32 O :   -0.101004
  33 C :   -0.012926
  34 C :   -0.010116
  35 C :    0.055576
  36 O :   -0.098381
  37 C :   -0.039997
  38 N :   -0.004564
  39 C :   -0.197544
  40 S :    0.538780
  41 C :   -0.172996
  42 C :   -0.049316
  43 C :   -0.007760
  44 C :   -0.045073
  45 C :   -0.190209
  46 S :    0.489493
  47 C :    0.054133
  48 C :   -0.112152
  49 C :    0.078136
  50 C :   -0.149777
  51 C :   -0.017659
  52 N :   -0.060229
  53 C :   -0.020129
  54 N :   -0.060917
  55 C :   -0.024604
  56 C :   -0.053930
  57 C :    0.029358
  58 C :   -0.009176
  59 C :   -0.010696
  60 C :   -0.013459
  61 C :   -0.014687
  62 C :   -0.005610
  63 C :   -0.006801
  64 C :    0.018636
  65 C :    0.083384
  66 O :   -0.173179
  67 H :    0.031824
  68 H :    0.032462
  69 H :    0.032789
  70 H :    0.034032
  71 H :    0.037991
  72 H :    0.039365
  73 H :    0.048430
  74 H :    0.031389
  75 H :    0.039812
  76 H :    0.032478
  77 H :    0.038803
  78 H :    0.046530
  79 H :    0.046866
  80 H :    0.033378
  81 H :    0.040678
  82 H :    0.044549
  83 H :    0.046545
  84 H :    0.048640
  85 H :    0.037736
  86 H :    0.031113
  87 H :    0.032038
  88 H :    0.032866
  89 H :    0.034645
  90 H :    0.038919

  Mayer bond orders larger than 0.100000
B(  0-C ,  1-C ) :   1.4882 B(  0-C ,  9-C ) :   1.2463 B(  0-C , 67-H ) :   0.9975
B(  1-C ,  2-C ) :   1.2611 B(  1-C , 68-H ) :   0.9887 B(  2-C ,  3-C ) :   1.4888
B(  2-C , 69-H ) :   0.9887 B(  3-C ,  4-C ) :   1.2407 B(  3-C , 70-H ) :   0.9976
B(  4-C ,  5-C ) :   1.2031 B(  4-C ,  9-C ) :   1.2570 B(  5-C ,  6-C ) :   1.4571
B(  5-C , 71-H ) :   0.9932 B(  6-C ,  7-C ) :   1.2154 B(  6-C , 13-C ) :   0.9979
B(  7-C ,  8-C ) :   1.4765 B(  7-C , 10-C ) :   0.9188 B(  8-C ,  9-C ) :   1.1813
B(  8-C , 72-H ) :   1.0165 B( 10-C , 11-O ) :   2.2690 B( 10-C , 12-C ) :   0.9395
B( 12-C , 13-C ) :   1.0439 B( 12-C , 19-C ) :   1.6550 B( 13-C , 14-C ) :   1.6387
B( 14-C , 15-C ) :   1.1698 B( 14-C , 17-C ) :   1.1325 B( 15-C , 16-N ) :   3.0028
B( 17-C , 18-N ) :   2.9846 B( 19-C , 20-C ) :   1.1342 B( 19-C , 73-H ) :   0.9271
B( 20-C , 21-C ) :   1.3937 B( 20-C , 25-S ) :   1.0947 B( 21-C , 22-C ) :   1.3642
B( 21-C , 74-H ) :   0.9903 B( 22-C , 23-C ) :   1.1135 B( 22-C , 24-C ) :   1.3902
B( 23-C , 75-H ) :   0.9406 B( 23-C , 76-H ) :   0.9345 B( 23-C , 77-H ) :   0.9352
B( 24-C , 25-S ) :   1.1605 B( 24-C , 26-C ) :   1.2378 B( 26-C , 27-C ) :   1.2914
B( 26-C , 39-C ) :   0.1321 B( 26-C , 40-S ) :   1.1690 B( 27-C , 28-C ) :   1.1968
B( 27-C , 38-N ) :   1.4299 B( 28-C , 29-N ) :   1.4441 B( 28-C , 39-C ) :   1.3408
B( 29-N , 30-C ) :   1.7090 B( 30-C , 31-C ) :   0.8929 B( 30-C , 37-C ) :   1.1075
B( 31-C , 32-O ) :   2.2304 B( 31-C , 33-C ) :   1.0286 B( 33-C , 34-C ) :   1.6791
B( 33-C , 78-H ) :   0.9991 B( 34-C , 35-C ) :   1.0205 B( 34-C , 79-H ) :   0.9980
B( 35-C , 36-O ) :   2.2512 B( 35-C , 37-C ) :   0.8964 B( 37-C , 38-N ) :   1.6897
B( 39-C , 40-S ) :   1.1439 B( 39-C , 41-C ) :   1.2014 B( 41-C , 42-C ) :   1.3864
B( 41-C , 46-S ) :   1.1072 B( 42-C , 43-C ) :   1.3464 B( 42-C , 80-H ) :   0.9943
B( 43-C , 44-C ) :   1.1090 B( 43-C , 45-C ) :   1.3271 B( 44-C , 81-H ) :   0.9466
B( 44-C , 82-H ) :   0.9311 B( 44-C , 83-H ) :   0.9294 B( 45-C , 46-S ) :   1.0779
B( 45-C , 47-C ) :   1.2985 B( 47-C , 48-C ) :   1.4794 B( 47-C , 84-H ) :   0.9304
B( 48-C , 49-C ) :   1.0918 B( 48-C , 65-C ) :   0.9784 B( 49-C , 50-C ) :   1.6082
B( 49-C , 55-C ) :   0.9793 B( 50-C , 51-C ) :   1.1521 B( 50-C , 53-C ) :   1.1502
B( 51-C , 52-N ) :   2.9608 B( 53-C , 54-N ) :   2.9578 B( 55-C , 56-C ) :   1.2179
B( 55-C , 64-C ) :   1.4571 B( 56-C , 57-C ) :   1.4704 B( 56-C , 65-C ) :   0.9582
B( 57-C , 58-C ) :   1.1724 B( 57-C , 85-H ) :   1.0174 B( 58-C , 59-C ) :   1.2442
B( 58-C , 63-C ) :   1.2618 B( 59-C , 60-C ) :   1.4877 B( 59-C , 86-H ) :   0.9979
B( 60-C , 61-C ) :   1.2637 B( 60-C , 87-H ) :   0.9876 B( 61-C , 62-C ) :   1.4859
B( 61-C , 88-H ) :   0.9877 B( 62-C , 63-C ) :   1.2420 B( 62-C , 89-H ) :   0.9977
B( 63-C , 64-C ) :   1.1978 B( 64-C , 90-H ) :   0.9905 B( 65-C , 66-O ) :   2.1267

-----------------------------------------------------------------------------
         ABSORPTION SPECTRUM VIA TRANSITION ELECTRIC DIPOLE MOMENTS
-----------------------------------------------------------------------------
State   Energy  Wavelength   fosc         T2         TX        TY        TZ
        (cm-1)    (nm)                  (au**2)     (au)      (au)      (au)
-----------------------------------------------------------------------------
   0   11753.2    850.8   1.026015237  28.73920   0.17391   0.62570  -5.32141
   1   16855.4    593.3   0.308735172   6.03009   2.35888   0.57989  -0.35985
   2   19867.9    503.3   0.465122907   7.70712   0.30123   0.04804  -2.75936
   3   21398.3    467.3   0.245785909   3.78140   1.47432   0.73648  -1.03217
   4   22161.7    451.2   0.177919731   2.64300  -1.55809  -0.45111  -0.10884
   5   24221.5    412.9   0.002549101   0.03465  -0.09953  -0.15138  -0.04269
   6   24904.0    401.5   0.017519469   0.23159  -0.26038  -0.38294   0.13098
   7   25175.5    397.2   0.034773427   0.45472   0.62935  -0.13980   0.19774
   8   25555.1    391.3   0.000232345   0.00299   0.02677  -0.03480  -0.03264
   9   26191.0    381.8   0.122332382   1.53768  -1.15152  -0.45793  -0.04439
  10   26254.9    380.9   0.005294381   0.06639   0.20188   0.16007   0.00295
  11   26798.9    373.1   0.001900906   0.02335   0.05824   0.00661   0.14112
  12   27000.0    370.4   0.035034540   0.42718   0.50086   0.05731   0.41597
  13   27545.0    363.0   0.009602190   0.11476   0.00054  -0.24185  -0.23722
  14   27619.3    362.1   0.021790097   0.25973   0.24145  -0.14303   0.42541
  15   27835.8    359.2   0.070554538   0.83444   0.81349  -0.21423   0.35608
  16   28296.1    353.4   0.189545842   2.20528  -0.15765   0.37447  -1.42835
  17   28885.0    346.2   0.019982653   0.22775   0.26709   0.09913   0.38287
  18   29056.3    344.2   0.056271273   0.63756   0.42914  -0.21264   0.63889
  19   30387.2    329.1   0.001133042   0.01228  -0.02994  -0.05883   0.08898
  20   30803.3    324.6   0.205684298   2.19826   0.38278   0.51891  -1.33509
  21   31210.7    320.4   0.090853019   0.95832   0.78804  -0.39976   0.42132
  22   31434.5    318.1   0.106653428   1.11698   0.76688   0.65089   0.32438
  23   32178.0    310.8   0.319719851   3.27104  -1.01401   0.38712  -1.44671
  24   32578.5    307.0   0.178059535   1.79933  -1.25045  -0.46045   0.15390
  25   32697.1    305.8   0.146251031   1.47253  -1.05670   0.07986  -0.59122
  26   32892.3    304.0   0.160560896   1.60702   0.66712  -0.20486   1.05830
  27   33174.8    301.4   0.004676108   0.04640   0.16770  -0.03618   0.13027
  28   33454.5    298.9   0.005769644   0.05678   0.18819   0.14612   0.00314
  29   33556.0    298.0   0.010983456   0.10776   0.28368   0.16485   0.01022
  30   33780.4    296.0   0.045681011   0.44519  -0.49596  -0.39260   0.21232
  31   33916.0    294.8   0.046322315   0.44964  -0.08721  -0.14338   0.64921
  32   33998.6    294.1   0.004369332   0.04231  -0.15871   0.06972   0.11071
  33   34217.6    292.2   0.013983098   0.13453  -0.10675   0.07672   0.34242
  34   34289.7    291.6   0.086784647   0.83321   0.84072   0.20381  -0.29132
  35   34745.8    287.8   0.005050887   0.04786  -0.21314  -0.03939  -0.02964
  36   34960.2    286.0   0.058228240   0.54832   0.71277  -0.04963   0.19446
  37   35023.6    285.5   0.008454391   0.07947   0.17372   0.03702  -0.21890
  38   35371.6    282.7   0.089834535   0.83611   0.76708   0.36016  -0.34349
  39   35515.8    281.6   0.083027569   0.76962   0.81386   0.08302  -0.31678
  40   35672.0    280.3   0.013263825   0.12241  -0.25395  -0.19600  -0.13966
  41   36354.5    275.1   0.231400112   2.09547  -0.96171   0.40576  -1.00296
  42   36633.3    273.0   0.357636381   3.21397  -0.18759   0.68966  -1.64412
  43   36791.5    271.8   0.463508015   4.14749  -1.78248  -0.75876  -0.62814
  44   37161.3    269.1   0.005031076   0.04457   0.04957   0.00482  -0.20516
  45   37254.3    268.4   0.019974855   0.17652  -0.01725  -0.35337   0.22661
  46   37457.9    267.0   0.071574237   0.62906   0.01608  -0.14845   0.77895
  47   37766.4    264.8   0.083560323   0.72840  -0.10225   0.44726  -0.71966
  48   38100.0    262.5   0.045601763   0.39403  -0.24489  -0.34797   0.46150
  49   38417.2    260.3   0.002639586   0.02262  -0.05698  -0.10900   0.08655
  50   38659.9    258.7   0.048593946   0.41381   0.25556   0.19262   0.55802
  51   39074.6    255.9   0.005366664   0.04522  -0.04885   0.02701  -0.20518
  52   39221.4    255.0   0.132193184   1.10959  -0.31590  -0.37404   0.93268
  53   39486.8    253.2   0.001102878   0.00919  -0.01170   0.06409   0.07036
  54   39502.5    253.1   0.026026172   0.21690   0.06362   0.29211  -0.35711
  55   39979.3    250.1   0.008179548   0.06735   0.14871   0.15097  -0.14983
  56   40080.0    249.5   0.016321881   0.13407  -0.01096   0.20659   0.30210
  57   40307.6    248.1   0.256927032   2.09845   1.35813   0.14814  -0.48164

FINAL SINGLE POINT ENERGY     -3892.331009912171

DIPOLE MOMENT
-------------
                                X             Y             Z
Electronic contribution:     25.10462       1.57158       3.04630
Nuclear contribution   :    -26.66200      -0.46562      -5.45034
                        -----------------------------------------
Total Dipole Moment    :     -1.55738       1.10596      -2.40404
                        -----------------------------------------
Magnitude (a.u.)       :      3.07050
Magnitude (Debye)      :      7.80459

Rotational constants in cm-1:     0.001391     0.000390     0.000309
Rotational constants in MHz :    41.693918    11.682418     9.263984

                             ****ORCA TERMINATED NORMALLY****
TOTAL RUN TIME: 0 days 0 hours 8 minutes 38 seconds 573 msec
