                         Program Version 4.2.0 -  RELEASE  -
|  1> # ORCA input file
|  2> # SCF done       -205.367342224068          0.000703201675
|  3> ! CAM-B3LYP def2-SVP def2/J RIJCOSX Grid4 TightSCF
|  4> %maxcore 5000
|  5> %tddft
|  6>     Mode sTDDFT
|  7>     Ethresh 5.0
|  8>     maxcore 5000
|  9> end
| 10>
| 11> %pal
| 12>   nprocs 6
| 13>   end
| 14> * xyz 0 1
| 15>    C        0.67415         3.85080        -4.46064
| 16>    C       -0.56944         3.61900        -3.93857
| 17>    C       -0.78195         2.53962        -3.06807
| 18>    C        0.25112         1.70799        -2.73069
| 19>    C        1.54417         1.91580        -3.25194
| 20>    C        2.61201         1.05097        -2.91713
| 21>    C        3.85215         1.27631        -3.45032
| 22>    C        4.06403         2.38583        -4.31989
| 23>    C        3.05110         3.23459        -4.66261
| 24>    C        1.75907         3.01287        -4.13564
| 25>    C        5.47810         2.42284        -4.72314
| 26>    O        6.02107         3.18264        -5.49174
| 27>    C        6.14218         1.33741        -3.93676
| 28>    C        5.10517         0.53771        -3.32213
| 29>    C        5.20988        -0.76743        -2.91595
| 30>    C        6.38828        -1.52542        -3.03947
| 31>    N        7.33905        -2.16125        -3.14022
| 32>    C        4.13520        -1.52321        -2.40414
| 33>    N        3.30006        -2.18613        -1.97983
| 34>    C        7.50138         1.33538        -3.88541
| 35>    C        8.39759         0.69194        -2.99974
| 36>    C        8.20513         0.21143        -1.71156
| 37>    F        7.04025         0.32407        -1.06547
| 38>    C        9.35554        -0.32374        -1.13229
| 39>    C       10.46181        -0.25988        -1.99243
| 40>    S       10.07112         0.49504        -3.48704
| 41>    C       11.60861        -0.81458        -1.42064
| 42>    C       11.35830        -1.29982        -0.13344
| 43>    S        9.71330        -1.07544         0.39398
| 44>    C       12.49561        -1.86033         0.45440
| 45>    F       12.44850        -2.43421         1.65625
| 46>    C       13.62123        -1.81008        -0.35796
| 47>    S       13.24332        -1.10205        -1.91745
| 48>    C       14.95572        -2.24145        -0.09907
| 49>    C       15.87673        -2.31519        -1.16982
| 50>    C       17.20921        -2.80955        -1.00820
| 51>    N       18.03426        -2.83975        -2.06730
| 52>    C       17.61342        -2.41772        -3.22576
| 53>    C       16.29871        -1.93282        -3.38653
| 54>    N       15.47365        -1.89298        -2.37905
| 55>    C       17.70232        -3.26750         0.23560
| 56>    C       16.83914        -3.06594         1.33196
| 57>    C       15.48671        -2.55972         1.16796
| 58>    N       14.89112        -2.38477         2.34722
| 59>    S       15.89084        -2.80663         3.51945
| 60>    N       17.14242        -3.22626         2.61979
| 61>    C       19.01120        -3.82889         0.30620
| 62>    C       19.60429        -4.56987         1.32158
| 63>    F       18.97925        -4.97941         2.42575
| 64>    C       20.92688        -4.92528         1.04975
| 65>    C       21.36229        -4.45324        -0.19373
| 66>    S       20.10596        -3.62048        -1.04572
| 67>    C       22.68443        -4.81618        -0.46145
| 68>    C       23.24048        -5.55891         0.59606
| 69>    S       22.13887        -5.82351         1.92159
| 70>    C       24.55274        -5.91526         0.33133
| 71>    F       25.31624        -6.62485         1.16401
| 72>    C       25.03171        -5.46218        -0.90509
| 73>    S       23.79166        -4.55595        -1.75803
| 74>    C       26.33999        -5.75169        -1.33300
| 75>    C       26.98492        -5.37563        -2.47961
| 76>    C       28.34741        -5.71462        -2.85344
| 77>    C       29.20573        -6.55440        -2.19403
| 78>    C       30.51696        -6.84221        -2.62962
| 79>    N       31.59102        -7.11930        -2.92524
| 80>    C       28.92231        -7.26967        -1.01077
| 81>    N       28.77879        -7.89563        -0.05896
| 82>    C       28.64582        -5.01533        -4.10020
| 83>    C       27.48450        -4.29880        -4.50926
| 84>    C       27.45838        -3.54906        -5.64987
| 85>    C       28.61998        -3.47536        -6.45022
| 86>    C       28.65609        -2.71686        -7.63668
| 87>    C       29.79505        -2.65604        -8.39317
| 88>    C       30.94672        -3.35162        -7.99635
| 89>    C       30.94403        -4.09881        -6.84975
| 90>    C       29.78862        -4.18356        -6.04688
| 91>    C       29.78286        -4.95485        -4.86133
| 92>    C       26.41596        -4.51364        -3.52567
| 93>    O       25.28599        -4.05737        -3.57049
| 94>    H        0.84425         4.68002        -5.13173
| 95>    H       -1.39571         4.26558        -4.19363
| 96>    H       -1.76955         2.36970        -2.66613
| 97>    H        0.09143         0.87415        -2.06300
| 98>    H        2.42361         0.23468        -2.23752
| 99>    H        3.23265         4.06430        -5.32957
|100>    H        7.97506         1.98268        -4.61903
|101>    H       18.31610        -2.45476        -4.04525
|102>    H       15.92944        -1.57664        -4.33703
|103>    H       26.89330        -6.35682        -0.62319
|104>    H       26.56268        -3.01828        -5.93654
|105>    H       27.76612        -2.18322        -7.93675
|106>    H       29.81476        -2.07157        -9.30080
|107>    H       31.83709        -3.29271        -8.60413
|108>    H       31.82820        -4.63677        -6.54086
|109>    H       30.68510        -5.47674        -4.58556
|110> *
|111>
|112>                          ****END OF INPUT****

CARTESIAN COORDINATES (ANGSTROEM)
---------------------------------
  C      0.674150    3.850800   -4.460640
  C     -0.569440    3.619000   -3.938570
  C     -0.781950    2.539620   -3.068070
  C      0.251120    1.707990   -2.730690
  C      1.544170    1.915800   -3.251940
  C      2.612010    1.050970   -2.917130
  C      3.852150    1.276310   -3.450320
  C      4.064030    2.385830   -4.319890
  C      3.051100    3.234590   -4.662610
  C      1.759070    3.012870   -4.135640
  C      5.478100    2.422840   -4.723140
  O      6.021070    3.182640   -5.491740
  C      6.142180    1.337410   -3.936760
  C      5.105170    0.537710   -3.322130
  C      5.209880   -0.767430   -2.915950
  C      6.388280   -1.525420   -3.039470
  N      7.339050   -2.161250   -3.140220
  C      4.135200   -1.523210   -2.404140
  N      3.300060   -2.186130   -1.979830
  C      7.501380    1.335380   -3.885410
  C      8.397590    0.691940   -2.999740
  C      8.205130    0.211430   -1.711560
  F      7.040250    0.324070   -1.065470
  C      9.355540   -0.323740   -1.132290
  C     10.461810   -0.259880   -1.992430
  S     10.071120    0.495040   -3.487040
  C     11.608610   -0.814580   -1.420640
  C     11.358300   -1.299820   -0.133440
  S      9.713300   -1.075440    0.393980
  C     12.495610   -1.860330    0.454400
  F     12.448500   -2.434210    1.656250
  C     13.621230   -1.810080   -0.357960
  S     13.243320   -1.102050   -1.917450
  C     14.955720   -2.241450   -0.099070
  C     15.876730   -2.315190   -1.169820
  C     17.209210   -2.809550   -1.008200
  N     18.034260   -2.839750   -2.067300
  C     17.613420   -2.417720   -3.225760
  C     16.298710   -1.932820   -3.386530
  N     15.473650   -1.892980   -2.379050
  C     17.702320   -3.267500    0.235600
  C     16.839140   -3.065940    1.331960
  C     15.486710   -2.559720    1.167960
  N     14.891120   -2.384770    2.347220
  S     15.890840   -2.806630    3.519450
  N     17.142420   -3.226260    2.619790
  C     19.011200   -3.828890    0.306200
  C     19.604290   -4.569870    1.321580
  F     18.979250   -4.979410    2.425750
  C     20.926880   -4.925280    1.049750
  C     21.362290   -4.453240   -0.193730
  S     20.105960   -3.620480   -1.045720
  C     22.684430   -4.816180   -0.461450
  C     23.240480   -5.558910    0.596060
  S     22.138870   -5.823510    1.921590
  C     24.552740   -5.915260    0.331330
  F     25.316240   -6.624850    1.164010
  C     25.031710   -5.462180   -0.905090
  S     23.791660   -4.555950   -1.758030
  C     26.339990   -5.751690   -1.333000
  C     26.984920   -5.375630   -2.479610
  C     28.347410   -5.714620   -2.853440
  C     29.205730   -6.554400   -2.194030
  C     30.516960   -6.842210   -2.629620
  N     31.591020   -7.119300   -2.925240
  C     28.922310   -7.269670   -1.010770
  N     28.778790   -7.895630   -0.058960
  C     28.645820   -5.015330   -4.100200
  C     27.484500   -4.298800   -4.509260
  C     27.458380   -3.549060   -5.649870
  C     28.619980   -3.475360   -6.450220
  C     28.656090   -2.716860   -7.636680
  C     29.795050   -2.656040   -8.393170
  C     30.946720   -3.351620   -7.996350
  C     30.944030   -4.098810   -6.849750
  C     29.788620   -4.183560   -6.046880
  C     29.782860   -4.954850   -4.861330
  C     26.415960   -4.513640   -3.525670
  O     25.285990   -4.057370   -3.570490
  H      0.844250    4.680020   -5.131730
  H     -1.395710    4.265580   -4.193630
  H     -1.769550    2.369700   -2.666130
  H      0.091430    0.874150   -2.063000
  H      2.423610    0.234680   -2.237520
  H      3.232650    4.064300   -5.329570
  H      7.975060    1.982680   -4.619030
  H     18.316100   -2.454760   -4.045250
  H     15.929440   -1.576640   -4.337030
  H     26.893300   -6.356820   -0.623190
  H     26.562680   -3.018280   -5.936540
  H     27.766120   -2.183220   -7.936750
  H     29.814760   -2.071570   -9.300800
  H     31.837090   -3.292710   -8.604130
  H     31.828200   -4.636770   -6.540860
  H     30.685100   -5.476740   -4.585560

 Total Charge           Charge          ....    0
 Multiplicity           Mult            ....    1
 Number of Electrons    NEL             ....  584
 Basis Dimension        Dim             .... 1214

ORBITAL ENERGIES
----------------

  NO   OCC          E(Eh)            E(eV)
   0   2.0000     -89.039733     -2422.8943
   1   2.0000     -88.978263     -2421.2216
   2   2.0000     -88.975322     -2421.1416
   3   2.0000     -88.973387     -2421.0889
   4   2.0000     -88.971473     -2421.0369
   5   2.0000     -88.969397     -2420.9804
   6   2.0000     -88.969069     -2420.9714
   7   2.0000     -24.816422      -675.2892
   8   2.0000     -24.809798      -675.1089
   9   2.0000     -24.794757      -674.6996
  10   2.0000     -24.794048      -674.6803
  11   2.0000     -19.220261      -523.0099
  12   2.0000     -19.212580      -522.8009
  13   2.0000     -14.453581      -393.3019
  14   2.0000     -14.452736      -393.2789
  15   2.0000     -14.444035      -393.0422
  16   2.0000     -14.443862      -393.0375
  17   2.0000     -14.413242      -392.2043
  18   2.0000     -14.412180      -392.1753
  19   2.0000     -14.412062      -392.1721
  20   2.0000     -14.410170      -392.1207
  21   2.0000     -10.390491      -282.7396
  22   2.0000     -10.388407      -282.6829
  23   2.0000     -10.379658      -282.4449
  24   2.0000     -10.378402      -282.4107
  25   2.0000     -10.368076      -282.1297
  26   2.0000     -10.363081      -281.9938
  27   2.0000     -10.347367      -281.5662
  28   2.0000     -10.347039      -281.5572
  29   2.0000     -10.341918      -281.4179
  30   2.0000     -10.341603      -281.4093
  31   2.0000     -10.340983      -281.3925
  32   2.0000     -10.340734      -281.3857
  33   2.0000     -10.339254      -281.3454
  34   2.0000     -10.337781      -281.3053
  35   2.0000     -10.337136      -281.2878
  36   2.0000     -10.336495      -281.2703
  37   2.0000     -10.329667      -281.0845
  38   2.0000     -10.324739      -280.9504
  39   2.0000     -10.324102      -280.9331
  40   2.0000     -10.323918      -280.9281
  41   2.0000     -10.323671      -280.9214
  42   2.0000     -10.322173      -280.8806
  43   2.0000     -10.321893      -280.8730
  44   2.0000     -10.321658      -280.8666
  45   2.0000     -10.321472      -280.8615
  46   2.0000     -10.320846      -280.8445
  47   2.0000     -10.320574      -280.8371
  48   2.0000     -10.318402      -280.7780
  49   2.0000     -10.317635      -280.7571
  50   2.0000     -10.317128      -280.7433
  51   2.0000     -10.314795      -280.6798
  52   2.0000     -10.314519      -280.6723
  53   2.0000     -10.314177      -280.6630
  54   2.0000     -10.313492      -280.6444
  55   2.0000     -10.313042      -280.6321
  56   2.0000     -10.311642      -280.5941
  57   2.0000     -10.300928      -280.3025
  58   2.0000     -10.300092      -280.2798
  59   2.0000     -10.297433      -280.2074
  60   2.0000     -10.296647      -280.1860
  61   2.0000     -10.296308      -280.1768
  62   2.0000     -10.296142      -280.1723
  63   2.0000     -10.295531      -280.1556
  64   2.0000     -10.295158      -280.1455
  65   2.0000     -10.294865      -280.1375
  66   2.0000     -10.294603      -280.1304
  67   2.0000     -10.294555      -280.1291
  68   2.0000     -10.293059      -280.0884
  69   2.0000     -10.287561      -279.9388
  70   2.0000     -10.286312      -279.9048
  71   2.0000     -10.286022      -279.8969
  72   2.0000     -10.285528      -279.8835
  73   2.0000     -10.285007      -279.8693
  74   2.0000     -10.284425      -279.8534
  75   2.0000     -10.284218      -279.8478
  76   2.0000     -10.283782      -279.8359
  77   2.0000     -10.283508      -279.8285
  78   2.0000     -10.282877      -279.8113
  79   2.0000      -8.131200      -221.2612
  80   2.0000      -8.073445      -219.6896
  81   2.0000      -8.069722      -219.5883
  82   2.0000      -8.067704      -219.5334
  83   2.0000      -8.064065      -219.4344
  84   2.0000      -8.061893      -219.3753
  85   2.0000      -8.061697      -219.3699
  86   2.0000      -6.102180      -166.0487
  87   2.0000      -6.094304      -165.8344
  88   2.0000      -6.094250      -165.8330
  89   2.0000      -6.043080      -164.4406
  90   2.0000      -6.039684      -164.3482
  91   2.0000      -6.039071      -164.3315
  92   2.0000      -6.037690      -164.2939
  93   2.0000      -6.035615      -164.2374
  94   2.0000      -6.034696      -164.2124
  95   2.0000      -6.033910      -164.1910
  96   2.0000      -6.033662      -164.1843
  97   2.0000      -6.032050      -164.1404
  98   2.0000      -6.031723      -164.1315
  99   2.0000      -6.030484      -164.0978
 100   2.0000      -6.029435      -164.0693
 101   2.0000      -6.028398      -164.0411
 102   2.0000      -6.027250      -164.0098
 103   2.0000      -6.027045      -164.0042
 104   2.0000      -6.025392      -163.9592
 105   2.0000      -6.023056      -163.8957
 106   2.0000      -6.022986      -163.8938
 107   2.0000      -1.329703       -36.1831
 108   2.0000      -1.324593       -36.0440
 109   2.0000      -1.311714       -35.6935
 110   2.0000      -1.310814       -35.6691
 111   2.0000      -1.137903       -30.9639
 112   2.0000      -1.135945       -30.9106
 113   2.0000      -1.127957       -30.6933
 114   2.0000      -1.111884       -30.2559
 115   2.0000      -1.041253       -28.3339
 116   2.0000      -1.034144       -28.1405
 117   2.0000      -1.029996       -28.0276
 118   2.0000      -1.015155       -27.6238
 119   2.0000      -1.014891       -27.6166
 120   2.0000      -0.997671       -27.1480
 121   2.0000      -0.996612       -27.1192
 122   2.0000      -0.995498       -27.0889
 123   2.0000      -0.994837       -27.0709
 124   2.0000      -0.991093       -26.9690
 125   2.0000      -0.989736       -26.9321
 126   2.0000      -0.986682       -26.8490
 127   2.0000      -0.973541       -26.4914
 128   2.0000      -0.969475       -26.3808
 129   2.0000      -0.968005       -26.3407
 130   2.0000      -0.945251       -25.7216
 131   2.0000      -0.938376       -25.5345
 132   2.0000      -0.921480       -25.0748
 133   2.0000      -0.920720       -25.0541
 134   2.0000      -0.900988       -24.5171
 135   2.0000      -0.900337       -24.4994
 136   2.0000      -0.891786       -24.2667
 137   2.0000      -0.887221       -24.1425
 138   2.0000      -0.880856       -23.9693
 139   2.0000      -0.879661       -23.9368
 140   2.0000      -0.877471       -23.8772
 141   2.0000      -0.876388       -23.8477
 142   2.0000      -0.864225       -23.5168
 143   2.0000      -0.853569       -23.2268
 144   2.0000      -0.844004       -22.9665
 145   2.0000      -0.841207       -22.8904
 146   2.0000      -0.827166       -22.5083
 147   2.0000      -0.825679       -22.4679
 148   2.0000      -0.823860       -22.4184
 149   2.0000      -0.814325       -22.1589
 150   2.0000      -0.809977       -22.0406
 151   2.0000      -0.804253       -21.8848
 152   2.0000      -0.798552       -21.7297
 153   2.0000      -0.783454       -21.3189
 154   2.0000      -0.779442       -21.2097
 155   2.0000      -0.762502       -20.7487
 156   2.0000      -0.760943       -20.7063
 157   2.0000      -0.757203       -20.6045
 158   2.0000      -0.748782       -20.3754
 159   2.0000      -0.727539       -19.7973
 160   2.0000      -0.721512       -19.6333
 161   2.0000      -0.711746       -19.3676
 162   2.0000      -0.704676       -19.1752
 163   2.0000      -0.702760       -19.1231
 164   2.0000      -0.699575       -19.0364
 165   2.0000      -0.696808       -18.9611
 166   2.0000      -0.689008       -18.7489
 167   2.0000      -0.685818       -18.6620
 168   2.0000      -0.680468       -18.5165
 169   2.0000      -0.678256       -18.4563
 170   2.0000      -0.676250       -18.4017
 171   2.0000      -0.673782       -18.3345
 172   2.0000      -0.670273       -18.2391
 173   2.0000      -0.668447       -18.1894
 174   2.0000      -0.667092       -18.1525
 175   2.0000      -0.649076       -17.6623
 176   2.0000      -0.647757       -17.6264
 177   2.0000      -0.642167       -17.4743
 178   2.0000      -0.634207       -17.2576
 179   2.0000      -0.630601       -17.1595
 180   2.0000      -0.629091       -17.1184
 181   2.0000      -0.621115       -16.9014
 182   2.0000      -0.615972       -16.7614
 183   2.0000      -0.608907       -16.5692
 184   2.0000      -0.605627       -16.4799
 185   2.0000      -0.604434       -16.4475
 186   2.0000      -0.603142       -16.4123
 187   2.0000      -0.595576       -16.2064
 188   2.0000      -0.592471       -16.1219
 189   2.0000      -0.590344       -16.0641
 190   2.0000      -0.589042       -16.0287
 191   2.0000      -0.588205       -16.0059
 192   2.0000      -0.580738       -15.8027
 193   2.0000      -0.575988       -15.6734
 194   2.0000      -0.573016       -15.5926
 195   2.0000      -0.569096       -15.4859
 196   2.0000      -0.568689       -15.4748
 197   2.0000      -0.566766       -15.4225
 198   2.0000      -0.563166       -15.3245
 199   2.0000      -0.561913       -15.2904
 200   2.0000      -0.553732       -15.0678
 201   2.0000      -0.550822       -14.9886
 202   2.0000      -0.548490       -14.9252
 203   2.0000      -0.545937       -14.8557
 204   2.0000      -0.544193       -14.8082
 205   2.0000      -0.543954       -14.8017
 206   2.0000      -0.542289       -14.7564
 207   2.0000      -0.539597       -14.6832
 208   2.0000      -0.538145       -14.6437
 209   2.0000      -0.537272       -14.6199
 210   2.0000      -0.528937       -14.3931
 211   2.0000      -0.527848       -14.3635
 212   2.0000      -0.522975       -14.2309
 213   2.0000      -0.521507       -14.1909
 214   2.0000      -0.515583       -14.0297
 215   2.0000      -0.514263       -13.9938
 216   2.0000      -0.512462       -13.9448
 217   2.0000      -0.511703       -13.9241
 218   2.0000      -0.510531       -13.8923
 219   2.0000      -0.510446       -13.8899
 220   2.0000      -0.509442       -13.8626
 221   2.0000      -0.508974       -13.8499
 222   2.0000      -0.502917       -13.6851
 223   2.0000      -0.498193       -13.5565
 224   2.0000      -0.497481       -13.5372
 225   2.0000      -0.495249       -13.4764
 226   2.0000      -0.493913       -13.4401
 227   2.0000      -0.491672       -13.3791
 228   2.0000      -0.488419       -13.2906
 229   2.0000      -0.488380       -13.2895
 230   2.0000      -0.487708       -13.2712
 231   2.0000      -0.483176       -13.1479
 232   2.0000      -0.480687       -13.0802
 233   2.0000      -0.479630       -13.0514
 234   2.0000      -0.474860       -12.9216
 235   2.0000      -0.469117       -12.7653
 236   2.0000      -0.467211       -12.7134
 237   2.0000      -0.464255       -12.6330
 238   2.0000      -0.462520       -12.5858
 239   2.0000      -0.458554       -12.4779
 240   2.0000      -0.457779       -12.4568
 241   2.0000      -0.453550       -12.3417
 242   2.0000      -0.450253       -12.2520
 243   2.0000      -0.447315       -12.1721
 244   2.0000      -0.445918       -12.1341
 245   2.0000      -0.444874       -12.1056
 246   2.0000      -0.441979       -12.0269
 247   2.0000      -0.441018       -12.0007
 248   2.0000      -0.438484       -11.9317
 249   2.0000      -0.437939       -11.9169
 250   2.0000      -0.436630       -11.8813
 251   2.0000      -0.432589       -11.7714
 252   2.0000      -0.432236       -11.7617
 253   2.0000      -0.430847       -11.7239
 254   2.0000      -0.428923       -11.6716
 255   2.0000      -0.427825       -11.6417
 256   2.0000      -0.424409       -11.5488
 257   2.0000      -0.423577       -11.5261
 258   2.0000      -0.422618       -11.5000
 259   2.0000      -0.421308       -11.4644
 260   2.0000      -0.417458       -11.3596
 261   2.0000      -0.413489       -11.2516
 262   2.0000      -0.411464       -11.1965
 263   2.0000      -0.408598       -11.1185
 264   2.0000      -0.407096       -11.0776
 265   2.0000      -0.405421       -11.0321
 266   2.0000      -0.401989       -10.9387
 267   2.0000      -0.398603       -10.8465
 268   2.0000      -0.397538       -10.8176
 269   2.0000      -0.380256       -10.3473
 270   2.0000      -0.376795       -10.2531
 271   2.0000      -0.370956       -10.0942
 272   2.0000      -0.369025       -10.0417
 273   2.0000      -0.366980        -9.9860
 274   2.0000      -0.363724        -9.8974
 275   2.0000      -0.350874        -9.5478
 276   2.0000      -0.350130        -9.5275
 277   2.0000      -0.340874        -9.2757
 278   2.0000      -0.336808        -9.1650
 279   2.0000      -0.335867        -9.1394
 280   2.0000      -0.333158        -9.0657
 281   2.0000      -0.331483        -9.0201
 282   2.0000      -0.327553        -8.9132
 283   2.0000      -0.316816        -8.6210
 284   2.0000      -0.313020        -8.5177
 285   2.0000      -0.301923        -8.2157
 286   2.0000      -0.293490        -7.9863
 287   2.0000      -0.291864        -7.9420
 288   2.0000      -0.289879        -7.8880
 289   2.0000      -0.288975        -7.8634
 290   2.0000      -0.273897        -7.4531
 291   2.0000      -0.241411        -6.5691
 292   0.0000      -0.120740        -3.2855
 293   0.0000      -0.089891        -2.4461
 294   0.0000      -0.084920        -2.3108
 295   0.0000      -0.057770        -1.5720
 296   0.0000      -0.054489        -1.4827

MULLIKEN ATOMIC CHARGES
-----------------------
   0 C :   -0.017607
   1 C :    0.034385
   2 C :    0.038515
   3 C :   -0.019759
   4 C :    0.096853
   5 C :   -0.084746
   6 C :    0.036079
   7 C :    0.014814
   8 C :   -0.083414
   9 C :    0.096068
  10 C :    0.131813
  11 O :   -0.144716
  12 C :   -0.128741
  13 C :    0.282110
  14 C :   -0.327919
  15 C :   -0.204183
  16 N :    0.158767
  17 C :   -0.170901
  18 N :    0.150772
  19 C :    0.070032
  20 C :   -0.176351
  21 C :    0.220924
  22 F :   -0.157722
  23 C :   -0.079176
  24 C :   -0.068186
  25 S :    0.190507
  26 C :   -0.041865
  27 C :   -0.078302
  28 S :    0.212060
  29 C :    0.196755
  30 F :   -0.151566
  31 C :   -0.235317
  32 S :    0.184809
  33 C :    0.167601
  34 C :   -0.032495
  35 C :   -0.036847
  36 N :   -0.076316
  37 C :    0.047634
  38 C :    0.049640
  39 N :   -0.085440
  40 C :    0.163573
  41 C :   -0.027586
  42 C :   -0.023718
  43 N :   -0.276483
  44 S :    0.546380
  45 N :   -0.274109
  46 C :   -0.237874
  47 C :    0.196479
  48 F :   -0.154231
  49 C :   -0.073423
  50 C :   -0.050272
  51 S :    0.190072
  52 C :   -0.067296
  53 C :   -0.046973
  54 S :    0.203368
  55 C :    0.197145
  56 F :   -0.156794
  57 C :   -0.148502
  58 S :    0.222987
  59 C :   -0.033182
  60 C :   -0.093348
  61 C :    0.336592
  62 C :   -0.355377
  63 C :   -0.184385
  64 N :    0.148106
  65 C :   -0.200003
  66 N :    0.153911
  67 C :    0.046302
  68 C :   -0.001635
  69 C :   -0.082195
  70 C :    0.097990
  71 C :   -0.016681
  72 C :    0.035933
  73 C :    0.036218
  74 C :   -0.018518
  75 C :    0.096343
  76 C :   -0.084739
  77 C :    0.175796
  78 O :   -0.188920
  79 H :   -0.017999
  80 H :   -0.006076
  81 H :   -0.006231
  82 H :   -0.010420
  83 H :   -0.005420
  84 H :   -0.012922
  85 H :    0.025844
  86 H :    0.024720
  87 H :    0.022071
  88 H :    0.022724
  89 H :   -0.016455
  90 H :   -0.019975
  91 H :   -0.005793
  92 H :   -0.004756
  93 H :   -0.009096
  94 H :   -0.009739
Sum of atomic charges:   -0.0000000

LOEWDIN ATOMIC CHARGES
----------------------
   0 C :   -0.009441
   1 C :   -0.014703
   2 C :   -0.013222
   3 C :   -0.006885
   4 C :   -0.004858
   5 C :    0.014206
   6 C :   -0.021010
   7 C :   -0.058502
   8 C :    0.032832
   9 C :   -0.010313
  10 C :    0.084072
  11 O :   -0.144679
  12 C :   -0.088320
  13 C :    0.065470
  14 C :   -0.136146
  15 C :   -0.018798
  16 N :   -0.050515
  17 C :   -0.017921
  18 N :   -0.052979
  19 C :    0.040942
  20 C :   -0.209116
  21 C :    0.063707
  22 F :   -0.030763
  23 C :   -0.210442
  24 C :   -0.190812
  25 S :    0.457391
  26 C :   -0.218016
  27 C :   -0.210221
  28 S :    0.439201
  29 C :    0.049148
  30 F :   -0.032716
  31 C :   -0.191004
  32 S :    0.472649
  33 C :   -0.037470
  34 C :   -0.015575
  35 C :   -0.014402
  36 N :   -0.043574
  37 C :    0.023121
  38 C :    0.022631
  39 N :   -0.043839
  40 C :   -0.041212
  41 C :   -0.045548
  42 C :   -0.046100
  43 N :   -0.280665
  44 S :    0.682255
  45 N :   -0.280939
  46 C :   -0.188177
  47 C :    0.045628
  48 F :   -0.034708
  49 C :   -0.207060
  50 C :   -0.221726
  51 S :    0.477601
  52 C :   -0.196319
  53 C :   -0.222457
  54 S :    0.426398
  55 C :    0.070368
  56 F :   -0.034512
  57 C :   -0.216256
  58 S :    0.501462
  59 C :    0.059236
  60 C :   -0.109526
  61 C :    0.076080
  62 C :   -0.142281
  63 C :   -0.016845
  64 N :   -0.057063
  65 C :   -0.024742
  66 N :   -0.048303
  67 C :   -0.024023
  68 C :   -0.055052
  69 C :    0.031083
  70 C :   -0.009355
  71 C :   -0.010343
  72 C :   -0.013239
  73 C :   -0.013894
  74 C :   -0.005011
  75 C :   -0.006147
  76 C :    0.019224
  77 C :    0.086514
  78 O :   -0.172268
  79 H :    0.031475
  80 H :    0.032335
  81 H :    0.032673
  82 H :    0.034280
  83 H :    0.038640
  84 H :    0.038910
  85 H :    0.047079
  86 H :    0.032289
  87 H :    0.031639
  88 H :    0.051212
  89 H :    0.037850
  90 H :    0.030958
  91 H :    0.032459
  92 H :    0.033090
  93 H :    0.034916
  94 H :    0.038990

  Mayer bond orders larger than 0.100000
B(  0-C ,  1-C ) :   1.4886 B(  0-C ,  9-C ) :   1.2443 B(  0-C , 79-H ) :   0.9979
B(  1-C ,  2-C ) :   1.2611 B(  1-C , 80-H ) :   0.9884 B(  2-C ,  3-C ) :   1.4892
B(  2-C , 81-H ) :   0.9883 B(  3-C ,  4-C ) :   1.2409 B(  3-C , 82-H ) :   0.9976
B(  4-C ,  5-C ) :   1.2015 B(  4-C ,  9-C ) :   1.2596 B(  5-C ,  6-C ) :   1.4587
B(  5-C , 83-H ) :   0.9930 B(  6-C ,  7-C ) :   1.2156 B(  6-C , 13-C ) :   0.9970
B(  7-C ,  8-C ) :   1.4734 B(  7-C , 10-C ) :   0.9247 B(  8-C ,  9-C ) :   1.1817
B(  8-C , 84-H ) :   1.0166 B( 10-C , 11-O ) :   2.2622 B( 10-C , 12-C ) :   0.9370
B( 12-C , 13-C ) :   1.0454 B( 12-C , 19-C ) :   1.6735 B( 13-C , 14-C ) :   1.6428
B( 14-C , 15-C ) :   1.1717 B( 14-C , 17-C ) :   1.1331 B( 15-C , 16-N ) :   2.9943
B( 17-C , 18-N ) :   2.9840 B( 19-C , 20-C ) :   1.1378 B( 19-C , 85-H ) :   0.9201
B( 20-C , 21-C ) :   1.4224 B( 20-C , 25-S ) :   1.0673 B( 21-C , 22-F ) :   1.1695
B( 21-C , 23-C ) :   1.3044 B( 23-C , 24-C ) :   1.4677 B( 23-C , 28-S ) :   1.0308
B( 24-C , 25-S ) :   1.0830 B( 24-C , 26-C ) :   1.3332 B( 26-C , 27-C ) :   1.4792
B( 26-C , 32-S ) :   1.0029 B( 27-C , 28-S ) :   1.0249 B( 27-C , 29-C ) :   1.2789
B( 29-C , 30-F ) :   1.2112 B( 29-C , 31-C ) :   1.4269 B( 31-C , 32-S ) :   1.0802
B( 31-C , 33-C ) :   1.1588 B( 33-C , 34-C ) :   1.2875 B( 33-C , 40-C ) :   0.1299
B( 33-C , 42-C ) :   1.2071 B( 34-C , 35-C ) :   1.1389 B( 34-C , 39-N ) :   1.3819
B( 35-C , 36-N ) :   1.3903 B( 35-C , 40-C ) :   1.2874 B( 36-N , 37-C ) :   1.6548
B( 37-C , 38-C ) :   1.1989 B( 37-C , 86-H ) :   0.9745 B( 38-C , 39-N ) :   1.6521
B( 38-C , 87-H ) :   0.9741 B( 40-C , 41-C ) :   1.2114 B( 40-C , 46-C ) :   1.1528
B( 41-C , 42-C ) :   1.0911 B( 41-C , 45-N ) :   1.5228 B( 42-C , 43-N ) :   1.5215
B( 43-N , 44-S ) :   1.2934 B( 43-N , 45-N ) :   0.1545 B( 44-S , 45-N ) :   1.2923
B( 46-C , 47-C ) :   1.4224 B( 46-C , 51-S ) :   1.0877 B( 47-C , 48-F ) :   1.2075
B( 47-C , 49-C ) :   1.2852 B( 49-C , 50-C ) :   1.4680 B( 49-C , 54-S ) :   1.0192
B( 50-C , 51-S ) :   1.0092 B( 50-C , 52-C ) :   1.3410 B( 52-C , 53-C ) :   1.4067
B( 52-C , 58-S ) :   1.0514 B( 53-C , 54-S ) :   1.0104 B( 53-C , 55-C ) :   1.3451
B( 55-C , 56-F ) :   1.1696 B( 55-C , 57-C ) :   1.3638 B( 57-C , 58-S ) :   1.0492
B( 57-C , 59-C ) :   1.2657 B( 59-C , 60-C ) :   1.4905 B( 59-C , 88-H ) :   0.9344
B( 60-C , 61-C ) :   1.0783 B( 60-C , 77-C ) :   0.9810 B( 61-C , 62-C ) :   1.6227
B( 61-C , 67-C ) :   0.9820 B( 62-C , 63-C ) :   1.1499 B( 62-C , 65-C ) :   1.1440
B( 63-C , 64-N ) :   2.9617 B( 65-C , 66-N ) :   2.9626 B( 67-C , 68-C ) :   1.2160
B( 67-C , 76-C ) :   1.4549 B( 68-C , 69-C ) :   1.4669 B( 68-C , 77-C ) :   0.9618
B( 69-C , 70-C ) :   1.1770 B( 69-C , 89-H ) :   1.0166 B( 70-C , 71-C ) :   1.2434
B( 70-C , 75-C ) :   1.2592 B( 71-C , 72-C ) :   1.4881 B( 71-C , 90-H ) :   0.9975
B( 72-C , 73-C ) :   1.2614 B( 72-C , 91-H ) :   0.9886 B( 73-C , 74-C ) :   1.4874
B( 73-C , 92-H ) :   0.9881 B( 74-C , 75-C ) :   1.2422 B( 74-C , 93-H ) :   0.9972
B( 75-C , 76-C ) :   1.1999 B( 76-C , 94-H ) :   0.9898 B( 77-C , 78-O ) :   2.1119

-----------------------------------------------------------------------------
         ABSORPTION SPECTRUM VIA TRANSITION ELECTRIC DIPOLE MOMENTS
-----------------------------------------------------------------------------
State   Energy  Wavelength   fosc         T2         TX        TY        TZ
        (cm-1)    (nm)                  (au**2)     (au)      (au)      (au)
-----------------------------------------------------------------------------
   0   11204.0    892.5   1.289140066  37.87923  -5.88904   1.77928  -0.18054
   1   19610.1    509.9   0.190413079   3.19663   0.72835  -0.10780  -1.62927
   2   20380.8    490.7   1.107345268  17.88697  -4.13864   0.65319   0.57615
   3   20748.3    482.0   0.200086851   3.17477   1.04455  -0.49139   1.35728
   4   20940.5    477.5   0.053263296   0.83737   0.89441   0.05240   0.18616
   5   21496.1    465.2   0.020721897   0.31736   0.44962   0.07581  -0.33083
   6   23939.1    417.7   0.009634663   0.13250  -0.09713  -0.06462   0.34480
   7   25310.2    395.1   0.081017958   1.05381   1.02275  -0.08314   0.02957
   8   26256.8    380.9   0.009381097   0.11762  -0.21548  -0.25913   0.06358
   9   26336.5    379.7   0.017455499   0.21820   0.39895  -0.06574  -0.23392
  10   27101.8    369.0   0.046486604   0.56468  -0.32900  -0.33959   0.58406
  11   27299.8    366.3   0.061297210   0.73919  -0.78686   0.28146  -0.20204
  12   27849.7    359.1   0.137267841   1.62265  -1.04087   0.73036  -0.07617
  13   28010.9    357.0   0.155981800   1.83325   0.06217  -0.92848   0.98352
  14   28392.8    352.2   0.103415172   1.19909   0.79887  -0.03530  -0.74810
  15   28668.5    348.8   0.003187330   0.03660   0.07340  -0.08532   0.15471
  16   28760.6    347.7   0.032402272   0.37090  -0.48642  -0.16209   0.32866
  17   29043.1    344.3   0.012133729   0.13754  -0.03047  -0.28597  -0.23416
  18   29577.7    338.1   0.128635002   1.43176   0.97191  -0.35855   0.59882
  19   29646.4    337.3   0.025822251   0.28675  -0.29392   0.19557  -0.40263
  20   29732.1    336.3   0.030446085   0.33712  -0.41745   0.20429  -0.34802
  21   30272.6    330.3   0.041444017   0.45070   0.43620  -0.34576   0.37534
  22   30423.1    328.7   0.088359125   0.95614  -0.21892  -0.01641   0.95286
  23   30770.2    325.0   0.068687393   0.73489  -0.40779   0.65882  -0.36681
  24   30900.2    323.6   0.141369401   1.50615   1.07257  -0.09288  -0.58917
  25   31840.8    314.1   0.211474070   2.18650  -1.39451   0.32813   0.36631
  26   32061.7    311.9   0.261099408   2.68099  -1.17263   0.81613  -0.79990
  27   32091.1    311.6   0.039379510   0.40398   0.14750   0.46075  -0.41223
  28   32708.5    305.7   0.115874797   1.16628   0.32130   0.47768  -0.91371
  29   33187.5    301.3   0.081096764   0.80446  -0.76823   0.42268   0.18874
  30   33453.7    298.9   0.232191245   2.28495   1.23499  -0.77213  -0.40444
  31   33651.2    297.2   0.167175859   1.63549   0.18695  -0.90078   0.88834
  32   33928.1    294.7   0.483126462   4.68789   0.40633  -1.21499   1.74545
  33   34622.1    288.8   0.004900109   0.04659   0.11524  -0.09540   0.15560
  34   34782.6    287.5   0.047491083   0.44950   0.08366  -0.59957   0.28812
  35   35137.2    284.6   0.010362313   0.09709  -0.08631  -0.10434   0.28062
  36   35182.0    284.2   0.076720250   0.71790  -0.15585  -0.46414   0.69151
  37   35397.5    282.5   0.010951074   0.10185  -0.00318  -0.25406   0.19312
  38   35600.6    280.9   0.109275948   1.01052   0.67957  -0.69324   0.26099
  39   35852.7    278.9   0.030515289   0.28020   0.17959  -0.44112   0.23100
  40   36088.0    277.1   0.125580070   1.14560  -0.96251   0.46804   0.01090
  41   36225.9    276.0   0.297150566   2.70043  -0.09231  -0.79246   1.43663
  42   36290.6    275.6   0.017159381   0.15566   0.10581  -0.05615   0.37592
  43   36492.8    274.0   0.412228409   3.71883  -1.36155   1.17735  -0.69200
  44   36570.9    273.4   0.020011060   0.18014  -0.26311  -0.05863   0.32783
  45   36879.7    271.2   0.018553737   0.16562  -0.10542   0.24376  -0.30837
  46   37006.7    270.2   0.037480420   0.33343   0.54147  -0.18898  -0.06725
  47   37136.2    269.3   0.383362718   3.39851   0.35284   0.40581  -1.76333
  48   37225.3    268.6   0.225104755   1.99077   0.29694  -0.29593  -1.34723
  49   37858.2    264.1   0.065298251   0.56783   0.57983  -0.25832  -0.40607
  50   38524.6    259.6   0.012674618   0.10831  -0.01913   0.23772   0.22679
  51   38726.3    258.2   0.008527218   0.07249   0.24202   0.08007  -0.08662
  52   38859.0    257.3   0.039243075   0.33247   0.13012  -0.41763   0.37565
  53   39369.5    254.0   0.023378150   0.19549   0.42527  -0.11960   0.01829
  54   39535.5    252.9   0.047725231   0.39741   0.09724  -0.47914   0.39796
  55   39702.4    251.9   0.025866619   0.21449  -0.00365   0.29015   0.36095
  56   39764.6    251.5   0.220481038   1.82537  -1.09148   0.21006   0.76806
  57   40037.0    249.8   0.031190178   0.25647   0.41996   0.09646   0.26608
  58   40286.0    248.2   0.058499836   0.47805   0.67476  -0.13130  -0.07421

FINAL SINGLE POINT ENERGY     -5990.062775571901

DIPOLE MOMENT
-------------
                                X             Y             Z
Electronic contribution:      6.23481     -24.30911      54.57443
Nuclear contribution   :     -7.67967      27.62761     -56.38828
                        -----------------------------------------
Total Dipole Moment    :     -1.44486       3.31850      -1.81384
                        -----------------------------------------
Magnitude (a.u.)       :      4.04847
Magnitude (Debye)      :     10.29039

Rotational constants in cm-1:     0.001727     0.000157     0.000145
Rotational constants in MHz :    51.788105     4.696268     4.357848

                             ****ORCA TERMINATED NORMALLY****
TOTAL RUN TIME: 0 days 0 hours 10 minutes 43 seconds 674 msec
