                         Program Version 4.2.0 -  RELEASE  -
|  1> # ORCA input file
|  2> # SCF done       -182.780104516358          0.000523201333
|  3> ! CAM-B3LYP def2-SVP def2/J RIJCOSX Grid4 TightSCF
|  4> %maxcore 5000
|  5> %tddft
|  6>     Mode sTDDFT
|  7>     Ethresh 5.0
|  8>     maxcore 5000
|  9> end
| 10>
| 11> %pal
| 12>   nprocs 6
| 13>   end
| 14> * xyz 0 1
| 15>    C        1.91089         2.89829         4.65596
| 16>    C        1.86551         2.85315         6.02309
| 17>    C        2.68972         1.96555         6.73078
| 18>    C        3.54721         1.13509         6.06203
| 19>    C        3.61797         1.15381         4.65438
| 20>    C        4.49438         0.29043         3.95808
| 21>    C        4.53589         0.33704         2.59120
| 22>    C        3.71386         1.25820         1.87719
| 23>    C        2.85180         2.09577         2.52449
| 24>    C        2.78301         2.05820         3.93589
| 25>    C        3.98344         1.13614         0.43246
| 26>    O        3.44206         1.71019        -0.48311
| 27>    C        5.13726         0.19401         0.33449
| 28>    C        5.30069        -0.44203         1.62592
| 29>    C        5.82468        -1.68864         1.85039
| 30>    C        6.31753        -2.51766         0.82229
| 31>    N        6.69605        -3.22714         0.00269
| 32>    C        5.85342        -2.30918         3.11524
| 33>    N        5.91695        -2.84802         4.12673
| 34>    C        5.87817         0.14303        -0.80364
| 35>    C        7.20633        -0.32208        -0.96677
| 36>    C        7.80556        -0.71319        -2.15260
| 37>    C        9.13303        -1.09408        -1.97318
| 38>    C        9.56367        -0.94663        -0.63972
| 39>    S        8.33881        -0.36441         0.38493
| 40>    C       10.91249        -1.35826        -0.54784
| 41>    C       11.34063        -1.78308        -1.81997
| 42>    C       10.23628        -1.62079        -2.75824
| 43>    C       10.24464        -1.90294        -4.09214
| 44>    C       11.38820        -2.41869        -4.73803
| 45>    N       12.32058        -2.83568        -5.25908
| 46>    C        9.11864        -1.68648        -4.91509
| 47>    N        8.21201        -1.50444        -5.59221
| 48>    C       12.65732        -2.23346        -1.82635
| 49>    C       13.24166        -2.15304        -0.56933
| 50>    S       12.13362        -1.50502         0.63115
| 51>    C       14.54193        -2.51320        -0.13919
| 52>    C       15.49802        -3.09319        -0.90840
| 53>    C       16.78350        -3.44709        -0.42600
| 54>    C       17.33038        -3.22828         0.83127
| 55>    C       18.61985        -3.73504         0.93860
| 56>    C       19.07169        -4.35140        -0.24472
| 57>    S       17.90069        -4.29148        -1.48707
| 58>    C       20.37932        -4.84411        -0.02463
| 59>    C       20.75716        -4.53663         1.30350
| 60>    C       19.67142        -3.81493         1.94257
| 61>    C       19.63817        -3.29807         3.20361
| 62>    C       20.72756        -3.36853         4.09965
| 63>    N       21.59786        -3.38555         4.84490
| 64>    C       18.50175        -2.62218         3.69722
| 65>    N       17.57582        -2.07584         4.09621
| 66>    C       22.01706        -5.01052         1.63888
| 67>    C       22.62329        -5.68247         0.58522
| 68>    S       21.59236        -5.69464        -0.85679
| 69>    C       23.88504        -6.29556         0.44894
| 70>    C       24.83238        -6.60257         1.38721
| 71>    C       26.14118        -7.15389         1.07070
| 72>    C       26.71378        -7.26183        -0.17118
| 73>    C       27.99646        -7.80217        -0.40383
| 74>    N       29.02611        -8.23511        -0.66935
| 75>    C       26.14455        -6.83973        -1.39074
| 76>    N       25.76597        -6.50993        -2.42426
| 77>    C       26.78939        -7.52143         2.32421
| 78>    C       25.92517        -7.16949         3.39801
| 79>    C       26.26383        -7.38096         4.70323
| 80>    C       27.51375        -7.96677         5.00180
| 81>    C       27.92315        -8.20421         6.32849
| 82>    C       29.13898        -8.77396         6.59326
| 83>    C       29.99768        -9.13069         5.54278
| 84>    C       29.62957        -8.91363         4.24279
| 85>    C       28.38497        -8.32797         3.93366
| 86>    C       28.00356        -8.09769         2.59164
| 87>    C       24.68827        -6.57788         2.86594
| 88>    O       23.74101        -6.20308         3.52494
| 89>    H        1.27860         3.58017         4.10647
| 90>    H        1.19465         3.50135         6.56666
| 91>    H        2.64126         1.94235         7.80910
| 92>    H        4.18122         0.44700         6.60164
| 93>    H        5.12323        -0.37977         4.52351
| 94>    H        2.22871         2.77991         1.96792
| 95>    H        5.42087         0.58372        -1.68438
| 96>    H        7.27144        -0.74763        -3.08499
| 97>    H       13.17446        -2.60155        -2.69289
| 98>    H       14.75471        -2.30885         0.90070
| 99>    H       15.29286        -3.32285        -1.94411
|100>    H       16.80946        -2.72238         1.62218
|101>    H       22.48451        -4.89815         2.59993
|102>    H       24.11466        -6.57042        -0.57400
|103>    H       25.58655        -7.10024         5.49608
|104>    H       27.25716        -7.92688         7.13242
|105>    H       29.44559        -8.95271         7.61301
|106>    H       30.95372        -9.57853         5.76899
|107>    H       30.28820        -9.18576         3.43108
|108>    H       28.68553        -8.38764         1.80849
|109> *
|110>
|111>                          ****END OF INPUT****

CARTESIAN COORDINATES (ANGSTROEM)
---------------------------------
  C      1.910890    2.898290    4.655960
  C      1.865510    2.853150    6.023090
  C      2.689720    1.965550    6.730780
  C      3.547210    1.135090    6.062030
  C      3.617970    1.153810    4.654380
  C      4.494380    0.290430    3.958080
  C      4.535890    0.337040    2.591200
  C      3.713860    1.258200    1.877190
  C      2.851800    2.095770    2.524490
  C      2.783010    2.058200    3.935890
  C      3.983440    1.136140    0.432460
  O      3.442060    1.710190   -0.483110
  C      5.137260    0.194010    0.334490
  C      5.300690   -0.442030    1.625920
  C      5.824680   -1.688640    1.850390
  C      6.317530   -2.517660    0.822290
  N      6.696050   -3.227140    0.002690
  C      5.853420   -2.309180    3.115240
  N      5.916950   -2.848020    4.126730
  C      5.878170    0.143030   -0.803640
  C      7.206330   -0.322080   -0.966770
  C      7.805560   -0.713190   -2.152600
  C      9.133030   -1.094080   -1.973180
  C      9.563670   -0.946630   -0.639720
  S      8.338810   -0.364410    0.384930
  C     10.912490   -1.358260   -0.547840
  C     11.340630   -1.783080   -1.819970
  C     10.236280   -1.620790   -2.758240
  C     10.244640   -1.902940   -4.092140
  C     11.388200   -2.418690   -4.738030
  N     12.320580   -2.835680   -5.259080
  C      9.118640   -1.686480   -4.915090
  N      8.212010   -1.504440   -5.592210
  C     12.657320   -2.233460   -1.826350
  C     13.241660   -2.153040   -0.569330
  S     12.133620   -1.505020    0.631150
  C     14.541930   -2.513200   -0.139190
  C     15.498020   -3.093190   -0.908400
  C     16.783500   -3.447090   -0.426000
  C     17.330380   -3.228280    0.831270
  C     18.619850   -3.735040    0.938600
  C     19.071690   -4.351400   -0.244720
  S     17.900690   -4.291480   -1.487070
  C     20.379320   -4.844110   -0.024630
  C     20.757160   -4.536630    1.303500
  C     19.671420   -3.814930    1.942570
  C     19.638170   -3.298070    3.203610
  C     20.727560   -3.368530    4.099650
  N     21.597860   -3.385550    4.844900
  C     18.501750   -2.622180    3.697220
  N     17.575820   -2.075840    4.096210
  C     22.017060   -5.010520    1.638880
  C     22.623290   -5.682470    0.585220
  S     21.592360   -5.694640   -0.856790
  C     23.885040   -6.295560    0.448940
  C     24.832380   -6.602570    1.387210
  C     26.141180   -7.153890    1.070700
  C     26.713780   -7.261830   -0.171180
  C     27.996460   -7.802170   -0.403830
  N     29.026110   -8.235110   -0.669350
  C     26.144550   -6.839730   -1.390740
  N     25.765970   -6.509930   -2.424260
  C     26.789390   -7.521430    2.324210
  C     25.925170   -7.169490    3.398010
  C     26.263830   -7.380960    4.703230
  C     27.513750   -7.966770    5.001800
  C     27.923150   -8.204210    6.328490
  C     29.138980   -8.773960    6.593260
  C     29.997680   -9.130690    5.542780
  C     29.629570   -8.913630    4.242790
  C     28.384970   -8.327970    3.933660
  C     28.003560   -8.097690    2.591640
  C     24.688270   -6.577880    2.865940
  O     23.741010   -6.203080    3.524940
  H      1.278600    3.580170    4.106470
  H      1.194650    3.501350    6.566660
  H      2.641260    1.942350    7.809100
  H      4.181220    0.447000    6.601640
  H      5.123230   -0.379770    4.523510
  H      2.228710    2.779910    1.967920
  H      5.420870    0.583720   -1.684380
  H      7.271440   -0.747630   -3.084990
  H     13.174460   -2.601550   -2.692890
  H     14.754710   -2.308850    0.900700
  H     15.292860   -3.322850   -1.944110
  H     16.809460   -2.722380    1.622180
  H     22.484510   -4.898150    2.599930
  H     24.114660   -6.570420   -0.574000
  H     25.586550   -7.100240    5.496080
  H     27.257160   -7.926880    7.132420
  H     29.445590   -8.952710    7.613010
  H     30.953720   -9.578530    5.768990
  H     30.288200   -9.185760    3.431080
  H     28.685530   -8.387640    1.808490

 Total Charge           Charge          ....    0
 Multiplicity           Mult            ....    1
 Number of Electrons    NEL             ....  516
 Basis Dimension        Dim             .... 1152

ORBITAL ENERGIES
----------------

  NO   OCC          E(Eh)            E(eV)
   0   2.0000     -89.000426     -2421.8247
   1   2.0000     -88.999705     -2421.8051
   2   2.0000     -88.999040     -2421.7870
   3   2.0000     -88.998524     -2421.7730
   4   2.0000     -19.217459      -522.9337
   5   2.0000     -19.217448      -522.9333
   6   2.0000     -14.437967      -392.8771
   7   2.0000     -14.437964      -392.8770
   8   2.0000     -14.436202      -392.8290
   9   2.0000     -14.432602      -392.7311
  10   2.0000     -14.419686      -392.3796
  11   2.0000     -14.419148      -392.3650
  12   2.0000     -14.417053      -392.3080
  13   2.0000     -14.413002      -392.1977
  14   2.0000     -10.372725      -282.2562
  15   2.0000     -10.372305      -282.2448
  16   2.0000     -10.369665      -282.1729
  17   2.0000     -10.368954      -282.1536
  18   2.0000     -10.360431      -281.9217
  19   2.0000     -10.358894      -281.8798
  20   2.0000     -10.350097      -281.6404
  21   2.0000     -10.348098      -281.5861
  22   2.0000     -10.347718      -281.5757
  23   2.0000     -10.346278      -281.5366
  24   2.0000     -10.341126      -281.3963
  25   2.0000     -10.340497      -281.3792
  26   2.0000     -10.340480      -281.3788
  27   2.0000     -10.340145      -281.3696
  28   2.0000     -10.338276      -281.3188
  29   2.0000     -10.338228      -281.3175
  30   2.0000     -10.338076      -281.3134
  31   2.0000     -10.336899      -281.2813
  32   2.0000     -10.335981      -281.2563
  33   2.0000     -10.331978      -281.1474
  34   2.0000     -10.331663      -281.1389
  35   2.0000     -10.330473      -281.1065
  36   2.0000     -10.328563      -281.0545
  37   2.0000     -10.328370      -281.0492
  38   2.0000     -10.322125      -280.8793
  39   2.0000     -10.321129      -280.8522
  40   2.0000     -10.320150      -280.8256
  41   2.0000     -10.317773      -280.7609
  42   2.0000     -10.317384      -280.7503
  43   2.0000     -10.317239      -280.7463
  44   2.0000     -10.316289      -280.7205
  45   2.0000     -10.313848      -280.6541
  46   2.0000     -10.313134      -280.6346
  47   2.0000     -10.312117      -280.6070
  48   2.0000     -10.311896      -280.6009
  49   2.0000     -10.310953      -280.5753
  50   2.0000     -10.310529      -280.5638
  51   2.0000     -10.308514      -280.5089
  52   2.0000     -10.307168      -280.4723
  53   2.0000     -10.303327      -280.3678
  54   2.0000     -10.302192      -280.3369
  55   2.0000     -10.301634      -280.3217
  56   2.0000     -10.301170      -280.3091
  57   2.0000     -10.300830      -280.2998
  58   2.0000     -10.300554      -280.2923
  59   2.0000     -10.300384      -280.2877
  60   2.0000     -10.296555      -280.1835
  61   2.0000     -10.296298      -280.1765
  62   2.0000     -10.295606      -280.1577
  63   2.0000     -10.294947      -280.1398
  64   2.0000     -10.293101      -280.0895
  65   2.0000     -10.289400      -279.9888
  66   2.0000     -10.288991      -279.9777
  67   2.0000     -10.288765      -279.9715
  68   2.0000     -10.288348      -279.9602
  69   2.0000     -10.286909      -279.9210
  70   2.0000     -10.285655      -279.8869
  71   2.0000     -10.284951      -279.8677
  72   2.0000     -10.284790      -279.8634
  73   2.0000     -10.284299      -279.8500
  74   2.0000      -8.094954      -220.2749
  75   2.0000      -8.094484      -220.2621
  76   2.0000      -8.093315      -220.2303
  77   2.0000      -8.093203      -220.2273
  78   2.0000      -6.064140      -165.0136
  79   2.0000      -6.063612      -164.9993
  80   2.0000      -6.062595      -164.9716
  81   2.0000      -6.062311      -164.9639
  82   2.0000      -6.060006      -164.9011
  83   2.0000      -6.059512      -164.8877
  84   2.0000      -6.058327      -164.8555
  85   2.0000      -6.058186      -164.8516
  86   2.0000      -6.057446      -164.8315
  87   2.0000      -6.056984      -164.8189
  88   2.0000      -6.055750      -164.7853
  89   2.0000      -6.055696      -164.7839
  90   2.0000      -1.133094       -30.8331
  91   2.0000      -1.133023       -30.8311
  92   2.0000      -1.055002       -28.7081
  93   2.0000      -1.054153       -28.6850
  94   2.0000      -1.029539       -28.0152
  95   2.0000      -1.028142       -27.9772
  96   2.0000      -1.023661       -27.8552
  97   2.0000      -1.018464       -27.7138
  98   2.0000      -1.014670       -27.6106
  99   2.0000      -1.012275       -27.5454
 100   2.0000      -1.009237       -27.4627
 101   2.0000      -1.006773       -27.3957
 102   2.0000      -1.002104       -27.2686
 103   2.0000      -0.998332       -27.1660
 104   2.0000      -0.997292       -27.1377
 105   2.0000      -0.993142       -27.0248
 106   2.0000      -0.976590       -26.5744
 107   2.0000      -0.972672       -26.4677
 108   2.0000      -0.968769       -26.3616
 109   2.0000      -0.966249       -26.2930
 110   2.0000      -0.937337       -25.5062
 111   2.0000      -0.931026       -25.3345
 112   2.0000      -0.926046       -25.1990
 113   2.0000      -0.921111       -25.0647
 114   2.0000      -0.910404       -24.7734
 115   2.0000      -0.901303       -24.5257
 116   2.0000      -0.894841       -24.3499
 117   2.0000      -0.885314       -24.0906
 118   2.0000      -0.881526       -23.9875
 119   2.0000      -0.881057       -23.9748
 120   2.0000      -0.878669       -23.9098
 121   2.0000      -0.872210       -23.7340
 122   2.0000      -0.865547       -23.5527
 123   2.0000      -0.864681       -23.5292
 124   2.0000      -0.860399       -23.4127
 125   2.0000      -0.831741       -22.6328
 126   2.0000      -0.829918       -22.5832
 127   2.0000      -0.827189       -22.5090
 128   2.0000      -0.814315       -22.1586
 129   2.0000      -0.803745       -21.8710
 130   2.0000      -0.786414       -21.3994
 131   2.0000      -0.783794       -21.3281
 132   2.0000      -0.771688       -20.9987
 133   2.0000      -0.763238       -20.7688
 134   2.0000      -0.761741       -20.7280
 135   2.0000      -0.751353       -20.4454
 136   2.0000      -0.726479       -19.7685
 137   2.0000      -0.721151       -19.6235
 138   2.0000      -0.712606       -19.3910
 139   2.0000      -0.707370       -19.2485
 140   2.0000      -0.704706       -19.1760
 141   2.0000      -0.704135       -19.1605
 142   2.0000      -0.700146       -19.0520
 143   2.0000      -0.696596       -18.9553
 144   2.0000      -0.692455       -18.8427
 145   2.0000      -0.689372       -18.7588
 146   2.0000      -0.681015       -18.5313
 147   2.0000      -0.679825       -18.4990
 148   2.0000      -0.670319       -18.2403
 149   2.0000      -0.664995       -18.0954
 150   2.0000      -0.653704       -17.7882
 151   2.0000      -0.645897       -17.5757
 152   2.0000      -0.639738       -17.4081
 153   2.0000      -0.637037       -17.3347
 154   2.0000      -0.634282       -17.2597
 155   2.0000      -0.626711       -17.0537
 156   2.0000      -0.626313       -17.0428
 157   2.0000      -0.622924       -16.9506
 158   2.0000      -0.616517       -16.7763
 159   2.0000      -0.610971       -16.6254
 160   2.0000      -0.607048       -16.5186
 161   2.0000      -0.604819       -16.4580
 162   2.0000      -0.597885       -16.2693
 163   2.0000      -0.595614       -16.2075
 164   2.0000      -0.580910       -15.8074
 165   2.0000      -0.576243       -15.6804
 166   2.0000      -0.563859       -15.3434
 167   2.0000      -0.560264       -15.2456
 168   2.0000      -0.557178       -15.1616
 169   2.0000      -0.556321       -15.1383
 170   2.0000      -0.552008       -15.0209
 171   2.0000      -0.549952       -14.9649
 172   2.0000      -0.549395       -14.9498
 173   2.0000      -0.545946       -14.8559
 174   2.0000      -0.543130       -14.7793
 175   2.0000      -0.540270       -14.7015
 176   2.0000      -0.537354       -14.6221
 177   2.0000      -0.535265       -14.5653
 178   2.0000      -0.529408       -14.4059
 179   2.0000      -0.525636       -14.3033
 180   2.0000      -0.523024       -14.2322
 181   2.0000      -0.521270       -14.1845
 182   2.0000      -0.518833       -14.1182
 183   2.0000      -0.516139       -14.0448
 184   2.0000      -0.515189       -14.0190
 185   2.0000      -0.514422       -13.9981
 186   2.0000      -0.512499       -13.9458
 187   2.0000      -0.511136       -13.9087
 188   2.0000      -0.509618       -13.8674
 189   2.0000      -0.507991       -13.8231
 190   2.0000      -0.506701       -13.7880
 191   2.0000      -0.504501       -13.7282
 192   2.0000      -0.502082       -13.6623
 193   2.0000      -0.497947       -13.5498
 194   2.0000      -0.496908       -13.5215
 195   2.0000      -0.495197       -13.4750
 196   2.0000      -0.492651       -13.4057
 197   2.0000      -0.492121       -13.3913
 198   2.0000      -0.485557       -13.2127
 199   2.0000      -0.483909       -13.1678
 200   2.0000      -0.479256       -13.0412
 201   2.0000      -0.478749       -13.0274
 202   2.0000      -0.469737       -12.7822
 203   2.0000      -0.468363       -12.7448
 204   2.0000      -0.467868       -12.7313
 205   2.0000      -0.467110       -12.7107
 206   2.0000      -0.464430       -12.6378
 207   2.0000      -0.464069       -12.6280
 208   2.0000      -0.461263       -12.5516
 209   2.0000      -0.458114       -12.4659
 210   2.0000      -0.454666       -12.3721
 211   2.0000      -0.453962       -12.3529
 212   2.0000      -0.450858       -12.2685
 213   2.0000      -0.450021       -12.2457
 214   2.0000      -0.449553       -12.2330
 215   2.0000      -0.448966       -12.2170
 216   2.0000      -0.447352       -12.1731
 217   2.0000      -0.447026       -12.1642
 218   2.0000      -0.445682       -12.1276
 219   2.0000      -0.444907       -12.1065
 220   2.0000      -0.444039       -12.0829
 221   2.0000      -0.443074       -12.0567
 222   2.0000      -0.442731       -12.0473
 223   2.0000      -0.439305       -11.9541
 224   2.0000      -0.437624       -11.9084
 225   2.0000      -0.435653       -11.8547
 226   2.0000      -0.433252       -11.7894
 227   2.0000      -0.433196       -11.7879
 228   2.0000      -0.432727       -11.7751
 229   2.0000      -0.431996       -11.7552
 230   2.0000      -0.430190       -11.7061
 231   2.0000      -0.430039       -11.7019
 232   2.0000      -0.425846       -11.5879
 233   2.0000      -0.420958       -11.4549
 234   2.0000      -0.418983       -11.4011
 235   2.0000      -0.413042       -11.2395
 236   2.0000      -0.408674       -11.1206
 237   2.0000      -0.407949       -11.1009
 238   2.0000      -0.404944       -11.0191
 239   2.0000      -0.403547       -10.9811
 240   2.0000      -0.388811       -10.5801
 241   2.0000      -0.381128       -10.3710
 242   2.0000      -0.375705       -10.2235
 243   2.0000      -0.368423       -10.0253
 244   2.0000      -0.358777        -9.7628
 245   2.0000      -0.357398        -9.7253
 246   2.0000      -0.350069        -9.5259
 247   2.0000      -0.340232        -9.2582
 248   2.0000      -0.337683        -9.1888
 249   2.0000      -0.331555        -9.0221
 250   2.0000      -0.329779        -8.9737
 251   2.0000      -0.322361        -8.7719
 252   2.0000      -0.318020        -8.6538
 253   2.0000      -0.313789        -8.5386
 254   2.0000      -0.298694        -8.1279
 255   2.0000      -0.294259        -8.0072
 256   2.0000      -0.282874        -7.6974
 257   2.0000      -0.252474        -6.8702
 258   0.0000      -0.123137        -3.3507
 259   0.0000      -0.112336        -3.0568
 260   0.0000      -0.093824        -2.5531
 261   0.0000      -0.091670        -2.4945
 262   0.0000      -0.063933        -1.7397

MULLIKEN ATOMIC CHARGES
-----------------------
   0 C :   -0.014928
   1 C :    0.035703
   2 C :    0.033908
   3 C :   -0.016039
   4 C :    0.093299
   5 C :   -0.078093
   6 C :    0.034665
   7 C :    0.013516
   8 C :   -0.078545
   9 C :    0.092149
  10 C :    0.140972
  11 O :   -0.137186
  12 C :   -0.142845
  13 C :    0.240266
  14 C :   -0.328450
  15 C :   -0.201625
  16 N :    0.171901
  17 C :   -0.173279
  18 N :    0.154361
  19 C :    0.057383
  20 C :   -0.105866
  21 C :    0.017282
  22 C :    0.022831
  23 C :   -0.077970
  24 S :    0.203737
  25 C :   -0.105171
  26 C :    0.011839
  27 C :    0.300433
  28 C :   -0.291704
  29 C :   -0.183416
  30 N :    0.171099
  31 C :   -0.189952
  32 N :    0.180807
  33 C :   -0.032575
  34 C :   -0.073594
  35 S :    0.207005
  36 C :    0.049114
  37 C :    0.043317
  38 C :   -0.073492
  39 C :   -0.039020
  40 C :    0.012934
  41 C :   -0.108920
  42 S :    0.208389
  43 C :   -0.078598
  44 C :   -0.015845
  45 C :    0.314804
  46 C :   -0.299682
  47 C :   -0.189253
  48 N :    0.196130
  49 C :   -0.185715
  50 N :    0.166009
  51 C :    0.007976
  52 C :   -0.115284
  53 S :    0.207915
  54 C :    0.031051
  55 C :   -0.090145
  56 C :    0.318987
  57 C :   -0.362034
  58 C :   -0.183263
  59 N :    0.148995
  60 C :   -0.194333
  61 N :    0.151996
  62 C :    0.047733
  63 C :   -0.004742
  64 C :   -0.077452
  65 C :    0.096763
  66 C :   -0.015102
  67 C :    0.034622
  68 C :    0.038131
  69 C :   -0.018579
  70 C :    0.095418
  71 C :   -0.080773
  72 C :    0.155660
  73 O :   -0.153856
  74 H :   -0.015874
  75 H :   -0.003994
  76 H :   -0.001826
  77 H :   -0.010383
  78 H :   -0.004848
  79 H :   -0.009757
  80 H :    0.034126
  81 H :    0.018257
  82 H :    0.008511
  83 H :   -0.003963
  84 H :   -0.004315
  85 H :    0.009015
  86 H :    0.038756
  87 H :    0.010739
  88 H :   -0.010127
  89 H :   -0.016691
  90 H :   -0.005103
  91 H :   -0.005586
  92 H :   -0.009104
  93 H :   -0.009608
Sum of atomic charges:   -0.0000000

LOEWDIN ATOMIC CHARGES
----------------------
   0 C :   -0.008728
   1 C :   -0.012135
   2 C :   -0.012332
   3 C :   -0.006343
   4 C :   -0.005320
   5 C :    0.016043
   6 C :   -0.023722
   7 C :   -0.057088
   8 C :    0.033469
   9 C :   -0.008717
  10 C :    0.083128
  11 O :   -0.140376
  12 C :   -0.097679
  13 C :    0.059340
  14 C :   -0.145145
  15 C :   -0.035238
  16 N :   -0.049442
  17 C :   -0.019998
  18 N :   -0.050487
  19 C :    0.050373
  20 C :   -0.177720
  21 C :    0.014728
  22 C :   -0.072552
  23 C :   -0.151463
  24 S :    0.508944
  25 C :   -0.191117
  26 C :   -0.052260
  27 C :    0.080827
  28 C :   -0.096620
  29 C :   -0.014700
  30 N :   -0.032448
  31 C :   -0.017661
  32 N :   -0.024998
  33 C :   -0.025402
  34 C :   -0.155173
  35 S :    0.491656
  36 C :   -0.032034
  37 C :   -0.034495
  38 C :   -0.153066
  39 C :   -0.029566
  40 C :   -0.050363
  41 C :   -0.195143
  42 S :    0.488026
  43 C :   -0.156789
  44 C :   -0.077077
  45 C :    0.076687
  46 C :   -0.094335
  47 C :   -0.022458
  48 N :   -0.014387
  49 C :   -0.013164
  50 N :   -0.035079
  51 C :    0.020223
  52 C :   -0.176627
  53 S :    0.496459
  54 C :    0.042108
  55 C :   -0.095381
  56 C :    0.077313
  57 C :   -0.144149
  58 C :   -0.017150
  59 N :   -0.055299
  60 C :   -0.024128
  61 N :   -0.055707
  62 C :   -0.026655
  63 C :   -0.055496
  64 C :    0.033608
  65 C :   -0.008199
  66 C :   -0.009083
  67 C :   -0.012164
  68 C :   -0.013421
  69 C :   -0.005476
  70 C :   -0.006365
  71 C :    0.019599
  72 C :    0.086203
  73 O :   -0.139876
  74 H :    0.032302
  75 H :    0.033213
  76 H :    0.033898
  77 H :    0.034348
  78 H :    0.038624
  79 H :    0.039988
  80 H :    0.054947
  81 H :    0.047604
  82 H :    0.040052
  83 H :    0.033012
  84 H :    0.033673
  85 H :    0.038965
  86 H :    0.043940
  87 H :    0.042796
  88 H :    0.040182
  89 H :    0.032338
  90 H :    0.032759
  91 H :    0.033024
  92 H :    0.034776
  93 H :    0.038820

  Mayer bond orders larger than 0.100000
B(  0-C ,  1-C ) :   1.4920 B(  0-C ,  9-C ) :   1.2450 B(  0-C , 74-H ) :   0.9974
B(  1-C ,  2-C ) :   1.2609 B(  1-C , 75-H ) :   0.9883 B(  2-C ,  3-C ) :   1.4910
B(  2-C , 76-H ) :   0.9878 B(  3-C ,  4-C ) :   1.2421 B(  3-C , 77-H ) :   0.9970
B(  4-C ,  5-C ) :   1.2053 B(  4-C ,  9-C ) :   1.2573 B(  5-C ,  6-C ) :   1.4612
B(  5-C , 78-H ) :   0.9939 B(  6-C ,  7-C ) :   1.2147 B(  6-C , 13-C ) :   1.0033
B(  7-C ,  8-C ) :   1.4768 B(  7-C , 10-C ) :   0.9201 B(  8-C ,  9-C ) :   1.1877
B(  8-C , 79-H ) :   1.0154 B( 10-C , 11-O ) :   2.2809 B( 10-C , 12-C ) :   0.9330
B( 12-C , 13-C ) :   1.0342 B( 12-C , 19-C ) :   1.6504 B( 13-C , 14-C ) :   1.6538
B( 14-C , 15-C ) :   1.1524 B( 14-C , 17-C ) :   1.1368 B( 15-C , 16-N ) :   3.0181
B( 17-C , 18-N ) :   2.9904 B( 19-C , 20-C ) :   1.1275 B( 19-C , 80-H ) :   0.9491
B( 20-C , 21-C ) :   1.4098 B( 20-C , 24-S ) :   1.0877 B( 21-C , 22-C ) :   1.2990
B( 21-C , 81-H ) :   1.0009 B( 22-C , 23-C ) :   1.4031 B( 22-C , 27-C ) :   0.9975
B( 23-C , 24-S ) :   1.1546 B( 23-C , 25-C ) :   1.2126 B( 25-C , 26-C ) :   1.4220
B( 25-C , 35-S ) :   1.1195 B( 26-C , 27-C ) :   0.9947 B( 26-C , 33-C ) :   1.3233
B( 27-C , 28-C ) :   1.7167 B( 28-C , 29-C ) :   1.1361 B( 28-C , 31-C ) :   1.1317
B( 29-C , 30-N ) :   2.9866 B( 31-C , 32-N ) :   2.9956 B( 33-C , 34-C ) :   1.4358
B( 33-C , 82-H ) :   0.9896 B( 34-C , 35-S ) :   1.1190 B( 34-C , 36-C ) :   1.1339
B( 36-C , 37-C ) :   1.6978 B( 36-C , 83-H ) :   0.9543 B( 37-C , 38-C ) :   1.1324
B( 37-C , 84-H ) :   0.9623 B( 38-C , 39-C ) :   1.4352 B( 38-C , 42-S ) :   1.1194
B( 39-C , 40-C ) :   1.3229 B( 39-C , 85-H ) :   0.9868 B( 40-C , 41-C ) :   1.4215
B( 40-C , 45-C ) :   0.9956 B( 41-C , 42-S ) :   1.1117 B( 41-C , 43-C ) :   1.2117
B( 43-C , 44-C ) :   1.3774 B( 43-C , 53-S ) :   1.1677 B( 44-C , 45-C ) :   0.9992
B( 44-C , 51-C ) :   1.3228 B( 45-C , 46-C ) :   1.7143 B( 46-C , 47-C ) :   1.1345
B( 46-C , 49-C ) :   1.1379 B( 47-C , 48-N ) :   2.9983 B( 49-C , 50-N ) :   2.9826
B( 51-C , 52-C ) :   1.3996 B( 51-C , 86-H ) :   0.9699 B( 52-C , 53-S ) :   1.0743
B( 52-C , 54-C ) :   1.2141 B( 54-C , 55-C ) :   1.5893 B( 54-C , 87-H ) :   0.9138
B( 55-C , 56-C ) :   1.0818 B( 55-C , 72-C ) :   0.9366 B( 56-C , 57-C ) :   1.6189
B( 56-C , 62-C ) :   0.9842 B( 57-C , 58-C ) :   1.1514 B( 57-C , 60-C ) :   1.1409
B( 58-C , 59-N ) :   2.9625 B( 60-C , 61-N ) :   2.9731 B( 62-C , 63-C ) :   1.2154
B( 62-C , 71-C ) :   1.4473 B( 63-C , 64-C ) :   1.4714 B( 63-C , 72-C ) :   0.9527
B( 64-C , 65-C ) :   1.1753 B( 64-C , 88-H ) :   1.0165 B( 65-C , 66-C ) :   1.2436
B( 65-C , 70-C ) :   1.2581 B( 66-C , 67-C ) :   1.4878 B( 66-C , 89-H ) :   0.9979
B( 67-C , 68-C ) :   1.2608 B( 67-C , 90-H ) :   0.9890 B( 68-C , 69-C ) :   1.4882
B( 68-C , 91-H ) :   0.9880 B( 69-C , 70-C ) :   1.2392 B( 69-C , 92-H ) :   0.9973
B( 70-C , 71-C ) :   1.2056 B( 71-C , 93-H ) :   0.9893 B( 72-C , 73-O ) :   2.1748

-----------------------------------------------------------------------------
         ABSORPTION SPECTRUM VIA TRANSITION ELECTRIC DIPOLE MOMENTS
-----------------------------------------------------------------------------
State   Energy  Wavelength   fosc         T2         TX        TY        TZ
        (cm-1)    (nm)                  (au**2)     (au)      (au)      (au)
-----------------------------------------------------------------------------
   0   12075.0    828.2   0.758976241  20.69273   4.33160  -1.37923   0.16645
   1   13459.8    743.0   0.024198929   0.59188   0.58206  -0.35332   0.35812
   2   18951.8    527.7   1.605359930  27.88673  -5.03061   1.48668   0.60786
   3   20880.6    478.9   0.493703081   7.78392   2.03287  -1.35462   1.34772
   4   21514.5    464.8   0.005731734   0.08771  -0.17319   0.23517  -0.04905
   5   23392.3    427.5   0.009605829   0.13519   0.20189   0.11018  -0.28686
   6   25031.2    399.5   0.074507187   0.97992  -0.11908   0.40555   0.89514
   7   25248.8    396.1   0.025391922   0.33108   0.37346  -0.24021   0.36593
   8   26621.0    375.6   0.342670515   4.23768   1.68447  -0.61170   1.01295
   9   27321.6    366.0   0.011629756   0.14013  -0.18858  -0.03754  -0.32119
  10   27532.0    363.2   0.132554204   1.58501  -0.84587   0.63019  -0.68729
  11   28315.4    353.2   0.023577954   0.27413   0.06680  -0.25783   0.45077
  12   28423.8    351.8   0.021813489   0.25265  -0.42121   0.11881   0.24721
  13   28543.2    350.3   0.018591400   0.21443   0.26421  -0.04235   0.37793
  14   29016.1    344.6   0.059439632   0.67439   0.33093  -0.34105  -0.66975
  15   29153.9    343.0   0.000643999   0.00727  -0.05220   0.06212  -0.02623
  16   29561.8    338.3   0.051044238   0.56845  -0.52845  -0.19554   0.50095
  17   30121.4    332.0   0.218551444   2.38866  -0.45194  -0.39521  -1.42415
  18   30322.6    329.8   0.491849842   5.34000  -0.20104  -0.11541  -2.29919
  19   30367.2    329.3   0.325173297   3.52522   1.24277  -1.05995  -0.92588
  20   30755.7    325.1   0.106013397   1.13478   0.39571  -0.74689  -0.64834
  21   31133.0    321.2   0.321245995   3.39697   1.35969  -0.78314  -0.96691
  22   31437.6    318.1   0.274677448   2.87640   0.65138  -0.56658  -1.45982
  23   32146.4    311.1   0.054200076   0.55506   0.13769   0.37521   0.62874
  24   32416.2    308.5   0.160804042   1.63309   0.87849  -0.46471   0.80336
  25   32505.3    307.6   0.108853217   1.10246  -0.44615  -0.01901  -0.95029
  26   32861.4    304.3   0.185137637   1.85475  -1.14914   0.55215   0.47891
  27   33165.4    301.5   0.228684053   2.27000   1.01224  -0.23518   1.09090
  28   33227.8    301.0   0.018404097   0.18234   0.18699  -0.30799  -0.22917
  29   33532.6    298.2   0.049162892   0.48266  -0.41556   0.30197   0.46775
  30   34204.2    292.4   0.079639734   0.76652  -0.26953   0.48075   0.68026
  31   34265.1    291.8   0.077342313   0.74309  -0.44445   0.65810  -0.33535
  32   34465.8    290.1   0.379794009   3.62773   0.32042  -0.27146   1.85779
  33   34816.8    287.2   0.336508049   3.18187   0.50176  -0.66076  -1.57908
  34   34874.9    286.7   0.176409608   1.66527  -0.76214   0.82575  -0.63447
  35   34995.3    285.8   0.183371838   1.72504   0.35015  -0.71291  -1.04604
  36   35377.5    282.7   0.293417594   2.73045   0.39970  -0.82312  -1.37593
  37   35818.8    279.2   0.010020028   0.09209   0.23506  -0.18425  -0.05379
  38   36346.3    275.1   0.017286750   0.15658   0.08095  -0.25054  -0.29539
  39   36524.1    273.8   0.099406950   0.89601  -0.64777   0.69001   0.01720
  40   36718.5    272.3   0.053590793   0.48049   0.41033  -0.42275  -0.36523
  41   37116.5    269.4   0.041644351   0.36937  -0.12782  -0.03153  -0.59333
  42   37414.8    267.3   0.024664993   0.21703  -0.31360   0.32195  -0.12259
  43   37507.2    266.6   0.075964319   0.66676   0.16134  -0.45391  -0.65932
  44   37937.1    263.6   0.038347414   0.33277  -0.02639   0.04002   0.57487
  45   37968.5    263.4   0.008155553   0.07071  -0.12920   0.19761  -0.12235
  46   38113.7    262.4   0.013051883   0.11274   0.26887  -0.05816  -0.19252
  47   38315.9    261.0   0.060496725   0.51979  -0.33101   0.17822   0.61519
  48   38720.2    258.3   0.037020299   0.31476   0.35228  -0.08796  -0.42769
  49   38880.8    257.2   0.075745577   0.64135  -0.25612   0.22890   0.72344
  50   39088.3    255.8   0.014974246   0.12612   0.28137   0.01480  -0.21617
  51   39306.4    254.4   0.085910298   0.71954  -0.61931   0.17729   0.55188
  52   39638.6    252.3   0.044748138   0.37165   0.58165   0.06022  -0.17236
  53   39962.9    250.2   0.123030666   1.01352   0.71995  -0.13960  -0.68971
  54   40182.4    248.9   0.246319462   2.01808   0.90912  -0.64845   0.87812
  55   40262.9    248.4   0.002598148   0.02124  -0.13516   0.05163  -0.01760

FINAL SINGLE POINT ENERGY     -4475.299324362852

DIPOLE MOMENT
-------------
                                X             Y             Z
Electronic contribution:     -3.08756      -0.55839     -31.15295
Nuclear contribution   :      2.25909       1.95851      33.88588
                        -----------------------------------------
Total Dipole Moment    :     -0.82846       1.40012       2.73294
                        -----------------------------------------
Magnitude (a.u.)       :      3.18051
Magnitude (Debye)      :      8.08422

Rotational constants in cm-1:     0.001863     0.000188     0.000174
Rotational constants in MHz :    55.843607     5.646619     5.207471

                             ****ORCA TERMINATED NORMALLY****
TOTAL RUN TIME: 0 days 0 hours 9 minutes 9 seconds 686 msec
