                         Program Version 4.2.0 -  RELEASE  -
|  1> # ORCA input file
|  2> # SCF done       -199.360151054833          0.000350461756
|  3> ! CAM-B3LYP def2-SVP def2/J RIJCOSX Grid4 TightSCF
|  4> %maxcore 5000
|  5> %tddft
|  6>     Mode sTDDFT
|  7>     Ethresh 5.0
|  8>     maxcore 5000
|  9> end
| 10>
| 11> %pal
| 12>   nprocs 6
| 13>   end
| 14> * xyz 0 1
| 15>    C       -1.38708        -1.15845         0.30543
| 16>    C       -2.20916        -1.24105        -0.78559
| 17>    C       -1.68385        -1.11141        -2.07996
| 18>    C       -0.34468        -0.90044        -2.26597
| 19>    C        0.53040        -0.80785        -1.16481
| 20>    C        1.91334        -0.57999        -1.35145
| 21>    C        2.73265        -0.49429        -0.25855
| 22>    C        2.19683        -0.65440         1.05309
| 23>    C        0.86433        -0.86591         1.26227
| 24>    C       -0.00355        -0.94296         0.14977
| 25>    C        3.28896        -0.57709         2.03650
| 26>    O        3.21957        -0.61201         3.24309
| 27>    C        4.54274        -0.50883         1.22461
| 28>    C        4.16571        -0.24197        -0.14860
| 29>    C        4.92778         0.37880        -1.10385
| 30>    C        6.24911         0.81580        -0.89100
| 31>    N        7.31883         1.20718        -0.74551
| 32>    C        4.44398         0.73831        -2.37967
| 33>    N        4.09920         1.05521        -3.42703
| 34>    C        5.72499        -0.78278         1.83787
| 35>    C        6.96400        -1.14872         1.26277
| 36>    C        7.22723        -1.64863        -0.00395
| 37>    C        8.57679        -1.92270        -0.18936
| 38>    C        9.35394        -1.64109         0.94936
| 39>    S        8.42057        -1.05474         2.24359
| 40>    C       10.70902        -1.94285         0.64863
| 41>    C       10.78488        -2.40263        -0.67632
| 42>    C        9.44872        -2.40837        -1.24754
| 43>    C        9.07619        -2.78336        -2.50420
| 44>    C        9.99699        -3.28415        -3.44945
| 45>    N       10.73646        -3.71894        -4.20954
| 46>    C        7.72894        -2.71747        -2.91974
| 47>    N        6.62933        -2.66429        -3.24025
| 48>    C       12.08906        -2.71651        -1.06664
| 49>    C       12.99080        -2.51761        -0.04254
| 50>    S       12.22650        -1.92224         1.42186
| 51>    C       14.40731        -2.76092        -0.07400
| 52>    C       15.16664        -3.12550         1.02670
| 53>    C       14.72749        -3.34753         2.33213
| 54>    N       14.38547        -3.55017         3.40964
| 55>    S       16.83959        -3.37802         0.63340
| 56>    C       16.54768        -2.98169        -1.03166
| 57>    C       15.20991        -2.67355        -1.24999
| 58>    C       14.71350        -2.24675        -2.49210
| 59>    N       14.31384        -1.87226        -3.50060
| 60>    C       17.63096        -3.00193        -1.95146
| 61>    C       18.93058        -3.37659        -1.64922
| 62>    C       19.76768        -3.29481        -2.75732
| 63>    C       19.09781        -2.84801        -3.91154
| 64>    S       17.44269        -2.53764        -3.63535
| 65>    C       20.03005        -2.79081        -4.97859
| 66>    C       21.28796        -3.21218        -4.49715
| 67>    C       21.16609        -3.52977        -3.08397
| 68>    C       22.14892        -3.94168        -2.23443
| 69>    C       23.49505        -4.09720        -2.63280
| 70>    N       24.59802        -4.20925        -2.92243
| 71>    C       21.88434        -4.22080        -0.87602
| 72>    N       21.66338        -4.44809         0.22573
| 73>    C       22.27470        -3.21556        -5.47526
| 74>    C       21.78927        -2.79544        -6.70572
| 75>    S       20.07646        -2.37073        -6.62458
| 76>    C       22.43925        -2.59018        -7.94383
| 77>    C       23.63890        -3.07549        -8.37811
| 78>    C       24.27893        -2.69146        -9.62626
| 79>    C       23.99079        -1.58215       -10.37795
| 80>    C       24.66761        -1.23925       -11.56762
| 81>    N       25.17398        -0.91013       -12.54369
| 82>    C       23.02047        -0.61015       -10.05493
| 83>    N       22.26689         0.23022        -9.84311
| 84>    C       25.35697        -3.63568        -9.88649
| 85>    C       25.43967        -4.53897        -8.78911
| 86>    C       26.37117        -5.53609        -8.74151
| 87>    C       27.28173        -5.67777        -9.81201
| 88>    C       28.26867        -6.68292        -9.81677
| 89>    C       29.13854        -6.80343       -10.86650
| 90>    C       29.05976        -5.92378       -11.95659
| 91>    C       28.11267        -4.93637       -11.98292
| 92>    C       27.20122        -4.78290       -10.91843
| 93>    C       26.22465        -3.76085       -10.93943
| 94>    C       24.40446        -4.21254        -7.79621
| 95>    O       24.19295        -4.80251        -6.75873
| 96>    H       -1.78579        -1.25820         1.30438
| 97>    H       -3.26822        -1.40740        -0.65716
| 98>    H       -2.34632        -1.17911        -2.92978
| 99>    H        0.06410        -0.79670        -3.26022
|100>    H        2.29442        -0.49330        -2.35700
|101>    H        0.47650        -0.97561         2.26410
|102>    H        5.68423        -0.78388         2.92322
|103>    H        6.45916        -1.84126        -0.73035
|104>    H       12.36304        -3.08923        -2.03665
|105>    H       19.23396        -3.69385        -0.66724
|106>    H       23.29629        -3.50592        -5.31739
|107>    H       21.87711        -1.97234        -8.63484
|108>    H       26.41375        -6.20521        -7.89501
|109>    H       28.32441        -7.35683        -8.97451
|110>    H       29.89180        -7.57693       -10.86270
|111>    H       29.75423        -6.03217       -12.77609
|112>    H       28.04947        -4.25579       -12.81923
|113>    H       26.18507        -3.10441       -11.79413
|114> *
|115>
|116>                          ****END OF INPUT****

CARTESIAN COORDINATES (ANGSTROEM)
---------------------------------
  C     -1.387080   -1.158450    0.305430
  C     -2.209160   -1.241050   -0.785590
  C     -1.683850   -1.111410   -2.079960
  C     -0.344680   -0.900440   -2.265970
  C      0.530400   -0.807850   -1.164810
  C      1.913340   -0.579990   -1.351450
  C      2.732650   -0.494290   -0.258550
  C      2.196830   -0.654400    1.053090
  C      0.864330   -0.865910    1.262270
  C     -0.003550   -0.942960    0.149770
  C      3.288960   -0.577090    2.036500
  O      3.219570   -0.612010    3.243090
  C      4.542740   -0.508830    1.224610
  C      4.165710   -0.241970   -0.148600
  C      4.927780    0.378800   -1.103850
  C      6.249110    0.815800   -0.891000
  N      7.318830    1.207180   -0.745510
  C      4.443980    0.738310   -2.379670
  N      4.099200    1.055210   -3.427030
  C      5.724990   -0.782780    1.837870
  C      6.964000   -1.148720    1.262770
  C      7.227230   -1.648630   -0.003950
  C      8.576790   -1.922700   -0.189360
  C      9.353940   -1.641090    0.949360
  S      8.420570   -1.054740    2.243590
  C     10.709020   -1.942850    0.648630
  C     10.784880   -2.402630   -0.676320
  C      9.448720   -2.408370   -1.247540
  C      9.076190   -2.783360   -2.504200
  C      9.996990   -3.284150   -3.449450
  N     10.736460   -3.718940   -4.209540
  C      7.728940   -2.717470   -2.919740
  N      6.629330   -2.664290   -3.240250
  C     12.089060   -2.716510   -1.066640
  C     12.990800   -2.517610   -0.042540
  S     12.226500   -1.922240    1.421860
  C     14.407310   -2.760920   -0.074000
  C     15.166640   -3.125500    1.026700
  C     14.727490   -3.347530    2.332130
  N     14.385470   -3.550170    3.409640
  S     16.839590   -3.378020    0.633400
  C     16.547680   -2.981690   -1.031660
  C     15.209910   -2.673550   -1.249990
  C     14.713500   -2.246750   -2.492100
  N     14.313840   -1.872260   -3.500600
  C     17.630960   -3.001930   -1.951460
  C     18.930580   -3.376590   -1.649220
  C     19.767680   -3.294810   -2.757320
  C     19.097810   -2.848010   -3.911540
  S     17.442690   -2.537640   -3.635350
  C     20.030050   -2.790810   -4.978590
  C     21.287960   -3.212180   -4.497150
  C     21.166090   -3.529770   -3.083970
  C     22.148920   -3.941680   -2.234430
  C     23.495050   -4.097200   -2.632800
  N     24.598020   -4.209250   -2.922430
  C     21.884340   -4.220800   -0.876020
  N     21.663380   -4.448090    0.225730
  C     22.274700   -3.215560   -5.475260
  C     21.789270   -2.795440   -6.705720
  S     20.076460   -2.370730   -6.624580
  C     22.439250   -2.590180   -7.943830
  C     23.638900   -3.075490   -8.378110
  C     24.278930   -2.691460   -9.626260
  C     23.990790   -1.582150  -10.377950
  C     24.667610   -1.239250  -11.567620
  N     25.173980   -0.910130  -12.543690
  C     23.020470   -0.610150  -10.054930
  N     22.266890    0.230220   -9.843110
  C     25.356970   -3.635680   -9.886490
  C     25.439670   -4.538970   -8.789110
  C     26.371170   -5.536090   -8.741510
  C     27.281730   -5.677770   -9.812010
  C     28.268670   -6.682920   -9.816770
  C     29.138540   -6.803430  -10.866500
  C     29.059760   -5.923780  -11.956590
  C     28.112670   -4.936370  -11.982920
  C     27.201220   -4.782900  -10.918430
  C     26.224650   -3.760850  -10.939430
  C     24.404460   -4.212540   -7.796210
  O     24.192950   -4.802510   -6.758730
  H     -1.785790   -1.258200    1.304380
  H     -3.268220   -1.407400   -0.657160
  H     -2.346320   -1.179110   -2.929780
  H      0.064100   -0.796700   -3.260220
  H      2.294420   -0.493300   -2.357000
  H      0.476500   -0.975610    2.264100
  H      5.684230   -0.783880    2.923220
  H      6.459160   -1.841260   -0.730350
  H     12.363040   -3.089230   -2.036650
  H     19.233960   -3.693850   -0.667240
  H     23.296290   -3.505920   -5.317390
  H     21.877110   -1.972340   -8.634840
  H     26.413750   -6.205210   -7.895010
  H     28.324410   -7.356830   -8.974510
  H     29.891800   -7.576930  -10.862700
  H     29.754230   -6.032170  -12.776090
  H     28.049470   -4.255790  -12.819230
  H     26.185070   -3.104410  -11.794130

 Total Charge           Charge          ....    0
 Multiplicity           Mult            ....    1
 Number of Electrons    NEL             ....  568
 Basis Dimension        Dim             .... 1244

ORBITAL ENERGIES
----------------

  NO   OCC          E(Eh)            E(eV)
   0   2.0000     -89.012958     -2422.1657
   1   2.0000     -89.010791     -2422.1068
   2   2.0000     -89.006138     -2421.9802
   3   2.0000     -89.002646     -2421.8851
   4   2.0000     -88.999815     -2421.8081
   5   2.0000     -19.223605      -523.1009
   6   2.0000     -19.216694      -522.9128
   7   2.0000     -14.443744      -393.0342
   8   2.0000     -14.439261      -392.9123
   9   2.0000     -14.435858      -392.8197
  10   2.0000     -14.435374      -392.8065
  11   2.0000     -14.433719      -392.7615
  12   2.0000     -14.432107      -392.7176
  13   2.0000     -14.421113      -392.4184
  14   2.0000     -14.419607      -392.3775
  15   2.0000     -14.418744      -392.3540
  16   2.0000     -14.414536      -392.2395
  17   2.0000     -10.379709      -282.4462
  18   2.0000     -10.375599      -282.3344
  19   2.0000     -10.372463      -282.2491
  20   2.0000     -10.371245      -282.2159
  21   2.0000     -10.368066      -282.1294
  22   2.0000     -10.366243      -282.0798
  23   2.0000     -10.360937      -281.9354
  24   2.0000     -10.358183      -281.8605
  25   2.0000     -10.355157      -281.7781
  26   2.0000     -10.354485      -281.7598
  27   2.0000     -10.353837      -281.7422
  28   2.0000     -10.351349      -281.6745
  29   2.0000     -10.348621      -281.6003
  30   2.0000     -10.347422      -281.5677
  31   2.0000     -10.345855      -281.5250
  32   2.0000     -10.345829      -281.5243
  33   2.0000     -10.345628      -281.5189
  34   2.0000     -10.344655      -281.4924
  35   2.0000     -10.344152      -281.4787
  36   2.0000     -10.343522      -281.4615
  37   2.0000     -10.341415      -281.4042
  38   2.0000     -10.338661      -281.3293
  39   2.0000     -10.338231      -281.3176
  40   2.0000     -10.335907      -281.2543
  41   2.0000     -10.334996      -281.2295
  42   2.0000     -10.334566      -281.2178
  43   2.0000     -10.333802      -281.1971
  44   2.0000     -10.333210      -281.1809
  45   2.0000     -10.332330      -281.1570
  46   2.0000     -10.328377      -281.0494
  47   2.0000     -10.327370      -281.0220
  48   2.0000     -10.326050      -280.9861
  49   2.0000     -10.323913      -280.9279
  50   2.0000     -10.321412      -280.8599
  51   2.0000     -10.320632      -280.8387
  52   2.0000     -10.320102      -280.8242
  53   2.0000     -10.316855      -280.7359
  54   2.0000     -10.316771      -280.7336
  55   2.0000     -10.315588      -280.7014
  56   2.0000     -10.315505      -280.6992
  57   2.0000     -10.314479      -280.6713
  58   2.0000     -10.312548      -280.6187
  59   2.0000     -10.309889      -280.5463
  60   2.0000     -10.307021      -280.4683
  61   2.0000     -10.304196      -280.3914
  62   2.0000     -10.303640      -280.3763
  63   2.0000     -10.301437      -280.3164
  64   2.0000     -10.301213      -280.3103
  65   2.0000     -10.300866      -280.3008
  66   2.0000     -10.300632      -280.2944
  67   2.0000     -10.298282      -280.2305
  68   2.0000     -10.298181      -280.2277
  69   2.0000     -10.297889      -280.2198
  70   2.0000     -10.297107      -280.1985
  71   2.0000     -10.292886      -280.0837
  72   2.0000     -10.290528      -280.0195
  73   2.0000     -10.289804      -279.9998
  74   2.0000     -10.289266      -279.9852
  75   2.0000     -10.289037      -279.9789
  76   2.0000     -10.288572      -279.9663
  77   2.0000     -10.286757      -279.9169
  78   2.0000     -10.286297      -279.9044
  79   2.0000     -10.285977      -279.8957
  80   2.0000     -10.285296      -279.8771
  81   2.0000      -8.106734      -220.5954
  82   2.0000      -8.105788      -220.5697
  83   2.0000      -8.100852      -220.4354
  84   2.0000      -8.096930      -220.3287
  85   2.0000      -8.094597      -220.2652
  86   2.0000      -6.076037      -165.3374
  87   2.0000      -6.075278      -165.3167
  88   2.0000      -6.071661      -165.2183
  89   2.0000      -6.070948      -165.1989
  90   2.0000      -6.069970      -165.1723
  91   2.0000      -6.069125      -165.1493
  92   2.0000      -6.067591      -165.1075
  93   2.0000      -6.066179      -165.0691
  94   2.0000      -6.065774      -165.0581
  95   2.0000      -6.063714      -165.0021
  96   2.0000      -6.063415      -164.9939
  97   2.0000      -6.061853      -164.9514
  98   2.0000      -6.059560      -164.8890
  99   2.0000      -6.059371      -164.8839
 100   2.0000      -6.057123      -164.8227
 101   2.0000      -1.139457       -31.0062
 102   2.0000      -1.132241       -30.8098
 103   2.0000      -1.065341       -28.9894
 104   2.0000      -1.057470       -28.7752
 105   2.0000      -1.050271       -28.5793
 106   2.0000      -1.034374       -28.1467
 107   2.0000      -1.027238       -27.9526
 108   2.0000      -1.023797       -27.8589
 109   2.0000      -1.021581       -27.7986
 110   2.0000      -1.020254       -27.7625
 111   2.0000      -1.018559       -27.7164
 112   2.0000      -1.016364       -27.6567
 113   2.0000      -1.012263       -27.5451
 114   2.0000      -1.008682       -27.4476
 115   2.0000      -1.006079       -27.3768
 116   2.0000      -1.003109       -27.2960
 117   2.0000      -1.000231       -27.2177
 118   2.0000      -0.998228       -27.1632
 119   2.0000      -0.994221       -27.0541
 120   2.0000      -0.978667       -26.6309
 121   2.0000      -0.974216       -26.5098
 122   2.0000      -0.972844       -26.4724
 123   2.0000      -0.966953       -26.3121
 124   2.0000      -0.939794       -25.5731
 125   2.0000      -0.932286       -25.3688
 126   2.0000      -0.927723       -25.2446
 127   2.0000      -0.923278       -25.1237
 128   2.0000      -0.912000       -24.8168
 129   2.0000      -0.910341       -24.7716
 130   2.0000      -0.901977       -24.5440
 131   2.0000      -0.897331       -24.4176
 132   2.0000      -0.888032       -24.1646
 133   2.0000      -0.884602       -24.0712
 134   2.0000      -0.882485       -24.0136
 135   2.0000      -0.880799       -23.9678
 136   2.0000      -0.875002       -23.8100
 137   2.0000      -0.872754       -23.7489
 138   2.0000      -0.866555       -23.5801
 139   2.0000      -0.863688       -23.5021
 140   2.0000      -0.832201       -22.6453
 141   2.0000      -0.829386       -22.5687
 142   2.0000      -0.828983       -22.5578
 143   2.0000      -0.818749       -22.2793
 144   2.0000      -0.805489       -21.9185
 145   2.0000      -0.796386       -21.6708
 146   2.0000      -0.787964       -21.4416
 147   2.0000      -0.784082       -21.3359
 148   2.0000      -0.766831       -20.8665
 149   2.0000      -0.766682       -20.8625
 150   2.0000      -0.760023       -20.6813
 151   2.0000      -0.755957       -20.5706
 152   2.0000      -0.735964       -20.0266
 153   2.0000      -0.728842       -19.8328
 154   2.0000      -0.716954       -19.5093
 155   2.0000      -0.709945       -19.3186
 156   2.0000      -0.708956       -19.2917
 157   2.0000      -0.708315       -19.2742
 158   2.0000      -0.702935       -19.1278
 159   2.0000      -0.702254       -19.1093
 160   2.0000      -0.698443       -19.0056
 161   2.0000      -0.693464       -18.8701
 162   2.0000      -0.689157       -18.7529
 163   2.0000      -0.683704       -18.6045
 164   2.0000      -0.677520       -18.4363
 165   2.0000      -0.670457       -18.2441
 166   2.0000      -0.659405       -17.9433
 167   2.0000      -0.656294       -17.8587
 168   2.0000      -0.648666       -17.6511
 169   2.0000      -0.641555       -17.4576
 170   2.0000      -0.638666       -17.3790
 171   2.0000      -0.635301       -17.2874
 172   2.0000      -0.633039       -17.2259
 173   2.0000      -0.628284       -17.0965
 174   2.0000      -0.622022       -16.9261
 175   2.0000      -0.616851       -16.7854
 176   2.0000      -0.612157       -16.6576
 177   2.0000      -0.610051       -16.6003
 178   2.0000      -0.608011       -16.5448
 179   2.0000      -0.602706       -16.4005
 180   2.0000      -0.594572       -16.1791
 181   2.0000      -0.592062       -16.1108
 182   2.0000      -0.578188       -15.7333
 183   2.0000      -0.574768       -15.6402
 184   2.0000      -0.568027       -15.4568
 185   2.0000      -0.562333       -15.3019
 186   2.0000      -0.561569       -15.2811
 187   2.0000      -0.558218       -15.1899
 188   2.0000      -0.553113       -15.0510
 189   2.0000      -0.552490       -15.0340
 190   2.0000      -0.550856       -14.9896
 191   2.0000      -0.548432       -14.9236
 192   2.0000      -0.546808       -14.8794
 193   2.0000      -0.543598       -14.7921
 194   2.0000      -0.542267       -14.7558
 195   2.0000      -0.540261       -14.7013
 196   2.0000      -0.535768       -14.5790
 197   2.0000      -0.532731       -14.4963
 198   2.0000      -0.529390       -14.4054
 199   2.0000      -0.526160       -14.3175
 200   2.0000      -0.523976       -14.2581
 201   2.0000      -0.520513       -14.1639
 202   2.0000      -0.518136       -14.0992
 203   2.0000      -0.517562       -14.0836
 204   2.0000      -0.515515       -14.0279
 205   2.0000      -0.514242       -13.9932
 206   2.0000      -0.512455       -13.9446
 207   2.0000      -0.512326       -13.9411
 208   2.0000      -0.510542       -13.8926
 209   2.0000      -0.509213       -13.8564
 210   2.0000      -0.508031       -13.8242
 211   2.0000      -0.503075       -13.6894
 212   2.0000      -0.501565       -13.6483
 213   2.0000      -0.499067       -13.5803
 214   2.0000      -0.498033       -13.5522
 215   2.0000      -0.494688       -13.4612
 216   2.0000      -0.492655       -13.4058
 217   2.0000      -0.489358       -13.3161
 218   2.0000      -0.487315       -13.2605
 219   2.0000      -0.485825       -13.2200
 220   2.0000      -0.481811       -13.1107
 221   2.0000      -0.479314       -13.0428
 222   2.0000      -0.476631       -12.9698
 223   2.0000      -0.473835       -12.8937
 224   2.0000      -0.472775       -12.8649
 225   2.0000      -0.469598       -12.7784
 226   2.0000      -0.467178       -12.7126
 227   2.0000      -0.465981       -12.6800
 228   2.0000      -0.465826       -12.6758
 229   2.0000      -0.464426       -12.6377
 230   2.0000      -0.461716       -12.5639
 231   2.0000      -0.460381       -12.5276
 232   2.0000      -0.459426       -12.5016
 233   2.0000      -0.457129       -12.4391
 234   2.0000      -0.453402       -12.3377
 235   2.0000      -0.452868       -12.3232
 236   2.0000      -0.452284       -12.3073
 237   2.0000      -0.451458       -12.2848
 238   2.0000      -0.450797       -12.2668
 239   2.0000      -0.450010       -12.2454
 240   2.0000      -0.448389       -12.2013
 241   2.0000      -0.445910       -12.1338
 242   2.0000      -0.444284       -12.0896
 243   2.0000      -0.443999       -12.0818
 244   2.0000      -0.443402       -12.0656
 245   2.0000      -0.439816       -11.9680
 246   2.0000      -0.438901       -11.9431
 247   2.0000      -0.438512       -11.9325
 248   2.0000      -0.437591       -11.9075
 249   2.0000      -0.436687       -11.8828
 250   2.0000      -0.433713       -11.8019
 251   2.0000      -0.433038       -11.7836
 252   2.0000      -0.432235       -11.7617
 253   2.0000      -0.431080       -11.7303
 254   2.0000      -0.430369       -11.7109
 255   2.0000      -0.428280       -11.6541
 256   2.0000      -0.427269       -11.6266
 257   2.0000      -0.424298       -11.5457
 258   2.0000      -0.422678       -11.5017
 259   2.0000      -0.420131       -11.4324
 260   2.0000      -0.414935       -11.2910
 261   2.0000      -0.411664       -11.2019
 262   2.0000      -0.410710       -11.1760
 263   2.0000      -0.404596       -11.0096
 264   2.0000      -0.399232       -10.8637
 265   2.0000      -0.388979       -10.5847
 266   2.0000      -0.381074       -10.3696
 267   2.0000      -0.377656       -10.2765
 268   2.0000      -0.368068       -10.0157
 269   2.0000      -0.366161        -9.9638
 270   2.0000      -0.363538        -9.8924
 271   2.0000      -0.355655        -9.6779
 272   2.0000      -0.348045        -9.4708
 273   2.0000      -0.341581        -9.2949
 274   2.0000      -0.336498        -9.1566
 275   2.0000      -0.334812        -9.1107
 276   2.0000      -0.328937        -8.9508
 277   2.0000      -0.324446        -8.8286
 278   2.0000      -0.319504        -8.6941
 279   2.0000      -0.316716        -8.6183
 280   2.0000      -0.298632        -8.1262
 281   2.0000      -0.295860        -8.0508
 282   2.0000      -0.279986        -7.6188
 283   2.0000      -0.271822        -7.3967
 284   0.0000      -0.126150        -3.4327
 285   0.0000      -0.115886        -3.1534
 286   0.0000      -0.098354        -2.6764
 287   0.0000      -0.091608        -2.4928
 288   0.0000      -0.077465        -2.1079

MULLIKEN ATOMIC CHARGES
-----------------------
   0 C :   -0.013530
   1 C :    0.034970
   2 C :    0.035528
   3 C :   -0.015350
   4 C :    0.091028
   5 C :   -0.076509
   6 C :    0.031219
   7 C :    0.015200
   8 C :   -0.078978
   9 C :    0.092686
  10 C :    0.137176
  11 O :   -0.144656
  12 C :   -0.134467
  13 C :    0.267601
  14 C :   -0.332618
  15 C :   -0.200698
  16 N :    0.167049
  17 C :   -0.168529
  18 N :    0.163471
  19 C :    0.080896
  20 C :   -0.110597
  21 C :   -0.000346
  22 C :   -0.004837
  23 C :   -0.073055
  24 S :    0.222637
  25 C :   -0.090917
  26 C :    0.016597
  27 C :    0.307364
  28 C :   -0.286497
  29 C :   -0.189674
  30 N :    0.185603
  31 C :   -0.183706
  32 N :    0.171654
  33 C :   -0.017326
  34 C :   -0.178806
  35 S :    0.226541
  36 C :    0.314921
  37 C :   -0.323548
  38 C :   -0.221443
  39 N :    0.164799
  40 S :    0.237208
  41 C :   -0.031181
  42 C :   -0.076026
  43 C :   -0.309814
  44 N :    0.191091
  45 C :   -0.076570
  46 C :   -0.063777
  47 C :    0.033817
  48 C :   -0.086865
  49 S :    0.238388
  50 C :   -0.084355
  51 C :   -0.018205
  52 C :    0.304995
  53 C :   -0.292235
  54 C :   -0.185227
  55 N :    0.193589
  56 C :   -0.187827
  57 N :    0.175478
  58 C :    0.031722
  59 C :   -0.110351
  60 S :    0.223278
  61 C :    0.025325
  62 C :   -0.091894
  63 C :    0.302023
  64 C :   -0.340252
  65 C :   -0.180857
  66 N :    0.152328
  67 C :   -0.208517
  68 N :    0.160735
  69 C :    0.048220
  70 C :   -0.007314
  71 C :   -0.075919
  72 C :    0.097600
  73 C :   -0.016310
  74 C :    0.034910
  75 C :    0.036017
  76 C :   -0.018314
  77 C :    0.095291
  78 C :   -0.081805
  79 C :    0.154753
  80 O :   -0.149691
  81 H :   -0.017601
  82 H :   -0.003809
  83 H :   -0.003036
  84 H :   -0.008911
  85 H :    0.000534
  86 H :   -0.011529
  87 H :    0.023044
  88 H :    0.026112
  89 H :    0.027115
  90 H :    0.023998
  91 H :    0.034900
  92 H :    0.025147
  93 H :   -0.008581
  94 H :   -0.014434
  95 H :   -0.002287
  96 H :   -0.002363
  97 H :   -0.007101
  98 H :   -0.005518
Sum of atomic charges:   -0.0000000

LOEWDIN ATOMIC CHARGES
----------------------
   0 C :   -0.009104
   1 C :   -0.012496
   2 C :   -0.012023
   3 C :   -0.005004
   4 C :   -0.004853
   5 C :    0.019443
   6 C :   -0.023048
   7 C :   -0.058271
   8 C :    0.033586
   9 C :   -0.009062
  10 C :    0.084143
  11 O :   -0.143038
  12 C :   -0.085374
  13 C :    0.065594
  14 C :   -0.135204
  15 C :   -0.015941
  16 N :   -0.046014
  17 C :   -0.018495
  18 N :   -0.044578
  19 C :    0.040515
  20 C :   -0.176941
  21 C :    0.007539
  22 C :   -0.060729
  23 C :   -0.165742
  24 S :    0.506935
  25 C :   -0.173217
  26 C :   -0.062724
  27 C :    0.080167
  28 C :   -0.093125
  29 C :   -0.019340
  30 N :   -0.020615
  31 C :   -0.012743
  32 N :   -0.030015
  33 C :   -0.008801
  34 C :   -0.175233
  35 S :    0.520060
  36 C :   -0.011309
  37 C :   -0.231934
  38 C :   -0.077431
  39 N :   -0.033044
  40 S :    0.514058
  41 C :   -0.128829
  42 C :   -0.111973
  43 C :   -0.054155
  44 N :   -0.030041
  45 C :   -0.191399
  46 C :   -0.019593
  47 C :   -0.058433
  48 C :   -0.174520
  49 S :    0.531144
  50 C :   -0.167079
  51 C :   -0.068357
  52 C :    0.075075
  53 C :   -0.090430
  54 C :   -0.020746
  55 N :   -0.013161
  56 C :   -0.015413
  57 N :   -0.027983
  58 C :    0.021170
  59 C :   -0.171291
  60 S :    0.506852
  61 C :    0.041748
  62 C :   -0.086634
  63 C :    0.074906
  64 C :   -0.137854
  65 C :   -0.017588
  66 N :   -0.050053
  67 C :   -0.025603
  68 N :   -0.050331
  69 C :   -0.026720
  70 C :   -0.056431
  71 C :    0.035302
  72 C :   -0.007891
  73 C :   -0.008612
  74 C :   -0.010949
  75 C :   -0.011913
  76 C :   -0.005136
  77 C :   -0.005558
  78 C :    0.020427
  79 C :    0.085442
  80 O :   -0.137665
  81 H :    0.031840
  82 H :    0.033107
  83 H :    0.033657
  84 H :    0.035200
  85 H :    0.040708
  86 H :    0.039520
  87 H :    0.046393
  88 H :    0.042869
  89 H :    0.046130
  90 H :    0.038038
  91 H :    0.045574
  92 H :    0.044752
  93 H :    0.040550
  94 H :    0.032852
  95 H :    0.033683
  96 H :    0.034019
  97 H :    0.035294
  98 H :    0.039498

  Mayer bond orders larger than 0.100000
B(  0-C ,  1-C ) :   1.4880 B(  0-C ,  9-C ) :   1.2448 B(  0-C , 81-H ) :   0.9983
B(  1-C ,  2-C ) :   1.2604 B(  1-C , 82-H ) :   0.9891 B(  2-C ,  3-C ) :   1.4889
B(  2-C , 83-H ) :   0.9892 B(  3-C ,  4-C ) :   1.2410 B(  3-C , 84-H ) :   0.9985
B(  4-C ,  5-C ) :   1.2046 B(  4-C ,  9-C ) :   1.2571 B(  5-C ,  6-C ) :   1.4578
B(  5-C , 85-H ) :   0.9952 B(  6-C ,  7-C ) :   1.2144 B(  6-C , 13-C ) :   0.9980
B(  7-C ,  8-C ) :   1.4729 B(  7-C , 10-C ) :   0.9233 B(  8-C ,  9-C ) :   1.1847
B(  8-C , 86-H ) :   1.0166 B( 10-C , 11-O ) :   2.2648 B( 10-C , 12-C ) :   0.9366
B( 12-C , 13-C ) :   1.0302 B( 12-C , 19-C ) :   1.6869 B( 13-C , 14-C ) :   1.6544
B( 14-C , 15-C ) :   1.1725 B( 14-C , 17-C ) :   1.1285 B( 15-C , 16-N ) :   2.9949
B( 17-C , 18-N ) :   2.9939 B( 19-C , 20-C ) :   1.1238 B( 19-C , 87-H ) :   0.9279
B( 20-C , 21-C ) :   1.4044 B( 20-C , 24-S ) :   1.0988 B( 21-C , 22-C ) :   1.3527
B( 21-C , 88-H ) :   0.9791 B( 22-C , 23-C ) :   1.4228 B( 22-C , 27-C ) :   0.9959
B( 23-C , 24-S ) :   1.1527 B( 23-C , 25-C ) :   1.1799 B( 25-C , 26-C ) :   1.4324
B( 25-C , 35-S ) :   1.1417 B( 26-C , 27-C ) :   0.9899 B( 26-C , 33-C ) :   1.2956
B( 27-C , 28-C ) :   1.7212 B( 28-C , 29-C ) :   1.1345 B( 28-C , 31-C ) :   1.1351
B( 29-C , 30-N ) :   2.9888 B( 31-C , 32-N ) :   2.9817 B( 33-C , 34-C ) :   1.4771
B( 33-C , 89-H ) :   0.9824 B( 34-C , 35-S ) :   1.1128 B( 34-C , 36-C ) :   1.0532
B( 36-C , 37-C ) :   1.4958 B( 36-C , 42-C ) :   1.2687 B( 37-C , 38-C ) :   1.2122
B( 37-C , 40-S ) :   1.1104 B( 37-C , 41-C ) :   0.1093 B( 38-C , 39-N ) :   2.9934
B( 40-S , 41-C ) :   1.1626 B( 41-C , 42-C ) :   1.4734 B( 41-C , 45-C ) :   1.1794
B( 42-C , 43-C ) :   1.1105 B( 43-C , 44-N ) :   2.9746 B( 45-C , 46-C ) :   1.4210
B( 45-C , 49-S ) :   1.1106 B( 46-C , 47-C ) :   1.3259 B( 46-C , 90-H ) :   0.9830
B( 47-C , 48-C ) :   1.4211 B( 47-C , 52-C ) :   0.9897 B( 48-C , 49-S ) :   1.1341
B( 48-C , 50-C ) :   1.1937 B( 50-C , 51-C ) :   1.3915 B( 50-C , 60-S ) :   1.1628
B( 51-C , 52-C ) :   0.9968 B( 51-C , 58-C ) :   1.3286 B( 52-C , 53-C ) :   1.7241
B( 53-C , 54-C ) :   1.1336 B( 53-C , 56-C ) :   1.1357 B( 54-C , 55-N ) :   2.9940
B( 56-C , 57-N ) :   2.9849 B( 58-C , 59-C ) :   1.4182 B( 58-C , 91-H ) :   0.9731
B( 59-C , 60-S ) :   1.0876 B( 59-C , 61-C ) :   1.1768 B( 61-C , 62-C ) :   1.6225
B( 61-C , 92-H ) :   0.9251 B( 62-C , 63-C ) :   1.0659 B( 62-C , 79-C ) :   0.9363
B( 63-C , 64-C ) :   1.6372 B( 63-C , 69-C ) :   0.9923 B( 64-C , 65-C ) :   1.1451
B( 64-C , 67-C ) :   1.1390 B( 65-C , 66-N ) :   2.9680 B( 67-C , 68-N ) :   2.9917
B( 69-C , 70-C ) :   1.2118 B( 69-C , 78-C ) :   1.4509 B( 70-C , 71-C ) :   1.4706
B( 70-C , 79-C ) :   0.9499 B( 71-C , 72-C ) :   1.1815 B( 71-C , 93-H ) :   1.0161
B( 72-C , 73-C ) :   1.2443 B( 72-C , 77-C ) :   1.2541 B( 73-C , 74-C ) :   1.4895
B( 73-C , 94-H ) :   0.9976 B( 74-C , 75-C ) :   1.2604 B( 74-C , 95-H ) :   0.9888
B( 75-C , 76-C ) :   1.4890 B( 75-C , 96-H ) :   0.9882 B( 76-C , 77-C ) :   1.2419
B( 76-C , 97-H ) :   0.9969 B( 77-C , 78-C ) :   1.2070 B( 78-C , 98-H ) :   0.9897
B( 79-C , 80-O ) :   2.1975

-----------------------------------------------------------------------------
         ABSORPTION SPECTRUM VIA TRANSITION ELECTRIC DIPOLE MOMENTS
-----------------------------------------------------------------------------
State   Energy  Wavelength   fosc         T2         TX        TY        TZ
        (cm-1)    (nm)                  (au**2)     (au)      (au)      (au)
-----------------------------------------------------------------------------
   0   15024.5    665.6   0.510027102  11.17553  -2.75726   0.22951   1.87626
   1   15568.8    642.3   0.099310832   2.09999  -1.26847   0.49087  -0.50003
   2   21516.9    464.8   1.612140466  24.66606  -4.47777   0.77154   2.00508
   3   21873.7    457.2   0.169784323   2.55535  -0.34906   0.57151  -1.45151
   4   22170.7    451.0   0.404730243   6.00984   0.53015   0.66671  -2.29876
   5   24249.2    412.4   0.052873681   0.71782  -0.70910   0.37212   0.27663
   6   24361.5    410.5   0.060512630   0.81775   0.66166  -0.11906  -0.60479
   7   25124.7    398.0   0.034038308   0.44601   0.63643   0.20218  -0.00962
   8   26046.1    383.9   0.030547941   0.38611   0.61865  -0.05760  -0.00817
   9   27153.1    368.3   0.118314180   1.43448   0.87469  -0.19579  -0.79439
  10   27481.9    363.9   0.034362826   0.41164  -0.61532   0.12615  -0.13081
  11   28003.8    357.1   0.047051804   0.55314   0.73947   0.07067  -0.03638
  12   28459.2    351.4   0.159432823   1.84430   1.23259  -0.23140  -0.52104
  13   28527.5    350.5   0.020694589   0.23882   0.06849   0.29807  -0.38116
  14   28681.5    348.7   0.383944769   4.40699   2.06768  -0.36269   0.01121
  15   29311.4    341.2   0.041481859   0.46590   0.57288  -0.19659  -0.31474
  16   29459.6    339.4   0.141712953   1.58365   1.05331  -0.65724  -0.20550
  17   29864.1    334.9   0.171163693   1.88685   0.23573  -0.75015  -1.12630
  18   30394.5    329.0   0.092728441   1.00437  -0.14308  -0.23784  -0.96298
  19   30610.5    326.7   0.478184758   5.14281   2.22936   0.38953   0.14499
  20   30901.0    323.6   0.097545223   1.03922   0.39070  -0.70248  -0.62697
  21   31070.0    321.9   0.305537454   3.23742   0.61673  -0.18226   1.68043
  22   31282.9    319.7   0.119046300   1.25281   0.51037  -0.55919   0.82440
  23   31842.3    314.0   0.056803671   0.58728   0.48102   0.18838   0.56606
  24   31905.4    313.4   0.264558480   2.72981  -1.52232   0.35749  -0.53344
  25   32135.2    311.2   0.284244263   2.91197   1.68503  -0.19766   0.18319
  26   32142.5    311.1   0.036394664   0.37276  -0.00995  -0.58969  -0.15791
  27   32357.2    309.1   0.203849474   2.07403   0.92151  -0.59457  -0.93346
  28   33004.2    303.0   0.088019389   0.87798  -0.80932   0.28212  -0.37866
  29   33293.5    300.4   0.124468350   1.23076   0.96471  -0.15700  -0.52484
  30   33539.7    298.2   0.150003168   1.47237  -1.17994  -0.11747   0.25753
  31   33632.0    297.3   0.023785178   0.23282  -0.09121   0.21101   0.42424
  32   34100.3    293.3   0.285170179   2.75310   1.26374   1.07026   0.10301
  33   34186.4    292.5   0.647167794   6.23217  -1.98079   1.49197  -0.28753
  34   34323.7    291.3   0.023775460   0.22804  -0.04712  -0.02721  -0.47443
  35   34509.7    289.8   0.016248567   0.15501  -0.14531   0.33565   0.14572
  36   34721.2    288.0   0.169398495   1.60617  -0.12788  -0.02384   1.26065
  37   34909.7    286.5   0.103051395   0.97181  -0.18927  -0.52016  -0.81574
  38   34964.1    286.0   0.117216972   1.10368   0.97800  -0.28434   0.25759
  39   34990.7    285.8   0.225910633   2.12549   1.29726   0.10136  -0.65752
  40   35766.1    279.6   0.052608167   0.48424   0.50333   0.11521  -0.46650
  41   36095.5    277.0   0.013606691   0.12410   0.19830  -0.08395   0.27880
  42   36389.3    274.8   0.065236901   0.59019  -0.62475  -0.33986  -0.29047
  43   36791.1    271.8   0.047225100   0.42258  -0.13887   0.01098   0.63496
  44   37409.5    267.3   0.125705078   1.10623   0.74194  -0.57424   0.47540
  45   37611.9    265.9   0.019133090   0.16747  -0.21275   0.10165  -0.33448
  46   37830.4    264.3   0.038497542   0.33502   0.35746  -0.37329   0.26057
  47   37912.3    263.8   0.004058606   0.03524  -0.08496  -0.14717  -0.07979
  48   38463.0    260.0   0.012842857   0.10992  -0.19365  -0.11618   0.24275
  49   38557.7    259.4   0.045075823   0.38486   0.59636  -0.17057  -0.01118
  50   38835.7    257.5   0.003625151   0.03073  -0.07342   0.13905   0.07749
  51   39106.0    255.7   0.007791318   0.06559  -0.01665   0.14239  -0.21222
  52   39217.9    255.0   0.073326756   0.61554   0.09575  -0.68493   0.37046
  53   39294.4    254.5   0.054475196   0.45640  -0.36762   0.21861  -0.52294
  54   39635.8    252.3   0.042851003   0.35592   0.00331  -0.35143   0.48208
  55   39779.6    251.4   0.060682912   0.50221   0.34487   0.17450  -0.59399
  56   39910.3    250.6   0.156864976   1.29395   0.16479   0.54000  -0.98752
  57   39995.1    250.0   0.026915646   0.22155   0.45424  -0.03185  -0.11916
  58   40141.0    249.1   0.102138028   0.83767  -0.52553  -0.31960   0.67775
  59   40204.3    248.7   0.027595332   0.22596   0.08774  -0.22418   0.40989

FINAL SINGLE POINT ENERGY     -5133.747374502750

DIPOLE MOMENT
-------------
                                X             Y             Z
Electronic contribution:      9.95264       8.81639      27.19370
Nuclear contribution   :     -9.97885     -11.18427     -26.55400
                        -----------------------------------------
Total Dipole Moment    :     -0.02622      -2.36788       0.63971
                        -----------------------------------------
Magnitude (a.u.)       :      2.45291
Magnitude (Debye)      :      6.23480

Rotational constants in cm-1:     0.001719     0.000165     0.000154
Rotational constants in MHz :    51.543913     4.935581     4.613521

                             ****ORCA TERMINATED NORMALLY****
TOTAL RUN TIME: 0 days 0 hours 10 minutes 29 seconds 838 msec
