                         Program Version 4.2.0 -  RELEASE  -
|  1> # ORCA input file
|  2> # SCF done       -211.942825382072          0.000768946304
|  3> ! CAM-B3LYP def2-SVP def2/J RIJCOSX Grid4 TightSCF
|  4> %maxcore 5000
|  5> %tddft
|  6>     Mode sTDDFT
|  7>     Ethresh 5.0
|  8>     maxcore 5000
|  9> end
| 10>
| 11> %pal
| 12>   nprocs 6
| 13>   end
| 14> * xyz 0 1
| 15>    C        7.81268        10.68041        -3.80113
| 16>    C        8.54722        11.43887        -4.67186
| 17>    C        9.54603        10.84629        -5.45872
| 18>    C        9.79700         9.50447        -5.36401
| 19>    C        9.05855         8.69323        -4.47886
| 20>    C        9.30714         7.30443        -4.38391
| 21>    C        8.56907         6.54881        -3.51409
| 22>    C        7.56816         7.16042        -2.70284
| 23>    C        7.30207         8.49695        -2.78059
| 24>    C        8.04520         9.29636        -3.67850
| 25>    C        6.95456         6.14122        -1.83276
| 26>    O        6.03829         6.27152        -1.05498
| 27>    C        7.76082         4.90504        -2.05842
| 28>    C        8.57621         5.11745        -3.23486
| 29>    C        9.02529         4.14378        -4.08910
| 30>    C        8.74305         2.77481        -3.90851
| 31>    N        8.49137         1.65944        -3.80443
| 32>    C        9.72677         4.41156        -5.28130
| 33>    N       10.31647         4.58036        -6.25156
| 34>    C        7.70520         3.90470        -1.13882
| 35>    C        8.62830         2.87158        -0.85798
| 36>    C        8.38206         1.78174        -0.03470
| 37>    C        9.50523         0.97982         0.13236
| 38>    C       10.63593         1.47682        -0.54943
| 39>    S       10.30652         2.91265        -1.39793
| 40>    C       11.73200         0.61641        -0.30537
| 41>    C       11.29831        -0.42290         0.54047
| 42>    C        9.88509        -0.23284         0.83581
| 43>    C        9.09378        -1.02455         1.61488
| 44>    C        9.59347        -2.18060         2.25053
| 45>    N       10.00464        -3.11847         2.76669
| 46>    C        7.73153        -0.73684         1.84463
| 47>    N        6.62617        -0.50610         2.04127
| 48>    C       12.31379        -1.31306         0.86264
| 49>    C       13.52795        -0.96697         0.27666
| 50>    S       13.38959         0.49216        -0.69209
| 51>    C       14.76187        -1.66850         0.39830
| 52>    C       14.87557        -2.84252         1.08172
| 53>    C       16.10193        -3.52665         1.24328
| 54>    C       17.29789        -3.00427         0.86031
| 55>    C       17.34050        -1.62195         0.24223
| 56>    C       15.98670        -1.15002        -0.33947
| 57>    N       15.90424         0.28387        -0.45014
| 58>    C       16.59164         1.01200         0.31242
| 59>    C       17.54155         0.45081         1.28993
| 60>    N       17.88342        -0.75800         1.26926
| 61>    F       18.01684         1.25529         2.23036
| 62>    F       16.47032         2.32915         0.23257
| 63>    C       18.54699        -3.62228         1.14210
| 64>    C       19.81561        -3.12552         0.88290
| 65>    C       20.81899        -3.96888         1.34817
| 66>    C       20.31964        -5.12776         1.97027
| 67>    S       18.61252        -5.17440         1.96977
| 68>    C       21.41198        -5.89667         2.43548
| 69>    C       22.60976        -5.21930         2.10899
| 70>    C       22.27377        -4.00066         1.39236
| 71>    C       23.12617        -3.08808         0.84566
| 72>    C       24.53186        -3.21759         0.88889
| 73>    N       25.67465        -3.30147         0.88672
| 74>    C       22.64911        -1.95354         0.15447
| 75>    N       22.25812        -1.03847        -0.41555
| 76>    C       23.74797        -5.86902         2.56571
| 77>    C       23.44507        -7.04357         3.24272
| 78>    S       21.69952        -7.34346         3.27817
| 79>    C       24.25134        -8.02664         3.85212
| 80>    C       25.58086        -8.01555         4.17178
| 81>    C       26.28720        -9.15436         4.73804
| 82>    C       25.85196       -10.45434         4.77710
| 83>    C       26.59725       -11.51854         5.32764
| 84>    N       27.14574       -12.42862         5.76222
| 85>    C       24.63297       -10.93377         4.25351
| 86>    N       23.67302       -11.40723         3.83628
| 87>    C       27.59227        -8.69196         5.19335
| 88>    C       27.72852        -7.31837         4.84756
| 89>    C       28.85706        -6.60652         5.13566
| 90>    C       29.92380        -7.24992         5.80153
| 91>    C       31.11406        -6.56934         6.12453
| 92>    C       32.13191        -7.21183         6.77583
| 93>    C       32.00399        -8.56290         7.13140
| 94>    C       30.86113        -9.25304         6.83107
| 95>    C       29.79311        -8.62275         6.16063
| 96>    C       28.61199        -9.33352         5.84596
| 97>    C       26.50479        -6.85125         4.17718
| 98>    O       26.30223        -5.72745         3.76829
| 99>    H        7.04241        11.13122        -3.19265
|100>    H        8.36279        12.49915        -4.75881
|101>    H       10.11572        11.45870        -6.14146
|102>    H       10.56265         9.04311        -5.97026
|103>    H       10.08555         6.87228        -4.99361
|104>    H        6.53376         8.94057        -2.16497
|105>    H        6.86528         3.96322        -0.45188
|106>    H        7.41556         1.59186         0.39635
|107>    H       12.18370        -2.16926         1.49732
|108>    H       14.00531        -3.27894         1.54390
|109>    H       16.07820        -4.48940         1.73306
|110>    H       18.07589        -1.61690        -0.57373
|111>    H       15.90148        -1.52606        -1.36983
|112>    H       19.99514        -2.18106         0.40644
|113>    H       24.75543        -5.51697         2.43926
|114>    H       23.69934        -8.91927         4.12382
|115>    H       28.93345        -5.56594         4.85717
|116>    H       31.20627        -5.52928         5.84791
|117>    H       33.04071        -6.68272         7.02072
|118>    H       32.81645        -9.05481         7.64483
|119>    H       30.75891       -10.29376         7.10154
|120>    H       28.54377       -10.36979         6.13633
|121> *
|122>
|123>                          ****END OF INPUT****

CARTESIAN COORDINATES (ANGSTROEM)
---------------------------------
  C      7.812680   10.680410   -3.801130
  C      8.547220   11.438870   -4.671860
  C      9.546030   10.846290   -5.458720
  C      9.797000    9.504470   -5.364010
  C      9.058550    8.693230   -4.478860
  C      9.307140    7.304430   -4.383910
  C      8.569070    6.548810   -3.514090
  C      7.568160    7.160420   -2.702840
  C      7.302070    8.496950   -2.780590
  C      8.045200    9.296360   -3.678500
  C      6.954560    6.141220   -1.832760
  O      6.038290    6.271520   -1.054980
  C      7.760820    4.905040   -2.058420
  C      8.576210    5.117450   -3.234860
  C      9.025290    4.143780   -4.089100
  C      8.743050    2.774810   -3.908510
  N      8.491370    1.659440   -3.804430
  C      9.726770    4.411560   -5.281300
  N     10.316470    4.580360   -6.251560
  C      7.705200    3.904700   -1.138820
  C      8.628300    2.871580   -0.857980
  C      8.382060    1.781740   -0.034700
  C      9.505230    0.979820    0.132360
  C     10.635930    1.476820   -0.549430
  S     10.306520    2.912650   -1.397930
  C     11.732000    0.616410   -0.305370
  C     11.298310   -0.422900    0.540470
  C      9.885090   -0.232840    0.835810
  C      9.093780   -1.024550    1.614880
  C      9.593470   -2.180600    2.250530
  N     10.004640   -3.118470    2.766690
  C      7.731530   -0.736840    1.844630
  N      6.626170   -0.506100    2.041270
  C     12.313790   -1.313060    0.862640
  C     13.527950   -0.966970    0.276660
  S     13.389590    0.492160   -0.692090
  C     14.761870   -1.668500    0.398300
  C     14.875570   -2.842520    1.081720
  C     16.101930   -3.526650    1.243280
  C     17.297890   -3.004270    0.860310
  C     17.340500   -1.621950    0.242230
  C     15.986700   -1.150020   -0.339470
  N     15.904240    0.283870   -0.450140
  C     16.591640    1.012000    0.312420
  C     17.541550    0.450810    1.289930
  N     17.883420   -0.758000    1.269260
  F     18.016840    1.255290    2.230360
  F     16.470320    2.329150    0.232570
  C     18.546990   -3.622280    1.142100
  C     19.815610   -3.125520    0.882900
  C     20.818990   -3.968880    1.348170
  C     20.319640   -5.127760    1.970270
  S     18.612520   -5.174400    1.969770
  C     21.411980   -5.896670    2.435480
  C     22.609760   -5.219300    2.108990
  C     22.273770   -4.000660    1.392360
  C     23.126170   -3.088080    0.845660
  C     24.531860   -3.217590    0.888890
  N     25.674650   -3.301470    0.886720
  C     22.649110   -1.953540    0.154470
  N     22.258120   -1.038470   -0.415550
  C     23.747970   -5.869020    2.565710
  C     23.445070   -7.043570    3.242720
  S     21.699520   -7.343460    3.278170
  C     24.251340   -8.026640    3.852120
  C     25.580860   -8.015550    4.171780
  C     26.287200   -9.154360    4.738040
  C     25.851960  -10.454340    4.777100
  C     26.597250  -11.518540    5.327640
  N     27.145740  -12.428620    5.762220
  C     24.632970  -10.933770    4.253510
  N     23.673020  -11.407230    3.836280
  C     27.592270   -8.691960    5.193350
  C     27.728520   -7.318370    4.847560
  C     28.857060   -6.606520    5.135660
  C     29.923800   -7.249920    5.801530
  C     31.114060   -6.569340    6.124530
  C     32.131910   -7.211830    6.775830
  C     32.003990   -8.562900    7.131400
  C     30.861130   -9.253040    6.831070
  C     29.793110   -8.622750    6.160630
  C     28.611990   -9.333520    5.845960
  C     26.504790   -6.851250    4.177180
  O     26.302230   -5.727450    3.768290
  H      7.042410   11.131220   -3.192650
  H      8.362790   12.499150   -4.758810
  H     10.115720   11.458700   -6.141460
  H     10.562650    9.043110   -5.970260
  H     10.085550    6.872280   -4.993610
  H      6.533760    8.940570   -2.164970
  H      6.865280    3.963220   -0.451880
  H      7.415560    1.591860    0.396350
  H     12.183700   -2.169260    1.497320
  H     14.005310   -3.278940    1.543900
  H     16.078200   -4.489400    1.733060
  H     18.075890   -1.616900   -0.573730
  H     15.901480   -1.526060   -1.369830
  H     19.995140   -2.181060    0.406440
  H     24.755430   -5.516970    2.439260
  H     23.699340   -8.919270    4.123820
  H     28.933450   -5.565940    4.857170
  H     31.206270   -5.529280    5.847910
  H     33.040710   -6.682720    7.020720
  H     32.816450   -9.054810    7.644830
  H     30.758910  -10.293760    7.101540
  H     28.543770  -10.369790    6.136330

 Total Charge           Charge          ....    0
 Multiplicity           Mult            ....    1
 Number of Electrons    NEL             ....  586
 Basis Dimension        Dim             .... 1302

ORBITAL ENERGIES
----------------

  NO   OCC          E(Eh)            E(eV)
   0   2.0000     -88.999067     -2421.7877
   1   2.0000     -88.998534     -2421.7732
   2   2.0000     -88.996823     -2421.7267
   3   2.0000     -88.994729     -2421.6697
   4   2.0000     -24.829800      -675.6532
   5   2.0000     -24.822392      -675.4516
   6   2.0000     -19.218627      -522.9654
   7   2.0000     -19.214447      -522.8517
   8   2.0000     -14.458105      -393.4250
   9   2.0000     -14.452401      -393.2698
  10   2.0000     -14.437871      -392.8744
  11   2.0000     -14.435700      -392.8154
  12   2.0000     -14.433572      -392.7575
  13   2.0000     -14.432714      -392.7341
  14   2.0000     -14.417473      -392.3194
  15   2.0000     -14.417473      -392.3194
  16   2.0000     -14.416511      -392.2932
  17   2.0000     -14.414023      -392.2255
  18   2.0000     -10.445988      -284.2498
  19   2.0000     -10.438263      -284.0396
  20   2.0000     -10.372372      -282.2466
  21   2.0000     -10.370127      -282.1855
  22   2.0000     -10.368968      -282.1540
  23   2.0000     -10.366448      -282.0854
  24   2.0000     -10.358789      -281.8770
  25   2.0000     -10.357434      -281.8401
  26   2.0000     -10.356701      -281.8202
  27   2.0000     -10.354013      -281.7470
  28   2.0000     -10.350015      -281.6382
  29   2.0000     -10.346209      -281.5346
  30   2.0000     -10.345129      -281.5053
  31   2.0000     -10.343898      -281.4718
  32   2.0000     -10.341967      -281.4192
  33   2.0000     -10.341560      -281.4082
  34   2.0000     -10.341378      -281.4032
  35   2.0000     -10.338212      -281.3171
  36   2.0000     -10.336490      -281.2702
  37   2.0000     -10.336309      -281.2653
  38   2.0000     -10.334566      -281.2178
  39   2.0000     -10.333642      -281.1927
  40   2.0000     -10.331842      -281.1437
  41   2.0000     -10.331382      -281.1312
  42   2.0000     -10.330385      -281.1041
  43   2.0000     -10.329589      -281.0824
  44   2.0000     -10.329473      -281.0792
  45   2.0000     -10.325340      -280.9668
  46   2.0000     -10.322800      -280.8977
  47   2.0000     -10.320583      -280.8374
  48   2.0000     -10.319990      -280.8212
  49   2.0000     -10.319403      -280.8052
  50   2.0000     -10.318350      -280.7766
  51   2.0000     -10.317176      -280.7446
  52   2.0000     -10.316008      -280.7128
  53   2.0000     -10.315441      -280.6974
  54   2.0000     -10.311918      -280.6016
  55   2.0000     -10.311560      -280.5918
  56   2.0000     -10.310071      -280.5513
  57   2.0000     -10.309530      -280.5366
  58   2.0000     -10.309397      -280.5330
  59   2.0000     -10.308894      -280.5193
  60   2.0000     -10.307015      -280.4681
  61   2.0000     -10.304952      -280.4120
  62   2.0000     -10.303754      -280.3794
  63   2.0000     -10.303233      -280.3652
  64   2.0000     -10.302557      -280.3468
  65   2.0000     -10.299196      -280.2554
  66   2.0000     -10.299076      -280.2521
  67   2.0000     -10.298628      -280.2399
  68   2.0000     -10.298298      -280.2309
  69   2.0000     -10.297996      -280.2227
  70   2.0000     -10.297471      -280.2084
  71   2.0000     -10.297223      -280.2017
  72   2.0000     -10.296614      -280.1851
  73   2.0000     -10.296062      -280.1701
  74   2.0000     -10.290616      -280.0219
  75   2.0000     -10.288125      -279.9541
  76   2.0000     -10.287483      -279.9366
  77   2.0000     -10.287142      -279.9274
  78   2.0000     -10.286886      -279.9204
  79   2.0000     -10.286485      -279.9095
  80   2.0000     -10.286410      -279.9075
  81   2.0000     -10.285818      -279.8913
  82   2.0000     -10.285647      -279.8867
  83   2.0000     -10.285191      -279.8743
  84   2.0000      -8.093885      -220.2458
  85   2.0000      -8.093087      -220.2241
  86   2.0000      -8.091071      -220.1692
  87   2.0000      -8.087632      -220.0756
  88   2.0000      -6.062992      -164.9824
  89   2.0000      -6.062375      -164.9656
  90   2.0000      -6.060287      -164.9088
  91   2.0000      -6.058839      -164.8694
  92   2.0000      -6.058187      -164.8516
  93   2.0000      -6.057031      -164.8202
  94   2.0000      -6.056415      -164.8034
  95   2.0000      -6.056060      -164.7938
  96   2.0000      -6.055393      -164.7756
  97   2.0000      -6.053524      -164.7248
  98   2.0000      -6.052367      -164.6933
  99   2.0000      -6.050208      -164.6345
 100   2.0000      -1.357478       -36.9389
 101   2.0000      -1.341268       -36.4978
 102   2.0000      -1.134195       -30.8630
 103   2.0000      -1.130094       -30.7514
 104   2.0000      -1.109075       -30.1795
 105   2.0000      -1.054468       -28.6935
 106   2.0000      -1.051540       -28.6139
 107   2.0000      -1.041651       -28.3448
 108   2.0000      -1.028065       -27.9751
 109   2.0000      -1.026913       -27.9437
 110   2.0000      -1.020688       -27.7743
 111   2.0000      -1.019242       -27.7350
 112   2.0000      -1.012447       -27.5501
 113   2.0000      -1.012274       -27.5454
 114   2.0000      -1.008915       -27.4540
 115   2.0000      -1.004676       -27.3386
 116   2.0000      -0.999564       -27.1995
 117   2.0000      -0.999126       -27.1876
 118   2.0000      -0.995112       -27.0784
 119   2.0000      -0.993994       -27.0479
 120   2.0000      -0.979707       -26.6592
 121   2.0000      -0.973518       -26.4908
 122   2.0000      -0.971389       -26.4328
 123   2.0000      -0.966262       -26.2933
 124   2.0000      -0.958623       -26.0855
 125   2.0000      -0.932249       -25.3678
 126   2.0000      -0.928600       -25.2685
 127   2.0000      -0.923562       -25.1314
 128   2.0000      -0.918812       -25.0021
 129   2.0000      -0.905768       -24.6472
 130   2.0000      -0.899040       -24.4641
 131   2.0000      -0.892072       -24.2745
 132   2.0000      -0.887196       -24.1418
 133   2.0000      -0.883008       -24.0279
 134   2.0000      -0.881520       -23.9874
 135   2.0000      -0.879295       -23.9268
 136   2.0000      -0.878016       -23.8920
 137   2.0000      -0.868842       -23.6424
 138   2.0000      -0.864269       -23.5180
 139   2.0000      -0.862094       -23.4588
 140   2.0000      -0.858692       -23.3662
 141   2.0000      -0.829559       -22.5735
 142   2.0000      -0.828182       -22.5360
 143   2.0000      -0.825329       -22.4583
 144   2.0000      -0.815178       -22.1821
 145   2.0000      -0.800631       -21.7863
 146   2.0000      -0.798415       -21.7260
 147   2.0000      -0.793423       -21.5901
 148   2.0000      -0.783676       -21.3249
 149   2.0000      -0.779548       -21.2126
 150   2.0000      -0.770181       -20.9577
 151   2.0000      -0.762457       -20.7475
 152   2.0000      -0.761238       -20.7143
 153   2.0000      -0.750854       -20.4318
 154   2.0000      -0.730509       -19.8782
 155   2.0000      -0.719099       -19.5677
 156   2.0000      -0.710199       -19.3255
 157   2.0000      -0.708537       -19.2803
 158   2.0000      -0.704763       -19.1776
 159   2.0000      -0.703890       -19.1538
 160   2.0000      -0.702252       -19.1093
 161   2.0000      -0.699329       -19.0297
 162   2.0000      -0.695883       -18.9359
 163   2.0000      -0.691475       -18.8160
 164   2.0000      -0.689204       -18.7542
 165   2.0000      -0.684287       -18.6204
 166   2.0000      -0.681852       -18.5541
 167   2.0000      -0.678141       -18.4531
 168   2.0000      -0.674197       -18.3458
 169   2.0000      -0.672387       -18.2966
 170   2.0000      -0.657471       -17.8907
 171   2.0000      -0.655075       -17.8255
 172   2.0000      -0.650237       -17.6939
 173   2.0000      -0.639718       -17.4076
 174   2.0000      -0.634787       -17.2734
 175   2.0000      -0.633929       -17.2501
 176   2.0000      -0.630208       -17.1488
 177   2.0000      -0.629982       -17.1427
 178   2.0000      -0.623621       -16.9696
 179   2.0000      -0.621665       -16.9164
 180   2.0000      -0.615094       -16.7376
 181   2.0000      -0.611867       -16.6497
 182   2.0000      -0.609597       -16.5880
 183   2.0000      -0.608685       -16.5632
 184   2.0000      -0.605922       -16.4880
 185   2.0000      -0.599912       -16.3244
 186   2.0000      -0.594191       -16.1688
 187   2.0000      -0.590231       -16.0610
 188   2.0000      -0.584974       -15.9180
 189   2.0000      -0.576558       -15.6889
 190   2.0000      -0.573930       -15.6174
 191   2.0000      -0.569026       -15.4840
 192   2.0000      -0.560970       -15.2648
 193   2.0000      -0.559430       -15.2229
 194   2.0000      -0.556303       -15.1378
 195   2.0000      -0.555421       -15.1138
 196   2.0000      -0.552701       -15.0398
 197   2.0000      -0.551441       -15.0055
 198   2.0000      -0.547779       -14.9058
 199   2.0000      -0.546822       -14.8798
 200   2.0000      -0.544655       -14.8208
 201   2.0000      -0.541473       -14.7342
 202   2.0000      -0.538390       -14.6503
 203   2.0000      -0.537766       -14.6334
 204   2.0000      -0.536145       -14.5893
 205   2.0000      -0.533220       -14.5096
 206   2.0000      -0.528331       -14.3766
 207   2.0000      -0.524485       -14.2720
 208   2.0000      -0.521193       -14.1824
 209   2.0000      -0.519838       -14.1455
 210   2.0000      -0.518966       -14.1218
 211   2.0000      -0.517707       -14.0875
 212   2.0000      -0.514876       -14.0105
 213   2.0000      -0.513325       -13.9683
 214   2.0000      -0.512216       -13.9381
 215   2.0000      -0.511278       -13.9126
 216   2.0000      -0.509505       -13.8643
 217   2.0000      -0.508440       -13.8353
 218   2.0000      -0.505961       -13.7679
 219   2.0000      -0.504259       -13.7216
 220   2.0000      -0.503285       -13.6951
 221   2.0000      -0.500077       -13.6078
 222   2.0000      -0.497566       -13.5395
 223   2.0000      -0.496658       -13.5147
 224   2.0000      -0.495277       -13.4772
 225   2.0000      -0.492892       -13.4123
 226   2.0000      -0.491915       -13.3857
 227   2.0000      -0.491040       -13.3619
 228   2.0000      -0.484907       -13.1950
 229   2.0000      -0.483633       -13.1603
 230   2.0000      -0.478710       -13.0264
 231   2.0000      -0.474273       -12.9056
 232   2.0000      -0.470012       -12.7897
 233   2.0000      -0.467716       -12.7272
 234   2.0000      -0.466484       -12.6937
 235   2.0000      -0.465939       -12.6789
 236   2.0000      -0.465083       -12.6556
 237   2.0000      -0.464020       -12.6266
 238   2.0000      -0.460425       -12.5288
 239   2.0000      -0.458464       -12.4754
 240   2.0000      -0.454189       -12.3591
 241   2.0000      -0.452622       -12.3165
 242   2.0000      -0.450587       -12.2611
 243   2.0000      -0.449797       -12.2396
 244   2.0000      -0.449189       -12.2231
 245   2.0000      -0.445889       -12.1333
 246   2.0000      -0.445362       -12.1189
 247   2.0000      -0.444953       -12.1078
 248   2.0000      -0.444820       -12.1042
 249   2.0000      -0.444723       -12.1015
 250   2.0000      -0.443766       -12.0755
 251   2.0000      -0.442832       -12.0501
 252   2.0000      -0.440534       -11.9875
 253   2.0000      -0.440146       -11.9770
 254   2.0000      -0.439162       -11.9502
 255   2.0000      -0.437586       -11.9073
 256   2.0000      -0.434191       -11.8149
 257   2.0000      -0.433890       -11.8067
 258   2.0000      -0.433341       -11.7918
 259   2.0000      -0.431301       -11.7363
 260   2.0000      -0.430978       -11.7275
 261   2.0000      -0.430043       -11.7021
 262   2.0000      -0.428363       -11.6563
 263   2.0000      -0.426926       -11.6172
 264   2.0000      -0.422008       -11.4834
 265   2.0000      -0.419788       -11.4230
 266   2.0000      -0.417787       -11.3686
 267   2.0000      -0.410727       -11.1765
 268   2.0000      -0.409745       -11.1497
 269   2.0000      -0.408009       -11.1025
 270   2.0000      -0.405688       -11.0393
 271   2.0000      -0.401662       -10.9298
 272   2.0000      -0.393524       -10.7083
 273   2.0000      -0.385404       -10.4874
 274   2.0000      -0.380347       -10.3498
 275   2.0000      -0.377654       -10.2765
 276   2.0000      -0.373134       -10.1535
 277   2.0000      -0.367726       -10.0063
 278   2.0000      -0.362039        -9.8516
 279   2.0000      -0.357830        -9.7370
 280   2.0000      -0.349455        -9.5091
 281   2.0000      -0.344131        -9.3643
 282   2.0000      -0.339228        -9.2309
 283   2.0000      -0.334488        -9.1019
 284   2.0000      -0.329451        -8.9648
 285   2.0000      -0.325616        -8.8605
 286   2.0000      -0.318881        -8.6772
 287   2.0000      -0.317252        -8.6329
 288   2.0000      -0.308812        -8.4032
 289   2.0000      -0.296625        -8.0716
 290   2.0000      -0.293885        -7.9970
 291   2.0000      -0.278036        -7.5657
 292   2.0000      -0.249723        -6.7953
 293   0.0000      -0.122533        -3.3343
 294   0.0000      -0.112412        -3.0589
 295   0.0000      -0.092570        -2.5190
 296   0.0000      -0.090611        -2.4656
 297   0.0000      -0.071279        -1.9396

MULLIKEN ATOMIC CHARGES
-----------------------
   0 C :   -0.015336
   1 C :    0.034746
   2 C :    0.035683
   3 C :   -0.017439
   4 C :    0.092521
   5 C :   -0.079424
   6 C :    0.036613
   7 C :    0.012944
   8 C :   -0.080824
   9 C :    0.094794
  10 C :    0.141175
  11 O :   -0.141387
  12 C :   -0.136917
  13 C :    0.245474
  14 C :   -0.324370
  15 C :   -0.211926
  16 N :    0.170893
  17 C :   -0.171608
  18 N :    0.153005
  19 C :    0.038589
  20 C :   -0.082216
  21 C :   -0.000134
  22 C :    0.020769
  23 C :   -0.083057
  24 S :    0.209392
  25 C :   -0.095605
  26 C :    0.025527
  27 C :    0.307257
  28 C :   -0.294746
  29 C :   -0.184756
  30 N :    0.166851
  31 C :   -0.191405
  32 N :    0.179058
  33 C :   -0.049825
  34 C :   -0.058215
  35 S :    0.225387
  36 C :    0.020466
  37 C :   -0.032630
  38 C :   -0.054230
  39 C :    0.060545
  40 C :    0.054256
  41 C :    0.140680
  42 N :   -0.153245
  43 C :    0.151002
  44 C :    0.129126
  45 N :   -0.083748
  46 F :   -0.134730
  47 F :   -0.131798
  48 C :   -0.057081
  49 C :   -0.032907
  50 C :    0.024254
  51 C :   -0.096679
  52 S :    0.181605
  53 C :   -0.082108
  54 C :   -0.012990
  55 C :    0.312600
  56 C :   -0.294812
  57 C :   -0.190808
  58 N :    0.193217
  59 C :   -0.183060
  60 N :    0.165358
  61 C :    0.005206
  62 C :   -0.113902
  63 S :    0.207958
  64 C :    0.032176
  65 C :   -0.092279
  66 C :    0.313983
  67 C :   -0.354668
  68 C :   -0.183121
  69 N :    0.147919
  70 C :   -0.200325
  71 N :    0.155794
  72 C :    0.045232
  73 C :   -0.001459
  74 C :   -0.080310
  75 C :    0.099188
  76 C :   -0.016665
  77 C :    0.036596
  78 C :    0.036414
  79 C :   -0.018853
  80 C :    0.097388
  81 C :   -0.082892
  82 C :    0.154800
  83 O :   -0.150948
  84 H :   -0.016473
  85 H :   -0.003807
  86 H :   -0.004030
  87 H :   -0.011114
  88 H :   -0.005448
  89 H :   -0.010719
  90 H :    0.032926
  91 H :    0.018972
  92 H :    0.005730
  93 H :   -0.008928
  94 H :   -0.003897
  95 H :    0.048373
  96 H :    0.050855
  97 H :    0.007386
  98 H :    0.039041
  99 H :    0.014845
 100 H :   -0.010257
 101 H :   -0.016405
 102 H :   -0.005146
 103 H :   -0.004762
 104 H :   -0.009267
 105 H :   -0.008879
Sum of atomic charges:   -0.0000000

LOEWDIN ATOMIC CHARGES
----------------------
   0 C :   -0.008890
   1 C :   -0.013070
   2 C :   -0.012734
   3 C :   -0.006761
   4 C :   -0.005619
   5 C :    0.015363
   6 C :   -0.023102
   7 C :   -0.056601
   8 C :    0.032770
   9 C :   -0.009057
  10 C :    0.083568
  11 O :   -0.142776
  12 C :   -0.101131
  13 C :    0.061448
  14 C :   -0.147001
  15 C :   -0.038704
  16 N :   -0.048963
  17 C :   -0.019851
  18 N :   -0.051707
  19 C :    0.050113
  20 C :   -0.178122
  21 C :    0.014340
  22 C :   -0.075611
  23 C :   -0.148904
  24 S :    0.514966
  25 C :   -0.198799
  26 C :   -0.057338
  27 C :    0.081292
  28 C :   -0.101887
  29 C :   -0.014305
  30 N :   -0.036339
  31 C :   -0.018368
  32 N :   -0.027803
  33 C :   -0.021459
  34 C :   -0.162234
  35 S :    0.524002
  36 C :   -0.038553
  37 C :   -0.022535
  38 C :   -0.024950
  39 C :   -0.038031
  40 C :    0.023427
  41 C :    0.020863
  42 N :   -0.095773
  43 C :    0.065837
  44 C :    0.048580
  45 N :   -0.063544
  46 F :   -0.024116
  47 F :   -0.020015
  48 C :   -0.145191
  49 C :   -0.025450
  50 C :   -0.054145
  51 C :   -0.186588
  52 S :    0.481178
  53 C :   -0.158951
  54 C :   -0.074687
  55 C :    0.077269
  56 C :   -0.093563
  57 C :   -0.022400
  58 N :   -0.014692
  59 C :   -0.012277
  60 N :   -0.035268
  61 C :    0.019635
  62 C :   -0.175805
  63 S :    0.496429
  64 C :    0.041418
  65 C :   -0.094256
  66 C :    0.077005
  67 C :   -0.143414
  68 C :   -0.017350
  69 N :   -0.054693
  70 C :   -0.024928
  71 N :   -0.055112
  72 C :   -0.026756
  73 C :   -0.055365
  74 C :    0.033629
  75 C :   -0.008149
  76 C :   -0.009042
  77 C :   -0.012056
  78 C :   -0.013329
  79 C :   -0.005380
  80 C :   -0.006256
  81 C :    0.019622
  82 C :    0.086066
  83 O :   -0.138680
  84 H :    0.032175
  85 H :    0.033089
  86 H :    0.033308
  87 H :    0.034111
  88 H :    0.038528
  89 H :    0.039791
  90 H :    0.055201
  91 H :    0.047261
  92 H :    0.038197
  93 H :    0.036834
  94 H :    0.027529
  95 H :    0.044130
  96 H :    0.052154
  97 H :    0.037637
  98 H :    0.044295
  99 H :    0.043184
 100 H :    0.040130
 101 H :    0.032357
 102 H :    0.032848
 103 H :    0.033196
 104 H :    0.034748
 105 H :    0.038913

  Mayer bond orders larger than 0.100000
B(  0-C ,  1-C ) :   1.4889 B(  0-C ,  9-C ) :   1.2444 B(  0-C , 84-H ) :   0.9982
B(  1-C ,  2-C ) :   1.2611 B(  1-C , 85-H ) :   0.9883 B(  2-C ,  3-C ) :   1.4896
B(  2-C , 86-H ) :   0.9889 B(  3-C ,  4-C ) :   1.2413 B(  3-C , 87-H ) :   0.9978
B(  4-C ,  5-C ) :   1.2027 B(  4-C ,  9-C ) :   1.2586 B(  5-C ,  6-C ) :   1.4589
B(  5-C , 88-H ) :   0.9948 B(  6-C ,  7-C ) :   1.2142 B(  6-C , 13-C ) :   1.0031
B(  7-C ,  8-C ) :   1.4766 B(  7-C , 10-C ) :   0.9226 B(  8-C ,  9-C ) :   1.1835
B(  8-C , 89-H ) :   1.0166 B( 10-C , 11-O ) :   2.2705 B( 10-C , 12-C ) :   0.9366
B( 12-C , 13-C ) :   1.0367 B( 12-C , 19-C ) :   1.6274 B( 13-C , 14-C ) :   1.6504
B( 14-C , 15-C ) :   1.1513 B( 14-C , 17-C ) :   1.1348 B( 15-C , 16-N ) :   3.0229
B( 17-C , 18-N ) :   2.9902 B( 19-C , 20-C ) :   1.1588 B( 19-C , 90-H ) :   0.9452
B( 20-C , 21-C ) :   1.3953 B( 20-C , 24-S ) :   1.0797 B( 21-C , 22-C ) :   1.3049
B( 21-C , 91-H ) :   1.0023 B( 22-C , 23-C ) :   1.3875 B( 22-C , 27-C ) :   0.9946
B( 23-C , 24-S ) :   1.1656 B( 23-C , 25-C ) :   1.2173 B( 25-C , 26-C ) :   1.4016
B( 25-C , 35-S ) :   1.0915 B( 26-C , 27-C ) :   0.9960 B( 26-C , 33-C ) :   1.3305
B( 27-C , 28-C ) :   1.7120 B( 28-C , 29-C ) :   1.1352 B( 28-C , 31-C ) :   1.1321
B( 29-C , 30-N ) :   2.9854 B( 31-C , 32-N ) :   2.9958 B( 33-C , 34-C ) :   1.4305
B( 33-C , 92-H ) :   0.9876 B( 34-C , 35-S ) :   1.1197 B( 34-C , 36-C ) :   1.1395
B( 36-C , 37-C ) :   1.6773 B( 36-C , 41-C ) :   0.9439 B( 37-C , 38-C ) :   1.1386
B( 37-C , 93-H ) :   0.9787 B( 38-C , 39-C ) :   1.6449 B( 38-C , 94-H ) :   0.9735
B( 39-C , 40-C ) :   0.9975 B( 39-C , 48-C ) :   1.1567 B( 40-C , 41-C ) :   0.9811
B( 40-C , 45-N ) :   1.0322 B( 40-C , 95-H ) :   0.8875 B( 41-C , 42-N ) :   0.9999
B( 41-C , 96-H ) :   0.8758 B( 42-N , 43-C ) :   1.8898 B( 43-C , 44-C ) :   0.9358
B( 43-C , 47-F ) :   1.1817 B( 44-C , 45-N ) :   1.9475 B( 44-C , 46-F ) :   1.1760
B( 48-C , 49-C ) :   1.4540 B( 48-C , 52-S ) :   1.1072 B( 49-C , 50-C ) :   1.2859
B( 49-C , 97-H ) :   0.9780 B( 50-C , 51-C ) :   1.4330 B( 50-C , 55-C ) :   0.9978
B( 51-C , 52-S ) :   1.1151 B( 51-C , 53-C ) :   1.2036 B( 53-C , 54-C ) :   1.3809
B( 53-C , 63-S ) :   1.1655 B( 54-C , 55-C ) :   0.9942 B( 54-C , 61-C ) :   1.3181
B( 55-C , 56-C ) :   1.7156 B( 56-C , 57-C ) :   1.1334 B( 56-C , 59-C ) :   1.1371
B( 57-C , 58-N ) :   2.9975 B( 59-C , 60-N ) :   2.9807 B( 61-C , 62-C ) :   1.4021
B( 61-C , 98-H ) :   0.9718 B( 62-C , 63-S ) :   1.0755 B( 62-C , 64-C ) :   1.2101
B( 64-C , 65-C ) :   1.5947 B( 64-C , 99-H ) :   0.9160 B( 65-C , 66-C ) :   1.0772
B( 65-C , 82-C ) :   0.9384 B( 66-C , 67-C ) :   1.6244 B( 66-C , 72-C ) :   0.9848
B( 67-C , 68-C ) :   1.1487 B( 67-C , 70-C ) :   1.1400 B( 68-C , 69-N ) :   2.9653
B( 70-C , 71-N ) :   2.9829 B( 72-C , 73-C ) :   1.2169 B( 72-C , 81-C ) :   1.4502
B( 73-C , 74-C ) :   1.4702 B( 73-C , 82-C ) :   0.9533 B( 74-C , 75-C ) :   1.1769
B( 74-C ,100-H ) :   1.0165 B( 75-C , 76-C ) :   1.2432 B( 75-C , 80-C ) :   1.2585
B( 76-C , 77-C ) :   1.4894 B( 76-C ,101-H ) :   0.9976 B( 77-C , 78-C ) :   1.2609
B( 77-C ,102-H ) :   0.9882 B( 78-C , 79-C ) :   1.4888 B( 78-C ,103-H ) :   0.9881
B( 79-C , 80-C ) :   1.2404 B( 79-C ,104-H ) :   0.9971 B( 80-C , 81-C ) :   1.2044
B( 81-C ,105-H ) :   0.9899 B( 82-C , 83-O ) :   2.1780

-----------------------------------------------------------------------------
         ABSORPTION SPECTRUM VIA TRANSITION ELECTRIC DIPOLE MOMENTS
-----------------------------------------------------------------------------
State   Energy  Wavelength   fosc         T2         TX        TY        TZ
        (cm-1)    (nm)                  (au**2)     (au)      (au)      (au)
-----------------------------------------------------------------------------
   0   12089.3    827.2   0.936422505  25.50026  -3.89441   2.84534  -1.49594
   1   13375.7    747.6   0.002813153   0.06924   0.22321   0.13908  -0.00863
   2   18642.9    536.4   1.681784436  29.69839  -3.89458   3.25423  -1.98511
   3   20738.7    482.2   0.097931071   1.55458  -1.20989   0.02902   0.29985
   4   20927.5    477.8   0.250382910   3.93879  -1.79242   0.80473  -0.28001
   5   22083.7    452.8   0.025211562   0.37584  -0.33163  -0.46018   0.23260
   6   22826.9    438.1   0.105306372   1.51874   0.09222  -0.79423   0.93778
   7   24879.5    401.9   0.132060167   1.74745  -1.14582  -0.29596   0.58902
   8   25144.4    397.7   0.071797288   0.94003   0.87657   0.37143   0.18354
   9   25447.1    393.0   0.161972301   2.09545   1.27088  -0.65732  -0.21967
  10   27222.9    367.3   0.021988006   0.26591   0.34273   0.19724  -0.33097
  11   27556.3    362.9   0.028972605   0.34613  -0.41333   0.06590   0.41346
  12   27765.3    360.2   0.012914392   0.15313  -0.33207  -0.07666   0.19230
  13   28327.2    353.0   0.024451041   0.28416   0.53277   0.01783  -0.00080
  14   28407.2    352.0   0.018745945   0.21725  -0.15694  -0.37879  -0.22167
  15   28866.9    346.4   0.051001425   0.58164  -0.17339  -0.71766  -0.19115
  16   29072.5    344.0   0.067891680   0.76879  -0.62385   0.61610  -0.00452
  17   29385.4    340.3   0.011528057   0.12915  -0.29894   0.13171   0.14979
  18   29693.7    336.8   0.178891967   1.98336   0.58346   1.05880  -0.72241
  19   29887.0    334.6   0.167243194   1.84222  -0.86754  -1.01518   0.24291
  20   30168.8    331.5   0.309803319   3.38068   0.72325  -0.98960   1.37051
  21   30483.4    328.0   0.183752172   1.98447   0.26299   0.79313  -1.13413
  22   30631.6    326.5   0.628065921   6.75011   1.48322   2.02651  -0.66591
  23   31002.4    322.6   0.284010110   3.01588  -0.92176   1.43904  -0.30884
  24   31555.8    316.9   0.024616841   0.25682   0.16987   0.20428  -0.43155
  25   31836.1    314.1   0.142483982   1.47340  -1.19191  -0.19468   0.12185
  26   32138.3    311.2   0.051176857   0.52424   0.69778   0.00786   0.19307
  27   32500.3    307.7   0.268737025   2.72217   1.54372   0.22695   0.53628
  28   32746.4    305.4   0.249322603   2.50654   0.30455  -1.48215   0.46583
  29   32866.3    304.3   0.079662038   0.79795  -0.14803   0.87309  -0.11727
  30   33088.3    302.2   0.063339909   0.63020  -0.58515   0.53575  -0.02780
  31   33450.0    299.0   0.072117073   0.70977  -0.61662  -0.50256  -0.27745
  32   33731.1    296.5   0.003234150   0.03156  -0.05563   0.16803   0.01541
  33   34038.0    293.8   0.336086898   3.25060   1.02149   1.17942  -0.90340
  34   34268.3    291.8   0.069533824   0.66800   0.63420  -0.39274  -0.33399
  35   34449.6    290.3   0.085440691   0.81650  -0.65327  -0.57785  -0.23627
  36   34619.9    288.9   0.444908801   4.23078   1.60984   1.26585   0.19194
  37   34797.6    287.4   0.190491605   1.80220   0.09350  -0.99772   0.89331
  38   34891.6    286.6   0.103833143   0.97969   0.02900   0.97266   0.18106
  39   35247.2    283.7   0.194147226   1.81335   0.05262  -1.34028   0.11927
  40   35401.0    282.5   0.069111687   0.64270   0.50228   0.52011   0.34628
  41   35836.5    279.0   0.044908890   0.41256  -0.60481  -0.03985   0.21254
  42   36314.9    275.4   0.101886368   0.92365  -0.43764   0.85470   0.04019
  43   36407.4    274.7   0.037650129   0.34045  -0.53056  -0.23866   0.04466
  44   36670.5    272.7   0.008404484   0.07545   0.22404   0.01115  -0.15853
  45   36762.8    272.0   0.005490193   0.04916   0.01680  -0.22102  -0.00563
  46   36954.7    270.6   0.088203691   0.78577  -0.40690   0.78454   0.06853
  47   37225.6    268.6   0.059930109   0.53000  -0.48046  -0.54585   0.03470
  48   37316.2    268.0   0.045849587   0.40450  -0.30222  -0.55238  -0.08965
  49   37502.9    266.6   0.054029758   0.47429  -0.24152  -0.63973  -0.08185
  50   37640.3    265.7   0.003122011   0.02731  -0.13794  -0.08240   0.03859
  51   37919.8    263.7   0.080699650   0.70062   0.50947  -0.48604   0.45257
  52   38150.1    262.1   0.040352690   0.34822   0.05755   0.57960  -0.09469
  53   38484.9    259.8   0.062337235   0.53325  -0.70825  -0.17784   0.00196
  54   38577.4    259.2   0.102452677   0.87431  -0.07823   0.89096  -0.27272
  55   38890.3    257.1   0.011255845   0.09528   0.15900  -0.25464   0.07182
  56   39094.9    255.8   0.022389739   0.18854  -0.26416   0.30615  -0.15822
  57   39260.9    254.7   0.004507617   0.03780   0.02412   0.16793   0.09496
  58   39315.8    254.4   0.006504967   0.05447  -0.08736   0.18897  -0.10549
  59   39473.6    253.3   0.011285652   0.09412   0.01508   0.27857  -0.12765
  60   39624.9    252.4   0.099866177   0.82971   0.20502  -0.81345   0.35494
  61   39855.0    250.9   0.079060375   0.65306   0.50520   0.37840  -0.50463
  62   40197.8    248.8   0.011794529   0.09659  -0.03349   0.30368   0.05701

FINAL SINGLE POINT ENERGY     -5013.671731020186

DIPOLE MOMENT
-------------
                                X             Y             Z
Electronic contribution:    -18.85026      -9.65332      -0.55870
Nuclear contribution   :     20.41090      12.38661       1.16567
                        -----------------------------------------
Total Dipole Moment    :      1.56064       2.73329       0.60697
                        -----------------------------------------
Magnitude (a.u.)       :      3.20545
Magnitude (Debye)      :      8.14761

Rotational constants in cm-1:     0.001766     0.000153     0.000144
Rotational constants in MHz :    52.942423     4.583489     4.329542

                             ****ORCA TERMINATED NORMALLY****
TOTAL RUN TIME: 0 days 0 hours 13 minutes 4 seconds 14 msec
