                         Program Version 4.2.0 -  RELEASE  -
|  1> # ORCA input file
|  2> # SCF done       -192.932738977234          0.000528742891
|  3> ! CAM-B3LYP def2-SVP def2/J RIJCOSX Grid4 TightSCF
|  4> %maxcore 5000
|  5> %tddft
|  6>     Mode sTDDFT
|  7>     Ethresh 5.0
|  8>     maxcore 5000
|  9> end
| 10>
| 11> %pal
| 12>   nprocs 6
| 13>   end
| 14> * xyz 0 1
| 15>    C       -0.61478         1.95119        -3.18304
| 16>    C       -1.49238         2.40667        -2.23685
| 17>    C       -1.21264         2.23942        -0.87233
| 18>    C       -0.06035         1.61904        -0.47237
| 19>    C        0.86421         1.13501        -1.41992
| 20>    C        2.04965         0.48093        -1.01183
| 21>    C        2.92136         0.01722        -1.95978
| 22>    C        2.64382         0.21563        -3.34418
| 23>    C        1.50399         0.83736        -3.76617
| 24>    C        0.58065         1.30821        -2.80588
| 25>    C        3.75368        -0.32570        -4.14365
| 26>    O        3.85448        -0.38699        -5.34735
| 27>    C        4.78788        -0.74535        -3.14916
| 28>    C        4.17653        -0.71820        -1.83648
| 29>    C        4.54518        -1.45435        -0.74003
| 30>    C        5.63093        -2.34959        -0.71952
| 31>    N        6.49246        -3.10735        -0.66789
| 32>    C        3.81859        -1.47809         0.46943
| 33>    N        3.26502        -1.53951         1.47258
| 34>    C        6.04877        -0.98500        -3.59978
| 35>    C        7.26406        -1.05347        -2.88196
| 36>    C        7.57408        -0.56547        -1.62125
| 37>    C        8.89280        -0.82549        -1.26774
| 38>    C        9.60336        -1.51206        -2.27038
| 39>    S        8.65473        -1.81232        -3.64850
| 40>    C       10.91639        -1.76275        -1.79377
| 41>    C       11.03273        -1.24215        -0.49477
| 42>    C        9.76343        -0.64080        -0.11794
| 43>    C        9.43507        -0.05836         1.07060
| 44>    C       10.35967         0.05501         2.12993
| 45>    N       11.11924         0.15089         2.98336
| 46>    C        8.14516         0.46473         1.30245
| 47>    N        7.09519         0.89214         1.47426
| 48>    C       12.29480        -1.45824         0.06377
| 49>    C       13.13615        -2.13288        -0.79732
| 50>    S       12.35211        -2.50812        -2.32750
| 51>    C       14.49302        -2.54031        -0.57594
| 52>    C       15.16647        -2.36526         0.64628
| 53>    N       16.40172        -2.76187         0.83197
| 54>    C       17.02848        -3.35358        -0.18900
| 55>    N       16.49127        -3.56069        -1.39581
| 56>    C       15.25789        -3.16209        -1.57807
| 57>    C       18.37164        -3.80465         0.02542
| 58>    C       19.19032        -4.44083        -0.88667
| 59>    C       20.42979        -4.74930        -0.32896
| 60>    C       20.53553        -4.33791         1.01460
| 61>    S       19.11785        -3.57556         1.58442
| 62>    C       21.82094        -4.69848         1.49298
| 63>    C       22.52769        -5.33840         0.45047
| 64>    C       21.67355        -5.39010        -0.72665
| 65>    C       21.96490        -5.92598        -1.94532
| 66>    C       23.19836        -6.54210        -2.25287
| 67>    N       24.18140        -7.05289        -2.54612
| 68>    C       21.03840        -5.90734        -3.01113
| 69>    N       20.29666        -5.89815        -3.88518
| 70>    C       23.80676        -5.73401         0.81776
| 71>    C       24.09746        -5.40779         2.13659
| 72>    S       22.73410        -4.58932         2.91959
| 73>    C       25.23185        -5.60049         2.95302
| 74>    C       26.44850        -6.17416         2.70770
| 75>    C       27.50323        -6.28836         3.70770
| 76>    C       27.46932        -5.85984         5.01017
| 77>    C       28.53870        -6.01131         5.91957
| 78>    N       29.36089        -6.09460         6.71644
| 79>    C       26.39873        -5.21218         5.66214
| 80>    N       25.58864        -4.67938         6.27916
| 81>    C       28.64135        -6.95522         3.08525
| 82>    C       28.31076        -7.24606         1.73283
| 83>    C       29.18178        -7.87281         0.88899
| 84>    C       30.45524        -8.24738         1.37107
| 85>    C       31.39786        -8.89735         0.55051
| 86>    C       32.62580        -9.25020         1.04107
| 87>    C       32.96426        -8.96838         2.37317
| 88>    C       32.07118        -8.33821         3.19637
| 89>    C       30.79736        -7.96069         2.72431
| 90>    C       29.87243        -7.30989         3.57266
| 91>    C       26.94842        -6.77458         1.44352
| 92>    O       26.38026        -6.86853         0.37581
| 93>    H       -0.82442         2.07744        -4.23516
| 94>    H       -2.40628         2.89848        -2.53465
| 95>    H       -1.91588         2.60430        -0.13886
| 96>    H        0.15757         1.48478         0.57687
| 97>    H        2.24513         0.37319         0.04360
| 98>    H        1.30840         0.96834        -4.82008
| 99>    H        6.12954        -1.08107        -4.67902
|100>    H        6.87640        -0.01345        -1.01829
|101>    H       12.58492        -1.13782         1.04744
|102>    H       14.69085        -1.89701         1.49735
|103>    H       14.84415        -3.33879        -2.56415
|104>    H       18.87036        -4.65303        -1.89000
|105>    H       24.51456        -6.23495         0.18081
|106>    H       25.08589        -5.21593         3.95553
|107>    H       28.89948        -8.07919        -0.13270
|108>    H       31.13097        -9.11135        -0.47403
|109>    H       33.34293        -9.74821         0.40580
|110>    H       33.93730        -9.25349         2.74423
|111>    H       32.32750        -8.11935         4.22261
|112>    H       30.16653        -7.10956         4.59024
|113> *
|114>
|115>                          ****END OF INPUT****

CARTESIAN COORDINATES (ANGSTROEM)
---------------------------------
  C     -0.614780    1.951190   -3.183040
  C     -1.492380    2.406670   -2.236850
  C     -1.212640    2.239420   -0.872330
  C     -0.060350    1.619040   -0.472370
  C      0.864210    1.135010   -1.419920
  C      2.049650    0.480930   -1.011830
  C      2.921360    0.017220   -1.959780
  C      2.643820    0.215630   -3.344180
  C      1.503990    0.837360   -3.766170
  C      0.580650    1.308210   -2.805880
  C      3.753680   -0.325700   -4.143650
  O      3.854480   -0.386990   -5.347350
  C      4.787880   -0.745350   -3.149160
  C      4.176530   -0.718200   -1.836480
  C      4.545180   -1.454350   -0.740030
  C      5.630930   -2.349590   -0.719520
  N      6.492460   -3.107350   -0.667890
  C      3.818590   -1.478090    0.469430
  N      3.265020   -1.539510    1.472580
  C      6.048770   -0.985000   -3.599780
  C      7.264060   -1.053470   -2.881960
  C      7.574080   -0.565470   -1.621250
  C      8.892800   -0.825490   -1.267740
  C      9.603360   -1.512060   -2.270380
  S      8.654730   -1.812320   -3.648500
  C     10.916390   -1.762750   -1.793770
  C     11.032730   -1.242150   -0.494770
  C      9.763430   -0.640800   -0.117940
  C      9.435070   -0.058360    1.070600
  C     10.359670    0.055010    2.129930
  N     11.119240    0.150890    2.983360
  C      8.145160    0.464730    1.302450
  N      7.095190    0.892140    1.474260
  C     12.294800   -1.458240    0.063770
  C     13.136150   -2.132880   -0.797320
  S     12.352110   -2.508120   -2.327500
  C     14.493020   -2.540310   -0.575940
  C     15.166470   -2.365260    0.646280
  N     16.401720   -2.761870    0.831970
  C     17.028480   -3.353580   -0.189000
  N     16.491270   -3.560690   -1.395810
  C     15.257890   -3.162090   -1.578070
  C     18.371640   -3.804650    0.025420
  C     19.190320   -4.440830   -0.886670
  C     20.429790   -4.749300   -0.328960
  C     20.535530   -4.337910    1.014600
  S     19.117850   -3.575560    1.584420
  C     21.820940   -4.698480    1.492980
  C     22.527690   -5.338400    0.450470
  C     21.673550   -5.390100   -0.726650
  C     21.964900   -5.925980   -1.945320
  C     23.198360   -6.542100   -2.252870
  N     24.181400   -7.052890   -2.546120
  C     21.038400   -5.907340   -3.011130
  N     20.296660   -5.898150   -3.885180
  C     23.806760   -5.734010    0.817760
  C     24.097460   -5.407790    2.136590
  S     22.734100   -4.589320    2.919590
  C     25.231850   -5.600490    2.953020
  C     26.448500   -6.174160    2.707700
  C     27.503230   -6.288360    3.707700
  C     27.469320   -5.859840    5.010170
  C     28.538700   -6.011310    5.919570
  N     29.360890   -6.094600    6.716440
  C     26.398730   -5.212180    5.662140
  N     25.588640   -4.679380    6.279160
  C     28.641350   -6.955220    3.085250
  C     28.310760   -7.246060    1.732830
  C     29.181780   -7.872810    0.888990
  C     30.455240   -8.247380    1.371070
  C     31.397860   -8.897350    0.550510
  C     32.625800   -9.250200    1.041070
  C     32.964260   -8.968380    2.373170
  C     32.071180   -8.338210    3.196370
  C     30.797360   -7.960690    2.724310
  C     29.872430   -7.309890    3.572660
  C     26.948420   -6.774580    1.443520
  O     26.380260   -6.868530    0.375810
  H     -0.824420    2.077440   -4.235160
  H     -2.406280    2.898480   -2.534650
  H     -1.915880    2.604300   -0.138860
  H      0.157570    1.484780    0.576870
  H      2.245130    0.373190    0.043600
  H      1.308400    0.968340   -4.820080
  H      6.129540   -1.081070   -4.679020
  H      6.876400   -0.013450   -1.018290
  H     12.584920   -1.137820    1.047440
  H     14.690850   -1.897010    1.497350
  H     14.844150   -3.338790   -2.564150
  H     18.870360   -4.653030   -1.890000
  H     24.514560   -6.234950    0.180810
  H     25.085890   -5.215930    3.955530
  H     28.899480   -8.079190   -0.132700
  H     31.130970   -9.111350   -0.474030
  H     33.342930   -9.748210    0.405800
  H     33.937300   -9.253490    2.744230
  H     32.327500   -8.119350    4.222610
  H     30.166530   -7.109560    4.590240

 Total Charge           Charge          ....    0
 Multiplicity           Mult            ....    1
 Number of Electrons    NEL             ....  542
 Basis Dimension        Dim             .... 1208

ORBITAL ENERGIES
----------------

  NO   OCC          E(Eh)            E(eV)
   0   2.0000     -89.003496     -2421.9083
   1   2.0000     -89.001848     -2421.8634
   2   2.0000     -88.996535     -2421.7188
   3   2.0000     -88.995147     -2421.6811
   4   2.0000     -19.218176      -522.9532
   5   2.0000     -19.217893      -522.9454
   6   2.0000     -14.439142      -392.9090
   7   2.0000     -14.438780      -392.8992
   8   2.0000     -14.436148      -392.8276
   9   2.0000     -14.434700      -392.7882
  10   2.0000     -14.431071      -392.6894
  11   2.0000     -14.428129      -392.6094
  12   2.0000     -14.421509      -392.4292
  13   2.0000     -14.418367      -392.3437
  14   2.0000     -14.416168      -392.2839
  15   2.0000     -14.413026      -392.1984
  16   2.0000     -10.374510      -282.3048
  17   2.0000     -10.369806      -282.1768
  18   2.0000     -10.369036      -282.1558
  19   2.0000     -10.368995      -282.1547
  20   2.0000     -10.367455      -282.1128
  21   2.0000     -10.361670      -281.9554
  22   2.0000     -10.354032      -281.7475
  23   2.0000     -10.348674      -281.6017
  24   2.0000     -10.346960      -281.5551
  25   2.0000     -10.346580      -281.5447
  26   2.0000     -10.346320      -281.5377
  27   2.0000     -10.346064      -281.5307
  28   2.0000     -10.345903      -281.5263
  29   2.0000     -10.345028      -281.5025
  30   2.0000     -10.341840      -281.4158
  31   2.0000     -10.341288      -281.4008
  32   2.0000     -10.341019      -281.3934
  33   2.0000     -10.339189      -281.3436
  34   2.0000     -10.338779      -281.3325
  35   2.0000     -10.337854      -281.3073
  36   2.0000     -10.333540      -281.1899
  37   2.0000     -10.330915      -281.1185
  38   2.0000     -10.330152      -281.0977
  39   2.0000     -10.328841      -281.0620
  40   2.0000     -10.328061      -281.0408
  41   2.0000     -10.327160      -281.0163
  42   2.0000     -10.323785      -280.9245
  43   2.0000     -10.322817      -280.8981
  44   2.0000     -10.322769      -280.8968
  45   2.0000     -10.321396      -280.8595
  46   2.0000     -10.318511      -280.7810
  47   2.0000     -10.318144      -280.7710
  48   2.0000     -10.317820      -280.7621
  49   2.0000     -10.316412      -280.7238
  50   2.0000     -10.315172      -280.6901
  51   2.0000     -10.313847      -280.6541
  52   2.0000     -10.311085      -280.5789
  53   2.0000     -10.309461      -280.5347
  54   2.0000     -10.306087      -280.4429
  55   2.0000     -10.305670      -280.4315
  56   2.0000     -10.305410      -280.4245
  57   2.0000     -10.304677      -280.4045
  58   2.0000     -10.303093      -280.3614
  59   2.0000     -10.301572      -280.3200
  60   2.0000     -10.299567      -280.2655
  61   2.0000     -10.299481      -280.2631
  62   2.0000     -10.299151      -280.2541
  63   2.0000     -10.298570      -280.2383
  64   2.0000     -10.296310      -280.1768
  65   2.0000     -10.296065      -280.1702
  66   2.0000     -10.295462      -280.1538
  67   2.0000     -10.294661      -280.1320
  68   2.0000     -10.291685      -280.0510
  69   2.0000     -10.288082      -279.9529
  70   2.0000     -10.287587      -279.9395
  71   2.0000     -10.287123      -279.9269
  72   2.0000     -10.286620      -279.9132
  73   2.0000     -10.286561      -279.9115
  74   2.0000     -10.285337      -279.8782
  75   2.0000     -10.284729      -279.8617
  76   2.0000     -10.284560      -279.8571
  77   2.0000     -10.284146      -279.8458
  78   2.0000      -8.097966      -220.3569
  79   2.0000      -8.096566      -220.3188
  80   2.0000      -8.091212      -220.1731
  81   2.0000      -8.089187      -220.1180
  82   2.0000      -6.067188      -165.0966
  83   2.0000      -6.065726      -165.0568
  84   2.0000      -6.063008      -164.9828
  85   2.0000      -6.061525      -164.9425
  86   2.0000      -6.060408      -164.9121
  87   2.0000      -6.060285      -164.9087
  88   2.0000      -6.059090      -164.8762
  89   2.0000      -6.058371      -164.8566
  90   2.0000      -6.056146      -164.7961
  91   2.0000      -6.054097      -164.7404
  92   2.0000      -6.053821      -164.7328
  93   2.0000      -6.051808      -164.6781
  94   2.0000      -1.133663       -30.8486
  95   2.0000      -1.133382       -30.8409
  96   2.0000      -1.109588       -30.1934
  97   2.0000      -1.057244       -28.7691
  98   2.0000      -1.049834       -28.5674
  99   2.0000      -1.031075       -28.0570
 100   2.0000      -1.022895       -27.8344
 101   2.0000      -1.022485       -27.8232
 102   2.0000      -1.018977       -27.7278
 103   2.0000      -1.016609       -27.6633
 104   2.0000      -1.011461       -27.5233
 105   2.0000      -1.006687       -27.3934
 106   2.0000      -1.004485       -27.3334
 107   2.0000      -1.002794       -27.2874
 108   2.0000      -1.001824       -27.2610
 109   2.0000      -0.998687       -27.1756
 110   2.0000      -0.995922       -27.1004
 111   2.0000      -0.993377       -27.0312
 112   2.0000      -0.976016       -26.5587
 113   2.0000      -0.971568       -26.4377
 114   2.0000      -0.970279       -26.4026
 115   2.0000      -0.962715       -26.1968
 116   2.0000      -0.938958       -25.5504
 117   2.0000      -0.928997       -25.2793
 118   2.0000      -0.926168       -25.2023
 119   2.0000      -0.920009       -25.0347
 120   2.0000      -0.912525       -24.8311
 121   2.0000      -0.901046       -24.5187
 122   2.0000      -0.895536       -24.3688
 123   2.0000      -0.884137       -24.0586
 124   2.0000      -0.882661       -24.0184
 125   2.0000      -0.880227       -23.9522
 126   2.0000      -0.876764       -23.8580
 127   2.0000      -0.872253       -23.7352
 128   2.0000      -0.868841       -23.6424
 129   2.0000      -0.863473       -23.4963
 130   2.0000      -0.860122       -23.4051
 131   2.0000      -0.833942       -22.6927
 132   2.0000      -0.830311       -22.5939
 133   2.0000      -0.827118       -22.5070
 134   2.0000      -0.816925       -22.2296
 135   2.0000      -0.807836       -21.9823
 136   2.0000      -0.789531       -21.4842
 137   2.0000      -0.783528       -21.3209
 138   2.0000      -0.777719       -21.1628
 139   2.0000      -0.766788       -20.8654
 140   2.0000      -0.764288       -20.7973
 141   2.0000      -0.762280       -20.7427
 142   2.0000      -0.756931       -20.5971
 143   2.0000      -0.732725       -19.9385
 144   2.0000      -0.725204       -19.7338
 145   2.0000      -0.711980       -19.3740
 146   2.0000      -0.709792       -19.3144
 147   2.0000      -0.704552       -19.1718
 148   2.0000      -0.703307       -19.1380
 149   2.0000      -0.701874       -19.0990
 150   2.0000      -0.698081       -18.9958
 151   2.0000      -0.694028       -18.8855
 152   2.0000      -0.686837       -18.6898
 153   2.0000      -0.684275       -18.6201
 154   2.0000      -0.681481       -18.5440
 155   2.0000      -0.675639       -18.3851
 156   2.0000      -0.673188       -18.3184
 157   2.0000      -0.658456       -17.9175
 158   2.0000      -0.654359       -17.8060
 159   2.0000      -0.648228       -17.6392
 160   2.0000      -0.638175       -17.3656
 161   2.0000      -0.634576       -17.2677
 162   2.0000      -0.633514       -17.2388
 163   2.0000      -0.629989       -17.1429
 164   2.0000      -0.626729       -17.0542
 165   2.0000      -0.620946       -16.8968
 166   2.0000      -0.614189       -16.7129
 167   2.0000      -0.609606       -16.5882
 168   2.0000      -0.606105       -16.4930
 169   2.0000      -0.604402       -16.4466
 170   2.0000      -0.600976       -16.3534
 171   2.0000      -0.595848       -16.2138
 172   2.0000      -0.588159       -16.0046
 173   2.0000      -0.580393       -15.7933
 174   2.0000      -0.562193       -15.2981
 175   2.0000      -0.561431       -15.2773
 176   2.0000      -0.560696       -15.2573
 177   2.0000      -0.558709       -15.2032
 178   2.0000      -0.556017       -15.1300
 179   2.0000      -0.554289       -15.0830
 180   2.0000      -0.548162       -14.9162
 181   2.0000      -0.546471       -14.8702
 182   2.0000      -0.545949       -14.8560
 183   2.0000      -0.541685       -14.7400
 184   2.0000      -0.540948       -14.7199
 185   2.0000      -0.537512       -14.6264
 186   2.0000      -0.536202       -14.5908
 187   2.0000      -0.532333       -14.4855
 188   2.0000      -0.530971       -14.4485
 189   2.0000      -0.525836       -14.3087
 190   2.0000      -0.523962       -14.2577
 191   2.0000      -0.521405       -14.1881
 192   2.0000      -0.517326       -14.0772
 193   2.0000      -0.516677       -14.0595
 194   2.0000      -0.516071       -14.0430
 195   2.0000      -0.514641       -14.0041
 196   2.0000      -0.513086       -13.9618
 197   2.0000      -0.510664       -13.8959
 198   2.0000      -0.508420       -13.8348
 199   2.0000      -0.507133       -13.7998
 200   2.0000      -0.506752       -13.7894
 201   2.0000      -0.504910       -13.7393
 202   2.0000      -0.502395       -13.6709
 203   2.0000      -0.497364       -13.5340
 204   2.0000      -0.496251       -13.5037
 205   2.0000      -0.493758       -13.4358
 206   2.0000      -0.490365       -13.3435
 207   2.0000      -0.490028       -13.3343
 208   2.0000      -0.488079       -13.2813
 209   2.0000      -0.484164       -13.1748
 210   2.0000      -0.482389       -13.1265
 211   2.0000      -0.479981       -13.0609
 212   2.0000      -0.470971       -12.8158
 213   2.0000      -0.469475       -12.7751
 214   2.0000      -0.467369       -12.7178
 215   2.0000      -0.466575       -12.6962
 216   2.0000      -0.463918       -12.6239
 217   2.0000      -0.461942       -12.5701
 218   2.0000      -0.460861       -12.5407
 219   2.0000      -0.456768       -12.4293
 220   2.0000      -0.454530       -12.3684
 221   2.0000      -0.453223       -12.3328
 222   2.0000      -0.452904       -12.3241
 223   2.0000      -0.449936       -12.2434
 224   2.0000      -0.449750       -12.2383
 225   2.0000      -0.448823       -12.2131
 226   2.0000      -0.447247       -12.1702
 227   2.0000      -0.446576       -12.1519
 228   2.0000      -0.444650       -12.0995
 229   2.0000      -0.443406       -12.0657
 230   2.0000      -0.441237       -12.0067
 231   2.0000      -0.439735       -11.9658
 232   2.0000      -0.439117       -11.9490
 233   2.0000      -0.437946       -11.9171
 234   2.0000      -0.435505       -11.8507
 235   2.0000      -0.435241       -11.8435
 236   2.0000      -0.434528       -11.8241
 237   2.0000      -0.433313       -11.7910
 238   2.0000      -0.432880       -11.7793
 239   2.0000      -0.429583       -11.6896
 240   2.0000      -0.428984       -11.6732
 241   2.0000      -0.425276       -11.5723
 242   2.0000      -0.425080       -11.5670
 243   2.0000      -0.422089       -11.4856
 244   2.0000      -0.418591       -11.3905
 245   2.0000      -0.418529       -11.3888
 246   2.0000      -0.413486       -11.2515
 247   2.0000      -0.407158       -11.0793
 248   2.0000      -0.406412       -11.0590
 249   2.0000      -0.406057       -11.0494
 250   2.0000      -0.404812       -11.0155
 251   2.0000      -0.402667       -10.9571
 252   2.0000      -0.385345       -10.4858
 253   2.0000      -0.380469       -10.3531
 254   2.0000      -0.373793       -10.1714
 255   2.0000      -0.367758       -10.0072
 256   2.0000      -0.358847        -9.7647
 257   2.0000      -0.353615        -9.6223
 258   2.0000      -0.346326        -9.4240
 259   2.0000      -0.345342        -9.3972
 260   2.0000      -0.339188        -9.2298
 261   2.0000      -0.339078        -9.2268
 262   2.0000      -0.332945        -9.0599
 263   2.0000      -0.326596        -8.8871
 264   2.0000      -0.322004        -8.7622
 265   2.0000      -0.318061        -8.6549
 266   2.0000      -0.315064        -8.5733
 267   2.0000      -0.297256        -8.0887
 268   2.0000      -0.294044        -8.0013
 269   2.0000      -0.280416        -7.6305
 270   2.0000      -0.262376        -7.1396
 271   0.0000      -0.120181        -3.2703
 272   0.0000      -0.112555        -3.0628
 273   0.0000      -0.093699        -2.5497
 274   0.0000      -0.090307        -2.4574
 275   0.0000      -0.063640        -1.7317

MULLIKEN ATOMIC CHARGES
-----------------------
   0 C :   -0.018895
   1 C :    0.038557
   2 C :    0.037403
   3 C :   -0.019501
   4 C :    0.095912
   5 C :   -0.081257
   6 C :    0.030211
   7 C :    0.018760
   8 C :   -0.084917
   9 C :    0.098046
  10 C :    0.135303
  11 O :   -0.144263
  12 C :   -0.134994
  13 C :    0.272359
  14 C :   -0.330964
  15 C :   -0.201857
  16 N :    0.167997
  17 C :   -0.171678
  18 N :    0.160134
  19 C :    0.077952
  20 C :   -0.108844
  21 C :   -0.000936
  22 C :   -0.001447
  23 C :   -0.072024
  24 S :    0.216095
  25 C :   -0.098214
  26 C :    0.017669
  27 C :    0.303332
  28 C :   -0.289010
  29 C :   -0.183080
  30 N :    0.174304
  31 C :   -0.185830
  32 N :    0.177842
  33 C :   -0.039251
  34 C :   -0.052736
  35 S :    0.182941
  36 C :    0.032879
  37 C :    0.035680
  38 N :   -0.061275
  39 C :   -0.080503
  40 N :   -0.037560
  41 C :    0.012353
  42 C :   -0.030932
  43 C :   -0.040346
  44 C :    0.016431
  45 C :   -0.102108
  46 S :    0.250895
  47 C :   -0.083443
  48 C :    0.004277
  49 C :    0.313076
  50 C :   -0.305348
  51 C :   -0.196866
  52 N :    0.200447
  53 C :   -0.193422
  54 N :    0.180595
  55 C :   -0.024633
  56 C :   -0.112261
  57 S :    0.208223
  58 C :    0.039876
  59 C :   -0.085710
  60 C :    0.331263
  61 C :   -0.371237
  62 C :   -0.182057
  63 N :    0.147179
  64 C :   -0.179010
  65 N :    0.144710
  66 C :    0.045964
  67 C :    0.000056
  68 C :   -0.082163
  69 C :    0.100715
  70 C :   -0.016157
  71 C :    0.035777
  72 C :    0.037516
  73 C :   -0.019256
  74 C :    0.096031
  75 C :   -0.083481
  76 C :    0.157858
  77 O :   -0.147761
  78 H :   -0.016807
  79 H :   -0.005115
  80 H :   -0.003367
  81 H :   -0.008006
  82 H :    0.000160
  83 H :   -0.011153
  84 H :    0.022937
  85 H :    0.024915
  86 H :    0.009558
  87 H :    0.018357
  88 H :    0.020142
  89 H :    0.021275
  90 H :    0.040888
  91 H :   -0.002445
  92 H :   -0.008923
  93 H :   -0.016297
  94 H :   -0.003980
  95 H :   -0.005765
  96 H :   -0.009104
  97 H :   -0.008660
Sum of atomic charges:   -0.0000000

LOEWDIN ATOMIC CHARGES
----------------------
   0 C :   -0.009210
   1 C :   -0.012123
   2 C :   -0.011927
   3 C :   -0.005210
   4 C :   -0.004802
   5 C :    0.018971
   6 C :   -0.023212
   7 C :   -0.058329
   8 C :    0.033494
   9 C :   -0.008938
  10 C :    0.083855
  11 O :   -0.143888
  12 C :   -0.087788
  13 C :    0.066581
  14 C :   -0.136589
  15 C :   -0.015090
  16 N :   -0.048139
  17 C :   -0.018488
  18 N :   -0.045465
  19 C :    0.040160
  20 C :   -0.178718
  21 C :    0.009450
  22 C :   -0.064766
  23 C :   -0.162360
  24 S :    0.502575
  25 C :   -0.179783
  26 C :   -0.058254
  27 C :    0.082149
  28 C :   -0.095306
  29 C :   -0.015896
  30 N :   -0.029309
  31 C :   -0.013788
  32 N :   -0.027942
  33 C :   -0.025464
  34 C :   -0.156186
  35 S :    0.486040
  36 C :   -0.088014
  37 C :    0.062699
  38 N :   -0.087547
  39 C :    0.010961
  40 N :   -0.069196
  41 C :    0.045200
  42 C :   -0.181291
  43 C :   -0.001944
  44 C :   -0.059858
  45 C :   -0.184049
  46 S :    0.520616
  47 C :   -0.160957
  48 C :   -0.072065
  49 C :    0.073993
  50 C :   -0.093454
  51 C :   -0.024071
  52 N :   -0.014326
  53 C :   -0.016752
  54 N :   -0.028532
  55 C :    0.014763
  56 C :   -0.174340
  57 S :    0.500327
  58 C :    0.041418
  59 C :   -0.094106
  60 C :    0.078318
  61 C :   -0.143844
  62 C :   -0.016455
  63 N :   -0.055418
  64 C :   -0.022972
  65 N :   -0.054975
  66 C :   -0.027220
  67 C :   -0.055488
  68 C :    0.033906
  69 C :   -0.007909
  70 C :   -0.008887
  71 C :   -0.012028
  72 C :   -0.013404
  73 C :   -0.005265
  74 C :   -0.006386
  75 C :    0.019991
  76 C :    0.087697
  77 O :   -0.135714
  78 H :    0.032001
  79 H :    0.032939
  80 H :    0.033749
  81 H :    0.035293
  82 H :    0.040449
  83 H :    0.039610
  84 H :    0.045994
  85 H :    0.043103
  86 H :    0.040712
  87 H :    0.031190
  88 H :    0.021328
  89 H :    0.046649
  90 H :    0.042771
  91 H :    0.041725
  92 H :    0.040602
  93 H :    0.032501
  94 H :    0.033019
  95 H :    0.032997
  96 H :    0.034717
  97 H :    0.038926

  Mayer bond orders larger than 0.100000
B(  0-C ,  1-C ) :   1.4897 B(  0-C ,  9-C ) :   1.2439 B(  0-C , 78-H ) :   0.9983
B(  1-C ,  2-C ) :   1.2597 B(  1-C , 79-H ) :   0.9882 B(  2-C ,  3-C ) :   1.4885
B(  2-C , 80-H ) :   0.9890 B(  3-C ,  4-C ) :   1.2402 B(  3-C , 81-H ) :   0.9986
B(  4-C ,  5-C ) :   1.2042 B(  4-C ,  9-C ) :   1.2565 B(  5-C ,  6-C ) :   1.4554
B(  5-C , 82-H ) :   0.9947 B(  6-C ,  7-C ) :   1.2139 B(  6-C , 13-C ) :   0.9982
B(  7-C ,  8-C ) :   1.4705 B(  7-C , 10-C ) :   0.9243 B(  8-C ,  9-C ) :   1.1823
B(  8-C , 83-H ) :   1.0176 B( 10-C , 11-O ) :   2.2643 B( 10-C , 12-C ) :   0.9367
B( 12-C , 13-C ) :   1.0328 B( 12-C , 19-C ) :   1.6827 B( 13-C , 14-C ) :   1.6499
B( 14-C , 15-C ) :   1.1742 B( 14-C , 17-C ) :   1.1272 B( 15-C , 16-N ) :   2.9944
B( 17-C , 18-N ) :   2.9921 B( 19-C , 20-C ) :   1.1266 B( 19-C , 84-H ) :   0.9250
B( 20-C , 21-C ) :   1.4017 B( 20-C , 24-S ) :   1.0933 B( 21-C , 22-C ) :   1.3544
B( 21-C , 85-H ) :   0.9804 B( 22-C , 23-C ) :   1.4183 B( 22-C , 27-C ) :   0.9961
B( 23-C , 24-S ) :   1.1543 B( 23-C , 25-C ) :   1.1843 B( 25-C , 26-C ) :   1.4517
B( 25-C , 35-S ) :   1.1230 B( 26-C , 27-C ) :   0.9965 B( 26-C , 33-C ) :   1.2856
B( 27-C , 28-C ) :   1.7205 B( 28-C , 29-C ) :   1.1308 B( 28-C , 31-C ) :   1.1363
B( 29-C , 30-N ) :   2.9895 B( 31-C , 32-N ) :   2.9849 B( 33-C , 34-C ) :   1.4942
B( 33-C , 86-H ) :   0.9876 B( 34-C , 35-S ) :   1.1121 B( 34-C , 36-C ) :   1.0814
B( 36-C , 37-C ) :   1.3216 B( 36-C , 41-C ) :   1.2941 B( 37-C , 38-N ) :   1.5788
B( 37-C , 87-H ) :   0.9837 B( 38-N , 39-C ) :   1.5760 B( 39-C , 40-N ) :   1.5739
B( 39-C , 42-C ) :   1.0296 B( 40-N , 41-C ) :   1.5943 B( 41-C , 88-H ) :   0.9804
B( 42-C , 43-C ) :   1.4743 B( 42-C , 46-S ) :   1.1181 B( 43-C , 44-C ) :   1.2665
B( 43-C , 89-H ) :   1.0046 B( 44-C , 45-C ) :   1.4268 B( 44-C , 49-C ) :   0.9944
B( 45-C , 46-S ) :   1.1247 B( 45-C , 47-C ) :   1.2009 B( 47-C , 48-C ) :   1.3850
B( 47-C , 57-S ) :   1.1670 B( 48-C , 49-C ) :   0.9952 B( 48-C , 55-C ) :   1.3006
B( 49-C , 50-C ) :   1.7180 B( 50-C , 51-C ) :   1.1392 B( 50-C , 53-C ) :   1.1355
B( 51-C , 52-N ) :   3.0001 B( 53-C , 54-N ) :   2.9977 B( 55-C , 56-C ) :   1.4022
B( 55-C , 90-H ) :   0.9682 B( 56-C , 57-S ) :   1.0811 B( 56-C , 58-C ) :   1.2169
B( 58-C , 59-C ) :   1.6019 B( 58-C , 91-H ) :   0.8999 B( 59-C , 60-C ) :   1.0833
B( 59-C , 76-C ) :   0.9301 B( 60-C , 61-C ) :   1.6104 B( 60-C , 66-C ) :   0.9820
B( 61-C , 62-C ) :   1.1537 B( 61-C , 64-C ) :   1.1422 B( 62-C , 63-N ) :   2.9596
B( 64-C , 65-N ) :   2.9497 B( 66-C , 67-C ) :   1.2186 B( 66-C , 75-C ) :   1.4449
B( 67-C , 68-C ) :   1.4696 B( 67-C , 76-C ) :   0.9572 B( 68-C , 69-C ) :   1.1743
B( 68-C , 92-H ) :   1.0173 B( 69-C , 70-C ) :   1.2430 B( 69-C , 74-C ) :   1.2592
B( 70-C , 71-C ) :   1.4890 B( 70-C , 93-H ) :   0.9978 B( 71-C , 72-C ) :   1.2608
B( 71-C , 94-H ) :   0.9880 B( 72-C , 73-C ) :   1.4900 B( 72-C , 95-H ) :   0.9879
B( 73-C , 74-C ) :   1.2392 B( 73-C , 96-H ) :   0.9971 B( 74-C , 75-C ) :   1.2078
B( 75-C , 97-H ) :   0.9886 B( 76-C , 77-O ) :   2.1613 B( 77-O , 90-H ) :   0.1040

-----------------------------------------------------------------------------
         ABSORPTION SPECTRUM VIA TRANSITION ELECTRIC DIPOLE MOMENTS
-----------------------------------------------------------------------------
State   Energy  Wavelength   fosc         T2         TX        TY        TZ
        (cm-1)    (nm)                  (au**2)     (au)      (au)      (au)
-----------------------------------------------------------------------------
   0   14038.3    712.3   0.472878132  11.08945   3.18695  -0.70830   0.65657
   1   15595.9    641.2   0.323087361   6.82002   2.39121  -0.71091   0.77249
   2   20574.7    486.0   1.809380619  28.95153  -5.21868   0.95536  -0.89677
   3   22117.4    452.1   0.500086284   7.44365   2.08720  -0.92545   1.49359
   4   23510.3    425.3   0.027231748   0.38132   0.61731  -0.00664   0.01430
   5   24668.2    405.4   0.032761200   0.43722   0.25925  -0.49391  -0.35505
   6   25188.3    397.0   0.010615980   0.13875   0.19417  -0.14983   0.28036
   7   25736.5    388.6   0.050675724   0.64822   0.75849  -0.19602   0.18570
   8   27415.9    364.8   0.156006370   1.87333  -1.19547   0.57503   0.33695
   9   28034.8    356.7   0.001404801   0.01650  -0.10375   0.06123  -0.04453
  10   28092.3    356.0   0.254527715   2.98279   1.56492  -0.67887   0.27007
  11   28538.0    350.4   0.009002365   0.10385  -0.01294   0.32160   0.01608
  12   28780.8    347.5   0.377283279   4.31558   1.87098  -0.90150   0.04799
  13   29308.4    341.2   0.031497307   0.35380  -0.30748   0.44319   0.25067
  14   29563.0    338.3   0.060278036   0.67125   0.50338  -0.40235  -0.50594
  15   29909.0    334.3   0.081197925   0.89376  -0.48102   0.66044   0.47560
  16   30098.8    332.2   0.156250387   1.70902   0.63426  -0.83132  -0.78463
  17   30710.1    325.6   0.376736271   4.03861  -0.72583   0.75733   1.71413
  18   30825.4    324.4   0.306917704   3.27784  -0.88288  -0.04506  -1.57998
  19   30940.7    323.2   0.004861440   0.05173   0.22212  -0.04796  -0.00941
  20   31012.4    322.5   0.194948609   2.06947  -1.09725   0.48205   0.79570
  21   31353.8    318.9   0.001042764   0.01095  -0.07907  -0.01235   0.06741
  22   31650.4    316.0   0.351047708   3.65142   1.73794  -0.77537  -0.17263
  23   32008.3    312.4   0.124007746   1.27545   0.98596  -0.47667  -0.27587
  24   32361.8    309.0   0.133952223   1.36268  -0.70877  -0.21073  -0.90328
  25   32850.4    304.4   0.099152995   0.99367   0.73036  -0.48167  -0.47773
  26   33037.2    302.7   0.350836978   3.49605   1.70080  -0.77657  -0.01638
  27   33353.4    299.8   0.049949411   0.49302   0.53940  -0.00487   0.44949
  28   33499.3    298.5   0.056253656   0.55283   0.47025  -0.18230  -0.54631
  29   33753.6    296.3   0.001005719   0.00981  -0.07233   0.06751  -0.00435
  30   34192.6    292.5   0.358089567   3.44775   1.39003  -1.10675   0.53913
  31   34433.4    290.4   0.001079244   0.01032  -0.06628   0.06799  -0.03609
  32   34553.9    289.4   0.108648686   1.03515   0.42425  -0.61580  -0.68989
  33   34723.3    288.0   0.004191234   0.03974   0.16034  -0.04407   0.10994
  34   34805.1    287.3   0.108809965   1.02920   0.76245  -0.23333   0.62724
  35   34920.7    286.4   0.686877854   6.47548  -0.95323   1.12262   2.07523
  36   35148.1    284.5   0.128430947   1.20294   0.87632  -0.58342   0.30762
  37   35235.5    283.8   0.192372530   1.79737   1.00062  -0.17485   0.87497
  38   35440.6    282.2   0.048689313   0.45228   0.05206   0.11092   0.66126
  39   35490.6    281.8   0.012933349   0.11997   0.11784   0.01501  -0.32536
  40   36061.8    277.3   0.132101035   1.20596  -0.68861   0.61690   0.59264
  41   36249.6    275.9   0.053354351   0.48455   0.52076  -0.43612   0.15218
  42   37293.6    268.1   0.006035716   0.05328   0.16884  -0.05815  -0.14626
  43   37365.0    267.6   0.027114487   0.23890   0.26866  -0.23485  -0.33401
  44   37775.2    264.7   0.036590097   0.31888  -0.06492   0.07341   0.55613
  45   38231.3    261.6   0.015899512   0.13691   0.31758  -0.03233  -0.18710
  46   38584.8    259.2   0.027604497   0.23553   0.07777  -0.22834  -0.42112
  47   38788.7    257.8   0.020052183   0.17019   0.24254  -0.28160  -0.17906
  48   38808.2    257.7   0.000755513   0.00641   0.04291  -0.05844  -0.03395
  49   38944.8    256.8   0.182183808   1.54005  -0.44122   0.09097  -1.15633
  50   39067.0    256.0   0.021137991   0.17813   0.11814   0.18115   0.36243
  51   39309.8    254.4   0.007061093   0.05914  -0.12471  -0.11625  -0.17340
  52   39604.5    252.5   0.017024840   0.14152   0.19897  -0.23326   0.21799
  53   39774.3    251.4   0.076610599   0.63411   0.56874   0.21354   0.51482
  54   39820.4    251.1   0.018654577   0.15423  -0.05968  -0.09636  -0.37600
  55   40046.6    249.7   0.062013433   0.50980  -0.69517  -0.02133   0.16148
  56   40252.1    248.4   0.070565472   0.57714  -0.30922   0.09667  -0.68715

FINAL SINGLE POINT ENERGY     -4660.818323442313

DIPOLE MOMENT
-------------
                                X             Y             Z
Electronic contribution:      1.32693       0.11809       1.44607
Nuclear contribution   :     -2.47831       0.92219      -3.81009
                        -----------------------------------------
Total Dipole Moment    :     -1.15138       1.04027      -2.36401
                        -----------------------------------------
Magnitude (a.u.)       :      2.82779
Magnitude (Debye)      :      7.18768

Rotational constants in cm-1:     0.003306     0.000141     0.000136
Rotational constants in MHz :    99.118903     4.218784     4.076724

                             ****ORCA TERMINATED NORMALLY****
TOTAL RUN TIME: 0 days 0 hours 10 minutes 57 seconds 28 msec
