                         Program Version 4.2.0 -  RELEASE  -
|  1> # ORCA input file
|  2> # SCF done       -192.923707103306          0.000543843286
|  3> ! CAM-B3LYP def2-SVP def2/J RIJCOSX Grid4 TightSCF
|  4> %maxcore 5000
|  5> %tddft
|  6>     Mode sTDDFT
|  7>     Ethresh 5.0
|  8>     maxcore 5000
|  9> end
| 10>
| 11> %pal
| 12>   nprocs 6
| 13>   end
| 14> * xyz 0 1
| 15>    C        0.58267         4.36802        -3.95035
| 16>    C       -0.39426         4.63803        -3.03076
| 17>    C       -0.30340         4.12349        -1.72880
| 18>    C        0.76180         3.34569        -1.36423
| 19>    C        1.78409         3.04485        -2.28689
| 20>    C        2.87945         2.22978        -1.91919
| 21>    C        3.85030         1.95303        -2.84337
| 22>    C        3.76683         2.50368        -4.15591
| 23>    C        2.71679         3.28719        -4.53977
| 24>    C        1.69287         3.57105        -3.60828
| 25>    C        4.95345         2.10102        -4.92723
| 26>    O        5.21083         2.32988        -6.08657
| 27>    C        5.83077         1.38329        -3.95307
| 28>    C        5.04976         1.12540        -2.76059
| 29>    C        5.23947         0.11559        -1.85292
| 30>    C        6.28036        -0.82895        -1.92871
| 31>    N        7.09939        -1.63341        -1.96324
| 32>    C        4.35433        -0.15897        -0.78881
| 33>    N        3.66644        -0.43209         0.08801
| 34>    C        7.13424         1.18248        -4.28610
| 35>    C        8.22947         0.86528        -3.45106
| 36>    C        8.35988         1.01972        -2.07899
| 37>    C        9.59807         0.59003        -1.61764
| 38>    C       10.42981         0.11049        -2.64759
| 39>    S        9.69386         0.21391        -4.17710
| 40>    C       11.63857        -0.34974        -2.06564
| 41>    C       11.56880        -0.16771        -0.67234
| 42>    C       10.28266         0.42729        -0.34533
| 43>    C        9.79129         0.73542         0.88858
| 44>    C       10.52903         0.52757         2.07337
| 45>    N       11.12763         0.37065         3.03816
| 46>    C        8.50181         1.28658         1.04793
| 47>    N        7.45367         1.73735         1.16179
| 48>    C       12.70850        -0.62565        -0.01132
| 49>    C       13.63721        -1.14638        -0.89089
| 50>    S       13.10324        -1.06998        -2.55749
| 51>    C       14.89704        -1.73807        -0.54555
| 52>    C       15.80679        -2.22068        -1.50312
| 53>    N       16.89140        -2.87300        -1.16702
| 54>    C       17.14475        -3.04286         0.14001
| 55>    C       16.29670        -2.45599         1.09537
| 56>    N       15.19156        -1.83704         0.75976
| 57>    C       18.27986        -3.85123         0.47876
| 58>    C       19.14962        -4.44104        -0.41764
| 59>    C       20.10843        -5.22127         0.22705
| 60>    C       19.96080        -5.21778         1.62615
| 61>    S       18.65443        -4.24819         2.14248
| 62>    C       20.94138        -6.07305         2.18848
| 63>    C       21.70589        -6.62469         1.13961
| 64>    C       21.22702        -6.08385        -0.12252
| 65>    C       21.72892        -6.32246        -1.36690
| 66>    C       22.85373        -7.14736        -1.58820
| 67>    N       23.77820        -7.79454        -1.78840
| 68>    C       21.17533        -5.73665        -2.52603
| 69>    N       20.73277        -5.26597        -3.47293
| 70>    C       22.65159        -7.54348         1.57878
| 71>    C       22.62193        -7.70323         2.95616
| 72>    S       21.42457        -6.64898         3.71364
| 73>    C       23.39438        -8.53009         3.80233
| 74>    C       24.01275        -9.70266         3.47555
| 75>    C       24.87275       -10.46657         4.36144
| 76>    C       25.51395        -9.98749         5.47410
| 77>    C       26.36505       -10.76365         6.28795
| 78>    N       27.06032       -11.34738         6.99050
| 79>    C       25.44311        -8.65462         5.93056
| 80>    N       25.44399        -7.58316         6.34390
| 81>    C       25.01013       -11.80614         3.80614
| 82>    C       24.32136       -11.84988         2.56068
| 83>    C       24.27439       -12.98242         1.80003
| 84>    C       24.92664       -14.14761         2.26099
| 85>    C       24.91322       -15.34550         1.51995
| 86>    C       25.54502       -16.46509         1.98942
| 87>    C       26.21923       -16.43468         3.21927
| 88>    C       26.25248       -15.28636         3.96289
| 89>    C       25.61228       -14.11495         3.50992
| 90>    C       25.64435       -12.92618         4.27491
| 91>    C       23.71044       -10.53990         2.28253
| 92>    O       23.03775       -10.25016         1.31665
| 93>    H        0.51849         4.76195        -4.95411
| 94>    H       -1.24176         5.24981        -3.30142
| 95>    H       -1.08281         4.34607        -1.01563
| 96>    H        0.83452         2.94432        -0.36422
| 97>    H        2.93034         1.85373        -0.90936
| 98>    H        2.66737         3.68625        -5.54198
| 99>    H        7.36451         1.34609        -5.33494
|100>    H        7.59684         1.46091        -1.46412
|101>    H       12.88153        -0.60155         1.04883
|102>    H       15.63878        -2.08272        -2.56340
|103>    H       16.51741        -2.50432         2.15386
|104>    H       19.05351        -4.29756        -1.47801
|105>    H       23.33780        -8.06844         0.94219
|106>    H       23.44384        -8.20235         4.83442
|107>    H       23.74692       -12.98765         0.85776
|108>    H       24.39240       -15.36228         0.57379
|109>    H       25.52836       -17.37986         1.41610
|110>    H       26.71290       -17.32656         3.57495
|111>    H       26.77176       -15.25801         4.90955
|112>    H       26.16457       -12.93475         5.21966
|113> *
|114>
|115>                          ****END OF INPUT****

CARTESIAN COORDINATES (ANGSTROEM)
---------------------------------
  C      0.582670    4.368020   -3.950350
  C     -0.394260    4.638030   -3.030760
  C     -0.303400    4.123490   -1.728800
  C      0.761800    3.345690   -1.364230
  C      1.784090    3.044850   -2.286890
  C      2.879450    2.229780   -1.919190
  C      3.850300    1.953030   -2.843370
  C      3.766830    2.503680   -4.155910
  C      2.716790    3.287190   -4.539770
  C      1.692870    3.571050   -3.608280
  C      4.953450    2.101020   -4.927230
  O      5.210830    2.329880   -6.086570
  C      5.830770    1.383290   -3.953070
  C      5.049760    1.125400   -2.760590
  C      5.239470    0.115590   -1.852920
  C      6.280360   -0.828950   -1.928710
  N      7.099390   -1.633410   -1.963240
  C      4.354330   -0.158970   -0.788810
  N      3.666440   -0.432090    0.088010
  C      7.134240    1.182480   -4.286100
  C      8.229470    0.865280   -3.451060
  C      8.359880    1.019720   -2.078990
  C      9.598070    0.590030   -1.617640
  C     10.429810    0.110490   -2.647590
  S      9.693860    0.213910   -4.177100
  C     11.638570   -0.349740   -2.065640
  C     11.568800   -0.167710   -0.672340
  C     10.282660    0.427290   -0.345330
  C      9.791290    0.735420    0.888580
  C     10.529030    0.527570    2.073370
  N     11.127630    0.370650    3.038160
  C      8.501810    1.286580    1.047930
  N      7.453670    1.737350    1.161790
  C     12.708500   -0.625650   -0.011320
  C     13.637210   -1.146380   -0.890890
  S     13.103240   -1.069980   -2.557490
  C     14.897040   -1.738070   -0.545550
  C     15.806790   -2.220680   -1.503120
  N     16.891400   -2.873000   -1.167020
  C     17.144750   -3.042860    0.140010
  C     16.296700   -2.455990    1.095370
  N     15.191560   -1.837040    0.759760
  C     18.279860   -3.851230    0.478760
  C     19.149620   -4.441040   -0.417640
  C     20.108430   -5.221270    0.227050
  C     19.960800   -5.217780    1.626150
  S     18.654430   -4.248190    2.142480
  C     20.941380   -6.073050    2.188480
  C     21.705890   -6.624690    1.139610
  C     21.227020   -6.083850   -0.122520
  C     21.728920   -6.322460   -1.366900
  C     22.853730   -7.147360   -1.588200
  N     23.778200   -7.794540   -1.788400
  C     21.175330   -5.736650   -2.526030
  N     20.732770   -5.265970   -3.472930
  C     22.651590   -7.543480    1.578780
  C     22.621930   -7.703230    2.956160
  S     21.424570   -6.648980    3.713640
  C     23.394380   -8.530090    3.802330
  C     24.012750   -9.702660    3.475550
  C     24.872750  -10.466570    4.361440
  C     25.513950   -9.987490    5.474100
  C     26.365050  -10.763650    6.287950
  N     27.060320  -11.347380    6.990500
  C     25.443110   -8.654620    5.930560
  N     25.443990   -7.583160    6.343900
  C     25.010130  -11.806140    3.806140
  C     24.321360  -11.849880    2.560680
  C     24.274390  -12.982420    1.800030
  C     24.926640  -14.147610    2.260990
  C     24.913220  -15.345500    1.519950
  C     25.545020  -16.465090    1.989420
  C     26.219230  -16.434680    3.219270
  C     26.252480  -15.286360    3.962890
  C     25.612280  -14.114950    3.509920
  C     25.644350  -12.926180    4.274910
  C     23.710440  -10.539900    2.282530
  O     23.037750  -10.250160    1.316650
  H      0.518490    4.761950   -4.954110
  H     -1.241760    5.249810   -3.301420
  H     -1.082810    4.346070   -1.015630
  H      0.834520    2.944320   -0.364220
  H      2.930340    1.853730   -0.909360
  H      2.667370    3.686250   -5.541980
  H      7.364510    1.346090   -5.334940
  H      7.596840    1.460910   -1.464120
  H     12.881530   -0.601550    1.048830
  H     15.638780   -2.082720   -2.563400
  H     16.517410   -2.504320    2.153860
  H     19.053510   -4.297560   -1.478010
  H     23.337800   -8.068440    0.942190
  H     23.443840   -8.202350    4.834420
  H     23.746920  -12.987650    0.857760
  H     24.392400  -15.362280    0.573790
  H     25.528360  -17.379860    1.416100
  H     26.712900  -17.326560    3.574950
  H     26.771760  -15.258010    4.909550
  H     26.164570  -12.934750    5.219660

 Total Charge           Charge          ....    0
 Multiplicity           Mult            ....    1
 Number of Electrons    NEL             ....  542
 Basis Dimension        Dim             .... 1208

ORBITAL ENERGIES
----------------

  NO   OCC          E(Eh)            E(eV)
   0   2.0000     -89.001505     -2421.8541
   1   2.0000     -89.000659     -2421.8310
   2   2.0000     -88.999446     -2421.7980
   3   2.0000     -88.999138     -2421.7897
   4   2.0000     -19.218444      -522.9605
   5   2.0000     -19.216676      -522.9123
   6   2.0000     -14.442600      -393.0031
   7   2.0000     -14.442392      -392.9975
   8   2.0000     -14.435914      -392.8212
   9   2.0000     -14.433814      -392.7641
  10   2.0000     -14.433785      -392.7632
  11   2.0000     -14.432411      -392.7259
  12   2.0000     -14.419857      -392.3843
  13   2.0000     -14.416503      -392.2930
  14   2.0000     -14.414975      -392.2514
  15   2.0000     -14.414689      -392.2436
  16   2.0000     -10.370943      -282.2077
  17   2.0000     -10.370839      -282.2049
  18   2.0000     -10.370563      -282.1974
  19   2.0000     -10.367751      -282.1208
  20   2.0000     -10.357768      -281.8492
  21   2.0000     -10.357150      -281.8324
  22   2.0000     -10.348145      -281.5873
  23   2.0000     -10.346413      -281.5402
  24   2.0000     -10.346228      -281.5352
  25   2.0000     -10.346009      -281.5292
  26   2.0000     -10.345343      -281.5111
  27   2.0000     -10.344278      -281.4821
  28   2.0000     -10.342709      -281.4394
  29   2.0000     -10.342641      -281.4376
  30   2.0000     -10.342417      -281.4315
  31   2.0000     -10.341365      -281.4028
  32   2.0000     -10.336604      -281.2733
  33   2.0000     -10.336350      -281.2664
  34   2.0000     -10.335990      -281.2566
  35   2.0000     -10.333540      -281.1899
  36   2.0000     -10.333539      -281.1899
  37   2.0000     -10.331912      -281.1456
  38   2.0000     -10.331830      -281.1434
  39   2.0000     -10.331536      -281.1354
  40   2.0000     -10.330570      -281.1091
  41   2.0000     -10.329943      -281.0921
  42   2.0000     -10.329538      -281.0810
  43   2.0000     -10.327345      -281.0213
  44   2.0000     -10.321183      -280.8537
  45   2.0000     -10.319441      -280.8063
  46   2.0000     -10.317758      -280.7605
  47   2.0000     -10.317074      -280.7419
  48   2.0000     -10.315514      -280.6994
  49   2.0000     -10.314833      -280.6809
  50   2.0000     -10.313569      -280.6465
  51   2.0000     -10.312023      -280.6044
  52   2.0000     -10.311494      -280.5900
  53   2.0000     -10.311173      -280.5813
  54   2.0000     -10.307984      -280.4945
  55   2.0000     -10.307873      -280.4915
  56   2.0000     -10.304330      -280.3951
  57   2.0000     -10.303469      -280.3716
  58   2.0000     -10.303443      -280.3709
  59   2.0000     -10.303070      -280.3608
  60   2.0000     -10.298428      -280.2345
  61   2.0000     -10.298290      -280.2307
  62   2.0000     -10.298281      -280.2305
  63   2.0000     -10.298033      -280.2237
  64   2.0000     -10.297997      -280.2227
  65   2.0000     -10.297495      -280.2091
  66   2.0000     -10.297212      -280.2014
  67   2.0000     -10.297085      -280.1979
  68   2.0000     -10.290527      -280.0195
  69   2.0000     -10.289424      -279.9895
  70   2.0000     -10.286998      -279.9234
  71   2.0000     -10.286973      -279.9228
  72   2.0000     -10.286503      -279.9100
  73   2.0000     -10.286463      -279.9089
  74   2.0000     -10.286272      -279.9037
  75   2.0000     -10.286184      -279.9013
  76   2.0000     -10.285784      -279.8904
  77   2.0000     -10.285528      -279.8834
  78   2.0000      -8.095993      -220.3032
  79   2.0000      -8.095218      -220.2821
  80   2.0000      -8.094212      -220.2547
  81   2.0000      -8.093901      -220.2462
  82   2.0000      -6.065204      -165.0426
  83   2.0000      -6.064407      -165.0209
  84   2.0000      -6.063387      -164.9931
  85   2.0000      -6.063028      -164.9834
  86   2.0000      -6.061035      -164.9291
  87   2.0000      -6.060255      -164.9079
  88   2.0000      -6.059188      -164.8789
  89   2.0000      -6.058908      -164.8713
  90   2.0000      -6.058453      -164.8589
  91   2.0000      -6.057690      -164.8381
  92   2.0000      -6.056696      -164.8111
  93   2.0000      -6.056424      -164.8037
  94   2.0000      -1.134233       -30.8640
  95   2.0000      -1.132064       -30.8050
  96   2.0000      -1.101013       -29.9601
  97   2.0000      -1.054223       -28.6869
  98   2.0000      -1.053282       -28.6613
  99   2.0000      -1.027781       -27.9674
 100   2.0000      -1.026210       -27.9246
 101   2.0000      -1.024243       -27.8711
 102   2.0000      -1.020597       -27.7719
 103   2.0000      -1.019097       -27.7311
 104   2.0000      -1.012239       -27.5444
 105   2.0000      -1.010311       -27.4920
 106   2.0000      -1.006026       -27.3753
 107   2.0000      -1.004679       -27.3387
 108   2.0000      -1.000420       -27.2228
 109   2.0000      -0.999101       -27.1869
 110   2.0000      -0.994246       -27.0548
 111   2.0000      -0.994220       -27.0541
 112   2.0000      -0.973597       -26.4929
 113   2.0000      -0.973224       -26.4828
 114   2.0000      -0.966697       -26.3052
 115   2.0000      -0.965268       -26.2663
 116   2.0000      -0.932510       -25.3749
 117   2.0000      -0.929899       -25.3038
 118   2.0000      -0.924182       -25.1483
 119   2.0000      -0.920694       -25.0534
 120   2.0000      -0.908353       -24.7175
 121   2.0000      -0.900909       -24.5150
 122   2.0000      -0.893609       -24.3163
 123   2.0000      -0.882454       -24.0128
 124   2.0000      -0.882378       -24.0107
 125   2.0000      -0.880467       -23.9587
 126   2.0000      -0.879392       -23.9295
 127   2.0000      -0.871933       -23.7265
 128   2.0000      -0.865267       -23.5451
 129   2.0000      -0.864069       -23.5125
 130   2.0000      -0.862069       -23.4581
 131   2.0000      -0.833655       -22.6849
 132   2.0000      -0.829124       -22.5616
 133   2.0000      -0.828793       -22.5526
 134   2.0000      -0.815901       -22.2018
 135   2.0000      -0.807338       -21.9688
 136   2.0000      -0.787735       -21.4354
 137   2.0000      -0.784874       -21.3575
 138   2.0000      -0.776682       -21.1346
 139   2.0000      -0.764444       -20.8016
 140   2.0000      -0.763735       -20.7823
 141   2.0000      -0.762392       -20.7457
 142   2.0000      -0.756204       -20.5774
 143   2.0000      -0.731699       -19.9105
 144   2.0000      -0.724744       -19.7213
 145   2.0000      -0.709428       -19.3045
 146   2.0000      -0.708594       -19.2818
 147   2.0000      -0.705430       -19.1957
 148   2.0000      -0.703681       -19.1481
 149   2.0000      -0.701633       -19.0924
 150   2.0000      -0.699239       -19.0273
 151   2.0000      -0.691067       -18.8049
 152   2.0000      -0.686979       -18.6936
 153   2.0000      -0.686268       -18.6743
 154   2.0000      -0.679494       -18.4900
 155   2.0000      -0.674934       -18.3659
 156   2.0000      -0.673245       -18.3199
 157   2.0000      -0.657453       -17.8902
 158   2.0000      -0.652139       -17.7456
 159   2.0000      -0.645850       -17.5745
 160   2.0000      -0.638114       -17.3640
 161   2.0000      -0.635914       -17.3041
 162   2.0000      -0.632076       -17.1997
 163   2.0000      -0.626515       -17.0484
 164   2.0000      -0.625719       -17.0267
 165   2.0000      -0.622816       -16.9477
 166   2.0000      -0.613818       -16.7028
 167   2.0000      -0.608708       -16.5638
 168   2.0000      -0.607692       -16.5361
 169   2.0000      -0.605936       -16.4884
 170   2.0000      -0.600839       -16.3497
 171   2.0000      -0.595847       -16.2138
 172   2.0000      -0.589434       -16.0393
 173   2.0000      -0.584123       -15.8948
 174   2.0000      -0.564427       -15.3588
 175   2.0000      -0.561039       -15.2666
 176   2.0000      -0.559536       -15.2257
 177   2.0000      -0.558764       -15.2047
 178   2.0000      -0.557970       -15.1831
 179   2.0000      -0.555881       -15.1263
 180   2.0000      -0.547778       -14.9058
 181   2.0000      -0.547166       -14.8891
 182   2.0000      -0.546415       -14.8687
 183   2.0000      -0.545093       -14.8327
 184   2.0000      -0.541107       -14.7243
 185   2.0000      -0.538497       -14.6533
 186   2.0000      -0.537767       -14.6334
 187   2.0000      -0.532989       -14.5034
 188   2.0000      -0.530721       -14.4416
 189   2.0000      -0.525513       -14.2999
 190   2.0000      -0.522902       -14.2289
 191   2.0000      -0.520368       -14.1599
 192   2.0000      -0.519361       -14.1325
 193   2.0000      -0.518406       -14.1065
 194   2.0000      -0.513415       -13.9707
 195   2.0000      -0.511323       -13.9138
 196   2.0000      -0.510889       -13.9020
 197   2.0000      -0.510457       -13.8902
 198   2.0000      -0.509358       -13.8603
 199   2.0000      -0.505945       -13.7675
 200   2.0000      -0.505516       -13.7558
 201   2.0000      -0.504931       -13.7399
 202   2.0000      -0.503452       -13.6996
 203   2.0000      -0.499352       -13.5881
 204   2.0000      -0.496997       -13.5240
 205   2.0000      -0.493736       -13.4352
 206   2.0000      -0.491822       -13.3832
 207   2.0000      -0.488171       -13.2838
 208   2.0000      -0.486133       -13.2284
 209   2.0000      -0.484475       -13.1832
 210   2.0000      -0.479759       -13.0549
 211   2.0000      -0.478312       -13.0155
 212   2.0000      -0.476676       -12.9710
 213   2.0000      -0.466054       -12.6820
 214   2.0000      -0.465992       -12.6803
 215   2.0000      -0.465610       -12.6699
 216   2.0000      -0.463777       -12.6200
 217   2.0000      -0.462392       -12.5823
 218   2.0000      -0.461064       -12.5462
 219   2.0000      -0.459862       -12.5135
 220   2.0000      -0.457112       -12.4387
 221   2.0000      -0.452957       -12.3256
 222   2.0000      -0.450911       -12.2699
 223   2.0000      -0.449504       -12.2316
 224   2.0000      -0.449307       -12.2263
 225   2.0000      -0.448291       -12.1986
 226   2.0000      -0.444951       -12.1077
 227   2.0000      -0.444882       -12.1058
 228   2.0000      -0.443969       -12.0810
 229   2.0000      -0.443283       -12.0623
 230   2.0000      -0.442501       -12.0411
 231   2.0000      -0.442085       -12.0298
 232   2.0000      -0.440490       -11.9864
 233   2.0000      -0.439927       -11.9710
 234   2.0000      -0.434769       -11.8307
 235   2.0000      -0.434396       -11.8205
 236   2.0000      -0.433258       -11.7896
 237   2.0000      -0.433153       -11.7867
 238   2.0000      -0.431096       -11.7307
 239   2.0000      -0.429104       -11.6765
 240   2.0000      -0.428207       -11.6521
 241   2.0000      -0.427506       -11.6330
 242   2.0000      -0.426268       -11.5993
 243   2.0000      -0.422196       -11.4885
 244   2.0000      -0.420313       -11.4373
 245   2.0000      -0.419785       -11.4229
 246   2.0000      -0.411514       -11.1979
 247   2.0000      -0.410073       -11.1586
 248   2.0000      -0.405118       -11.0238
 249   2.0000      -0.404629       -11.0105
 250   2.0000      -0.403393       -10.9769
 251   2.0000      -0.395419       -10.7599
 252   2.0000      -0.384679       -10.4676
 253   2.0000      -0.379236       -10.3195
 254   2.0000      -0.373732       -10.1698
 255   2.0000      -0.365671        -9.9504
 256   2.0000      -0.358892        -9.7659
 257   2.0000      -0.355513        -9.6740
 258   2.0000      -0.347827        -9.4648
 259   2.0000      -0.344222        -9.3668
 260   2.0000      -0.341056        -9.2806
 261   2.0000      -0.336508        -9.1569
 262   2.0000      -0.329053        -8.9540
 263   2.0000      -0.327383        -8.9085
 264   2.0000      -0.321632        -8.7521
 265   2.0000      -0.317589        -8.6420
 266   2.0000      -0.314736        -8.5644
 267   2.0000      -0.296528        -8.0689
 268   2.0000      -0.295063        -8.0291
 269   2.0000      -0.280083        -7.6214
 270   2.0000      -0.260424        -7.0865
 271   0.0000      -0.119645        -3.2557
 272   0.0000      -0.112805        -3.0696
 273   0.0000      -0.092117        -2.5066
 274   0.0000      -0.090609        -2.4656
 275   0.0000      -0.064514        -1.7555

MULLIKEN ATOMIC CHARGES
-----------------------
   0 C :   -0.014055
   1 C :    0.036374
   2 C :    0.035752
   3 C :   -0.015564
   4 C :    0.092646
   5 C :   -0.076008
   6 C :    0.027771
   7 C :    0.017543
   8 C :   -0.081465
   9 C :    0.093454
  10 C :    0.134842
  11 O :   -0.143131
  12 C :   -0.136934
  13 C :    0.272095
  14 C :   -0.331765
  15 C :   -0.200390
  16 N :    0.168371
  17 C :   -0.171125
  18 N :    0.157824
  19 C :    0.082306
  20 C :   -0.110848
  21 C :   -0.000878
  22 C :   -0.002705
  23 C :   -0.071765
  24 S :    0.215373
  25 C :   -0.098799
  26 C :    0.032222
  27 C :    0.302385
  28 C :   -0.286361
  29 C :   -0.190734
  30 N :    0.183278
  31 C :   -0.186557
  32 N :    0.173620
  33 C :   -0.042698
  34 C :   -0.041374
  35 S :    0.191002
  36 C :   -0.010102
  37 C :   -0.012521
  38 N :   -0.023587
  39 C :   -0.008559
  40 C :   -0.011212
  41 N :   -0.023231
  42 C :   -0.042335
  43 C :   -0.040907
  44 C :    0.030244
  45 C :   -0.098365
  46 S :    0.192937
  47 C :   -0.084913
  48 C :   -0.026609
  49 C :    0.300076
  50 C :   -0.289209
  51 C :   -0.187432
  52 N :    0.184467
  53 C :   -0.196019
  54 N :    0.187109
  55 C :    0.056385
  56 C :   -0.117309
  57 S :    0.208933
  58 C :    0.031985
  59 C :   -0.105524
  60 C :    0.299365
  61 C :   -0.338691
  62 C :   -0.181762
  63 N :    0.150123
  64 C :   -0.208389
  65 N :    0.158225
  66 C :    0.051095
  67 C :   -0.009240
  68 C :   -0.076078
  69 C :    0.096860
  70 C :   -0.014335
  71 C :    0.035380
  72 C :    0.038136
  73 C :   -0.018428
  74 C :    0.095536
  75 C :   -0.081356
  76 C :    0.154821
  77 O :   -0.151170
  78 H :   -0.017930
  79 H :   -0.005132
  80 H :   -0.003513
  81 H :   -0.009574
  82 H :   -0.000504
  83 H :   -0.012702
  84 H :    0.021597
  85 H :    0.025591
  86 H :    0.022213
  87 H :    0.015345
  88 H :    0.014435
  89 H :    0.022818
  90 H :    0.028648
  91 H :    0.026808
  92 H :   -0.012041
  93 H :   -0.017067
  94 H :   -0.004207
  95 H :   -0.004888
  96 H :   -0.009495
  97 H :   -0.008503
Sum of atomic charges:    0.0000000

LOEWDIN ATOMIC CHARGES
----------------------
   0 C :   -0.009156
   1 C :   -0.012535
   2 C :   -0.012284
   3 C :   -0.004940
   4 C :   -0.004885
   5 C :    0.019248
   6 C :   -0.022995
   7 C :   -0.058185
   8 C :    0.033377
   9 C :   -0.009065
  10 C :    0.083487
  11 O :   -0.143953
  12 C :   -0.088142
  13 C :    0.066394
  14 C :   -0.136504
  15 C :   -0.015307
  16 N :   -0.048139
  17 C :   -0.018309
  18 N :   -0.046076
  19 C :    0.041249
  20 C :   -0.179062
  21 C :    0.008293
  22 C :   -0.063352
  23 C :   -0.162618
  24 S :    0.500823
  25 C :   -0.178260
  26 C :   -0.059158
  27 C :    0.080920
  28 C :   -0.093815
  29 C :   -0.018523
  30 N :   -0.023932
  31 C :   -0.012999
  32 N :   -0.030328
  33 C :   -0.002856
  34 C :   -0.173814
  35 S :    0.487147
  36 C :   -0.027827
  37 C :    0.004486
  38 N :   -0.035134
  39 C :   -0.029256
  40 C :    0.005627
  41 N :   -0.036098
  42 C :   -0.171794
  43 C :   -0.004954
  44 C :   -0.056716
  45 C :   -0.182768
  46 S :    0.485597
  47 C :   -0.162858
  48 C :   -0.071930
  49 C :    0.076218
  50 C :   -0.091419
  51 C :   -0.018192
  52 N :   -0.020418
  53 C :   -0.018068
  54 N :   -0.025167
  55 C :    0.026864
  56 C :   -0.177874
  57 S :    0.493264
  58 C :    0.043743
  59 C :   -0.091885
  60 C :    0.075057
  61 C :   -0.140421
  62 C :   -0.017749
  63 N :   -0.052872
  64 C :   -0.025342
  65 N :   -0.052964
  66 C :   -0.026274
  67 C :   -0.055207
  68 C :    0.034083
  69 C :   -0.008153
  70 C :   -0.008726
  71 C :   -0.011937
  72 C :   -0.012627
  73 C :   -0.005401
  74 C :   -0.006032
  75 C :    0.019869
  76 C :    0.084406
  77 O :   -0.138757
  78 H :    0.031794
  79 H :    0.032854
  80 H :    0.033582
  81 H :    0.035127
  82 H :    0.040510
  83 H :    0.039350
  84 H :    0.045867
  85 H :    0.042943
  86 H :    0.047207
  87 H :    0.022315
  88 H :    0.022760
  89 H :    0.046823
  90 H :    0.045918
  91 H :    0.044663
  92 H :    0.039714
  93 H :    0.032280
  94 H :    0.033084
  95 H :    0.033266
  96 H :    0.034761
  97 H :    0.039045

  Mayer bond orders larger than 0.100000
B(  0-C ,  1-C ) :   1.4895 B(  0-C ,  9-C ) :   1.2452 B(  0-C , 78-H ) :   0.9971
B(  1-C ,  2-C ) :   1.2607 B(  1-C , 79-H ) :   0.9885 B(  2-C ,  3-C ) :   1.4902
B(  2-C , 80-H ) :   0.9882 B(  3-C ,  4-C ) :   1.2405 B(  3-C , 81-H ) :   0.9973
B(  4-C ,  5-C ) :   1.2062 B(  4-C ,  9-C ) :   1.2574 B(  5-C ,  6-C ) :   1.4578
B(  5-C , 82-H ) :   0.9934 B(  6-C ,  7-C ) :   1.2159 B(  6-C , 13-C ) :   0.9987
B(  7-C ,  8-C ) :   1.4731 B(  7-C , 10-C ) :   0.9212 B(  8-C ,  9-C ) :   1.1835
B(  8-C , 83-H ) :   1.0160 B( 10-C , 11-O ) :   2.2669 B( 10-C , 12-C ) :   0.9382
B( 12-C , 13-C ) :   1.0319 B( 12-C , 19-C ) :   1.6829 B( 13-C , 14-C ) :   1.6488
B( 14-C , 15-C ) :   1.1736 B( 14-C , 17-C ) :   1.1282 B( 15-C , 16-N ) :   2.9958
B( 17-C , 18-N ) :   2.9919 B( 19-C , 20-C ) :   1.1264 B( 19-C , 84-H ) :   0.9262
B( 20-C , 21-C ) :   1.4030 B( 20-C , 24-S ) :   1.0934 B( 21-C , 22-C ) :   1.3513
B( 21-C , 85-H ) :   0.9805 B( 22-C , 23-C ) :   1.4178 B( 22-C , 27-C ) :   0.9999
B( 23-C , 24-S ) :   1.1523 B( 23-C , 25-C ) :   1.1917 B( 25-C , 26-C ) :   1.4329
B( 25-C , 35-S ) :   1.1314 B( 26-C , 27-C ) :   0.9912 B( 26-C , 33-C ) :   1.2541
B( 27-C , 28-C ) :   1.7221 B( 28-C , 29-C ) :   1.1325 B( 28-C , 31-C ) :   1.1342
B( 29-C , 30-N ) :   2.9997 B( 31-C , 32-N ) :   2.9827 B( 33-C , 34-C ) :   1.4688
B( 33-C , 86-H ) :   1.0104 B( 34-C , 35-S ) :   1.1153 B( 34-C , 36-C ) :   1.0681
B( 36-C , 37-C ) :   1.2870 B( 36-C , 41-N ) :   1.5483 B( 37-C , 38-N ) :   1.6113
B( 37-C , 87-H ) :   0.9755 B( 38-N , 39-C ) :   1.5443 B( 39-C , 40-C ) :   1.2908
B( 39-C , 42-C ) :   1.0671 B( 40-C , 41-N ) :   1.6070 B( 40-C , 88-H ) :   0.9763
B( 42-C , 43-C ) :   1.4675 B( 42-C , 46-S ) :   1.1177 B( 43-C , 44-C ) :   1.2561
B( 43-C , 89-H ) :   1.0085 B( 44-C , 45-C ) :   1.4320 B( 44-C , 49-C ) :   0.9934
B( 45-C , 46-S ) :   1.1254 B( 45-C , 47-C ) :   1.2005 B( 47-C , 48-C ) :   1.3939
B( 47-C , 57-S ) :   1.1614 B( 48-C , 49-C ) :   0.9955 B( 48-C , 55-C ) :   1.3419
B( 49-C , 50-C ) :   1.7240 B( 50-C , 51-C ) :   1.1338 B( 50-C , 53-C ) :   1.1350
B( 51-C , 52-N ) :   2.9928 B( 53-C , 54-N ) :   2.9997 B( 55-C , 56-C ) :   1.4225
B( 55-C , 90-H ) :   0.9748 B( 56-C , 57-S ) :   1.0757 B( 56-C , 58-C ) :   1.1744
B( 58-C , 59-C ) :   1.6138 B( 58-C , 91-H ) :   0.9324 B( 59-C , 60-C ) :   1.0640
B( 59-C , 76-C ) :   0.9406 B( 60-C , 61-C ) :   1.6414 B( 60-C , 66-C ) :   0.9913
B( 61-C , 62-C ) :   1.1434 B( 61-C , 64-C ) :   1.1387 B( 62-C , 63-N ) :   2.9695
B( 64-C , 65-N ) :   2.9967 B( 66-C , 67-C ) :   1.2124 B( 66-C , 75-C ) :   1.4503
B( 67-C , 68-C ) :   1.4738 B( 67-C , 76-C ) :   0.9472 B( 68-C , 69-C ) :   1.1777
B( 68-C , 92-H ) :   1.0157 B( 69-C , 70-C ) :   1.2448 B( 69-C , 74-C ) :   1.2580
B( 70-C , 71-C ) :   1.4883 B( 70-C , 93-H ) :   0.9973 B( 71-C , 72-C ) :   1.2608
B( 71-C , 94-H ) :   0.9885 B( 72-C , 73-C ) :   1.4893 B( 72-C , 95-H ) :   0.9884
B( 73-C , 74-C ) :   1.2397 B( 73-C , 96-H ) :   0.9970 B( 74-C , 75-C ) :   1.2042
B( 75-C , 97-H ) :   0.9903 B( 76-C , 77-O ) :   2.2027

-----------------------------------------------------------------------------
         ABSORPTION SPECTRUM VIA TRANSITION ELECTRIC DIPOLE MOMENTS
-----------------------------------------------------------------------------
State   Energy  Wavelength   fosc         T2         TX        TY        TZ
        (cm-1)    (nm)                  (au**2)     (au)      (au)      (au)
-----------------------------------------------------------------------------
   0   14105.3    709.0   0.721274701  16.83423  -3.41224   1.95108  -1.17650
   1   14933.4    669.6   0.061827741   1.36301  -0.48100   0.96982  -0.43715
   2   20289.3    492.9   1.711838340  27.77609  -4.59004   2.19884  -1.36846
   3   21748.6    459.8   0.449101206   6.79812   0.72491  -2.18180   1.22979
   4   23081.0    433.3   0.005899563   0.08415  -0.21578  -0.02476   0.19229
   5   24165.6    413.8   0.016404914   0.22349   0.03344  -0.39011  -0.26492
   6   25327.3    394.8   0.004702462   0.06112  -0.14398   0.16448  -0.11549
   7   25577.4    391.0   0.028932904   0.37240  -0.00462   0.60772  -0.05528
   8   26897.8    371.8   0.000999809   0.01224  -0.02990   0.07455   0.07606
   9   27249.3    367.0   0.548744507   6.62965   2.11111  -1.47199   0.07812
  10   27936.8    358.0   0.210650623   2.48234  -1.09989   1.03273  -0.45391
  11   28550.1    350.3   0.038117132   0.43953   0.16254   0.27176   0.58246
  12   28652.1    349.0   0.004637254   0.05328   0.06592  -0.22100   0.00967
  13   28801.5    347.2   0.045557581   0.52074  -0.41926   0.52274   0.26778
  14   29457.9    339.5   0.002312052   0.02584  -0.14224  -0.03581   0.06577
  15   29942.1    334.0   0.175333461   1.92778  -0.03958   0.95208   1.00983
  16   30186.0    331.3   0.131048065   1.42922  -1.05716  -0.21602   0.51475
  17   30430.0    328.6   0.114737428   1.24130   0.31302  -0.93840  -0.51257
  18   30766.6    325.0   0.419865012   4.49268   0.02668  -0.27983   2.10087
  19   30836.3    324.3   0.004735465   0.05056   0.07817  -0.07101   0.19850
  20   30926.7    323.3   0.160040058   1.70361  -1.23467  -0.01582   0.42302
  21   31412.0    318.4   0.031282829   0.32786  -0.44463   0.33428   0.13573
  22   31558.6    316.9   0.236706791   2.46927   0.69739  -1.20877  -0.72236
  23   31775.2    314.7   0.294627806   3.05253   1.05029  -0.81406   1.13434
  24   32351.1    309.1   0.077960743   0.79335   0.30973   0.01604  -0.83496
  25   32494.2    307.7   0.470082315   4.76260   1.28753  -1.70455  -0.44650
  26   32758.9    305.3   0.100236390   1.00733   0.94201   0.32425   0.12173
  27   33099.5    302.1   0.017667462   0.17572  -0.30248   0.04922   0.28602
  28   33692.5    296.8   0.162936082   1.59206   0.97334  -0.73721   0.31811
  29   33806.8    295.8   0.041030062   0.39955   0.18687  -0.34393  -0.49633
  30   33971.6    294.4   0.099191289   0.96124   0.63224  -0.73868  -0.12593
  31   34301.6    291.5   0.233644976   2.24242  -0.99165   1.11972  -0.07273
  32   34366.3    291.0   0.004731555   0.04533  -0.06572   0.18859   0.07375
  33   34394.1    290.7   0.004043393   0.03870   0.03716   0.12207  -0.14973
  34   34735.5    287.9   0.136033955   1.28929   0.10991  -0.63115   0.93747
  35   34864.2    286.8   0.754250992   7.12216   0.19367  -1.77264  -1.98555
  36   35143.2    284.6   0.259267285   2.42875   1.04329  -0.93622   0.68102
  37   35275.3    283.5   0.169910048   1.58571   1.21084   0.34509   0.02220
  38   35350.2    282.9   0.012218538   0.11379  -0.10092   0.32124  -0.02024
  39   35811.5    279.2   0.138159069   1.27008  -0.04737   0.18998  -1.10984
  40   36310.1    275.4   0.101669189   0.92180  -0.68873   0.64910   0.16161
  41   36458.8    274.3   0.011411503   0.10304   0.06471   0.07882  -0.30437
  42   36938.2    270.7   0.015509468   0.13823   0.17311  -0.26814  -0.19069
  43   37367.4    267.6   0.004533698   0.03994   0.10371   0.06814  -0.15667
  44   37536.3    266.4   0.047288654   0.41474   0.29322  -0.32062  -0.47537
  45   37948.9    263.5   0.032462808   0.28162  -0.13134   0.38304  -0.34301
  46   38063.2    262.7   0.002554879   0.02210  -0.01542  -0.11732   0.08998
  47   38263.8    261.3   0.017607170   0.15149   0.32443  -0.13032   0.17104
  48   38474.6    259.9   0.013906880   0.11900  -0.05563   0.07709  -0.33160
  49   38775.0    257.9   0.017092508   0.14512   0.04096  -0.33244  -0.18145
  50   38906.6    257.0   0.059024699   0.49944   0.16490   0.35734   0.58699
  51   39143.5    255.5   0.041137712   0.34598  -0.10978  -0.39853  -0.41845
  52   39276.4    254.6   0.109103021   0.91449   0.50146  -0.01464   0.81414
  53   39314.9    254.4   0.030962520   0.25927   0.08757  -0.37472   0.33345
  54   39553.4    252.8   0.013560361   0.11287  -0.30696   0.13465   0.02258
  55   39768.0    251.5   0.082069386   0.67940   0.57982   0.09032   0.57884
  56   40000.1    250.0   0.036134167   0.29739  -0.45934  -0.06303   0.28709
  57   40258.6    248.4   0.129790360   1.06135   0.53428  -0.49633   0.72770

FINAL SINGLE POINT ENERGY     -4660.805654450681

DIPOLE MOMENT
-------------
                                X             Y             Z
Electronic contribution:     15.34018      13.66368       1.14810
Nuclear contribution   :    -16.94426     -13.33845      -2.78236
                        -----------------------------------------
Total Dipole Moment    :     -1.60408       0.32523      -1.63425
                        -----------------------------------------
Magnitude (a.u.)       :      2.31293
Magnitude (Debye)      :      5.87899

Rotational constants in cm-1:     0.002317     0.000147     0.000146
Rotational constants in MHz :    69.464975     4.421507     4.391736

                             ****ORCA TERMINATED NORMALLY****
TOTAL RUN TIME: 0 days 0 hours 10 minutes 35 seconds 908 msec
