                         Program Version 4.2.0 -  RELEASE  -
|  1> # ORCA input file
|  2> # SCF done       -216.699472123237          0.000493838906
|  3> ! CAM-B3LYP def2-SVP def2/J RIJCOSX Grid4 TightSCF
|  4> %maxcore 5000
|  5> %tddft
|  6>     Mode sTDDFT
|  7>     Ethresh 5.0
|  8>     maxcore 5000
|  9> end
| 10>
| 11> %pal
| 12>   nprocs 6
| 13>   end
| 14> * xyz 0 1
| 15>    C       -1.16657         1.92223        -0.00639
| 16>    C       -1.87202         2.05692         1.15843
| 17>    C       -1.20803         2.04128         2.39414
| 18>    C        0.15083         1.89043         2.44824
| 19>    C        0.90892         1.74992         1.26800
| 20>    C        2.31409         1.60039         1.31823
| 21>    C        3.01975         1.46690         0.15239
| 22>    C        2.33538         1.46883        -1.09796
| 23>    C        0.98072         1.61843        -1.17667
| 24>    C        0.23335         1.76514         0.01345
| 25>    C        3.30924         1.27286        -2.18431
| 26>    O        3.10868         1.27202        -3.37601
| 27>    C        4.61650         1.00825        -1.50142
| 28>    C        4.44934         1.32126        -0.09725
| 29>    C        5.44677         1.61399         0.79313
| 30>    C        5.22501         1.94405         2.14541
| 31>    N        5.10082         2.18879         3.26018
| 32>    C        6.81047         1.66763         0.44372
| 33>    N        7.92794         1.73417         0.19148
| 34>    C        5.61919         0.48280        -2.24311
| 35>    C        6.84705        -0.18154        -1.88974
| 36>    C        7.89119        -0.15186        -2.82657
| 37>    F        7.66852         0.57635        -3.94404
| 38>    C        9.09931        -0.81305        -2.65468
| 39>    O       10.12241        -0.88217        -3.53102
| 40>    C       10.24473         0.08727        -4.55615
| 41>    C        9.24610        -1.55982        -1.46959
| 42>    C        8.21602        -1.61432        -0.54120
| 43>    C        7.00324        -0.94947        -0.71304
| 44>    O        5.93963        -0.99232         0.11728
| 45>    C        5.90496        -1.89174         1.20931
| 46>    F        8.45552        -2.30479         0.59656
| 47>    C       10.47759        -2.32086        -1.23607
| 48>    C       11.74312        -1.72999        -1.28451
| 49>    C       12.94412        -2.50480        -1.11599
| 50>    N       14.15482        -1.89079        -1.16519
| 51>    C       14.19313        -0.62388        -1.38176
| 52>    C       12.99839         0.14739        -1.54266
| 53>    N       11.83189        -0.38954        -1.48131
| 54>    F       13.07452         1.45893        -1.74974
| 55>    F       15.38252        -0.03194        -1.43585
| 56>    C       12.90394        -3.88167        -0.88151
| 57>    C       11.63936        -4.47366        -0.80453
| 58>    C       10.43204        -3.69697        -0.98417
| 59>    N        9.33782        -4.46812        -0.92880
| 60>    S        9.78619        -5.97852        -0.66704
| 61>    N       11.36864        -5.77285        -0.62586
| 62>    C       14.12309        -4.69031        -0.76978
| 63>    C       15.02698        -4.72307        -1.82343
| 64>    F       14.70294        -4.01002        -2.92606
| 65>    C       16.17837        -5.50923        -1.80635
| 66>    O       17.05149        -5.67642        -2.81796
| 67>    C       17.12303        -4.71599        -3.85585
| 68>    C       16.39564        -6.28756        -0.65131
| 69>    C       15.46570        -6.27046         0.39200
| 70>    C       14.32968        -5.47051         0.38285
| 71>    O       13.40900        -5.32317         1.35895
| 72>    C       13.44988        -6.14555         2.50822
| 73>    F       15.75577        -7.05692         1.45698
| 74>    C       17.53024        -7.18552        -0.54741
| 75>    C       18.80864        -6.88299        -0.85973
| 76>    C       19.94026        -7.80018        -0.88903
| 77>    C       19.88360        -9.16353        -0.78639
| 78>    C       21.01186       -10.00978        -0.84578
| 79>    N       21.88693       -10.75193        -0.87826
| 80>    C       18.70503        -9.92479        -0.62958
| 81>    N       17.79870       -10.62149        -0.52307
| 82>    C       21.14238        -7.01371        -1.12988
| 83>    C       20.77673        -5.64342        -1.26294
| 84>    C       21.70237        -4.67035        -1.50950
| 85>    C       23.06157        -5.02974        -1.64603
| 86>    C       24.05926        -4.07163        -1.91321
| 87>    C       25.36986        -4.44401        -2.04130
| 88>    C       25.74048        -5.79077        -1.90810
| 89>    C       24.79634        -6.74606        -1.64797
| 90>    C       23.43674        -6.39793        -1.51080
| 91>    C       22.45775        -7.38219        -1.24756
| 92>    C       19.32163        -5.49868        -1.09079
| 93>    O       18.69288        -4.46602        -1.06300
| 94>    H       -1.67201         1.93365        -0.96097
| 95>    H       -2.94486         2.17623         1.13423
| 96>    H       -1.77926         2.15011         3.30388
| 97>    H        0.66644         1.88083         3.39735
| 98>    H        2.79805         1.58537         2.28234
| 99>    H        0.48420         1.62397        -2.13563
|100>    H        5.43082         0.52776        -3.31369
|101>    H        9.50417        -0.05992        -5.34557
|102>    H       11.24238        -0.05883        -4.96772
|103>    H       10.16113         1.09965        -4.15654
|104>    H        6.09636        -2.91835         0.89085
|105>    H        4.89261        -1.81532         1.60496
|106>    H        6.61905        -1.60999         1.98611
|107>    H       16.27880        -4.80042        -4.54396
|108>    H       18.04671        -4.93995        -4.38811
|109>    H       17.17271        -3.70381        -3.45093
|110>    H       13.39984        -7.20465         2.24632
|111>    H       12.56653        -5.87220         3.08322
|112>    H       14.34356        -5.95860         3.10817
|113>    H       17.29828        -8.16576        -0.14876
|114>    H       21.39912        -3.63814        -1.60406
|115>    H       23.76822        -3.03634        -2.01448
|116>    H       26.12839        -3.70332        -2.24573
|117>    H       26.77884        -6.06738        -2.01297
|118>    H       25.07628        -7.78423        -1.54545
|119>    H       22.77510        -8.40761        -1.14411
|120> *
|121>
|122>                          ****END OF INPUT****

CARTESIAN COORDINATES (ANGSTROEM)
---------------------------------
  C     -1.166570    1.922230   -0.006390
  C     -1.872020    2.056920    1.158430
  C     -1.208030    2.041280    2.394140
  C      0.150830    1.890430    2.448240
  C      0.908920    1.749920    1.268000
  C      2.314090    1.600390    1.318230
  C      3.019750    1.466900    0.152390
  C      2.335380    1.468830   -1.097960
  C      0.980720    1.618430   -1.176670
  C      0.233350    1.765140    0.013450
  C      3.309240    1.272860   -2.184310
  O      3.108680    1.272020   -3.376010
  C      4.616500    1.008250   -1.501420
  C      4.449340    1.321260   -0.097250
  C      5.446770    1.613990    0.793130
  C      5.225010    1.944050    2.145410
  N      5.100820    2.188790    3.260180
  C      6.810470    1.667630    0.443720
  N      7.927940    1.734170    0.191480
  C      5.619190    0.482800   -2.243110
  C      6.847050   -0.181540   -1.889740
  C      7.891190   -0.151860   -2.826570
  F      7.668520    0.576350   -3.944040
  C      9.099310   -0.813050   -2.654680
  O     10.122410   -0.882170   -3.531020
  C     10.244730    0.087270   -4.556150
  C      9.246100   -1.559820   -1.469590
  C      8.216020   -1.614320   -0.541200
  C      7.003240   -0.949470   -0.713040
  O      5.939630   -0.992320    0.117280
  C      5.904960   -1.891740    1.209310
  F      8.455520   -2.304790    0.596560
  C     10.477590   -2.320860   -1.236070
  C     11.743120   -1.729990   -1.284510
  C     12.944120   -2.504800   -1.115990
  N     14.154820   -1.890790   -1.165190
  C     14.193130   -0.623880   -1.381760
  C     12.998390    0.147390   -1.542660
  N     11.831890   -0.389540   -1.481310
  F     13.074520    1.458930   -1.749740
  F     15.382520   -0.031940   -1.435850
  C     12.903940   -3.881670   -0.881510
  C     11.639360   -4.473660   -0.804530
  C     10.432040   -3.696970   -0.984170
  N      9.337820   -4.468120   -0.928800
  S      9.786190   -5.978520   -0.667040
  N     11.368640   -5.772850   -0.625860
  C     14.123090   -4.690310   -0.769780
  C     15.026980   -4.723070   -1.823430
  F     14.702940   -4.010020   -2.926060
  C     16.178370   -5.509230   -1.806350
  O     17.051490   -5.676420   -2.817960
  C     17.123030   -4.715990   -3.855850
  C     16.395640   -6.287560   -0.651310
  C     15.465700   -6.270460    0.392000
  C     14.329680   -5.470510    0.382850
  O     13.409000   -5.323170    1.358950
  C     13.449880   -6.145550    2.508220
  F     15.755770   -7.056920    1.456980
  C     17.530240   -7.185520   -0.547410
  C     18.808640   -6.882990   -0.859730
  C     19.940260   -7.800180   -0.889030
  C     19.883600   -9.163530   -0.786390
  C     21.011860  -10.009780   -0.845780
  N     21.886930  -10.751930   -0.878260
  C     18.705030   -9.924790   -0.629580
  N     17.798700  -10.621490   -0.523070
  C     21.142380   -7.013710   -1.129880
  C     20.776730   -5.643420   -1.262940
  C     21.702370   -4.670350   -1.509500
  C     23.061570   -5.029740   -1.646030
  C     24.059260   -4.071630   -1.913210
  C     25.369860   -4.444010   -2.041300
  C     25.740480   -5.790770   -1.908100
  C     24.796340   -6.746060   -1.647970
  C     23.436740   -6.397930   -1.510800
  C     22.457750   -7.382190   -1.247560
  C     19.321630   -5.498680   -1.090790
  O     18.692880   -4.466020   -1.063000
  H     -1.672010    1.933650   -0.960970
  H     -2.944860    2.176230    1.134230
  H     -1.779260    2.150110    3.303880
  H      0.666440    1.880830    3.397350
  H      2.798050    1.585370    2.282340
  H      0.484200    1.623970   -2.135630
  H      5.430820    0.527760   -3.313690
  H      9.504170   -0.059920   -5.345570
  H     11.242380   -0.058830   -4.967720
  H     10.161130    1.099650   -4.156540
  H      6.096360   -2.918350    0.890850
  H      4.892610   -1.815320    1.604960
  H      6.619050   -1.609990    1.986110
  H     16.278800   -4.800420   -4.543960
  H     18.046710   -4.939950   -4.388110
  H     17.172710   -3.703810   -3.450930
  H     13.399840   -7.204650    2.246320
  H     12.566530   -5.872200    3.083220
  H     14.343560   -5.958600    3.108170
  H     17.298280   -8.165760   -0.148760
  H     21.399120   -3.638140   -1.604060
  H     23.768220   -3.036340   -2.014480
  H     26.128390   -3.703320   -2.245730
  H     26.778840   -6.067380   -2.012970
  H     25.076280   -7.784230   -1.545450
  H     22.775100   -8.407610   -1.144110

 Total Charge           Charge          ....    0
 Multiplicity           Mult            ....    1
 Number of Electrons    NEL             ....  548
 Basis Dimension        Dim             .... 1240

ORBITAL ENERGIES
----------------

  NO   OCC          E(Eh)            E(eV)
   0   2.0000     -89.035274     -2422.7730
   1   2.0000     -24.806954      -675.0315
   2   2.0000     -24.806474      -675.0185
   3   2.0000     -24.793414      -674.6631
   4   2.0000     -24.792658      -674.6425
   5   2.0000     -24.789794      -674.5646
   6   2.0000     -24.787824      -674.5110
   7   2.0000     -19.265641      -524.2447
   8   2.0000     -19.251222      -523.8524
   9   2.0000     -19.251042      -523.8475
  10   2.0000     -19.250520      -523.8333
  11   2.0000     -19.212596      -522.8013
  12   2.0000     -19.210433      -522.7424
  13   2.0000     -14.443497      -393.0275
  14   2.0000     -14.442873      -393.0106
  15   2.0000     -14.440398      -392.9432
  16   2.0000     -14.440249      -392.9392
  17   2.0000     -14.413614      -392.2144
  18   2.0000     -14.413405      -392.2087
  19   2.0000     -14.412806      -392.1924
  20   2.0000     -14.409291      -392.0967
  21   2.0000     -10.422137      -283.6008
  22   2.0000     -10.421636      -283.5871
  23   2.0000     -10.365334      -282.0551
  24   2.0000     -10.365089      -282.0484
  25   2.0000     -10.364405      -282.0298
  26   2.0000     -10.363100      -281.9943
  27   2.0000     -10.361430      -281.9489
  28   2.0000     -10.360210      -281.9156
  29   2.0000     -10.356270      -281.8084
  30   2.0000     -10.349444      -281.6227
  31   2.0000     -10.348774      -281.6045
  32   2.0000     -10.347569      -281.5717
  33   2.0000     -10.341018      -281.3934
  34   2.0000     -10.338343      -281.3206
  35   2.0000     -10.336809      -281.2789
  36   2.0000     -10.336644      -281.2744
  37   2.0000     -10.336563      -281.2722
  38   2.0000     -10.331843      -281.1438
  39   2.0000     -10.329546      -281.0812
  40   2.0000     -10.328875      -281.0630
  41   2.0000     -10.327455      -281.0243
  42   2.0000     -10.320194      -280.8268
  43   2.0000     -10.319685      -280.8129
  44   2.0000     -10.317302      -280.7481
  45   2.0000     -10.316312      -280.7211
  46   2.0000     -10.315865      -280.7089
  47   2.0000     -10.315344      -280.6948
  48   2.0000     -10.314972      -280.6847
  49   2.0000     -10.310285      -280.5571
  50   2.0000     -10.309947      -280.5479
  51   2.0000     -10.308315      -280.5035
  52   2.0000     -10.308174      -280.4997
  53   2.0000     -10.303096      -280.3615
  54   2.0000     -10.301871      -280.3282
  55   2.0000     -10.301676      -280.3229
  56   2.0000     -10.300223      -280.2833
  57   2.0000     -10.299121      -280.2533
  58   2.0000     -10.297358      -280.2054
  59   2.0000     -10.297183      -280.2006
  60   2.0000     -10.296862      -280.1919
  61   2.0000     -10.296387      -280.1789
  62   2.0000     -10.295816      -280.1634
  63   2.0000     -10.295422      -280.1527
  64   2.0000     -10.294763      -280.1347
  65   2.0000     -10.294221      -280.1200
  66   2.0000     -10.293653      -280.1045
  67   2.0000     -10.292381      -280.0699
  68   2.0000     -10.292347      -280.0690
  69   2.0000     -10.287019      -279.9240
  70   2.0000     -10.286293      -279.9043
  71   2.0000     -10.285669      -279.8873
  72   2.0000     -10.285395      -279.8798
  73   2.0000     -10.284900      -279.8663
  74   2.0000     -10.284893      -279.8662
  75   2.0000     -10.283907      -279.8393
  76   2.0000     -10.283586      -279.8306
  77   2.0000     -10.283292      -279.8226
  78   2.0000     -10.282750      -279.8078
  79   2.0000      -8.126709      -221.1390
  80   2.0000      -6.097587      -165.9238
  81   2.0000      -6.089898      -165.7145
  82   2.0000      -6.089829      -165.7127
  83   2.0000      -1.335528       -36.3416
  84   2.0000      -1.321063       -35.9480
  85   2.0000      -1.306956       -35.5641
  86   2.0000      -1.304980       -35.5103
  87   2.0000      -1.303466       -35.4691
  88   2.0000      -1.300929       -35.4001
  89   2.0000      -1.168707       -31.8021
  90   2.0000      -1.157029       -31.4843
  91   2.0000      -1.156291       -31.4643
  92   2.0000      -1.156053       -31.4578
  93   2.0000      -1.130787       -30.7703
  94   2.0000      -1.126941       -30.6656
  95   2.0000      -1.125768       -30.6337
  96   2.0000      -1.102441       -29.9990
  97   2.0000      -1.028868       -27.9969
  98   2.0000      -1.016095       -27.6494
  99   2.0000      -1.012845       -27.5609
 100   2.0000      -0.996663       -27.1206
 101   2.0000      -0.993843       -27.0439
 102   2.0000      -0.991919       -26.9915
 103   2.0000      -0.990332       -26.9483
 104   2.0000      -0.985906       -26.8279
 105   2.0000      -0.980127       -26.6706
 106   2.0000      -0.971891       -26.4465
 107   2.0000      -0.968503       -26.3543
 108   2.0000      -0.965702       -26.2781
 109   2.0000      -0.957269       -26.0486
 110   2.0000      -0.924174       -25.1481
 111   2.0000      -0.920792       -25.0560
 112   2.0000      -0.911857       -24.8129
 113   2.0000      -0.903531       -24.5863
 114   2.0000      -0.889708       -24.2102
 115   2.0000      -0.883015       -24.0281
 116   2.0000      -0.879658       -23.9367
 117   2.0000      -0.877407       -23.8754
 118   2.0000      -0.873028       -23.7563
 119   2.0000      -0.865438       -23.5498
 120   2.0000      -0.857364       -23.3300
 121   2.0000      -0.853970       -23.2377
 122   2.0000      -0.842220       -22.9180
 123   2.0000      -0.827532       -22.5183
 124   2.0000      -0.827003       -22.5039
 125   2.0000      -0.824825       -22.4446
 126   2.0000      -0.812882       -22.1196
 127   2.0000      -0.807363       -21.9695
 128   2.0000      -0.803124       -21.8541
 129   2.0000      -0.795273       -21.6405
 130   2.0000      -0.788975       -21.4691
 131   2.0000      -0.773027       -21.0351
 132   2.0000      -0.765826       -20.8392
 133   2.0000      -0.759748       -20.6738
 134   2.0000      -0.758452       -20.6385
 135   2.0000      -0.755209       -20.5503
 136   2.0000      -0.750275       -20.4160
 137   2.0000      -0.734702       -19.9922
 138   2.0000      -0.729379       -19.8474
 139   2.0000      -0.708794       -19.2873
 140   2.0000      -0.704711       -19.1762
 141   2.0000      -0.703277       -19.1371
 142   2.0000      -0.701941       -19.1008
 143   2.0000      -0.700671       -19.0662
 144   2.0000      -0.698713       -19.0130
 145   2.0000      -0.687286       -18.7020
 146   2.0000      -0.679458       -18.4890
 147   2.0000      -0.674627       -18.3575
 148   2.0000      -0.673118       -18.3165
 149   2.0000      -0.671237       -18.2653
 150   2.0000      -0.670330       -18.2406
 151   2.0000      -0.664791       -18.0899
 152   2.0000      -0.654735       -17.8162
 153   2.0000      -0.645728       -17.5711
 154   2.0000      -0.642270       -17.4771
 155   2.0000      -0.639700       -17.4071
 156   2.0000      -0.636089       -17.3089
 157   2.0000      -0.635211       -17.2850
 158   2.0000      -0.628884       -17.1128
 159   2.0000      -0.626881       -17.0583
 160   2.0000      -0.621429       -16.9099
 161   2.0000      -0.619140       -16.8477
 162   2.0000      -0.610673       -16.6173
 163   2.0000      -0.608670       -16.5628
 164   2.0000      -0.605598       -16.4792
 165   2.0000      -0.604683       -16.4543
 166   2.0000      -0.603222       -16.4145
 167   2.0000      -0.600763       -16.3476
 168   2.0000      -0.598801       -16.2942
 169   2.0000      -0.594178       -16.1684
 170   2.0000      -0.587686       -15.9917
 171   2.0000      -0.584004       -15.8916
 172   2.0000      -0.583871       -15.8879
 173   2.0000      -0.577604       -15.7174
 174   2.0000      -0.571917       -15.5627
 175   2.0000      -0.567858       -15.4522
 176   2.0000      -0.567645       -15.4464
 177   2.0000      -0.566106       -15.4045
 178   2.0000      -0.562078       -15.2949
 179   2.0000      -0.554443       -15.0872
 180   2.0000      -0.551650       -15.0112
 181   2.0000      -0.549453       -14.9514
 182   2.0000      -0.547195       -14.8899
 183   2.0000      -0.546848       -14.8805
 184   2.0000      -0.544773       -14.8240
 185   2.0000      -0.544389       -14.8136
 186   2.0000      -0.543101       -14.7785
 187   2.0000      -0.542197       -14.7539
 188   2.0000      -0.538892       -14.6640
 189   2.0000      -0.538216       -14.6456
 190   2.0000      -0.536819       -14.6076
 191   2.0000      -0.535518       -14.5722
 192   2.0000      -0.534270       -14.5382
 193   2.0000      -0.531718       -14.4688
 194   2.0000      -0.530267       -14.4293
 195   2.0000      -0.528441       -14.3796
 196   2.0000      -0.525286       -14.2938
 197   2.0000      -0.518130       -14.0990
 198   2.0000      -0.517298       -14.0764
 199   2.0000      -0.514565       -14.0020
 200   2.0000      -0.514059       -13.9883
 201   2.0000      -0.511635       -13.9223
 202   2.0000      -0.508977       -13.8500
 203   2.0000      -0.507914       -13.8211
 204   2.0000      -0.507417       -13.8075
 205   2.0000      -0.504705       -13.7337
 206   2.0000      -0.502826       -13.6826
 207   2.0000      -0.499826       -13.6009
 208   2.0000      -0.498304       -13.5595
 209   2.0000      -0.494579       -13.4582
 210   2.0000      -0.494405       -13.4534
 211   2.0000      -0.492135       -13.3917
 212   2.0000      -0.487933       -13.2773
 213   2.0000      -0.486623       -13.2417
 214   2.0000      -0.485770       -13.2185
 215   2.0000      -0.485337       -13.2067
 216   2.0000      -0.482516       -13.1299
 217   2.0000      -0.481429       -13.1003
 218   2.0000      -0.478740       -13.0272
 219   2.0000      -0.475654       -12.9432
 220   2.0000      -0.472990       -12.8707
 221   2.0000      -0.465481       -12.6664
 222   2.0000      -0.463608       -12.6154
 223   2.0000      -0.463357       -12.6086
 224   2.0000      -0.459514       -12.5040
 225   2.0000      -0.447648       -12.1811
 226   2.0000      -0.446935       -12.1617
 227   2.0000      -0.443521       -12.0688
 228   2.0000      -0.442610       -12.0440
 229   2.0000      -0.440152       -11.9771
 230   2.0000      -0.439984       -11.9726
 231   2.0000      -0.437645       -11.9089
 232   2.0000      -0.435932       -11.8623
 233   2.0000      -0.434595       -11.8259
 234   2.0000      -0.432870       -11.7790
 235   2.0000      -0.430912       -11.7257
 236   2.0000      -0.430008       -11.7011
 237   2.0000      -0.427612       -11.6359
 238   2.0000      -0.424559       -11.5528
 239   2.0000      -0.424208       -11.5433
 240   2.0000      -0.418109       -11.3773
 241   2.0000      -0.417494       -11.3606
 242   2.0000      -0.415858       -11.3161
 243   2.0000      -0.414037       -11.2665
 244   2.0000      -0.413169       -11.2429
 245   2.0000      -0.412275       -11.2186
 246   2.0000      -0.409223       -11.1355
 247   2.0000      -0.406689       -11.0666
 248   2.0000      -0.406072       -11.0498
 249   2.0000      -0.404722       -11.0131
 250   2.0000      -0.402536       -10.9536
 251   2.0000      -0.399150       -10.8614
 252   2.0000      -0.396222       -10.7817
 253   2.0000      -0.393823       -10.7165
 254   2.0000      -0.376893       -10.2558
 255   2.0000      -0.376207       -10.2371
 256   2.0000      -0.372576       -10.1383
 257   2.0000      -0.368442       -10.0258
 258   2.0000      -0.365773        -9.9532
 259   2.0000      -0.361561        -9.8386
 260   2.0000      -0.352060        -9.5800
 261   2.0000      -0.346803        -9.4370
 262   2.0000      -0.335151        -9.1199
 263   2.0000      -0.331686        -9.0256
 264   2.0000      -0.329720        -8.9721
 265   2.0000      -0.317620        -8.6429
 266   2.0000      -0.314332        -8.5534
 267   2.0000      -0.310180        -8.4404
 268   2.0000      -0.303085        -8.2474
 269   2.0000      -0.293016        -7.9734
 270   2.0000      -0.291096        -7.9211
 271   2.0000      -0.283037        -7.7018
 272   2.0000      -0.275877        -7.5070
 273   2.0000      -0.267850        -7.2886
 274   0.0000      -0.097618        -2.6563
 275   0.0000      -0.085387        -2.3235
 276   0.0000      -0.079241        -2.1563
 277   0.0000      -0.053356        -1.4519
 278   0.0000      -0.049740        -1.3535

MULLIKEN ATOMIC CHARGES
-----------------------
   0 C :   -0.013540
   1 C :    0.032126
   2 C :    0.036250
   3 C :   -0.017908
   4 C :    0.094257
   5 C :   -0.089444
   6 C :    0.039974
   7 C :    0.013149
   8 C :   -0.080032
   9 C :    0.092566
  10 C :    0.130920
  11 O :   -0.142324
  12 C :   -0.098930
  13 C :    0.317622
  14 C :   -0.333551
  15 C :   -0.184654
  16 N :    0.149011
  17 C :   -0.204003
  18 N :    0.170606
  19 C :    0.001553
  20 C :   -0.017316
  21 C :    0.123937
  22 F :   -0.184623
  23 C :    0.191831
  24 O :   -0.303800
  25 C :    0.184358
  26 C :   -0.125911
  27 C :    0.189717
  28 C :    0.118691
  29 O :   -0.308980
  30 C :    0.182022
  31 F :   -0.186901
  32 C :    0.062262
  33 C :   -0.042473
  34 C :   -0.055151
  35 N :    0.034787
  36 C :    0.125619
  37 C :    0.122819
  38 N :    0.038704
  39 F :   -0.140962
  40 F :   -0.140219
  41 C :    0.055520
  42 C :    0.022147
  43 C :    0.006618
  44 N :   -0.271203
  45 S :    0.532848
  46 N :   -0.264881
  47 C :   -0.138265
  48 C :    0.179271
  49 F :   -0.190801
  50 C :    0.162230
  51 O :   -0.304578
  52 C :    0.182851
  53 C :   -0.034937
  54 C :    0.108895
  55 C :    0.193371
  56 O :   -0.298936
  57 C :    0.185022
  58 F :   -0.188481
  59 C :   -0.032187
  60 C :   -0.051243
  61 C :    0.309035
  62 C :   -0.338143
  63 C :   -0.185850
  64 N :    0.150402
  65 C :   -0.199802
  66 N :    0.159536
  67 C :    0.050303
  68 C :   -0.011862
  69 C :   -0.080329
  70 C :    0.098707
  71 C :   -0.016709
  72 C :    0.035330
  73 C :    0.036604
  74 C :   -0.017792
  75 C :    0.094567
  76 C :   -0.083088
  77 C :    0.151664
  78 O :   -0.139079
  79 H :   -0.018770
  80 H :   -0.004933
  81 H :   -0.006480
  82 H :   -0.012527
  83 H :   -0.010772
  84 H :   -0.013379
  85 H :    0.034547
  86 H :    0.032388
  87 H :    0.028757
  88 H :    0.035489
  89 H :    0.036869
  90 H :    0.034604
  91 H :    0.041102
  92 H :    0.031036
  93 H :    0.028948
  94 H :    0.038716
  95 H :    0.030643
  96 H :    0.031832
  97 H :    0.030247
  98 H :    0.042725
  99 H :   -0.014853
 100 H :   -0.018001
 101 H :   -0.004223
 102 H :   -0.004885
 103 H :   -0.008732
 104 H :   -0.009159
Sum of atomic charges:   -0.0000000

LOEWDIN ATOMIC CHARGES
----------------------
   0 C :   -0.009176
   1 C :   -0.015288
   2 C :   -0.013922
   3 C :   -0.007812
   4 C :   -0.005535
   5 C :    0.010826
   6 C :   -0.020706
   7 C :   -0.058046
   8 C :    0.032703
   9 C :   -0.010598
  10 C :    0.085737
  11 O :   -0.139631
  12 C :   -0.078975
  13 C :    0.070124
  14 C :   -0.131816
  15 C :   -0.018555
  16 N :   -0.057086
  17 C :   -0.018427
  18 N :   -0.047770
  19 C :    0.072997
  20 C :   -0.071435
  21 C :    0.068111
  22 F :   -0.056330
  23 C :    0.034043
  24 O :   -0.093422
  25 C :    0.079302
  26 C :   -0.033823
  27 C :    0.066179
  28 C :    0.038760
  29 O :   -0.074881
  30 C :    0.079823
  31 F :   -0.055145
  32 C :   -0.010513
  33 C :    0.000834
  34 C :   -0.003740
  35 N :   -0.036127
  36 C :    0.056107
  37 C :    0.055215
  38 N :   -0.029209
  39 F :   -0.029974
  40 F :   -0.029438
  41 C :   -0.006870
  42 C :   -0.039674
  43 C :   -0.042172
  44 N :   -0.293446
  45 S :    0.677928
  46 N :   -0.285887
  47 C :   -0.039840
  48 C :    0.064179
  49 F :   -0.059709
  50 C :    0.043965
  51 O :   -0.087644
  52 C :    0.078514
  53 C :   -0.069068
  54 C :    0.061961
  55 C :    0.031369
  56 O :   -0.092145
  57 C :    0.078904
  58 F :   -0.062108
  59 C :    0.087439
  60 C :   -0.074641
  61 C :    0.076446
  62 C :   -0.133334
  63 C :   -0.016475
  64 N :   -0.052848
  65 C :   -0.022110
  66 N :   -0.047111
  67 C :   -0.026265
  68 C :   -0.055109
  69 C :    0.030491
  70 C :   -0.007978
  71 C :   -0.010055
  72 C :   -0.012361
  73 C :   -0.013757
  74 C :   -0.005101
  75 C :   -0.006467
  76 C :    0.019828
  77 C :    0.084416
  78 O :   -0.132513
  79 H :    0.031438
  80 H :    0.032428
  81 H :    0.032482
  82 H :    0.033542
  83 H :    0.037145
  84 H :    0.038824
  85 H :    0.047675
  86 H :    0.016778
  87 H :    0.024082
  88 H :    0.021820
  89 H :    0.021386
  90 H :    0.026429
  91 H :    0.021555
  92 H :    0.015875
  93 H :    0.024022
  94 H :    0.022292
  95 H :    0.018637
  96 H :    0.025701
  97 H :    0.017362
  98 H :    0.046644
  99 H :    0.038284
 100 H :    0.031699
 101 H :    0.032948
 102 H :    0.033146
 103 H :    0.034839
 104 H :    0.038832

  Mayer bond orders larger than 0.100000
B(  0-C ,  1-C ) :   1.4890 B(  0-C ,  9-C ) :   1.2433 B(  0-C , 79-H ) :   0.9983
B(  1-C ,  2-C ) :   1.2594 B(  1-C , 80-H ) :   0.9890 B(  2-C ,  3-C ) :   1.4894
B(  2-C , 81-H ) :   0.9891 B(  3-C ,  4-C ) :   1.2399 B(  3-C , 82-H ) :   0.9983
B(  4-C ,  5-C ) :   1.2027 B(  4-C ,  9-C ) :   1.2590 B(  5-C ,  6-C ) :   1.4526
B(  5-C , 83-H ) :   0.9945 B(  6-C ,  7-C ) :   1.2112 B(  6-C , 13-C ) :   1.0033
B(  7-C ,  8-C ) :   1.4726 B(  7-C , 10-C ) :   0.9242 B(  8-C ,  9-C ) :   1.1836
B(  8-C , 84-H ) :   1.0168 B( 10-C , 11-O ) :   2.2622 B( 10-C , 12-C ) :   0.9299
B( 12-C , 13-C ) :   1.0234 B( 12-C , 19-C ) :   1.7028 B( 13-C , 14-C ) :   1.6566
B( 14-C , 15-C ) :   1.1375 B( 14-C , 17-C ) :   1.1666 B( 15-C , 16-N ) :   2.9786
B( 17-C , 18-N ) :   3.0043 B( 19-C , 20-C ) :   1.0775 B( 19-C , 85-H ) :   0.9259
B( 20-C , 21-C ) :   1.2931 B( 20-C , 26-C ) :   0.1246 B( 20-C , 28-C ) :   1.3170
B( 21-C , 22-F ) :   1.1342 B( 21-C , 23-C ) :   1.2768 B( 23-C , 24-O ) :   1.2095
B( 23-C , 26-C ) :   1.3583 B( 24-O , 25-C ) :   0.9271 B( 25-C , 86-H ) :   0.9761
B( 25-C , 87-H ) :   0.9793 B( 25-C , 88-H ) :   0.9738 B( 26-C , 27-C ) :   1.3946
B( 26-C , 32-C ) :   0.9130 B( 27-C , 28-C ) :   1.2469 B( 27-C , 31-F ) :   1.1319
B( 28-C , 29-O ) :   1.1926 B( 29-O , 30-C ) :   0.9181 B( 30-C , 89-H ) :   0.9758
B( 30-C , 90-H ) :   0.9777 B( 30-C , 91-H ) :   0.9756 B( 32-C , 33-C ) :   1.4190
B( 32-C , 41-C ) :   0.1416 B( 32-C , 43-C ) :   1.2794 B( 33-C , 34-C ) :   1.0921
B( 33-C , 38-N ) :   1.3941 B( 34-C , 35-N ) :   1.3964 B( 34-C , 41-C ) :   1.4114
B( 35-N , 36-C ) :   1.7287 B( 36-C , 37-C ) :   1.0695 B( 36-C , 40-F ) :   1.1760
B( 37-C , 38-N ) :   1.7271 B( 37-C , 39-F ) :   1.1728 B( 41-C , 42-C ) :   1.2916
B( 41-C , 47-C ) :   0.9143 B( 42-C , 43-C ) :   1.1174 B( 42-C , 46-N ) :   1.4932
B( 43-C , 44-N ) :   1.4910 B( 44-N , 45-S ) :   1.3002 B( 44-N , 46-N ) :   0.1645
B( 45-S , 46-N ) :   1.3049 B( 47-C , 48-C ) :   1.3857 B( 47-C , 53-C ) :   0.1255
B( 47-C , 55-C ) :   1.3661 B( 48-C , 49-F ) :   1.1269 B( 48-C , 50-C ) :   1.2540
B( 50-C , 51-O ) :   1.2029 B( 50-C , 53-C ) :   1.3524 B( 51-O , 52-C ) :   0.9234
B( 52-C , 92-H ) :   0.9766 B( 52-C , 93-H ) :   0.9792 B( 52-C , 94-H ) :   0.9732
B( 53-C , 54-C ) :   1.3130 B( 53-C , 59-C ) :   1.0329 B( 54-C , 55-C ) :   1.2530
B( 54-C , 58-F ) :   1.1309 B( 55-C , 56-O ) :   1.2176 B( 56-O , 57-C ) :   0.9321
B( 57-C , 95-H ) :   0.9740 B( 57-C , 96-H ) :   0.9794 B( 57-C , 97-H ) :   0.9762
B( 59-C , 60-C ) :   1.7185 B( 59-C , 98-H ) :   0.9335 B( 60-C , 61-C ) :   1.0483
B( 60-C , 77-C ) :   0.9206 B( 61-C , 62-C ) :   1.6500 B( 61-C , 67-C ) :   0.9943
B( 62-C , 63-C ) :   1.1425 B( 62-C , 65-C ) :   1.1398 B( 63-C , 64-N ) :   2.9669
B( 65-C , 66-N ) :   2.9811 B( 67-C , 68-C ) :   1.2153 B( 67-C , 76-C ) :   1.4429
B( 68-C , 69-C ) :   1.4702 B( 68-C , 77-C ) :   0.9431 B( 69-C , 70-C ) :   1.1807
B( 69-C , 99-H ) :   1.0166 B( 70-C , 71-C ) :   1.2411 B( 70-C , 75-C ) :   1.2574
B( 71-C , 72-C ) :   1.4912 B( 71-C ,100-H ) :   0.9979 B( 72-C , 73-C ) :   1.2587
B( 72-C ,101-H ) :   0.9879 B( 73-C , 74-C ) :   1.4912 B( 73-C ,102-H ) :   0.9884
B( 74-C , 75-C ) :   1.2382 B( 74-C ,103-H ) :   0.9974 B( 75-C , 76-C ) :   1.2093
B( 76-C ,104-H ) :   0.9898 B( 77-C , 78-O ) :   2.2330

-----------------------------------------------------------------------------
         ABSORPTION SPECTRUM VIA TRANSITION ELECTRIC DIPOLE MOMENTS
-----------------------------------------------------------------------------
State   Energy  Wavelength   fosc         T2         TX        TY        TZ
        (cm-1)    (nm)                  (au**2)     (au)      (au)      (au)
-----------------------------------------------------------------------------
   0   18877.7    529.7   0.301284241   5.25416  -1.93949   1.18092  -0.31297
   1   20504.7    487.7   0.089240084   1.43279   1.00538  -0.64946   0.01399
   2   21855.0    457.6   0.127188746   1.91590  -1.18752   0.68008  -0.20782
   3   23239.6    430.3   0.421796038   5.97517   2.13007  -1.12793  -0.40710
   4   23813.4    419.9   0.160440052   2.21803   1.24466  -0.79835  -0.17746
   5   26641.9    375.3   0.022132303   0.27349  -0.40187   0.31022  -0.12548
   6   27345.7    365.7   0.156982178   1.88989   0.72250  -0.84737  -0.80613
   7   27752.8    360.3   0.111580641   1.32360   1.11001   0.15650  -0.25883
   8   27918.6    358.2   0.039444083   0.46512  -0.27489   0.60347   0.15931
   9   28160.2    355.1   0.004405600   0.05150   0.11016  -0.06540  -0.18733
  10   28557.5    350.2   0.108558471   1.25147  -1.03775   0.03772   0.41608
  11   29377.8    340.4   0.022857754   0.25615   0.40380   0.04325   0.30203
  12   29448.7    339.6   0.061529816   0.68785  -0.78880   0.25576   0.01540
  13   30000.5    333.3   0.033962300   0.37269  -0.31674  -0.51922  -0.05265
  14   30507.4    327.8   0.001999906   0.02158   0.13949   0.00111  -0.04608
  15   30833.9    324.3   0.053721942   0.57359   0.62187   0.04235  -0.43020
  16   31640.2    316.1   0.021902164   0.22789   0.08694   0.15987  -0.44133
  17   31942.7    313.1   0.019250148   0.19840  -0.02302   0.18713   0.40355
  18   32136.0    311.2   0.087567547   0.89707   0.64903  -0.68921  -0.02887
  19   32272.3    309.9   0.382441378   3.90131   0.98478   1.70272  -0.17954
  20   33069.5    302.4   0.042042093   0.41854   0.57717   0.28640  -0.05822
  21   33144.8    301.7   0.009624757   0.09560   0.10772  -0.22987  -0.17651
  22   33357.2    299.8   0.039811536   0.39291  -0.56611  -0.25399   0.08899
  23   33487.5    298.6   0.014909943   0.14658  -0.18377  -0.25322  -0.22064
  24   33771.6    296.1   0.126543125   1.23357  -0.78552  -0.78201   0.07059
  25   33832.1    295.6   0.174532504   1.69833  -1.23187  -0.05921  -0.42109
  26   34125.7    293.0   0.043322009   0.41793  -0.53566  -0.20887   0.29558
  27   34335.2    291.2   0.159134858   1.52581   1.23020   0.07353  -0.08370
  28   34477.0    290.0   0.824742455   7.87526   2.13852   1.75567  -0.46861
  29   34861.7    286.8   1.007085026   9.51028  -3.04200   0.45127   0.22987
  30   35588.7    281.0   0.032619943   0.30175   0.26133   0.48313  -0.00638
  31   35788.6    279.4   0.024713401   0.22733   0.41300  -0.16025  -0.17632
  32   35967.8    278.0   0.008716640   0.07978  -0.03721   0.27920   0.02107
  33   37175.3    269.0   0.079599979   0.70491  -0.72930  -0.41575   0.01365
  34   37319.5    268.0   0.185142014   1.63322   1.24600  -0.13593   0.24943
  35   38081.1    262.6   0.007865985   0.06800   0.15941   0.19573  -0.06541
  36   38206.3    261.7   0.042764393   0.36849  -0.00456  -0.60393   0.06112
  37   38562.6    259.3   0.100029469   0.85396  -0.10728   0.82954  -0.39284
  38   38654.5    258.7   0.037543230   0.31975   0.07695  -0.49826   0.25606
  39   39030.5    256.2   0.021952733   0.18517  -0.02768  -0.09538   0.41869
  40   39223.3    255.0   0.008920086   0.07487   0.07800  -0.21481   0.15047
  41   39305.1    254.4   0.011177840   0.09362  -0.20256   0.04738  -0.22438
  42   39439.0    253.6   0.019607022   0.16367  -0.32623   0.23364  -0.05148
  43   39564.7    252.8   0.001213516   0.01010   0.06983  -0.00903  -0.07169
  44   39783.9    251.4   0.070568837   0.58396  -0.28658  -0.03153  -0.70770
  45   39913.8    250.5   0.124782166   1.02921  -0.51899   0.86556  -0.10326
  46   40158.6    249.0   0.015591711   0.12782  -0.15261   0.04030   0.32079
  47   40297.1    248.2   0.014529048   0.11870   0.19589  -0.28284   0.01815

FINAL SINGLE POINT ENERGY     -4107.675350698954

DIPOLE MOMENT
-------------
                                X             Y             Z
Electronic contribution:      5.92088      -0.37593      -4.29733
Nuclear contribution   :     -6.71705       1.02150       3.90887
                        -----------------------------------------
Total Dipole Moment    :     -0.79617       0.64557      -0.38845
                        -----------------------------------------
Magnitude (a.u.)       :      1.09615
Magnitude (Debye)      :      2.78620

Rotational constants in cm-1:     0.002530     0.000260     0.000250
Rotational constants in MHz :    75.852832     7.807475     7.483659

                             ****ORCA TERMINATED NORMALLY****
TOTAL RUN TIME: 0 days 0 hours 11 minutes 36 seconds 195 msec
