                         Program Version 4.2.0 -  RELEASE  -
|  1> # ORCA input file
|  2> # SCF done       -212.268595348530          0.000693831516
|  3> ! CAM-B3LYP def2-SVP def2/J RIJCOSX Grid4 TightSCF
|  4> %maxcore 5000
|  5> %tddft
|  6>     Mode sTDDFT
|  7>     Ethresh 5.0
|  8>     maxcore 5000
|  9> end
| 10>
| 11> %pal
| 12>   nprocs 6
| 13>   end
| 14> * xyz 0 1
| 15>    C        1.26329         5.95441        -2.82204
| 16>    C        0.03636         5.68010        -2.28136
| 17>    C       -0.23442         4.41185        -1.74639
| 18>    C        0.72446         3.43566        -1.75925
| 19>    C        1.99801         3.68307        -2.31024
| 20>    C        2.98888         2.67443        -2.33497
| 21>    C        4.21313         2.94996        -2.88081
| 22>    C        4.49005         4.24850        -3.40028
| 23>    C        3.54961         5.23801        -3.39630
| 24>    C        2.27310         4.97251        -2.85127
| 25>    C        5.88358         4.29505        -3.87208
| 26>    O        6.46132         5.20448        -4.42222
| 27>    C        6.47749         2.98492        -3.46994
| 28>    C        5.39486         2.11323        -3.06507
| 29>    C        5.38652         0.74252        -3.09993
| 30>    C        6.48593        -0.03764        -3.50497
| 31>    N        7.35347        -0.70566        -3.85149
| 32>    C        4.24477        -0.04118        -2.83083
| 33>    N        3.34434        -0.72347        -2.63087
| 34>    C        7.83353         2.86581        -3.46199
| 35>    C        8.64200         1.92360        -2.78951
| 36>    C        8.32204         1.09567        -1.72267
| 37>    C        9.40572         0.33483        -1.30479
| 38>    C       10.57322         0.58393        -2.05279
| 39>    S       10.33262         1.76437        -3.25319
| 40>    C       11.61110        -0.24293        -1.55474
| 41>    C       11.09812        -1.01687        -0.49661
| 42>    C        9.69332        -0.68976        -0.31370
| 43>    C        8.80875        -1.23370         0.56992
| 44>    C        9.17023        -2.23777         1.49324
| 45>    N        9.45339        -3.04859         2.25221
| 46>    C        7.46189        -0.81377         0.61031
| 47>    N        6.37238        -0.45721         0.63818
| 48>    C       12.05510        -1.85496         0.07257
| 49>    C       13.28850        -1.72078        -0.54275
| 50>    S       13.26169        -0.55063        -1.85166
| 51>    C       14.52579        -2.37226        -0.24305
| 52>    C       14.73720        -3.28557         0.78575
| 53>    F       13.72610        -3.64073         1.59405
| 54>    C       15.98167        -3.87284         1.05115
| 55>    F       16.03875        -4.73208         2.08551
| 56>    C       17.13938        -3.61482         0.32478
| 57>    C       16.95120        -2.69773        -0.73960
| 58>    C       15.68694        -2.10192        -1.00618
| 59>    N       15.84124        -1.28882        -2.05913
| 60>    N       17.09978        -1.40545        -2.38030
| 61>    N       17.80963        -2.21409        -1.64818
| 62>    C       17.68050        -0.69708        -3.47785
| 63>    C       18.41880        -4.18818         0.59975
| 64>    C       19.57935        -3.91974        -0.10776
| 65>    C       20.67014        -4.61428         0.40179
| 66>    C       20.33705        -5.42134         1.50605
| 67>    S       18.68320        -5.32055         1.91274
| 68>    C       21.51101        -6.07995         1.94632
| 69>    C       22.58897        -5.68541         1.11924
| 70>    C       22.08976        -4.75545         0.11940
| 71>    C       22.78098        -4.13959        -0.88178
| 72>    C       24.15954        -4.33814        -1.11558
| 73>    N       25.27340        -4.47843        -1.34566
| 74>    C       22.15091        -3.24789        -1.77685
| 75>    N       21.64778        -2.52168        -2.50851
| 76>    C       23.79512        -6.27183         1.47626
| 77>    C       23.66317        -7.11957         2.56940
| 78>    S       21.98894        -7.17643         3.15026
| 79>    C       24.56936        -7.94528         3.26491
| 80>    C       25.92082        -8.11861         3.14359
| 81>    C       26.68370        -9.08147         3.92607
| 82>    C       26.19258       -10.03362         4.78277
| 83>    C       27.00047       -10.94100         5.50143
| 84>    N       27.58870       -11.70744         6.12154
| 85>    C       24.83554       -10.28395         5.07602
| 86>    N       23.76111       -10.57083         5.36545
| 87>    C       28.09543        -8.89977         3.60830
| 88>    C       28.20916        -7.87597         2.62739
| 89>    C       29.41468        -7.48694         2.11882
| 90>    C       30.59051        -8.11995         2.57878
| 91>    C       31.86326        -7.76765         2.08867
| 92>    C       32.98821        -8.39624         2.54948
| 93>    C       32.88924        -9.40375         3.52077
| 94>    C       31.66784        -9.76889         4.01800
| 95>    C       30.48837        -9.14340         3.56487
| 96>    C       29.22450        -9.52231         4.07278
| 97>    C       26.87314        -7.35853         2.29437
| 98>    O       26.63516        -6.47253         1.50017
| 99>    H        1.47784         6.92933        -3.23485
|100>    H       -0.73160         6.43885        -2.26248
|101>    H       -1.20770         4.21183        -1.32402
|102>    H        0.51989         2.45679        -1.35134
|103>    H        2.75967         1.71074        -1.90765
|104>    H        3.77637         6.21268        -3.80223
|105>    H        8.36046         3.65346        -3.99274
|106>    H        7.35571         1.09338        -1.25270
|107>    H       11.86674        -2.52438         0.89125
|108>    H       17.48783         0.36996        -3.36999
|109>    H       17.24021        -1.03877        -4.41534
|110>    H       18.75042        -0.89466        -3.47466
|111>    H       19.59281        -3.24710        -0.94449
|112>    H       24.73977        -6.10356         0.99004
|113>    H       24.08379        -8.53981         4.02993
|114>    H       29.46738        -6.70746         1.37331
|115>    H       31.93248        -6.99124         1.34090
|116>    H       33.96018        -8.12091         2.16825
|117>    H       33.78656        -9.88992         3.87321
|118>    H       31.58674       -10.54462         4.76527
|119>    H       29.18560       -10.29822         4.82024
|120> *
|121>
|122>                          ****END OF INPUT****

CARTESIAN COORDINATES (ANGSTROEM)
---------------------------------
  C      1.263290    5.954410   -2.822040
  C      0.036360    5.680100   -2.281360
  C     -0.234420    4.411850   -1.746390
  C      0.724460    3.435660   -1.759250
  C      1.998010    3.683070   -2.310240
  C      2.988880    2.674430   -2.334970
  C      4.213130    2.949960   -2.880810
  C      4.490050    4.248500   -3.400280
  C      3.549610    5.238010   -3.396300
  C      2.273100    4.972510   -2.851270
  C      5.883580    4.295050   -3.872080
  O      6.461320    5.204480   -4.422220
  C      6.477490    2.984920   -3.469940
  C      5.394860    2.113230   -3.065070
  C      5.386520    0.742520   -3.099930
  C      6.485930   -0.037640   -3.504970
  N      7.353470   -0.705660   -3.851490
  C      4.244770   -0.041180   -2.830830
  N      3.344340   -0.723470   -2.630870
  C      7.833530    2.865810   -3.461990
  C      8.642000    1.923600   -2.789510
  C      8.322040    1.095670   -1.722670
  C      9.405720    0.334830   -1.304790
  C     10.573220    0.583930   -2.052790
  S     10.332620    1.764370   -3.253190
  C     11.611100   -0.242930   -1.554740
  C     11.098120   -1.016870   -0.496610
  C      9.693320   -0.689760   -0.313700
  C      8.808750   -1.233700    0.569920
  C      9.170230   -2.237770    1.493240
  N      9.453390   -3.048590    2.252210
  C      7.461890   -0.813770    0.610310
  N      6.372380   -0.457210    0.638180
  C     12.055100   -1.854960    0.072570
  C     13.288500   -1.720780   -0.542750
  S     13.261690   -0.550630   -1.851660
  C     14.525790   -2.372260   -0.243050
  C     14.737200   -3.285570    0.785750
  F     13.726100   -3.640730    1.594050
  C     15.981670   -3.872840    1.051150
  F     16.038750   -4.732080    2.085510
  C     17.139380   -3.614820    0.324780
  C     16.951200   -2.697730   -0.739600
  C     15.686940   -2.101920   -1.006180
  N     15.841240   -1.288820   -2.059130
  N     17.099780   -1.405450   -2.380300
  N     17.809630   -2.214090   -1.648180
  C     17.680500   -0.697080   -3.477850
  C     18.418800   -4.188180    0.599750
  C     19.579350   -3.919740   -0.107760
  C     20.670140   -4.614280    0.401790
  C     20.337050   -5.421340    1.506050
  S     18.683200   -5.320550    1.912740
  C     21.511010   -6.079950    1.946320
  C     22.588970   -5.685410    1.119240
  C     22.089760   -4.755450    0.119400
  C     22.780980   -4.139590   -0.881780
  C     24.159540   -4.338140   -1.115580
  N     25.273400   -4.478430   -1.345660
  C     22.150910   -3.247890   -1.776850
  N     21.647780   -2.521680   -2.508510
  C     23.795120   -6.271830    1.476260
  C     23.663170   -7.119570    2.569400
  S     21.988940   -7.176430    3.150260
  C     24.569360   -7.945280    3.264910
  C     25.920820   -8.118610    3.143590
  C     26.683700   -9.081470    3.926070
  C     26.192580  -10.033620    4.782770
  C     27.000470  -10.941000    5.501430
  N     27.588700  -11.707440    6.121540
  C     24.835540  -10.283950    5.076020
  N     23.761110  -10.570830    5.365450
  C     28.095430   -8.899770    3.608300
  C     28.209160   -7.875970    2.627390
  C     29.414680   -7.486940    2.118820
  C     30.590510   -8.119950    2.578780
  C     31.863260   -7.767650    2.088670
  C     32.988210   -8.396240    2.549480
  C     32.889240   -9.403750    3.520770
  C     31.667840   -9.768890    4.018000
  C     30.488370   -9.143400    3.564870
  C     29.224500   -9.522310    4.072780
  C     26.873140   -7.358530    2.294370
  O     26.635160   -6.472530    1.500170
  H      1.477840    6.929330   -3.234850
  H     -0.731600    6.438850   -2.262480
  H     -1.207700    4.211830   -1.324020
  H      0.519890    2.456790   -1.351340
  H      2.759670    1.710740   -1.907650
  H      3.776370    6.212680   -3.802230
  H      8.360460    3.653460   -3.992740
  H      7.355710    1.093380   -1.252700
  H     11.866740   -2.524380    0.891250
  H     17.487830    0.369960   -3.369990
  H     17.240210   -1.038770   -4.415340
  H     18.750420   -0.894660   -3.474660
  H     19.592810   -3.247100   -0.944490
  H     24.739770   -6.103560    0.990040
  H     24.083790   -8.539810    4.029930
  H     29.467380   -6.707460    1.373310
  H     31.932480   -6.991240    1.340900
  H     33.960180   -8.120910    2.168250
  H     33.786560   -9.889920    3.873210
  H     31.586740  -10.544620    4.765270
  H     29.185600  -10.298220    4.820240

 Total Charge           Charge          ....    0
 Multiplicity           Mult            ....    1
 Number of Electrons    NEL             ....  586
 Basis Dimension        Dim             .... 1297

ORBITAL ENERGIES
----------------

  NO   OCC          E(Eh)            E(eV)
   0   2.0000     -88.997213     -2421.7373
   1   2.0000     -88.997031     -2421.7323
   2   2.0000     -88.996042     -2421.7054
   3   2.0000     -88.991801     -2421.5900
   4   2.0000     -24.818323      -675.3409
   5   2.0000     -24.813595      -675.2122
   6   2.0000     -19.217982      -522.9479
   7   2.0000     -19.213841      -522.8352
   8   2.0000     -14.567550      -396.4032
   9   2.0000     -14.469657      -393.7394
  10   2.0000     -14.469260      -393.7286
  11   2.0000     -14.436572      -392.8391
  12   2.0000     -14.432101      -392.7174
  13   2.0000     -14.430475      -392.6732
  14   2.0000     -14.430443      -392.6723
  15   2.0000     -14.417614      -392.3232
  16   2.0000     -14.416691      -392.2981
  17   2.0000     -14.412808      -392.1924
  18   2.0000     -14.411618      -392.1601
  19   2.0000     -10.394992      -282.8621
  20   2.0000     -10.394581      -282.8509
  21   2.0000     -10.369615      -282.1716
  22   2.0000     -10.368954      -282.1536
  23   2.0000     -10.366470      -282.0860
  24   2.0000     -10.365156      -282.0502
  25   2.0000     -10.356537      -281.8157
  26   2.0000     -10.353983      -281.7462
  27   2.0000     -10.348199      -281.5888
  28   2.0000     -10.342629      -281.4372
  29   2.0000     -10.342172      -281.4248
  30   2.0000     -10.341304      -281.4012
  31   2.0000     -10.341004      -281.3930
  32   2.0000     -10.340531      -281.3801
  33   2.0000     -10.337911      -281.3089
  34   2.0000     -10.337519      -281.2982
  35   2.0000     -10.336791      -281.2784
  36   2.0000     -10.336659      -281.2748
  37   2.0000     -10.335376      -281.2399
  38   2.0000     -10.334610      -281.2190
  39   2.0000     -10.334295      -281.2105
  40   2.0000     -10.332393      -281.1587
  41   2.0000     -10.332216      -281.1539
  42   2.0000     -10.331986      -281.1476
  43   2.0000     -10.331054      -281.1223
  44   2.0000     -10.330366      -281.1036
  45   2.0000     -10.329996      -281.0935
  46   2.0000     -10.329626      -281.0834
  47   2.0000     -10.328064      -281.0409
  48   2.0000     -10.327933      -281.0373
  49   2.0000     -10.324405      -280.9414
  50   2.0000     -10.320700      -280.8405
  51   2.0000     -10.317836      -280.7626
  52   2.0000     -10.316179      -280.7175
  53   2.0000     -10.314082      -280.6604
  54   2.0000     -10.312352      -280.6134
  55   2.0000     -10.311614      -280.5933
  56   2.0000     -10.310127      -280.5528
  57   2.0000     -10.307749      -280.4881
  58   2.0000     -10.307591      -280.4838
  59   2.0000     -10.306800      -280.4623
  60   2.0000     -10.305433      -280.4251
  61   2.0000     -10.302404      -280.3427
  62   2.0000     -10.302308      -280.3401
  63   2.0000     -10.301725      -280.3242
  64   2.0000     -10.301549      -280.3194
  65   2.0000     -10.299542      -280.2648
  66   2.0000     -10.296495      -280.1819
  67   2.0000     -10.296258      -280.1754
  68   2.0000     -10.296196      -280.1737
  69   2.0000     -10.296030      -280.1692
  70   2.0000     -10.295762      -280.1619
  71   2.0000     -10.295597      -280.1574
  72   2.0000     -10.294984      -280.1408
  73   2.0000     -10.294789      -280.1354
  74   2.0000     -10.288081      -279.9529
  75   2.0000     -10.286812      -279.9184
  76   2.0000     -10.285586      -279.8850
  77   2.0000     -10.285072      -279.8710
  78   2.0000     -10.284983      -279.8686
  79   2.0000     -10.284810      -279.8639
  80   2.0000     -10.284585      -279.8578
  81   2.0000     -10.284365      -279.8518
  82   2.0000     -10.284142      -279.8457
  83   2.0000     -10.283491      -279.8280
  84   2.0000      -8.091837      -220.1901
  85   2.0000      -8.091212      -220.1731
  86   2.0000      -8.090746      -220.1604
  87   2.0000      -8.085358      -220.0138
  88   2.0000      -6.060885      -164.9251
  89   2.0000      -6.060509      -164.9148
  90   2.0000      -6.059866      -164.8973
  91   2.0000      -6.056789      -164.8136
  92   2.0000      -6.056126      -164.7956
  93   2.0000      -6.055760      -164.7856
  94   2.0000      -6.054710      -164.7570
  95   2.0000      -6.054417      -164.7491
  96   2.0000      -6.053654      -164.7283
  97   2.0000      -6.053277      -164.7181
  98   2.0000      -6.050203      -164.6344
  99   2.0000      -6.047807      -164.5692
 100   2.0000      -1.339386       -36.4465
 101   2.0000      -1.321110       -35.9492
 102   2.0000      -1.247128       -33.9361
 103   2.0000      -1.133376       -30.8407
 104   2.0000      -1.129183       -30.7266
 105   2.0000      -1.051815       -28.6213
 106   2.0000      -1.049431       -28.5565
 107   2.0000      -1.026260       -27.9259
 108   2.0000      -1.025160       -27.8960
 109   2.0000      -1.022388       -27.8206
 110   2.0000      -1.019786       -27.7498
 111   2.0000      -1.018353       -27.7108
 112   2.0000      -1.016877       -27.6706
 113   2.0000      -1.009737       -27.4763
 114   2.0000      -1.008779       -27.4503
 115   2.0000      -1.003081       -27.2952
 116   2.0000      -0.998761       -27.1777
 117   2.0000      -0.997776       -27.1509
 118   2.0000      -0.997507       -27.1435
 119   2.0000      -0.993121       -27.0242
 120   2.0000      -0.991161       -26.9709
 121   2.0000      -0.971718       -26.4418
 122   2.0000      -0.970749       -26.4154
 123   2.0000      -0.965041       -26.2601
 124   2.0000      -0.962173       -26.1821
 125   2.0000      -0.948468       -25.8091
 126   2.0000      -0.930856       -25.3299
 127   2.0000      -0.926922       -25.2228
 128   2.0000      -0.922332       -25.0979
 129   2.0000      -0.917382       -24.9632
 130   2.0000      -0.905910       -24.6511
 131   2.0000      -0.897764       -24.4294
 132   2.0000      -0.891402       -24.2563
 133   2.0000      -0.880530       -23.9604
 134   2.0000      -0.880106       -23.9489
 135   2.0000      -0.877617       -23.8812
 136   2.0000      -0.876826       -23.8596
 137   2.0000      -0.869005       -23.6468
 138   2.0000      -0.862095       -23.4588
 139   2.0000      -0.860338       -23.4110
 140   2.0000      -0.859139       -23.3784
 141   2.0000      -0.841551       -22.8998
 142   2.0000      -0.827279       -22.5114
 143   2.0000      -0.826901       -22.5011
 144   2.0000      -0.821900       -22.3650
 145   2.0000      -0.814146       -22.1540
 146   2.0000      -0.801211       -21.8021
 147   2.0000      -0.783476       -21.3195
 148   2.0000      -0.781660       -21.2700
 149   2.0000      -0.774567       -21.0770
 150   2.0000      -0.762085       -20.7374
 151   2.0000      -0.761817       -20.7301
 152   2.0000      -0.759692       -20.6723
 153   2.0000      -0.754917       -20.5423
 154   2.0000      -0.735701       -20.0194
 155   2.0000      -0.730593       -19.8805
 156   2.0000      -0.716693       -19.5022
 157   2.0000      -0.709088       -19.2953
 158   2.0000      -0.705569       -19.1995
 159   2.0000      -0.704031       -19.1577
 160   2.0000      -0.700084       -19.0503
 161   2.0000      -0.699069       -19.0226
 162   2.0000      -0.693644       -18.8750
 163   2.0000      -0.691389       -18.8136
 164   2.0000      -0.686404       -18.6780
 165   2.0000      -0.684662       -18.6306
 166   2.0000      -0.677798       -18.4438
 167   2.0000      -0.674716       -18.3600
 168   2.0000      -0.668033       -18.1781
 169   2.0000      -0.664333       -18.0774
 170   2.0000      -0.658482       -17.9182
 171   2.0000      -0.653086       -17.7714
 172   2.0000      -0.647849       -17.6289
 173   2.0000      -0.640226       -17.4214
 174   2.0000      -0.636283       -17.3141
 175   2.0000      -0.634258       -17.2590
 176   2.0000      -0.631228       -17.1766
 177   2.0000      -0.629905       -17.1406
 178   2.0000      -0.628000       -17.0888
 179   2.0000      -0.620856       -16.8944
 180   2.0000      -0.617419       -16.8008
 181   2.0000      -0.609233       -16.5781
 182   2.0000      -0.606065       -16.4919
 183   2.0000      -0.605200       -16.4683
 184   2.0000      -0.602010       -16.3815
 185   2.0000      -0.601595       -16.3702
 186   2.0000      -0.598968       -16.2987
 187   2.0000      -0.594640       -16.1810
 188   2.0000      -0.585171       -15.9233
 189   2.0000      -0.580120       -15.7859
 190   2.0000      -0.577438       -15.7129
 191   2.0000      -0.564292       -15.3552
 192   2.0000      -0.563966       -15.3463
 193   2.0000      -0.557377       -15.1670
 194   2.0000      -0.554822       -15.0975
 195   2.0000      -0.553411       -15.0591
 196   2.0000      -0.550532       -14.9807
 197   2.0000      -0.549499       -14.9526
 198   2.0000      -0.546291       -14.8653
 199   2.0000      -0.545331       -14.8392
 200   2.0000      -0.544268       -14.8103
 201   2.0000      -0.537794       -14.6341
 202   2.0000      -0.536989       -14.6122
 203   2.0000      -0.536374       -14.5955
 204   2.0000      -0.530394       -14.4327
 205   2.0000      -0.529196       -14.4002
 206   2.0000      -0.527382       -14.3508
 207   2.0000      -0.525292       -14.2939
 208   2.0000      -0.523086       -14.2339
 209   2.0000      -0.519145       -14.1267
 210   2.0000      -0.518217       -14.1014
 211   2.0000      -0.517475       -14.0812
 212   2.0000      -0.513697       -13.9784
 213   2.0000      -0.511359       -13.9148
 214   2.0000      -0.510054       -13.8793
 215   2.0000      -0.509319       -13.8593
 216   2.0000      -0.508506       -13.8371
 217   2.0000      -0.507129       -13.7997
 218   2.0000      -0.505140       -13.7456
 219   2.0000      -0.504375       -13.7247
 220   2.0000      -0.503435       -13.6992
 221   2.0000      -0.499853       -13.6017
 222   2.0000      -0.498924       -13.5764
 223   2.0000      -0.496612       -13.5135
 224   2.0000      -0.495460       -13.4821
 225   2.0000      -0.492882       -13.4120
 226   2.0000      -0.491479       -13.3738
 227   2.0000      -0.489213       -13.3122
 228   2.0000      -0.484390       -13.1809
 229   2.0000      -0.483954       -13.1691
 230   2.0000      -0.478446       -13.0192
 231   2.0000      -0.474148       -12.9022
 232   2.0000      -0.470570       -12.8049
 233   2.0000      -0.467112       -12.7108
 234   2.0000      -0.464182       -12.6310
 235   2.0000      -0.463615       -12.6156
 236   2.0000      -0.462290       -12.5796
 237   2.0000      -0.459694       -12.5089
 238   2.0000      -0.458191       -12.4680
 239   2.0000      -0.457589       -12.4516
 240   2.0000      -0.453976       -12.3533
 241   2.0000      -0.452203       -12.3051
 242   2.0000      -0.449927       -12.2431
 243   2.0000      -0.449416       -12.2292
 244   2.0000      -0.449348       -12.2274
 245   2.0000      -0.448133       -12.1943
 246   2.0000      -0.443742       -12.0748
 247   2.0000      -0.443021       -12.0552
 248   2.0000      -0.442970       -12.0538
 249   2.0000      -0.442279       -12.0350
 250   2.0000      -0.441592       -12.0163
 251   2.0000      -0.440963       -11.9992
 252   2.0000      -0.439704       -11.9650
 253   2.0000      -0.438736       -11.9386
 254   2.0000      -0.437415       -11.9027
 255   2.0000      -0.433195       -11.7878
 256   2.0000      -0.433015       -11.7829
 257   2.0000      -0.431963       -11.7543
 258   2.0000      -0.430426       -11.7125
 259   2.0000      -0.428174       -11.6512
 260   2.0000      -0.427957       -11.6453
 261   2.0000      -0.426937       -11.6176
 262   2.0000      -0.424539       -11.5523
 263   2.0000      -0.422749       -11.5036
 264   2.0000      -0.419054       -11.4030
 265   2.0000      -0.418453       -11.3867
 266   2.0000      -0.415354       -11.3024
 267   2.0000      -0.413046       -11.2396
 268   2.0000      -0.407464       -11.0876
 269   2.0000      -0.407333       -11.0841
 270   2.0000      -0.404652       -11.0111
 271   2.0000      -0.401539       -10.9264
 272   2.0000      -0.390877       -10.6363
 273   2.0000      -0.385545       -10.4912
 274   2.0000      -0.381643       -10.3850
 275   2.0000      -0.374759       -10.1977
 276   2.0000      -0.371009       -10.0957
 277   2.0000      -0.358417        -9.7530
 278   2.0000      -0.354802        -9.6546
 279   2.0000      -0.349901        -9.5213
 280   2.0000      -0.344713        -9.3801
 281   2.0000      -0.341116        -9.2822
 282   2.0000      -0.338833        -9.2201
 283   2.0000      -0.334576        -9.1043
 284   2.0000      -0.327473        -8.9110
 285   2.0000      -0.323769        -8.8102
 286   2.0000      -0.318088        -8.6556
 287   2.0000      -0.315535        -8.5862
 288   2.0000      -0.310115        -8.4387
 289   2.0000      -0.294469        -8.0129
 290   2.0000      -0.292777        -7.9669
 291   2.0000      -0.276910        -7.5351
 292   2.0000      -0.253495        -6.8980
 293   0.0000      -0.119004        -3.2383
 294   0.0000      -0.109551        -2.9810
 295   0.0000      -0.091590        -2.4923
 296   0.0000      -0.088303        -2.4028
 297   0.0000      -0.069671        -1.8958

MULLIKEN ATOMIC CHARGES
-----------------------
   0 C :   -0.014854
   1 C :    0.033532
   2 C :    0.037472
   3 C :   -0.014923
   4 C :    0.091242
   5 C :   -0.076219
   6 C :    0.029124
   7 C :    0.019249
   8 C :   -0.082639
   9 C :    0.093940
  10 C :    0.134614
  11 O :   -0.145638
  12 C :   -0.139775
  13 C :    0.267314
  14 C :   -0.329111
  15 C :   -0.201051
  16 N :    0.164246
  17 C :   -0.169499
  18 N :    0.158149
  19 C :    0.084436
  20 C :   -0.112148
  21 C :    0.001886
  22 C :   -0.005628
  23 C :   -0.072875
  24 S :    0.211236
  25 C :   -0.084181
  26 C :    0.027219
  27 C :    0.304500
  28 C :   -0.287680
  29 C :   -0.192833
  30 N :    0.180489
  31 C :   -0.184841
  32 N :    0.169160
  33 C :   -0.060191
  34 C :   -0.124825
  35 S :    0.208057
  36 C :    0.134529
  37 C :    0.125541
  38 F :   -0.163127
  39 C :    0.116773
  40 F :   -0.176148
  41 C :    0.092185
  42 C :   -0.026336
  43 C :   -0.070154
  44 N :   -0.098642
  45 N :   -0.052331
  46 N :   -0.058146
  47 C :    0.134182
  48 C :   -0.123697
  49 C :   -0.076368
  50 C :    0.037284
  51 C :   -0.096043
  52 S :    0.223995
  53 C :   -0.086670
  54 C :   -0.002275
  55 C :    0.318658
  56 C :   -0.303421
  57 C :   -0.196820
  58 N :    0.198352
  59 C :   -0.187263
  60 N :    0.167297
  61 C :   -0.013063
  62 C :   -0.113280
  63 S :    0.209260
  64 C :    0.036286
  65 C :   -0.087354
  66 C :    0.324017
  67 C :   -0.364308
  68 C :   -0.183574
  69 N :    0.147964
  70 C :   -0.186193
  71 N :    0.147255
  72 C :    0.047860
  73 C :   -0.003679
  74 C :   -0.082069
  75 C :    0.099645
  76 C :   -0.018362
  77 C :    0.036981
  78 C :    0.036955
  79 C :   -0.022674
  80 C :    0.098049
  81 C :   -0.085189
  82 C :    0.157770
  83 O :   -0.149892
  84 H :   -0.018786
  85 H :   -0.004428
  86 H :   -0.005109
  87 H :   -0.009377
  88 H :   -0.000661
  89 H :   -0.013139
  90 H :    0.020049
  91 H :    0.025757
  92 H :    0.018168
  93 H :    0.058364
  94 H :    0.059742
  95 H :    0.074860
  96 H :    0.021090
  97 H :    0.039128
  98 H :    0.002714
  99 H :   -0.008158
 100 H :   -0.015067
 101 H :   -0.005495
 102 H :   -0.005108
 103 H :   -0.007657
 104 H :   -0.007606
Sum of atomic charges:   -0.0000000

LOEWDIN ATOMIC CHARGES
----------------------
   0 C :   -0.009580
   1 C :   -0.013324
   2 C :   -0.012715
   3 C :   -0.005147
   4 C :   -0.005181
   5 C :    0.018975
   6 C :   -0.022824
   7 C :   -0.057795
   8 C :    0.032400
   9 C :   -0.009393
  10 C :    0.083315
  11 O :   -0.146084
  12 C :   -0.090180
  13 C :    0.065719
  14 C :   -0.136983
  15 C :   -0.015672
  16 N :   -0.047895
  17 C :   -0.018326
  18 N :   -0.046958
  19 C :    0.041083
  20 C :   -0.180378
  21 C :    0.009324
  22 C :   -0.064550
  23 C :   -0.159810
  24 S :    0.497677
  25 C :   -0.187187
  26 C :   -0.062751
  27 C :    0.081430
  28 C :   -0.097735
  29 C :   -0.019068
  30 N :   -0.026030
  31 C :   -0.012812
  32 N :   -0.032962
  33 C :   -0.019858
  34 C :   -0.158809
  35 S :    0.518218
  36 C :   -0.065687
  37 C :    0.069177
  38 F :   -0.038118
  39 C :    0.061003
  40 F :   -0.050709
  41 C :   -0.065490
  42 C :   -0.043143
  43 C :   -0.052711
  44 N :   -0.107374
  45 N :    0.163920
  46 N :   -0.072041
  47 C :    0.035241
  48 C :   -0.158704
  49 C :   -0.021229
  50 C :   -0.057475
  51 C :   -0.192493
  52 S :    0.500285
  53 C :   -0.157312
  54 C :   -0.075354
  55 C :    0.077752
  56 C :   -0.096541
  57 C :   -0.024351
  58 N :   -0.015144
  59 C :   -0.010087
  60 N :   -0.039180
  61 C :    0.016926
  62 C :   -0.175972
  63 S :    0.500287
  64 C :    0.041367
  65 C :   -0.095513
  66 C :    0.077984
  67 C :   -0.144212
  68 C :   -0.016885
  69 N :   -0.055579
  70 C :   -0.023627
  71 N :   -0.055339
  72 C :   -0.026930
  73 C :   -0.055452
  74 C :    0.033207
  75 C :   -0.008118
  76 C :   -0.009339
  77 C :   -0.012057
  78 C :   -0.013580
  79 C :   -0.005527
  80 C :   -0.006418
  81 C :    0.019600
  82 C :    0.087082
  83 O :   -0.138020
  84 H :    0.031455
  85 H :    0.032710
  86 H :    0.033137
  87 H :    0.035043
  88 H :    0.040463
  89 H :    0.038954
  90 H :    0.045251
  91 H :    0.042804
  92 H :    0.040271
  93 H :    0.043652
  94 H :    0.044089
  95 H :    0.051081
  96 H :    0.037310
  97 H :    0.043079
  98 H :    0.042010
  99 H :    0.040410
 100 H :    0.032451
 101 H :    0.032669
 102 H :    0.033079
 103 H :    0.034869
 104 H :    0.038960

  Mayer bond orders larger than 0.100000
B(  0-C ,  1-C ) :   1.4891 B(  0-C ,  9-C ) :   1.2454 B(  0-C , 84-H ) :   0.9970
B(  1-C ,  2-C ) :   1.2613 B(  1-C , 85-H ) :   0.9889 B(  2-C ,  3-C ) :   1.4896
B(  2-C , 86-H ) :   0.9881 B(  3-C ,  4-C ) :   1.2427 B(  3-C , 87-H ) :   0.9971
B(  4-C ,  5-C ) :   1.2048 B(  4-C ,  9-C ) :   1.2577 B(  5-C ,  6-C ) :   1.4608
B(  5-C , 88-H ) :   0.9935 B(  6-C ,  7-C ) :   1.2145 B(  6-C , 13-C ) :   0.9960
B(  7-C ,  8-C ) :   1.4736 B(  7-C , 10-C ) :   0.9231 B(  8-C ,  9-C ) :   1.1843
B(  8-C , 89-H ) :   1.0157 B( 10-C , 11-O ) :   2.2644 B( 10-C , 12-C ) :   0.9396
B( 12-C , 13-C ) :   1.0368 B( 12-C , 19-C ) :   1.6705 B( 13-C , 14-C ) :   1.6501
B( 14-C , 15-C ) :   1.1712 B( 14-C , 17-C ) :   1.1277 B( 15-C , 16-N ) :   2.9942
B( 17-C , 18-N ) :   2.9923 B( 19-C , 20-C ) :   1.1371 B( 19-C , 90-H ) :   0.9266
B( 20-C , 21-C ) :   1.3952 B( 20-C , 24-S ) :   1.0890 B( 21-C , 22-C ) :   1.3581
B( 21-C , 91-H ) :   0.9785 B( 22-C , 23-C ) :   1.4135 B( 22-C , 27-C ) :   0.9979
B( 23-C , 24-S ) :   1.1530 B( 23-C , 25-C ) :   1.1890 B( 25-C , 26-C ) :   1.4237
B( 25-C , 35-S ) :   1.1004 B( 26-C , 27-C ) :   0.9896 B( 26-C , 33-C ) :   1.2858
B( 27-C , 28-C ) :   1.7182 B( 28-C , 29-C ) :   1.1323 B( 28-C , 31-C ) :   1.1334
B( 29-C , 30-N ) :   2.9964 B( 31-C , 32-N ) :   2.9820 B( 33-C , 34-C ) :   1.4447
B( 33-C , 92-H ) :   0.9947 B( 34-C , 35-S ) :   1.1178 B( 34-C , 36-C ) :   1.1300
B( 36-C , 37-C ) :   1.3615 B( 36-C , 41-C ) :   0.1227 B( 36-C , 43-C ) :   1.1612
B( 37-C , 38-F ) :   1.1471 B( 37-C , 39-C ) :   1.1984 B( 39-C , 40-F ) :   1.1341
B( 39-C , 41-C ) :   1.3633 B( 41-C , 42-C ) :   1.1805 B( 41-C , 48-C ) :   1.1451
B( 42-C , 43-C ) :   1.2317 B( 42-C , 46-N ) :   1.4689 B( 43-C , 44-N ) :   1.4514
B( 44-N , 45-N ) :   1.2287 B( 44-N , 46-N ) :   0.1583 B( 45-N , 46-N ) :   1.2507
B( 45-N , 47-C ) :   0.9467 B( 47-C , 93-H ) :   0.9686 B( 47-C , 94-H ) :   0.9691
B( 47-C , 95-H ) :   0.9631 B( 48-C , 49-C ) :   1.4640 B( 48-C , 52-S ) :   1.1045
B( 49-C , 50-C ) :   1.2583 B( 49-C , 96-H ) :   0.9786 B( 50-C , 51-C ) :   1.4249
B( 50-C , 55-C ) :   0.9970 B( 51-C , 52-S ) :   1.1022 B( 51-C , 53-C ) :   1.2020
B( 53-C , 54-C ) :   1.3805 B( 53-C , 63-S ) :   1.1703 B( 54-C , 55-C ) :   0.9927
B( 54-C , 61-C ) :   1.3059 B( 55-C , 56-C ) :   1.7122 B( 56-C , 57-C ) :   1.1361
B( 56-C , 59-C ) :   1.1389 B( 57-C , 58-N ) :   3.0017 B( 59-C , 60-N ) :   2.9878
B( 61-C , 62-C ) :   1.3986 B( 61-C , 97-H ) :   0.9698 B( 62-C , 63-S ) :   1.0764
B( 62-C , 64-C ) :   1.2194 B( 64-C , 65-C ) :   1.5938 B( 64-C , 98-H ) :   0.9050
B( 65-C , 66-C ) :   1.0845 B( 65-C , 82-C ) :   0.9350 B( 66-C , 67-C ) :   1.6129
B( 66-C , 72-C ) :   0.9849 B( 67-C , 68-C ) :   1.1535 B( 67-C , 70-C ) :   1.1411
B( 68-C , 69-N ) :   2.9604 B( 70-C , 71-N ) :   2.9601 B( 72-C , 73-C ) :   1.2165
B( 72-C , 81-C ) :   1.4467 B( 73-C , 74-C ) :   1.4717 B( 73-C , 82-C ) :   0.9552
B( 74-C , 75-C ) :   1.1756 B( 74-C , 99-H ) :   1.0175 B( 75-C , 76-C ) :   1.2440
B( 75-C , 80-C ) :   1.2564 B( 76-C , 77-C ) :   1.4875 B( 76-C ,100-H ) :   0.9986
B( 77-C , 78-C ) :   1.2598 B( 77-C ,101-H ) :   0.9893 B( 78-C , 79-C ) :   1.4891
B( 78-C ,102-H ) :   0.9886 B( 79-C , 80-C ) :   1.2392 B( 79-C ,103-H ) :   0.9979
B( 80-C , 81-C ) :   1.2080 B( 81-C ,104-H ) :   0.9896 B( 82-C , 83-O ) :   2.1645

-----------------------------------------------------------------------------
         ABSORPTION SPECTRUM VIA TRANSITION ELECTRIC DIPOLE MOMENTS
-----------------------------------------------------------------------------
State   Energy  Wavelength   fosc         T2         TX        TY        TZ
        (cm-1)    (nm)                  (au**2)     (au)      (au)      (au)
-----------------------------------------------------------------------------
   0   13368.3    748.0   0.971910783  23.93464  -4.19428   2.16961  -1.27883
   1   14384.9    695.2   0.004851873   0.11104   0.27035  -0.16819   0.09830
   2   19408.5    515.2   2.054471348  34.84844   5.12583  -2.45571   1.59492
   3   21259.9    470.4   0.197278851   3.05489   1.15492  -1.19225   0.54736
   4   22075.9    453.0   0.028687137   0.42780   0.43294  -0.39443   0.29120
   5   23822.8    419.8   0.038463325   0.53153  -0.23331   0.23241  -0.65045
   6   25149.4    397.6   0.042446716   0.55564   0.70318  -0.02598  -0.24597
   7   25433.9    393.2   0.029013770   0.37555  -0.59287  -0.11152  -0.10778
   8   25730.3    388.6   0.219736998   2.81148  -1.52453   0.64704   0.26196
   9   27887.1    358.6   0.007131180   0.08418  -0.05913  -0.27951   0.05059
  10   27889.3    358.6   0.004857043   0.05733  -0.17045  -0.02770   0.16587
  11   28394.6    352.2   0.012476254   0.14465  -0.30329   0.01201   0.22918
  12   28408.5    352.0   0.002633581   0.03052  -0.05732   0.03494   0.16129
  13   28731.2    348.1   0.035379483   0.40539  -0.63373   0.00144   0.06145
  14   29207.9    342.4   0.049822969   0.56157  -0.39981  -0.24486   0.58461
  15   29392.1    340.2   0.077255053   0.86531   0.05627   0.85089  -0.37167
  16   29765.5    336.0   0.227733682   2.51878   0.85479   0.61028  -1.18982
  17   29996.4    333.4   0.005878199   0.06451   0.18780   0.15785   0.06579
  18   30099.6    332.2   0.071765164   0.78493  -0.78298   0.40016  -0.10837
  19   30375.8    329.2   0.110407625   1.19660   0.60849   0.90522  -0.08315
  20   30795.6    324.7   0.454660193   4.86042   1.47011  -1.37093   0.90540
  21   30897.8    323.6   0.574371159   6.11985  -2.08954  -0.38271   1.26775
  22   31094.7    321.6   0.018040796   0.19100  -0.15907   0.33757  -0.22749
  23   31938.4    313.1   0.152632637   1.57329  -1.00936   0.65951  -0.34573
  24   32178.0    310.8   0.006308076   0.06454  -0.08238  -0.06957  -0.23002
  25   32525.5    307.5   0.356432191   3.60769   1.68330  -0.87985  -0.00690
  26   32684.9    306.0   0.040167876   0.40458   0.61919  -0.09242   0.11243
  27   32954.9    303.4   0.074485628   0.74410   0.84613   0.00990   0.16752
  28   33218.5    301.0   0.077747003   0.77051   0.70662   0.24789  -0.45798
  29   33415.1    299.3   0.110773545   1.09136   0.90964   0.30042  -0.41672
  30   33598.8    297.6   0.052597525   0.51537   0.31200   0.35155  -0.54262
  31   34238.3    292.1   0.128049499   1.23124  -0.95763  -0.22085   0.51517
  32   34298.4    291.6   0.346431756   3.32522   1.43968  -0.77327  -0.80906
  33   34478.1    290.0   0.008262615   0.07890  -0.20804  -0.10414   0.15738
  34   34623.1    288.8   0.227054601   2.15893  -0.23493  -1.04808   1.00263
  35   34721.2    288.0   0.497856036   4.72046  -1.55627  -0.90229   1.21835
  36   34908.3    286.5   0.142677074   1.34555  -1.15068  -0.11041   0.09648
  37   35217.6    283.9   0.330565593   3.09011  -0.71266   1.57867  -0.30004
  38   35336.5    283.0   0.006627515   0.06175  -0.15639   0.07035   0.17983
  39   35698.7    280.1   0.003183565   0.02936  -0.02016  -0.16679   0.03367
  40   35891.5    278.6   0.029240419   0.26821   0.50741  -0.07687   0.06949
  41   36396.4    274.8   0.117074140   1.05896  -0.76411   0.60763   0.32539
  42   36804.3    271.7   0.151248090   1.35290   1.07467  -0.00873  -0.44487
  43   36988.9    270.4   0.039791915   0.35416   0.08817   0.49511  -0.31820
  44   37226.0    268.6   0.013540343   0.11975  -0.31971   0.07718  -0.10759
  45   37703.9    265.2   0.014709756   0.12844  -0.30218  -0.10767   0.15979
  46   37730.9    265.0   0.103950875   0.90700   0.17242  -0.79099   0.50161
  47   37931.6    263.6   0.019148077   0.16619   0.21826  -0.34084   0.04876
  48   38112.4    262.4   0.028691225   0.24783   0.31071  -0.04809   0.38598
  49   38392.0    260.5   0.051187689   0.43894   0.46788  -0.34145   0.32161
  50   38682.7    258.5   0.052114264   0.44352   0.21999  -0.55854   0.28837
  51   38836.1    257.5   0.096472116   0.81779   0.37717   0.50112  -0.65147
  52   39133.3    255.5   0.083438237   0.70193   0.26730  -0.58395   0.53804
  53   39318.0    254.3   0.044983801   0.37665   0.57184  -0.21786  -0.04675
  54   39544.3    252.9   0.041811677   0.34809   0.08261   0.52129  -0.26366
  55   39595.4    252.6   0.124037324   1.03130  -0.84713   0.41563  -0.37539
  56   39840.3    251.0   0.080023297   0.66126   0.01761   0.44467  -0.68060
  57   40074.8    249.5   0.120646471   0.99110  -0.23446  -0.85501   0.45286
  58   40248.4    248.5   0.016389799   0.13406   0.33006  -0.14709  -0.05905

FINAL SINGLE POINT ENERGY     -5029.738509546612

DIPOLE MOMENT
-------------
                                X             Y             Z
Electronic contribution:     -9.32161     -15.79012       9.47500
Nuclear contribution   :     10.70147      19.14530     -10.66205
                        -----------------------------------------
Total Dipole Moment    :      1.37986       3.35518      -1.18704
                        -----------------------------------------
Magnitude (a.u.)       :      3.81711
Magnitude (Debye)      :      9.70231

Rotational constants in cm-1:     0.002873     0.000137     0.000132
Rotational constants in MHz :    86.130755     4.116889     3.963950

                             ****ORCA TERMINATED NORMALLY****
TOTAL RUN TIME: 0 days 0 hours 12 minutes 2 seconds 251 msec
