                         Program Version 4.2.0 -  RELEASE  -
|  1> # ORCA input file
|  2> # SCF done       -201.724909781975          0.000335963824
|  3> ! CAM-B3LYP def2-SVP def2/J RIJCOSX Grid4 TightSCF
|  4> %maxcore 5000
|  5> %tddft
|  6>     Mode sTDDFT
|  7>     Ethresh 5.0
|  8>     maxcore 5000
|  9> end
| 10>
| 11> %pal
| 12>   nprocs 6
| 13>   end
| 14> * xyz 0 1
| 15>    C       -0.20520         2.89523        -2.59681
| 16>    C       -0.71725         3.42650        -3.74943
| 17>    C        0.13610         3.79247        -4.80116
| 18>    C        1.48915         3.62343        -4.68616
| 19>    C        2.05084         3.08270        -3.51183
| 20>    C        3.44940         2.92047        -3.38216
| 21>    C        3.96049         2.39971        -2.22406
| 22>    C        3.08517         2.00160        -1.17108
| 23>    C        1.73168         2.15360        -1.26705
| 24>    C        1.18283         2.70757        -2.44528
| 25>    C        3.87725         1.42971        -0.07142
| 26>    O        3.49567         1.03224         1.00477
| 27>    C        5.28215         1.38055        -0.58267
| 28>    C        5.33713         2.16438        -1.80043
| 29>    C        6.43390         2.79924        -2.32285
| 30>    C        7.72095         2.75029        -1.75458
| 31>    N        8.77992         2.76113        -1.31039
| 32>    C        6.38303         3.66082        -3.43951
| 33>    N        6.39914         4.37177        -4.33978
| 34>    C        6.18145         0.60476         0.07880
| 35>    C        7.43414         0.11695        -0.36123
| 36>    C        7.91190        -0.02539        -1.65589
| 37>    C        9.20185        -0.54033        -1.68388
| 38>    C        9.71398        -0.80650        -0.39882
| 39>    S        8.59713        -0.44389         0.83185
| 40>    C       11.04453        -1.27622        -0.53246
| 41>    C       11.37470        -1.29852        -1.90580
| 42>    C       10.22784        -0.83726        -2.67048
| 43>    C       10.12759        -0.67645        -4.02082
| 44>    C       11.18360        -0.98622        -4.90434
| 45>    N       12.03286        -1.24446        -5.62925
| 46>    C        8.94418        -0.18805        -4.61492
| 47>    N        7.97500         0.20661        -5.08371
| 48>    C       12.68158        -1.71884        -2.13654
| 49>    C       13.32816        -2.01636        -0.94884
| 50>    S       12.32778        -1.78132         0.46764
| 51>    C       14.66703        -2.44839        -0.75261
| 52>    N       15.05848        -2.69523         0.48776
| 53>    N       16.26281        -3.05760         0.81189
| 54>    C       17.23892        -3.20019        -0.07194
| 55>    C       16.94883        -2.98225        -1.45313
| 56>    C       15.61007        -2.60315        -1.81384
| 57>    N       15.58033        -2.47276        -3.12316
| 58>    O       16.80876        -2.75039        -3.54865
| 59>    N       17.64981        -3.05872        -2.56380
| 60>    C       18.53741        -3.55065         0.39482
| 61>    C       18.88540        -3.82519         1.70846
| 62>    C       20.24254        -4.09916         1.82934
| 63>    C       20.92507        -4.02213         0.59580
| 64>    S       19.89430        -3.63269        -0.70711
| 65>    C       22.29758        -4.28057         0.82529
| 66>    C       22.48496        -4.53342         2.20262
| 67>    C       21.20075        -4.42215         2.87624
| 68>    C       20.94756        -4.56824         4.20709
| 69>    C       21.95780        -4.83627         5.15755
| 70>    N       22.75677        -5.03092         5.95567
| 71>    C       19.64718        -4.44289         4.74395
| 72>    N       18.59689        -4.34867         5.19291
| 73>    C       23.80654        -4.80042         2.53432
| 74>    C       24.64405        -4.74658         1.42732
| 75>    S       23.75373        -4.34926        -0.04787
| 76>    C       26.04478        -4.86366         1.29828
| 77>    C       26.97435        -5.33252         2.18290
| 78>    C       28.41138        -5.26050         1.97018
| 79>    C       29.06213        -4.47678         1.05242
| 80>    C       30.46538        -4.42703         0.91247
| 81>    N       31.59748        -4.34356         0.74201
| 82>    C       28.44523        -3.58317         0.15169
| 83>    N       28.02071        -2.81911        -0.59364
| 84>    C       29.05640        -6.09292         2.97687
| 85>    C       28.05293        -6.61183         3.84289
| 86>    C       28.35665        -7.42068         4.89996
| 87>    C       29.70739        -7.75421         5.14424
| 88>    C       30.08369        -8.57917         6.22230
| 89>    C       31.39878        -8.89077         6.43822
| 90>    C       32.39470        -8.39060         5.58603
| 91>    C       32.06266        -7.58675         4.52958
| 92>    C       30.71822        -7.24514         4.27811
| 93>    C       30.37188        -6.41073         3.19069
| 94>    C       26.72843        -6.14231         3.40681
| 95>    O       25.66568        -6.42057         3.91931
| 96>    H       -0.85729         2.61105        -1.78393
| 97>    H       -1.78231         3.56712        -3.85712
| 98>    H       -0.28437         4.21024        -5.70352
| 99>    H        2.15046         3.90701        -5.49153
|100>    H        4.08301         3.20159        -4.20875
|101>    H        1.08699         1.85525        -0.45376
|102>    H        5.85983         0.27632         1.06297
|103>    H        7.32412         0.20399        -2.52592
|104>    H       13.16040        -1.80846        -3.09544
|105>    H       18.15846        -3.81158         2.49957
|106>    H       24.16264        -5.02888         3.52187
|107>    H       26.41595        -4.52625         0.33718
|108>    H       27.57509        -7.79723         5.54296
|109>    H       29.31239        -8.96078         6.87508
|110>    H       31.67884        -9.52408         7.26661
|111>    H       33.42746        -8.64520         5.77119
|112>    H       32.82608        -7.19791         3.87180
|113>    H       31.15975        -6.04745         2.55027
|114> *
|115>
|116>                          ****END OF INPUT****

CARTESIAN COORDINATES (ANGSTROEM)
---------------------------------
  C     -0.205200    2.895230   -2.596810
  C     -0.717250    3.426500   -3.749430
  C      0.136100    3.792470   -4.801160
  C      1.489150    3.623430   -4.686160
  C      2.050840    3.082700   -3.511830
  C      3.449400    2.920470   -3.382160
  C      3.960490    2.399710   -2.224060
  C      3.085170    2.001600   -1.171080
  C      1.731680    2.153600   -1.267050
  C      1.182830    2.707570   -2.445280
  C      3.877250    1.429710   -0.071420
  O      3.495670    1.032240    1.004770
  C      5.282150    1.380550   -0.582670
  C      5.337130    2.164380   -1.800430
  C      6.433900    2.799240   -2.322850
  C      7.720950    2.750290   -1.754580
  N      8.779920    2.761130   -1.310390
  C      6.383030    3.660820   -3.439510
  N      6.399140    4.371770   -4.339780
  C      6.181450    0.604760    0.078800
  C      7.434140    0.116950   -0.361230
  C      7.911900   -0.025390   -1.655890
  C      9.201850   -0.540330   -1.683880
  C      9.713980   -0.806500   -0.398820
  S      8.597130   -0.443890    0.831850
  C     11.044530   -1.276220   -0.532460
  C     11.374700   -1.298520   -1.905800
  C     10.227840   -0.837260   -2.670480
  C     10.127590   -0.676450   -4.020820
  C     11.183600   -0.986220   -4.904340
  N     12.032860   -1.244460   -5.629250
  C      8.944180   -0.188050   -4.614920
  N      7.975000    0.206610   -5.083710
  C     12.681580   -1.718840   -2.136540
  C     13.328160   -2.016360   -0.948840
  S     12.327780   -1.781320    0.467640
  C     14.667030   -2.448390   -0.752610
  N     15.058480   -2.695230    0.487760
  N     16.262810   -3.057600    0.811890
  C     17.238920   -3.200190   -0.071940
  C     16.948830   -2.982250   -1.453130
  C     15.610070   -2.603150   -1.813840
  N     15.580330   -2.472760   -3.123160
  O     16.808760   -2.750390   -3.548650
  N     17.649810   -3.058720   -2.563800
  C     18.537410   -3.550650    0.394820
  C     18.885400   -3.825190    1.708460
  C     20.242540   -4.099160    1.829340
  C     20.925070   -4.022130    0.595800
  S     19.894300   -3.632690   -0.707110
  C     22.297580   -4.280570    0.825290
  C     22.484960   -4.533420    2.202620
  C     21.200750   -4.422150    2.876240
  C     20.947560   -4.568240    4.207090
  C     21.957800   -4.836270    5.157550
  N     22.756770   -5.030920    5.955670
  C     19.647180   -4.442890    4.743950
  N     18.596890   -4.348670    5.192910
  C     23.806540   -4.800420    2.534320
  C     24.644050   -4.746580    1.427320
  S     23.753730   -4.349260   -0.047870
  C     26.044780   -4.863660    1.298280
  C     26.974350   -5.332520    2.182900
  C     28.411380   -5.260500    1.970180
  C     29.062130   -4.476780    1.052420
  C     30.465380   -4.427030    0.912470
  N     31.597480   -4.343560    0.742010
  C     28.445230   -3.583170    0.151690
  N     28.020710   -2.819110   -0.593640
  C     29.056400   -6.092920    2.976870
  C     28.052930   -6.611830    3.842890
  C     28.356650   -7.420680    4.899960
  C     29.707390   -7.754210    5.144240
  C     30.083690   -8.579170    6.222300
  C     31.398780   -8.890770    6.438220
  C     32.394700   -8.390600    5.586030
  C     32.062660   -7.586750    4.529580
  C     30.718220   -7.245140    4.278110
  C     30.371880   -6.410730    3.190690
  C     26.728430   -6.142310    3.406810
  O     25.665680   -6.420570    3.919310
  H     -0.857290    2.611050   -1.783930
  H     -1.782310    3.567120   -3.857120
  H     -0.284370    4.210240   -5.703520
  H      2.150460    3.907010   -5.491530
  H      4.083010    3.201590   -4.208750
  H      1.086990    1.855250   -0.453760
  H      5.859830    0.276320    1.062970
  H      7.324120    0.203990   -2.525920
  H     13.160400   -1.808460   -3.095440
  H     18.158460   -3.811580    2.499570
  H     24.162640   -5.028880    3.521870
  H     26.415950   -4.526250    0.337180
  H     27.575090   -7.797230    5.542960
  H     29.312390   -8.960780    6.875080
  H     31.678840   -9.524080    7.266610
  H     33.427460   -8.645200    5.771190
  H     32.826080   -7.197910    3.871800
  H     31.159750   -6.047450    2.550270

 Total Charge           Charge          ....    0
 Multiplicity           Mult            ....    1
 Number of Electrons    NEL             ....  562
 Basis Dimension        Dim             .... 1240

ORBITAL ENERGIES
----------------

  NO   OCC          E(Eh)            E(eV)
   0   2.0000     -89.005081     -2421.9514
   1   2.0000     -89.001509     -2421.8542
   2   2.0000     -89.001257     -2421.8473
   3   2.0000     -88.999708     -2421.8052
   4   2.0000     -19.392819      -527.7054
   5   2.0000     -19.220587      -523.0188
   6   2.0000     -19.218837      -522.9711
   7   2.0000     -14.519628      -395.0992
   8   2.0000     -14.519538      -395.0967
   9   2.0000     -14.467452      -393.6794
  10   2.0000     -14.467375      -393.6773
  11   2.0000     -14.436944      -392.8492
  12   2.0000     -14.435064      -392.7981
  13   2.0000     -14.434816      -392.7913
  14   2.0000     -14.433400      -392.7528
  15   2.0000     -14.421984      -392.4421
  16   2.0000     -14.419117      -392.3641
  17   2.0000     -14.416609      -392.2959
  18   2.0000     -14.416103      -392.2821
  19   2.0000     -10.373172      -282.2684
  20   2.0000     -10.372291      -282.2444
  21   2.0000     -10.372141      -282.2403
  22   2.0000     -10.369936      -282.1803
  23   2.0000     -10.367334      -282.1095
  24   2.0000     -10.366875      -282.0970
  25   2.0000     -10.362256      -281.9713
  26   2.0000     -10.361679      -281.9556
  27   2.0000     -10.359403      -281.8937
  28   2.0000     -10.359211      -281.8885
  29   2.0000     -10.350857      -281.6611
  30   2.0000     -10.347906      -281.5808
  31   2.0000     -10.346621      -281.5459
  32   2.0000     -10.346494      -281.5424
  33   2.0000     -10.346472      -281.5418
  34   2.0000     -10.345617      -281.5186
  35   2.0000     -10.344345      -281.4839
  36   2.0000     -10.343314      -281.4559
  37   2.0000     -10.338377      -281.3216
  38   2.0000     -10.337038      -281.2851
  39   2.0000     -10.334909      -281.2272
  40   2.0000     -10.334804      -281.2243
  41   2.0000     -10.334750      -281.2228
  42   2.0000     -10.334412      -281.2136
  43   2.0000     -10.334357      -281.2121
  44   2.0000     -10.332391      -281.1587
  45   2.0000     -10.331920      -281.1458
  46   2.0000     -10.329272      -281.0738
  47   2.0000     -10.323254      -280.9100
  48   2.0000     -10.322034      -280.8768
  49   2.0000     -10.319008      -280.7945
  50   2.0000     -10.318883      -280.7911
  51   2.0000     -10.318596      -280.7833
  52   2.0000     -10.317341      -280.7491
  53   2.0000     -10.316999      -280.7398
  54   2.0000     -10.315628      -280.7025
  55   2.0000     -10.315302      -280.6936
  56   2.0000     -10.314972      -280.6847
  57   2.0000     -10.314809      -280.6802
  58   2.0000     -10.312021      -280.6044
  59   2.0000     -10.306248      -280.4473
  60   2.0000     -10.306239      -280.4470
  61   2.0000     -10.306124      -280.4439
  62   2.0000     -10.304294      -280.3941
  63   2.0000     -10.299945      -280.2758
  64   2.0000     -10.299849      -280.2731
  65   2.0000     -10.299528      -280.2644
  66   2.0000     -10.298997      -280.2500
  67   2.0000     -10.298831      -280.2454
  68   2.0000     -10.298754      -280.2433
  69   2.0000     -10.298240      -280.2293
  70   2.0000     -10.297843      -280.2186
  71   2.0000     -10.292294      -280.0676
  72   2.0000     -10.290081      -280.0073
  73   2.0000     -10.288230      -279.9570
  74   2.0000     -10.287758      -279.9441
  75   2.0000     -10.287586      -279.9395
  76   2.0000     -10.287443      -279.9355
  77   2.0000     -10.287102      -279.9263
  78   2.0000     -10.286902      -279.9208
  79   2.0000     -10.286765      -279.9171
  80   2.0000     -10.286480      -279.9094
  81   2.0000      -8.099111      -220.3880
  82   2.0000      -8.096300      -220.3115
  83   2.0000      -8.096082      -220.3056
  84   2.0000      -8.093661      -220.2397
  85   2.0000      -6.068314      -165.1272
  86   2.0000      -6.065376      -165.0473
  87   2.0000      -6.065223      -165.0431
  88   2.0000      -6.064046      -165.0111
  89   2.0000      -6.062918      -164.9804
  90   2.0000      -6.061621      -164.9451
  91   2.0000      -6.061273      -164.9356
  92   2.0000      -6.061059      -164.9298
  93   2.0000      -6.058849      -164.8697
  94   2.0000      -6.058566      -164.8619
  95   2.0000      -6.058564      -164.8619
  96   2.0000      -6.056160      -164.7965
  97   2.0000      -1.346352       -36.6361
  98   2.0000      -1.149814       -31.2880
  99   2.0000      -1.136333       -30.9212
 100   2.0000      -1.134362       -30.8675
 101   2.0000      -1.057951       -28.7883
 102   2.0000      -1.055912       -28.7328
 103   2.0000      -1.050233       -28.5783
 104   2.0000      -1.028421       -27.9848
 105   2.0000      -1.027186       -27.9512
 106   2.0000      -1.023419       -27.8486
 107   2.0000      -1.021196       -27.7881
 108   2.0000      -1.015243       -27.6262
 109   2.0000      -1.014186       -27.5974
 110   2.0000      -1.012425       -27.5495
 111   2.0000      -1.010795       -27.5051
 112   2.0000      -1.005184       -27.3525
 113   2.0000      -1.002316       -27.2744
 114   2.0000      -1.000745       -27.2316
 115   2.0000      -0.996382       -27.1129
 116   2.0000      -0.995845       -27.0983
 117   2.0000      -0.981279       -26.7020
 118   2.0000      -0.974804       -26.5258
 119   2.0000      -0.972743       -26.4697
 120   2.0000      -0.967557       -26.3286
 121   2.0000      -0.955692       -26.0057
 122   2.0000      -0.932145       -25.3650
 123   2.0000      -0.929836       -25.3021
 124   2.0000      -0.923194       -25.1214
 125   2.0000      -0.919182       -25.0122
 126   2.0000      -0.903820       -24.5942
 127   2.0000      -0.900121       -24.4935
 128   2.0000      -0.884097       -24.0575
 129   2.0000      -0.884009       -24.0551
 130   2.0000      -0.883242       -24.0342
 131   2.0000      -0.881786       -23.9946
 132   2.0000      -0.879551       -23.9338
 133   2.0000      -0.869617       -23.6635
 134   2.0000      -0.867540       -23.6070
 135   2.0000      -0.866965       -23.5913
 136   2.0000      -0.855994       -23.2928
 137   2.0000      -0.830666       -22.6036
 138   2.0000      -0.829685       -22.5769
 139   2.0000      -0.821441       -22.3525
 140   2.0000      -0.819207       -22.2918
 141   2.0000      -0.808392       -21.9975
 142   2.0000      -0.795478       -21.6460
 143   2.0000      -0.788418       -21.4539
 144   2.0000      -0.782938       -21.3048
 145   2.0000      -0.781770       -21.2730
 146   2.0000      -0.764842       -20.8124
 147   2.0000      -0.764180       -20.7944
 148   2.0000      -0.752268       -20.4703
 149   2.0000      -0.738783       -20.1033
 150   2.0000      -0.724409       -19.7122
 151   2.0000      -0.716743       -19.5036
 152   2.0000      -0.710752       -19.3406
 153   2.0000      -0.706566       -19.2266
 154   2.0000      -0.704272       -19.1642
 155   2.0000      -0.702989       -19.1293
 156   2.0000      -0.701471       -19.0880
 157   2.0000      -0.696533       -18.9536
 158   2.0000      -0.694582       -18.9005
 159   2.0000      -0.688878       -18.7453
 160   2.0000      -0.681304       -18.5392
 161   2.0000      -0.679642       -18.4940
 162   2.0000      -0.677822       -18.4445
 163   2.0000      -0.668089       -18.1796
 164   2.0000      -0.664708       -18.0876
 165   2.0000      -0.654479       -17.8093
 166   2.0000      -0.651292       -17.7226
 167   2.0000      -0.643454       -17.5093
 168   2.0000      -0.639966       -17.4144
 169   2.0000      -0.639094       -17.3906
 170   2.0000      -0.633790       -17.2463
 171   2.0000      -0.632710       -17.2169
 172   2.0000      -0.626416       -17.0457
 173   2.0000      -0.624102       -16.9827
 174   2.0000      -0.610113       -16.6020
 175   2.0000      -0.609908       -16.5964
 176   2.0000      -0.607268       -16.5246
 177   2.0000      -0.606380       -16.5004
 178   2.0000      -0.602433       -16.3930
 179   2.0000      -0.598205       -16.2780
 180   2.0000      -0.587043       -15.9742
 181   2.0000      -0.581990       -15.8367
 182   2.0000      -0.565167       -15.3790
 183   2.0000      -0.564007       -15.3474
 184   2.0000      -0.562651       -15.3105
 185   2.0000      -0.558896       -15.2083
 186   2.0000      -0.557600       -15.1731
 187   2.0000      -0.553763       -15.0687
 188   2.0000      -0.551228       -14.9997
 189   2.0000      -0.548693       -14.9307
 190   2.0000      -0.548350       -14.9214
 191   2.0000      -0.547734       -14.9046
 192   2.0000      -0.541833       -14.7440
 193   2.0000      -0.541017       -14.7218
 194   2.0000      -0.539136       -14.6706
 195   2.0000      -0.535401       -14.5690
 196   2.0000      -0.530305       -14.4303
 197   2.0000      -0.527763       -14.3612
 198   2.0000      -0.523965       -14.2578
 199   2.0000      -0.522280       -14.2120
 200   2.0000      -0.520892       -14.1742
 201   2.0000      -0.517859       -14.0917
 202   2.0000      -0.514277       -13.9942
 203   2.0000      -0.513868       -13.9831
 204   2.0000      -0.511820       -13.9273
 205   2.0000      -0.511286       -13.9128
 206   2.0000      -0.510674       -13.8961
 207   2.0000      -0.508588       -13.8394
 208   2.0000      -0.507626       -13.8132
 209   2.0000      -0.506860       -13.7924
 210   2.0000      -0.505079       -13.7439
 211   2.0000      -0.499154       -13.5827
 212   2.0000      -0.497304       -13.5323
 213   2.0000      -0.495086       -13.4720
 214   2.0000      -0.492580       -13.4038
 215   2.0000      -0.488577       -13.2949
 216   2.0000      -0.486747       -13.2451
 217   2.0000      -0.484091       -13.1728
 218   2.0000      -0.481641       -13.1061
 219   2.0000      -0.479410       -13.0454
 220   2.0000      -0.468127       -12.7384
 221   2.0000      -0.467576       -12.7234
 222   2.0000      -0.466833       -12.7032
 223   2.0000      -0.466763       -12.7013
 224   2.0000      -0.464983       -12.6528
 225   2.0000      -0.464254       -12.6330
 226   2.0000      -0.463061       -12.6005
 227   2.0000      -0.462136       -12.5754
 228   2.0000      -0.459695       -12.5089
 229   2.0000      -0.454642       -12.3714
 230   2.0000      -0.453843       -12.3497
 231   2.0000      -0.452895       -12.3239
 232   2.0000      -0.451335       -12.2815
 233   2.0000      -0.447195       -12.1688
 234   2.0000      -0.446266       -12.1435
 235   2.0000      -0.445525       -12.1233
 236   2.0000      -0.445339       -12.1183
 237   2.0000      -0.443663       -12.0727
 238   2.0000      -0.443190       -12.0598
 239   2.0000      -0.442320       -12.0361
 240   2.0000      -0.441508       -12.0140
 241   2.0000      -0.441450       -12.0125
 242   2.0000      -0.437742       -11.9116
 243   2.0000      -0.435665       -11.8550
 244   2.0000      -0.435214       -11.8428
 245   2.0000      -0.434952       -11.8356
 246   2.0000      -0.432768       -11.7762
 247   2.0000      -0.432262       -11.7624
 248   2.0000      -0.430277       -11.7084
 249   2.0000      -0.429579       -11.6894
 250   2.0000      -0.429308       -11.6821
 251   2.0000      -0.428581       -11.6623
 252   2.0000      -0.426531       -11.6065
 253   2.0000      -0.425823       -11.5872
 254   2.0000      -0.425258       -11.5719
 255   2.0000      -0.421607       -11.4725
 256   2.0000      -0.421411       -11.4672
 257   2.0000      -0.413249       -11.2451
 258   2.0000      -0.411053       -11.1853
 259   2.0000      -0.407618       -11.0918
 260   2.0000      -0.406487       -11.0611
 261   2.0000      -0.397163       -10.8074
 262   2.0000      -0.387033       -10.5317
 263   2.0000      -0.380828       -10.3629
 264   2.0000      -0.375621       -10.2212
 265   2.0000      -0.368555       -10.0289
 266   2.0000      -0.360558        -9.8113
 267   2.0000      -0.356975        -9.7138
 268   2.0000      -0.350147        -9.5280
 269   2.0000      -0.342760        -9.3270
 270   2.0000      -0.339294        -9.2327
 271   2.0000      -0.331720        -9.0266
 272   2.0000      -0.329894        -8.9769
 273   2.0000      -0.329608        -8.9691
 274   2.0000      -0.323721        -8.8089
 275   2.0000      -0.319098        -8.6831
 276   2.0000      -0.316910        -8.6235
 277   2.0000      -0.298129        -8.1125
 278   2.0000      -0.296318        -8.0632
 279   2.0000      -0.284237        -7.7345
 280   2.0000      -0.263546        -7.1714
 281   0.0000      -0.130020        -3.5380
 282   0.0000      -0.115347        -3.1387
 283   0.0000      -0.099921        -2.7190
 284   0.0000      -0.092934        -2.5289
 285   0.0000      -0.090225        -2.4551

MULLIKEN ATOMIC CHARGES
-----------------------
   0 C :   -0.015332
   1 C :    0.034083
   2 C :    0.037928
   3 C :   -0.015004
   4 C :    0.091308
   5 C :   -0.073690
   6 C :    0.024264
   7 C :    0.019451
   8 C :   -0.079763
   9 C :    0.094353
  10 C :    0.133604
  11 O :   -0.141137
  12 C :   -0.131546
  13 C :    0.272504
  14 C :   -0.327743
  15 C :   -0.202772
  16 N :    0.167701
  17 C :   -0.171126
  18 N :    0.162043
  19 C :    0.077343
  20 C :   -0.108663
  21 C :   -0.005803
  22 C :    0.002423
  23 C :   -0.082565
  24 S :    0.223962
  25 C :   -0.085212
  26 C :    0.014463
  27 C :    0.307622
  28 C :   -0.287597
  29 C :   -0.193922
  30 N :    0.185821
  31 C :   -0.184506
  32 N :    0.173231
  33 C :   -0.055381
  34 C :   -0.121662
  35 S :    0.261892
  36 C :    0.013154
  37 N :   -0.060341
  38 N :   -0.035679
  39 C :    0.012022
  40 C :   -0.049630
  41 C :   -0.018922
  42 N :    0.085786
  43 O :   -0.074898
  44 N :    0.062750
  45 C :   -0.106623
  46 C :   -0.063736
  47 C :    0.043697
  48 C :   -0.089169
  49 S :    0.238299
  50 C :   -0.084323
  51 C :   -0.009215
  52 C :    0.304715
  53 C :   -0.292446
  54 C :   -0.188785
  55 N :    0.193378
  56 C :   -0.196639
  57 N :    0.186695
  58 C :    0.010707
  59 C :   -0.108724
  60 S :    0.214013
  61 C :    0.029161
  62 C :   -0.089341
  63 C :    0.308305
  64 C :   -0.348026
  65 C :   -0.181450
  66 N :    0.149925
  67 C :   -0.203011
  68 N :    0.156070
  69 C :    0.049445
  70 C :   -0.008964
  71 C :   -0.075398
  72 C :    0.096053
  73 C :   -0.013495
  74 C :    0.035868
  75 C :    0.037037
  76 C :   -0.019145
  77 C :    0.094561
  78 C :   -0.079596
  79 C :    0.156190
  80 O :   -0.149857
  81 H :   -0.016958
  82 H :   -0.003378
  83 H :   -0.003916
  84 H :   -0.007772
  85 H :    0.000088
  86 H :   -0.011179
  87 H :    0.023438
  88 H :    0.026976
  89 H :    0.023674
  90 H :    0.031818
  91 H :    0.036827
  92 H :    0.019708
  93 H :   -0.009157
  94 H :   -0.015526
  95 H :   -0.004010
  96 H :   -0.004404
  97 H :   -0.008974
  98 H :   -0.008240
Sum of atomic charges:   -0.0000000

LOEWDIN ATOMIC CHARGES
----------------------
   0 C :   -0.009119
   1 C :   -0.011980
   2 C :   -0.011498
   3 C :   -0.004908
   4 C :   -0.004671
   5 C :    0.019725
   6 C :   -0.023328
   7 C :   -0.058468
   8 C :    0.034034
   9 C :   -0.008842
  10 C :    0.083787
  11 O :   -0.141788
  12 C :   -0.083853
  13 C :    0.065983
  14 C :   -0.134356
  15 C :   -0.015507
  16 N :   -0.046677
  17 C :   -0.018460
  18 N :   -0.044096
  19 C :    0.039870
  20 C :   -0.175045
  21 C :    0.005709
  22 C :   -0.057379
  23 C :   -0.167297
  24 S :    0.506693
  25 C :   -0.167433
  26 C :   -0.064885
  27 C :    0.079522
  28 C :   -0.094364
  29 C :   -0.020141
  30 N :   -0.021265
  31 C :   -0.012947
  32 N :   -0.030669
  33 C :   -0.005476
  34 C :   -0.181140
  35 S :    0.531637
  36 C :   -0.021355
  37 N :   -0.062319
  38 N :   -0.039474
  39 C :   -0.025747
  40 C :   -0.070570
  41 C :   -0.060095
  42 N :    0.004045
  43 O :    0.096893
  44 N :   -0.015496
  45 C :   -0.179282
  46 C :    0.009326
  47 C :   -0.057211
  48 C :   -0.179310
  49 S :    0.515955
  50 C :   -0.164799
  51 C :   -0.068234
  52 C :    0.072808
  53 C :   -0.088927
  54 C :   -0.021145
  55 N :   -0.014744
  56 C :   -0.018965
  57 N :   -0.021414
  58 C :    0.019304
  59 C :   -0.172172
  60 S :    0.500680
  61 C :    0.041729
  62 C :   -0.089717
  63 C :    0.075896
  64 C :   -0.140569
  65 C :   -0.017417
  66 N :   -0.052399
  67 C :   -0.025164
  68 N :   -0.053080
  69 C :   -0.026727
  70 C :   -0.056004
  71 C :    0.034820
  72 C :   -0.008021
  73 C :   -0.008522
  74 C :   -0.011526
  75 C :   -0.012401
  76 C :   -0.005382
  77 C :   -0.005885
  78 C :    0.020044
  79 C :    0.085632
  80 O :   -0.137126
  81 H :    0.032095
  82 H :    0.033312
  83 H :    0.033631
  84 H :    0.035536
  85 H :    0.040677
  86 H :    0.039783
  87 H :    0.046530
  88 H :    0.043158
  89 H :    0.045156
  90 H :    0.050575
  91 H :    0.044766
  92 H :    0.043737
  93 H :    0.040530
  94 H :    0.032668
  95 H :    0.033210
  96 H :    0.033404
  97 H :    0.034866
  98 H :    0.039065

  Mayer bond orders larger than 0.100000
B(  0-C ,  1-C ) :   1.4890 B(  0-C ,  9-C ) :   1.2439 B(  0-C , 81-H ) :   0.9976
B(  1-C ,  2-C ) :   1.2606 B(  1-C , 82-H ) :   0.9893 B(  2-C ,  3-C ) :   1.4892
B(  2-C , 83-H ) :   0.9881 B(  3-C ,  4-C ) :   1.2420 B(  3-C , 84-H ) :   0.9973
B(  4-C ,  5-C ) :   1.2047 B(  4-C ,  9-C ) :   1.2559 B(  5-C ,  6-C ) :   1.4584
B(  5-C , 85-H ) :   0.9932 B(  6-C ,  7-C ) :   1.2135 B(  6-C , 13-C ) :   0.9997
B(  7-C ,  8-C ) :   1.4712 B(  7-C , 10-C ) :   0.9239 B(  8-C ,  9-C ) :   1.1860
B(  8-C , 86-H ) :   1.0158 B( 10-C , 11-O ) :   2.2684 B( 10-C , 12-C ) :   0.9365
B( 12-C , 13-C ) :   1.0268 B( 12-C , 19-C ) :   1.6920 B( 13-C , 14-C ) :   1.6530
B( 14-C , 15-C ) :   1.1732 B( 14-C , 17-C ) :   1.1268 B( 15-C , 16-N ) :   2.9945
B( 17-C , 18-N ) :   2.9937 B( 19-C , 20-C ) :   1.1179 B( 19-C , 87-H ) :   0.9265
B( 20-C , 21-C ) :   1.4031 B( 20-C , 24-S ) :   1.1013 B( 21-C , 22-C ) :   1.3517
B( 21-C , 88-H ) :   0.9804 B( 22-C , 23-C ) :   1.4210 B( 22-C , 27-C ) :   0.9963
B( 23-C , 24-S ) :   1.1483 B( 23-C , 25-C ) :   1.1956 B( 25-C , 26-C ) :   1.4216
B( 25-C , 35-S ) :   1.1326 B( 26-C , 27-C ) :   0.9945 B( 26-C , 33-C ) :   1.2849
B( 27-C , 28-C ) :   1.7184 B( 28-C , 29-C ) :   1.1348 B( 28-C , 31-C ) :   1.1353
B( 29-C , 30-N ) :   2.9955 B( 31-C , 32-N ) :   2.9821 B( 33-C , 34-C ) :   1.4713
B( 33-C , 89-H ) :   0.9852 B( 34-C , 35-S ) :   1.0878 B( 34-C , 36-C ) :   1.1778
B( 36-C , 37-N ) :   1.7208 B( 36-C , 39-C ) :   0.1066 B( 36-C , 41-C ) :   1.0841
B( 37-N , 38-N ) :   1.2065 B( 38-N , 39-C ) :   1.7335 B( 39-C , 40-C ) :   1.0491
B( 39-C , 45-C ) :   1.1627 B( 40-C , 41-C ) :   1.1742 B( 40-C , 44-N ) :   1.6084
B( 41-C , 42-N ) :   1.6226 B( 42-N , 43-O ) :   1.0755 B( 42-N , 44-N ) :   0.1803
B( 43-O , 44-N ) :   1.0767 B( 45-C , 46-C ) :   1.4139 B( 45-C , 49-S ) :   1.1181
B( 46-C , 47-C ) :   1.2627 B( 46-C , 90-H ) :   1.0161 B( 47-C , 48-C ) :   1.4049
B( 47-C , 52-C ) :   0.9883 B( 48-C , 49-S ) :   1.1236 B( 48-C , 50-C ) :   1.2058
B( 50-C , 51-C ) :   1.3846 B( 50-C , 60-S ) :   1.1627 B( 51-C , 52-C ) :   0.9979
B( 51-C , 58-C ) :   1.3241 B( 52-C , 53-C ) :   1.7258 B( 53-C , 54-C ) :   1.1345
B( 53-C , 56-C ) :   1.1346 B( 54-C , 55-N ) :   2.9938 B( 56-C , 57-N ) :   2.9986
B( 58-C , 59-C ) :   1.4065 B( 58-C , 91-H ) :   0.9730 B( 59-C , 60-S ) :   1.0830
B( 59-C , 61-C ) :   1.1936 B( 61-C , 62-C ) :   1.6089 B( 61-C , 92-H ) :   0.9200
B( 62-C , 63-C ) :   1.0723 B( 62-C , 79-C ) :   0.9364 B( 63-C , 64-C ) :   1.6304
B( 63-C , 69-C ) :   0.9887 B( 64-C , 65-C ) :   1.1471 B( 64-C , 67-C ) :   1.1387
B( 65-C , 66-N ) :   2.9658 B( 67-C , 68-N ) :   2.9870 B( 69-C , 70-C ) :   1.2132
B( 69-C , 78-C ) :   1.4493 B( 70-C , 71-C ) :   1.4735 B( 70-C , 79-C ) :   0.9495
B( 71-C , 72-C ) :   1.1785 B( 71-C , 93-H ) :   1.0158 B( 72-C , 73-C ) :   1.2445
B( 72-C , 77-C ) :   1.2552 B( 73-C , 74-C ) :   1.4882 B( 73-C , 94-H ) :   0.9975
B( 74-C , 75-C ) :   1.2595 B( 74-C , 95-H ) :   0.9889 B( 75-C , 76-C ) :   1.4906
B( 75-C , 96-H ) :   0.9887 B( 76-C , 77-C ) :   1.2400 B( 76-C , 97-H ) :   0.9969
B( 77-C , 78-C ) :   1.2074 B( 78-C , 98-H ) :   0.9894 B( 79-C , 80-O ) :   2.1880

-----------------------------------------------------------------------------
         ABSORPTION SPECTRUM VIA TRANSITION ELECTRIC DIPOLE MOMENTS
-----------------------------------------------------------------------------
State   Energy  Wavelength   fosc         T2         TX        TY        TZ
        (cm-1)    (nm)                  (au**2)     (au)      (au)      (au)
-----------------------------------------------------------------------------
   0   13541.6    738.5   1.464958013  35.61473   5.58560  -1.81098   1.06590
   1   15304.4    653.4   0.042135460   0.90638  -0.86202  -0.08859  -0.39428
   2   18171.0    550.3   0.952456420  17.25605   3.83076  -1.32936   0.90229
   3   20042.6    498.9   0.003510087   0.05766   0.22305  -0.07672   0.04492
   4   21208.4    471.5   0.059005116   0.91592   0.60728   0.68082   0.28916
   5   22073.6    453.0   0.047751239   0.71217  -0.24242   0.80785  -0.02799
   6   23181.8    431.4   0.386197033   5.48450  -2.28659   0.48575   0.14164
   7   24117.8    414.6   0.024584123   0.33558  -0.45270   0.03368  -0.35987
   8   24598.7    406.5   0.015183466   0.20321  -0.00600  -0.35136   0.28234
   9   25273.4    395.7   0.058255148   0.75883  -0.80521   0.31240  -0.11350
  10   26820.6    372.8   0.032124924   0.39432  -0.07653   0.19921  -0.59057
  11   27333.9    365.8   0.024399232   0.29387  -0.21724  -0.19630   0.45623
  12   27597.7    362.3   0.013159180   0.15698   0.33901  -0.06912  -0.19306
  13   28020.2    356.9   0.017389171   0.20431  -0.45073  -0.02409  -0.02377
  14   28675.0    348.7   0.032778720   0.37633   0.50353   0.00114   0.35040
  15   28781.7    347.4   0.063011153   0.72074  -0.14295  -0.20319   0.81180
  16   28977.6    345.1   0.200337277   2.27601   0.31268  -0.03616  -1.47544
  17   29058.4    344.1   0.007874716   0.08922   0.08659   0.12626  -0.25647
  18   29494.5    339.0   0.022266578   0.24853   0.23124  -0.00723   0.44160
  19   29837.9    335.1   0.040543316   0.44733  -0.15827  -0.04999  -0.64790
  20   29900.2    334.4   0.012818581   0.14114  -0.05818  -0.15386  -0.33776
  21   30108.2    332.1   0.417160975   4.56135  -0.92985   1.30478  -1.41219
  22   30663.6    326.1   0.388974792   4.17613   1.99060  -0.30664   0.34587
  23   30800.5    324.7   0.040252067   0.43024  -0.58810   0.12190   0.26366
  24   31158.1    320.9   0.131495024   1.38936  -1.05453   0.15450   0.50344
  25   31407.2    318.4   0.014389246   0.15083  -0.36094   0.13327  -0.05285
  26   31551.5    316.9   0.177667020   1.85380  -1.23517   0.56458   0.09693
  27   31741.6    315.0   0.036893248   0.38264   0.43029  -0.21345  -0.38978
  28   31937.3    313.1   0.032774412   0.33784  -0.54472   0.05615   0.19484
  29   32124.8    311.3   0.113454454   1.16267   1.04470  -0.13686   0.22924
  30   32314.2    309.5   0.101289962   1.03193  -0.79031   0.56333  -0.29998
  31   32452.5    308.1   0.207547202   2.10544   1.29597  -0.44688   0.47561
  32   32852.7    304.4   0.265556972   2.66111   0.62919  -0.24593   1.48484
  33   33400.3    299.4   0.509358139   5.02052   0.84947  -0.63106   1.97501
  34   33545.2    298.1   0.031461896   0.30877  -0.37505   0.20043  -0.35768
  35   34005.9    294.1   0.184062003   1.78191  -0.54997   0.24726  -1.19093
  36   34259.6    291.9   0.352168079   3.38410  -1.83629  -0.07375   0.08177
  37   34535.2    289.6   0.023765846   0.22655  -0.02474  -0.33536   0.33685
  38   34665.8    288.5   0.399226645   3.79135  -0.49539   1.31737  -1.34554
  39   34832.9    287.1   0.090150315   0.85203   0.90045  -0.13885  -0.14810
  40   34971.5    285.9   0.145620201   1.37083  -0.83542   0.16246  -0.80405
  41   35040.6    285.4   0.231689853   2.17676  -1.13447  -0.05195   0.94183
  42   35271.8    283.5   0.068199336   0.63654   0.14634  -0.13252   0.77303
  43   35803.6    279.3   0.044807884   0.41201  -0.53219  -0.07201   0.35156
  44   35894.6    278.6   0.090751263   0.83234  -0.87054   0.06365  -0.26541
  45   36213.3    276.1   0.196558209   1.78690   0.66627   0.00104  -1.15887
  46   36343.6    275.2   0.135427015   1.22674   1.09748  -0.13985  -0.05223
  47   36420.0    274.6   0.067425486   0.60948   0.73190  -0.16205   0.21805
  48   36609.9    273.2   0.012905716   0.11605   0.21045  -0.26775  -0.00840
  49   36838.3    271.5   0.004947190   0.04421  -0.02366  -0.18565  -0.09584
  50   37103.1    269.5   0.076337021   0.67733   0.08661   0.53330  -0.62083
  51   37368.0    267.6   0.007781721   0.06856   0.23400   0.11748  -0.00073
  52   37637.3    265.7   0.005803697   0.05076  -0.03949   0.19981   0.09634
  53   37906.1    263.8   0.026518250   0.23031   0.22802  -0.22617   0.35660
  54   38087.6    262.6   0.037418117   0.32343   0.56014  -0.08770   0.04443
  55   38374.5    260.6   0.023435016   0.20105   0.12221  -0.28951   0.31984
  56   38446.5    260.1   0.006031981   0.05165  -0.15740  -0.03723   0.15966
  57   38624.9    258.9   0.120583975   1.02777  -0.72882  -0.12377   0.69374
  58   38739.4    258.1   0.009421637   0.08007  -0.27011   0.02914   0.07910
  59   39212.2    255.0   0.072509554   0.60877  -0.56573  -0.28419   0.45602
  60   39400.3    253.8   0.020451385   0.17088  -0.29254   0.00295   0.29206
  61   39560.9    252.8   0.066507050   0.55345   0.36652   0.47561  -0.43921
  62   39736.8    251.7   0.017776011   0.14727   0.06016  -0.33393   0.17928
  63   39869.3    250.8   0.123183861   1.01716  -0.92814  -0.25626   0.30007
  64   39951.7    250.3   0.037559775   0.30950  -0.53405   0.09202  -0.12580
  65   40027.7    249.8   0.003737586   0.03074   0.15476  -0.02574   0.07827
  66   40120.6    249.2   0.028562545   0.23437   0.39285   0.03362  -0.28092
  67   40309.1    248.1   0.003791184   0.03096  -0.10758  -0.13810  -0.01786

FINAL SINGLE POINT ENERGY     -4843.993534884063

DIPOLE MOMENT
-------------
                                X             Y             Z
Electronic contribution:      3.49240       0.94000      -8.69457
Nuclear contribution   :     -5.25923      -3.04702       9.50799
                        -----------------------------------------
Total Dipole Moment    :     -1.76683      -2.10702       0.81342
                        -----------------------------------------
Magnitude (a.u.)       :      2.86756
Magnitude (Debye)      :      7.28875

Rotational constants in cm-1:     0.002994     0.000141     0.000137
Rotational constants in MHz :    89.753390     4.241667     4.110837

                             ****ORCA TERMINATED NORMALLY****
TOTAL RUN TIME: 0 days 0 hours 10 minutes 4 seconds 639 msec
