                         Program Version 4.2.0 -  RELEASE  -
|  1> # ORCA input file
|  2> # SCF done       -169.989636678348          0.000717964953
|  3> ! CAM-B3LYP def2-SVP def2/J RIJCOSX Grid4 TightSCF
|  4> %maxcore 5000
|  5> %tddft
|  6>     Mode sTDDFT
|  7>     Ethresh 5.0
|  8>     maxcore 5000
|  9> end
| 10>
| 11> %pal
| 12>   nprocs 6
| 13>   end
| 14> * xyz 0 1
| 15>    C       14.72251        -0.19906        11.97084
| 16>    C       13.91107         0.69275        12.61780
| 17>    C       13.05521         1.53127        11.88738
| 18>    C       13.02271         1.46703        10.52113
| 19>    C       13.84602         0.56095         9.82164
| 20>    C       13.82232         0.49643         8.41004
| 21>    C       14.63754        -0.39381         7.76320
| 22>    C       15.48807        -1.25996         8.51355
| 23>    C       15.53530        -1.21315         9.87802
| 24>    C       14.71323        -0.29253        10.56478
| 25>    C       16.21838        -2.14692         7.59437
| 26>    O       17.06992        -2.96431         7.85073
| 27>    C       15.62856        -1.87086         6.24568
| 28>    C       14.84326        -0.64916         6.34357
| 29>    C       14.55891         0.21770         5.32753
| 30>    C       14.98632         0.03533         3.99540
| 31>    N       15.36053        -0.03891         2.91281
| 32>    C       13.88397         1.44302         5.51195
| 33>    N       13.34652         2.45136         5.61566
| 34>    C       15.75931        -2.77512         5.25524
| 35>    C       14.99358        -2.82844         4.03162
| 36>    N       13.73014        -2.38983         4.08082
| 37>    N       12.99690        -2.37227         3.03189
| 38>    C       13.45655        -2.80452         1.85315
| 39>    C       14.74504        -3.35706         1.72357
| 40>    C       15.53217        -3.36468         2.84856
| 41>    C       12.55185        -2.66580         0.75010
| 42>    C       12.73350        -3.04757        -0.58086
| 43>    C       11.59554        -2.71879        -1.40516
| 44>    N       11.59284        -2.99307        -2.71372
| 45>    C       12.65341        -3.59509        -3.20377
| 46>    C       12.64255        -3.89614        -4.65856
| 47>    O       11.70509        -3.62146        -5.37575
| 48>    C       13.85607        -4.56269        -5.16699
| 49>    C       14.89542        -4.89861        -4.39709
| 50>    C       14.95586        -4.63907        -2.94672
| 51>    O       15.90385        -4.96770        -2.26750
| 52>    C       13.76887        -3.94505        -2.38209
| 53>    N       13.80145        -3.66398        -1.09919
| 54>    C       10.57485        -2.10136        -0.67750
| 55>    S       11.01243        -1.92823         0.97963
| 56>    C        9.31143        -1.61715        -1.15061
| 57>    N        8.58228        -0.92756        -0.26576
| 58>    N        7.43043        -0.46602        -0.56424
| 59>    C        6.92205        -0.60352        -1.79324
| 60>    C        7.65628        -1.24441        -2.80828
| 61>    C        8.86343        -1.80598        -2.47126
| 62>    C        5.61690        -0.02129        -2.02187
| 63>    C        4.60842        -0.61863        -2.69457
| 64>    C        3.29853        -0.04738        -2.98556
| 65>    C        2.97678         1.28147        -2.95425
| 66>    C        1.70162         1.79216        -3.27918
| 67>    N        0.68507         2.26203        -3.52977
| 68>    C        3.88010         2.32101        -2.64232
| 69>    N        4.56139         3.21836        -2.42361
| 70>    C        2.42569        -1.13201        -3.40977
| 71>    C        3.18703        -2.33493        -3.47082
| 72>    C        2.63062        -3.52221        -3.85389
| 73>    C        1.26198        -3.56198        -4.19940
| 74>    C        0.63506        -4.75620        -4.60671
| 75>    C       -0.69367        -4.77177        -4.93380
| 76>    C       -1.45348        -3.59391        -4.86875
| 77>    C       -0.87511        -2.41718        -4.47766
| 78>    C        0.49135        -2.36448        -4.13397
| 79>    C        1.09380        -1.15061        -3.73334
| 80>    C        4.57711        -2.06605        -3.07291
| 81>    O        5.48543        -2.86446        -3.01583
| 82>    H       15.38308        -0.84728        12.52786
| 83>    H       13.92341         0.75675        13.69554
| 84>    H       12.42168         2.22931        12.41376
| 85>    H       12.36822         2.11257         9.95431
| 86>    H       13.14935         1.14465         7.87083
| 87>    H       16.19135        -1.87204        10.42729
| 88>    H       16.47024        -3.57747         5.41997
| 89>    H       15.07930        -3.74037         0.77293
| 90>    H       16.54296        -3.74189         2.83068
| 91>    H       13.85034        -4.77290        -6.22813
| 92>    H       15.76532        -5.39212        -4.80928
| 93>    H        7.28328        -1.27605        -3.81881
| 94>    H        9.46820        -2.35216        -3.17725
| 95>    H        5.46530         0.94601        -1.56046
| 96>    H        3.23026        -4.41947        -3.89413
| 97>    H        1.22513        -5.65964        -4.65471
| 98>    H       -1.16678        -5.69140        -5.24389
| 99>    H       -2.50037        -3.62383        -5.13088
|100>    H       -1.45548        -1.50766        -4.42798
|101>    H        0.48332        -0.26275        -3.68705
|102> *
|103>
|104>                          ****END OF INPUT****

CARTESIAN COORDINATES (ANGSTROEM)
---------------------------------
  C     14.722510   -0.199060   11.970840
  C     13.911070    0.692750   12.617800
  C     13.055210    1.531270   11.887380
  C     13.022710    1.467030   10.521130
  C     13.846020    0.560950    9.821640
  C     13.822320    0.496430    8.410040
  C     14.637540   -0.393810    7.763200
  C     15.488070   -1.259960    8.513550
  C     15.535300   -1.213150    9.878020
  C     14.713230   -0.292530   10.564780
  C     16.218380   -2.146920    7.594370
  O     17.069920   -2.964310    7.850730
  C     15.628560   -1.870860    6.245680
  C     14.843260   -0.649160    6.343570
  C     14.558910    0.217700    5.327530
  C     14.986320    0.035330    3.995400
  N     15.360530   -0.038910    2.912810
  C     13.883970    1.443020    5.511950
  N     13.346520    2.451360    5.615660
  C     15.759310   -2.775120    5.255240
  C     14.993580   -2.828440    4.031620
  N     13.730140   -2.389830    4.080820
  N     12.996900   -2.372270    3.031890
  C     13.456550   -2.804520    1.853150
  C     14.745040   -3.357060    1.723570
  C     15.532170   -3.364680    2.848560
  C     12.551850   -2.665800    0.750100
  C     12.733500   -3.047570   -0.580860
  C     11.595540   -2.718790   -1.405160
  N     11.592840   -2.993070   -2.713720
  C     12.653410   -3.595090   -3.203770
  C     12.642550   -3.896140   -4.658560
  O     11.705090   -3.621460   -5.375750
  C     13.856070   -4.562690   -5.166990
  C     14.895420   -4.898610   -4.397090
  C     14.955860   -4.639070   -2.946720
  O     15.903850   -4.967700   -2.267500
  C     13.768870   -3.945050   -2.382090
  N     13.801450   -3.663980   -1.099190
  C     10.574850   -2.101360   -0.677500
  S     11.012430   -1.928230    0.979630
  C      9.311430   -1.617150   -1.150610
  N      8.582280   -0.927560   -0.265760
  N      7.430430   -0.466020   -0.564240
  C      6.922050   -0.603520   -1.793240
  C      7.656280   -1.244410   -2.808280
  C      8.863430   -1.805980   -2.471260
  C      5.616900   -0.021290   -2.021870
  C      4.608420   -0.618630   -2.694570
  C      3.298530   -0.047380   -2.985560
  C      2.976780    1.281470   -2.954250
  C      1.701620    1.792160   -3.279180
  N      0.685070    2.262030   -3.529770
  C      3.880100    2.321010   -2.642320
  N      4.561390    3.218360   -2.423610
  C      2.425690   -1.132010   -3.409770
  C      3.187030   -2.334930   -3.470820
  C      2.630620   -3.522210   -3.853890
  C      1.261980   -3.561980   -4.199400
  C      0.635060   -4.756200   -4.606710
  C     -0.693670   -4.771770   -4.933800
  C     -1.453480   -3.593910   -4.868750
  C     -0.875110   -2.417180   -4.477660
  C      0.491350   -2.364480   -4.133970
  C      1.093800   -1.150610   -3.733340
  C      4.577110   -2.066050   -3.072910
  O      5.485430   -2.864460   -3.015830
  H     15.383080   -0.847280   12.527860
  H     13.923410    0.756750   13.695540
  H     12.421680    2.229310   12.413760
  H     12.368220    2.112570    9.954310
  H     13.149350    1.144650    7.870830
  H     16.191350   -1.872040   10.427290
  H     16.470240   -3.577470    5.419970
  H     15.079300   -3.740370    0.772930
  H     16.542960   -3.741890    2.830680
  H     13.850340   -4.772900   -6.228130
  H     15.765320   -5.392120   -4.809280
  H      7.283280   -1.276050   -3.818810
  H      9.468200   -2.352160   -3.177250
  H      5.465300    0.946010   -1.560460
  H      3.230260   -4.419470   -3.894130
  H      1.225130   -5.659640   -4.654710
  H     -1.166780   -5.691400   -5.243890
  H     -2.500370   -3.623830   -5.130880
  H     -1.455480   -1.507660   -4.427980
  H      0.483320   -0.262750   -3.687050

 Total Charge           Charge          ....    0
 Multiplicity           Mult            ....    1
 Number of Electrons    NEL             ....  450
 Basis Dimension        Dim             .... 1042

ORBITAL ENERGIES
----------------

  NO   OCC          E(Eh)            E(eV)
   0   2.0000     -88.997051     -2421.7329
   1   2.0000     -19.233988      -523.3834
   2   2.0000     -19.233787      -523.3780
   3   2.0000     -19.224618      -523.1285
   4   2.0000     -19.217127      -522.9246
   5   2.0000     -14.453878      -393.3100
   6   2.0000     -14.453649      -393.3038
   7   2.0000     -14.449343      -393.1866
   8   2.0000     -14.449038      -393.1783
   9   2.0000     -14.445123      -393.0718
  10   2.0000     -14.443692      -393.0328
  11   2.0000     -14.420562      -392.4034
  12   2.0000     -14.418920      -392.3588
  13   2.0000     -14.412472      -392.1833
  14   2.0000     -14.412209      -392.1762
  15   2.0000     -10.382640      -282.5260
  16   2.0000     -10.382462      -282.5211
  17   2.0000     -10.376301      -282.3535
  18   2.0000     -10.367698      -282.1194
  19   2.0000     -10.349922      -281.6357
  20   2.0000     -10.346425      -281.5405
  21   2.0000     -10.346069      -281.5308
  22   2.0000     -10.345914      -281.5266
  23   2.0000     -10.341173      -281.3976
  24   2.0000     -10.337946      -281.3098
  25   2.0000     -10.337667      -281.3022
  26   2.0000     -10.337406      -281.2951
  27   2.0000     -10.336482      -281.2700
  28   2.0000     -10.333979      -281.2019
  29   2.0000     -10.329306      -281.0747
  30   2.0000     -10.326806      -281.0067
  31   2.0000     -10.326657      -281.0026
  32   2.0000     -10.325284      -280.9653
  33   2.0000     -10.322512      -280.8898
  34   2.0000     -10.320821      -280.8438
  35   2.0000     -10.320625      -280.8385
  36   2.0000     -10.315063      -280.6871
  37   2.0000     -10.314988      -280.6851
  38   2.0000     -10.314349      -280.6677
  39   2.0000     -10.314267      -280.6655
  40   2.0000     -10.314068      -280.6601
  41   2.0000     -10.310065      -280.5511
  42   2.0000     -10.308936      -280.5204
  43   2.0000     -10.307310      -280.4762
  44   2.0000     -10.304088      -280.3885
  45   2.0000     -10.303424      -280.3704
  46   2.0000     -10.303327      -280.3678
  47   2.0000     -10.303139      -280.3627
  48   2.0000     -10.302844      -280.3546
  49   2.0000     -10.302354      -280.3413
  50   2.0000     -10.302344      -280.3410
  51   2.0000     -10.301387      -280.3150
  52   2.0000     -10.297040      -280.1967
  53   2.0000     -10.296925      -280.1936
  54   2.0000     -10.296601      -280.1848
  55   2.0000     -10.295216      -280.1471
  56   2.0000     -10.295021      -280.1418
  57   2.0000     -10.294938      -280.1395
  58   2.0000     -10.291478      -280.0453
  59   2.0000     -10.290983      -280.0319
  60   2.0000     -10.290652      -280.0229
  61   2.0000     -10.290109      -280.0081
  62   2.0000     -10.289350      -279.9874
  63   2.0000     -10.285512      -279.8830
  64   2.0000     -10.285036      -279.8701
  65   2.0000     -10.284732      -279.8618
  66   2.0000     -10.283956      -279.8407
  67   2.0000      -8.089984      -220.1396
  68   2.0000      -6.058686      -164.8652
  69   2.0000      -6.054349      -164.7472
  70   2.0000      -6.053675      -164.7289
  71   2.0000      -1.150981       -31.3198
  72   2.0000      -1.146701       -31.2033
  73   2.0000      -1.140502       -31.0346
  74   2.0000      -1.134367       -30.8677
  75   2.0000      -1.132212       -30.8091
  76   2.0000      -1.130379       -30.7592
  77   2.0000      -1.104039       -30.0424
  78   2.0000      -1.031250       -28.0617
  79   2.0000      -1.023094       -27.8398
  80   2.0000      -1.016073       -27.6488
  81   2.0000      -1.008630       -27.4462
  82   2.0000      -1.003481       -27.3061
  83   2.0000      -0.997871       -27.1534
  84   2.0000      -0.996789       -27.1240
  85   2.0000      -0.990867       -26.9629
  86   2.0000      -0.977502       -26.5992
  87   2.0000      -0.971818       -26.4445
  88   2.0000      -0.954394       -25.9704
  89   2.0000      -0.948031       -25.7972
  90   2.0000      -0.941295       -25.6139
  91   2.0000      -0.932441       -25.3730
  92   2.0000      -0.925678       -25.1890
  93   2.0000      -0.920349       -25.0440
  94   2.0000      -0.918207       -24.9857
  95   2.0000      -0.899061       -24.4647
  96   2.0000      -0.894204       -24.3325
  97   2.0000      -0.886374       -24.1195
  98   2.0000      -0.880153       -23.9502
  99   2.0000      -0.876871       -23.8609
 100   2.0000      -0.867971       -23.6187
 101   2.0000      -0.859261       -23.3817
 102   2.0000      -0.842873       -22.9357
 103   2.0000      -0.833652       -22.6848
 104   2.0000      -0.827286       -22.5116
 105   2.0000      -0.808637       -22.0041
 106   2.0000      -0.805028       -21.9059
 107   2.0000      -0.793581       -21.5944
 108   2.0000      -0.791737       -21.5443
 109   2.0000      -0.772256       -21.0142
 110   2.0000      -0.767268       -20.8784
 111   2.0000      -0.763316       -20.7709
 112   2.0000      -0.756847       -20.5948
 113   2.0000      -0.751827       -20.4582
 114   2.0000      -0.744583       -20.2611
 115   2.0000      -0.722337       -19.6558
 116   2.0000      -0.710118       -19.3233
 117   2.0000      -0.709244       -19.2995
 118   2.0000      -0.707332       -19.2475
 119   2.0000      -0.701100       -19.0779
 120   2.0000      -0.696045       -18.9403
 121   2.0000      -0.693372       -18.8676
 122   2.0000      -0.685342       -18.6491
 123   2.0000      -0.679770       -18.4975
 124   2.0000      -0.677478       -18.4351
 125   2.0000      -0.673755       -18.3338
 126   2.0000      -0.659474       -17.9452
 127   2.0000      -0.644684       -17.5427
 128   2.0000      -0.643720       -17.5165
 129   2.0000      -0.638048       -17.3622
 130   2.0000      -0.627396       -17.0723
 131   2.0000      -0.626398       -17.0452
 132   2.0000      -0.616258       -16.7692
 133   2.0000      -0.614433       -16.7196
 134   2.0000      -0.612100       -16.6561
 135   2.0000      -0.608652       -16.5623
 136   2.0000      -0.606172       -16.4948
 137   2.0000      -0.603416       -16.4198
 138   2.0000      -0.591664       -16.1000
 139   2.0000      -0.583974       -15.8907
 140   2.0000      -0.575010       -15.6468
 141   2.0000      -0.572699       -15.5839
 142   2.0000      -0.566720       -15.4212
 143   2.0000      -0.561904       -15.2902
 144   2.0000      -0.559074       -15.2132
 145   2.0000      -0.558826       -15.2064
 146   2.0000      -0.554611       -15.0917
 147   2.0000      -0.551998       -15.0206
 148   2.0000      -0.546593       -14.8735
 149   2.0000      -0.545824       -14.8526
 150   2.0000      -0.544098       -14.8057
 151   2.0000      -0.543082       -14.7780
 152   2.0000      -0.540138       -14.6979
 153   2.0000      -0.536089       -14.5877
 154   2.0000      -0.532948       -14.5023
 155   2.0000      -0.531453       -14.4616
 156   2.0000      -0.529206       -14.4004
 157   2.0000      -0.525930       -14.3113
 158   2.0000      -0.523100       -14.2343
 159   2.0000      -0.520494       -14.1633
 160   2.0000      -0.518300       -14.1037
 161   2.0000      -0.516122       -14.0444
 162   2.0000      -0.514873       -14.0104
 163   2.0000      -0.513161       -13.9638
 164   2.0000      -0.511465       -13.9177
 165   2.0000      -0.510759       -13.8985
 166   2.0000      -0.505884       -13.7658
 167   2.0000      -0.504329       -13.7235
 168   2.0000      -0.501414       -13.6442
 169   2.0000      -0.500900       -13.6302
 170   2.0000      -0.496643       -13.5143
 171   2.0000      -0.492610       -13.4046
 172   2.0000      -0.490801       -13.3554
 173   2.0000      -0.490516       -13.3476
 174   2.0000      -0.490105       -13.3364
 175   2.0000      -0.483481       -13.1562
 176   2.0000      -0.480317       -13.0701
 177   2.0000      -0.470705       -12.8085
 178   2.0000      -0.464393       -12.6368
 179   2.0000      -0.460221       -12.5232
 180   2.0000      -0.453857       -12.3501
 181   2.0000      -0.452585       -12.3155
 182   2.0000      -0.450418       -12.2565
 183   2.0000      -0.447581       -12.1793
 184   2.0000      -0.446546       -12.1511
 185   2.0000      -0.445504       -12.1228
 186   2.0000      -0.442721       -12.0470
 187   2.0000      -0.438622       -11.9355
 188   2.0000      -0.438334       -11.9277
 189   2.0000      -0.437703       -11.9105
 190   2.0000      -0.432938       -11.7809
 191   2.0000      -0.430983       -11.7277
 192   2.0000      -0.429059       -11.6753
 193   2.0000      -0.425423       -11.5763
 194   2.0000      -0.424109       -11.5406
 195   2.0000      -0.422115       -11.4863
 196   2.0000      -0.417598       -11.3634
 197   2.0000      -0.414521       -11.2797
 198   2.0000      -0.414312       -11.2740
 199   2.0000      -0.412468       -11.2238
 200   2.0000      -0.411192       -11.1891
 201   2.0000      -0.408370       -11.1123
 202   2.0000      -0.401516       -10.9258
 203   2.0000      -0.391749       -10.6600
 204   2.0000      -0.386392       -10.5142
 205   2.0000      -0.385094       -10.4789
 206   2.0000      -0.380998       -10.3675
 207   2.0000      -0.379345       -10.3225
 208   2.0000      -0.376079       -10.2336
 209   2.0000      -0.369685       -10.0596
 210   2.0000      -0.368531       -10.0282
 211   2.0000      -0.353338        -9.6148
 212   2.0000      -0.348024        -9.4702
 213   2.0000      -0.347087        -9.4447
 214   2.0000      -0.341678        -9.2975
 215   2.0000      -0.340335        -9.2610
 216   2.0000      -0.333336        -9.0705
 217   2.0000      -0.325570        -8.8592
 218   2.0000      -0.319196        -8.6858
 219   2.0000      -0.316257        -8.6058
 220   2.0000      -0.305674        -8.3178
 221   2.0000      -0.299538        -8.1508
 222   2.0000      -0.298025        -8.1097
 223   2.0000      -0.291204        -7.9241
 224   2.0000      -0.274417        -7.4673
 225   0.0000      -0.109669        -2.9842
 226   0.0000      -0.097115        -2.6426
 227   0.0000      -0.088458        -2.4071
 228   0.0000      -0.083930        -2.2838
 229   0.0000      -0.062539        -1.7018

MULLIKEN ATOMIC CHARGES
-----------------------
   0 C :   -0.013643
   1 C :    0.033122
   2 C :    0.036407
   3 C :   -0.016067
   4 C :    0.091946
   5 C :   -0.074511
   6 C :    0.037199
   7 C :    0.005540
   8 C :   -0.076094
   9 C :    0.094054
  10 C :    0.133829
  11 O :   -0.136418
  12 C :   -0.098988
  13 C :    0.293018
  14 C :   -0.303695
  15 C :   -0.181357
  16 N :    0.157792
  17 C :   -0.186555
  18 N :    0.156295
  19 C :    0.051527
  20 C :   -0.015518
  21 N :   -0.066014
  22 N :   -0.072561
  23 C :   -0.011827
  24 C :    0.019025
  25 C :    0.069445
  26 C :   -0.117036
  27 C :    0.032807
  28 C :    0.029199
  29 N :    0.061690
  30 C :   -0.117193
  31 C :    0.142977
  32 O :   -0.105282
  33 C :   -0.014639
  34 C :   -0.015761
  35 C :    0.144724
  36 O :   -0.106011
  37 C :   -0.118487
  38 N :    0.058228
  39 C :   -0.115484
  40 S :    0.351031
  41 C :   -0.021602
  42 N :   -0.077536
  43 N :   -0.052165
  44 C :   -0.030103
  45 C :    0.117008
  46 C :   -0.011565
  47 C :    0.021272
  48 C :   -0.086812
  49 C :    0.298464
  50 C :   -0.328756
  51 C :   -0.180286
  52 N :    0.155729
  53 C :   -0.205033
  54 N :    0.173125
  55 C :    0.053880
  56 C :   -0.013287
  57 C :   -0.076253
  58 C :    0.098598
  59 C :   -0.015163
  60 C :    0.037863
  61 C :    0.038938
  62 C :   -0.020776
  63 C :    0.099392
  64 C :   -0.084647
  65 C :    0.151160
  66 O :   -0.137485
  67 H :   -0.017086
  68 H :   -0.003205
  69 H :   -0.003818
  70 H :   -0.008367
  71 H :   -0.001049
  72 H :   -0.010753
  73 H :    0.024645
  74 H :    0.015622
  75 H :    0.001227
  76 H :    0.020023
  77 H :    0.019422
  78 H :    0.001523
  79 H :    0.014972
  80 H :    0.051198
  81 H :   -0.010827
  82 H :   -0.015668
  83 H :   -0.003669
  84 H :   -0.001932
  85 H :   -0.007333
  86 H :   -0.005601
Sum of atomic charges:   -0.0000000

LOEWDIN ATOMIC CHARGES
----------------------
   0 C :   -0.008974
   1 C :   -0.013100
   2 C :   -0.011752
   3 C :   -0.005291
   4 C :   -0.003735
   5 C :    0.019466
   6 C :   -0.019959
   7 C :   -0.058847
   8 C :    0.034086
   9 C :   -0.008834
  10 C :    0.085469
  11 O :   -0.136260
  12 C :   -0.053048
  13 C :    0.076896
  14 C :   -0.116478
  15 C :   -0.015296
  16 N :   -0.055507
  17 C :   -0.016664
  18 N :   -0.046545
  19 C :    0.053256
  20 C :   -0.026193
  21 N :   -0.031922
  22 N :   -0.051036
  23 C :   -0.019704
  24 C :    0.018391
  25 C :    0.017593
  26 C :   -0.184496
  27 C :   -0.039264
  28 C :   -0.039700
  29 N :    0.007030
  30 C :   -0.042316
  31 C :    0.057848
  32 O :   -0.100637
  33 C :   -0.011430
  34 C :   -0.011878
  35 C :    0.058050
  36 O :   -0.101067
  37 C :   -0.041654
  38 N :    0.005508
  39 C :   -0.184232
  40 S :    0.630282
  41 C :   -0.023103
  42 N :   -0.059420
  43 N :   -0.028877
  44 C :   -0.028418
  45 C :    0.033527
  46 C :    0.005244
  47 C :    0.078670
  48 C :   -0.076124
  49 C :    0.073234
  50 C :   -0.125692
  51 C :   -0.016358
  52 N :   -0.045709
  53 C :   -0.025065
  54 N :   -0.037593
  55 C :   -0.025850
  56 C :   -0.058002
  57 C :    0.035964
  58 C :   -0.007760
  59 C :   -0.008296
  60 C :   -0.010340
  61 C :   -0.010761
  62 C :   -0.004635
  63 C :   -0.004573
  64 C :    0.021124
  65 C :    0.085011
  66 O :   -0.130258
  67 H :    0.031868
  68 H :    0.033128
  69 H :    0.033510
  70 H :    0.035183
  71 H :    0.040225
  72 H :    0.039496
  73 H :    0.047696
  74 H :    0.040822
  75 H :    0.041907
  76 H :    0.046551
  77 H :    0.046458
  78 H :    0.039250
  79 H :    0.040189
  80 H :    0.054013
  81 H :    0.039954
  82 H :    0.032610
  83 H :    0.033583
  84 H :    0.034343
  85 H :    0.035506
  86 H :    0.039714

  Mayer bond orders larger than 0.100000
B(  0-C ,  1-C ) :   1.4935 B(  0-C ,  9-C ) :   1.2435 B(  0-C , 67-H ) :   0.9971
B(  1-C ,  2-C ) :   1.2580 B(  1-C , 68-H ) :   0.9878 B(  2-C ,  3-C ) :   1.4946
B(  2-C , 69-H ) :   0.9882 B(  3-C ,  4-C ) :   1.2390 B(  3-C , 70-H ) :   0.9975
B(  4-C ,  5-C ) :   1.2116 B(  4-C ,  9-C ) :   1.2545 B(  5-C ,  6-C ) :   1.4552
B(  5-C , 71-H ) :   0.9932 B(  6-C ,  7-C ) :   1.2107 B(  6-C , 13-C ) :   1.0059
B(  7-C ,  8-C ) :   1.4716 B(  7-C , 10-C ) :   0.9239 B(  8-C ,  9-C ) :   1.1925
B(  8-C , 72-H ) :   1.0146 B( 10-C , 11-O ) :   2.2815 B( 10-C , 12-C ) :   0.9192
B( 12-C , 13-C ) :   0.9956 B( 12-C , 19-C ) :   1.7738 B( 13-C , 14-C ) :   1.7004
B( 14-C , 15-C ) :   1.1521 B( 14-C , 17-C ) :   1.1363 B( 15-C , 16-N ) :   2.9998
B( 17-C , 18-N ) :   2.9892 B( 19-C , 20-C ) :   1.0143 B( 19-C , 73-H ) :   0.9453
B( 20-C , 21-N ) :   1.4737 B( 20-C , 25-C ) :   1.2783 B( 21-N , 22-N ) :   1.3721
B( 22-N , 23-C ) :   1.5286 B( 23-C , 24-C ) :   1.3213 B( 23-C , 26-C ) :   1.0979
B( 24-C , 25-C ) :   1.4015 B( 24-C , 74-H ) :   0.9644 B( 25-C , 75-H ) :   0.9905
B( 26-C , 27-C ) :   1.3715 B( 26-C , 39-C ) :   0.1557 B( 26-C , 40-S ) :   1.1942
B( 27-C , 28-C ) :   1.1879 B( 27-C , 38-N ) :   1.4261 B( 28-C , 29-N ) :   1.4288
B( 28-C , 39-C ) :   1.3716 B( 29-N , 30-C ) :   1.7142 B( 30-C , 31-C ) :   0.8925
B( 30-C , 37-C ) :   1.0942 B( 31-C , 32-O ) :   2.2334 B( 31-C , 33-C ) :   1.0270
B( 33-C , 34-C ) :   1.6833 B( 33-C , 76-H ) :   0.9980 B( 34-C , 35-C ) :   1.0258
B( 34-C , 77-H ) :   0.9980 B( 35-C , 36-O ) :   2.2328 B( 35-C , 37-C ) :   0.8921
B( 37-C , 38-N ) :   1.7153 B( 39-C , 40-S ) :   1.1959 B( 39-C , 41-C ) :   1.0918
B( 41-C , 42-N ) :   1.5371 B( 41-C , 46-C ) :   1.3268 B( 42-N , 43-N ) :   1.3756
B( 43-N , 44-C ) :   1.5042 B( 44-C , 45-C ) :   1.2951 B( 44-C , 47-C ) :   1.0234
B( 45-C , 46-C ) :   1.4166 B( 45-C , 78-H ) :   0.9743 B( 46-C , 79-H ) :   0.9684
B( 47-C , 48-C ) :   1.7299 B( 47-C , 80-H ) :   0.9472 B( 48-C , 49-C ) :   1.0232
B( 48-C , 65-C ) :   0.9185 B( 49-C , 50-C ) :   1.6743 B( 49-C , 55-C ) :   1.0021
B( 50-C , 51-C ) :   1.1387 B( 50-C , 53-C ) :   1.1371 B( 51-C , 52-N ) :   2.9710
B( 53-C , 54-N ) :   2.9998 B( 55-C , 56-C ) :   1.2113 B( 55-C , 64-C ) :   1.4401
B( 56-C , 57-C ) :   1.4673 B( 56-C , 65-C ) :   0.9498 B( 57-C , 58-C ) :   1.1814
B( 57-C , 81-H ) :   1.0173 B( 58-C , 59-C ) :   1.2430 B( 58-C , 63-C ) :   1.2544
B( 59-C , 60-C ) :   1.4898 B( 59-C , 82-H ) :   0.9983 B( 60-C , 61-C ) :   1.2578
B( 60-C , 83-H ) :   0.9889 B( 61-C , 62-C ) :   1.4915 B( 61-C , 84-H ) :   0.9884
B( 62-C , 63-C ) :   1.2360 B( 62-C , 85-H ) :   0.9983 B( 63-C , 64-C ) :   1.2106
B( 64-C , 86-H ) :   0.9913 B( 65-C , 66-O ) :   2.2316

-----------------------------------------------------------------------------
         ABSORPTION SPECTRUM VIA TRANSITION ELECTRIC DIPOLE MOMENTS
-----------------------------------------------------------------------------
State   Energy  Wavelength   fosc         T2         TX        TY        TZ
        (cm-1)    (nm)                  (au**2)     (au)      (au)      (au)
-----------------------------------------------------------------------------
   0   18731.2    533.9   0.644465613  11.32687   2.59684  -0.17243   2.13391
   1   19620.9    509.7   0.065796601   1.10398  -0.79722   0.10873  -0.67571
   2   20687.8    483.4   0.023013532   0.36622   0.47323  -0.32766   0.18685
   3   22356.2    447.3   0.243839403   3.59071  -1.07041   0.87714   1.29443
   4   24464.6    408.8   0.053402721   0.71862   0.68273  -0.01636   0.50223
   5   24928.4    401.1   0.190061043   2.51001   1.35053   0.17432   0.80975
   6   25096.0    398.5   0.062218184   0.81618   0.65735  -0.25386   0.56536
   7   25459.8    392.8   0.034040859   0.44017   0.49150  -0.37507   0.24066
   8   25745.2    388.4   0.060322166   0.77136  -0.27338   0.75920   0.34675
   9   26066.6    383.6   0.000096581   0.00122  -0.00919   0.02008   0.02706
  10   26284.2    380.5   0.075411963   0.94454  -0.14477   0.20040   0.93991
  11   26771.1    373.5   0.000707616   0.00870  -0.00886  -0.07271   0.05776
  12   26964.6    370.9   0.084000183   1.02556  -0.79956  -0.51718  -0.34467
  13   27862.6    358.9   0.029443342   0.34789   0.39495  -0.04923   0.43530
  14   28291.7    353.5   0.015894822   0.18496  -0.28481   0.30544  -0.10269
  15   29359.2    340.6   0.013190292   0.14791   0.24403  -0.28524   0.08363
  16   29674.9    337.0   0.004922436   0.05461   0.13510  -0.03348  -0.18772
  17   29785.5    335.7   0.000419424   0.00464   0.04640  -0.02801   0.04121
  18   30604.5    326.7   0.164590372   1.77050   0.75988  -0.52807  -0.95615
  19   31143.8    321.1   0.004443432   0.04697  -0.04236   0.07959   0.19708
  20   31524.3    317.2   0.036153378   0.37755   0.02873   0.43206   0.43595
  21   31624.9    316.2   0.086985281   0.90551  -0.37414  -0.86521  -0.13013
  22   31969.9    312.8   0.042481350   0.43745  -0.49512   0.23510  -0.37019
  23   32098.9    311.5   0.112872194   1.15764   0.79842   0.27972   0.66477
  24   32216.5    310.4   0.055248795   0.56457   0.52761  -0.11272   0.52296
  25   33000.0    303.0   0.454477768   4.53392  -0.74457  -0.76955   1.84047
  26   33390.6    299.5   0.432392150   4.26313  -0.36995  -1.35171  -1.51629
  27   33480.4    298.7   0.432757752   4.25529  -0.41982  -0.50247  -1.95616
  28   33730.0    296.5   0.168623449   1.64580   0.23509  -0.97170   0.80395
  29   34187.5    292.5   0.273146994   2.63030   1.21508   0.30006  -1.03143
  30   34372.1    290.9   0.198734478   1.90346   1.02834   0.67091   0.62917
  31   34449.6    290.3   0.031283265   0.29895  -0.34288  -0.21658  -0.36671
  32   34670.4    288.4   0.038193574   0.36267   0.47501   0.16002   0.33380
  33   34806.5    287.3   0.068451867   0.64744   0.69822  -0.24532  -0.31584
  34   34944.2    286.2   0.035968444   0.33886  -0.07146   0.34851   0.46075
  35   34967.3    286.0   0.118004735   1.11100  -0.08629  -0.76963  -0.71500
  36   35140.0    284.6   0.064093132   0.60046   0.08066  -0.70307  -0.31568
  37   35399.3    282.5   0.061880008   0.57548  -0.56838   0.17897  -0.46946
  38   35597.5    280.9   0.061750762   0.57108   0.10121   0.49764   0.55964
  39   35690.4    280.2   0.048738099   0.44957   0.10545   0.65906   0.06389
  40   35772.7    279.5   0.002831243   0.02606   0.07993  -0.08615  -0.11066
  41   36069.1    277.2   0.002221483   0.02028  -0.07884   0.11729  -0.01742
  42   36076.6    277.2   0.010701050   0.09765   0.07955  -0.29805   0.04990
  43   36335.0    275.2   0.036933190   0.33463  -0.47775  -0.31421   0.08751
  44   36491.1    274.0   0.422700201   3.81348   1.03595   0.77850   1.46090
  45   37264.3    268.4   0.160868222   1.42119   0.39198   0.70548  -0.87740
  46   37548.2    266.3   0.129735981   1.13749   0.43978  -0.39755  -0.88659
  47   37595.1    266.0   0.152684372   1.33702  -0.49943   0.98896   0.33098
  48   37825.1    264.4   0.105537324   0.91855   0.50929  -0.81189  -0.00207
  49   38030.6    262.9   0.013006951   0.11259   0.07565   0.08599  -0.31540
  50   38656.4    258.7   0.023772571   0.20246  -0.30582  -0.21802  -0.24778
  51   38854.3    257.4   0.015781336   0.13372  -0.34311   0.09920  -0.07844
  52   39064.1    256.0   0.075698526   0.63795  -0.60480   0.25184  -0.45688
  53   39498.5    253.2   0.001787318   0.01490  -0.09202  -0.07218   0.03492
  54   39558.4    252.8   0.009771190   0.08132   0.08659  -0.27160  -0.00711
  55   39700.6    251.9   0.089406342   0.74139  -0.75035   0.35216  -0.23312
  56   39765.5    251.5   0.052403408   0.43384   0.61305  -0.22101  -0.09572
  57   39930.2    250.4   0.121159532   0.99892   0.71903  -0.69379  -0.02389
  58   40151.8    249.1   0.030202612   0.24764   0.21085  -0.25574  -0.37118
  59   40199.1    248.8   0.185121865   1.51606  -0.62492   0.83489   0.65460

FINAL SINGLE POINT ENERGY     -3236.345105858795

DIPOLE MOMENT
-------------
                                X             Y             Z
Electronic contribution:     15.86601       5.19233     -10.70801
Nuclear contribution   :    -16.41224      -8.68372      10.55198
                        -----------------------------------------
Total Dipole Moment    :     -0.54623      -3.49139      -0.15603
                        -----------------------------------------
Magnitude (a.u.)       :      3.53730
Magnitude (Debye)      :      8.99111

Rotational constants in cm-1:     0.001387     0.000391     0.000326
Rotational constants in MHz :    41.594015    11.712439     9.787114

                             ****ORCA TERMINATED NORMALLY****
TOTAL RUN TIME: 0 days 0 hours 7 minutes 29 seconds 191 msec
