                         Program Version 4.2.0 -  RELEASE  -
|  1> # ORCA input file
|  2> # SCF done       -200.749291478984          0.000483345828
|  3> ! CAM-B3LYP def2-SVP def2/J RIJCOSX Grid4 TightSCF
|  4> %maxcore 5000
|  5> %tddft
|  6>     Mode sTDDFT
|  7>     Ethresh 5.0
|  8>     maxcore 5000
|  9> end
| 10>
| 11> %pal
| 12>   nprocs 6
| 13>   end
| 14> * xyz 0 1
| 15>    C       -0.38571         2.90095        -2.02976
| 16>    C       -0.74750         3.97257        -2.80034
| 17>    C        0.21145         4.91732        -3.19503
| 18>    C        1.51815         4.77857        -2.81326
| 19>    C        1.92478         3.68914        -2.01668
| 20>    C        3.27135         3.54870        -1.60855
| 21>    C        3.62881         2.48044        -0.83164
| 22>    C        2.65550         1.50758        -0.45892
| 23>    C        1.34738         1.62310        -0.83196
| 24>    C        0.95080         2.72758        -1.61943
| 25>    C        3.30868         0.44109         0.31773
| 26>    O        2.80243        -0.52193         0.84642
| 27>    C        4.76775         0.75767         0.26857
| 28>    C        4.91175         2.10287        -0.24705
| 29>    C        5.94772         2.96911        -0.00904
| 30>    C        7.08260         2.64433         0.75772
| 31>    N        8.01315         2.42501         1.39410
| 32>    C        5.95180         4.31794        -0.42256
| 33>    N        6.00181         5.42258        -0.72881
| 34>    C        5.65434        -0.22103         0.59957
| 35>    C        7.02707        -0.31888         0.28388
| 36>    C        7.74979         0.35296        -0.69183
| 37>    C        9.08052        -0.04051        -0.72498
| 38>    C        9.38454        -1.03294         0.22879
| 39>    S        8.02602        -1.48270         1.14832
| 40>    C       10.76031        -1.35348         0.11415
| 41>    C       11.32517        -0.56169        -0.90244
| 42>    C       10.29120         0.29866        -1.45360
| 43>    C       10.42141         1.24672        -2.42515
| 44>    C       11.64981         1.50875        -3.06801
| 45>    N       12.64344         1.72066        -3.59896
| 46>    C        9.31930         2.02152        -2.84546
| 47>    N        8.41252         2.63856        -3.17990
| 48>    C       12.68030        -0.81823        -1.10152
| 49>    C       13.15242        -1.80022        -0.25042
| 50>    S       11.89925        -2.40815         0.82232
| 51>    C       14.47540        -2.33710        -0.20093
| 52>    C       14.84918        -3.34569         0.68680
| 53>    N       16.03825        -3.91737         0.75054
| 54>    C       17.02046        -3.55186        -0.06034
| 55>    C       16.80295        -2.50926        -1.00212
| 56>    C       15.50591        -1.89585        -1.07316
| 57>    N       15.46233        -0.94839        -2.00919
| 58>    S       16.89910        -0.84002        -2.71714
| 59>    N       17.65205        -1.98670        -1.88395
| 60>    C       18.25369        -4.25867         0.04302
| 61>    C       19.40396        -4.11002        -0.71066
| 62>    C       20.38028        -5.02907        -0.33537
| 63>    C       19.96107        -5.87080         0.71597
| 64>    S       18.37151        -5.53182         1.23757
| 65>    C       21.00840        -6.77975         1.00438
| 66>    C       22.08493        -6.52223         0.12799
| 67>    C       21.73184        -5.39833        -0.72495
| 68>    C       22.50642        -4.80583        -1.67759
| 69>    C       23.83030        -5.21531        -1.94932
| 70>    N       24.91398        -5.51401        -2.17324
| 71>    C       22.04491        -3.71674        -2.44831
| 72>    N       21.67803        -2.83304        -3.08008
| 73>    C       23.14641        -7.40275         0.29251
| 74>    C       22.90079        -8.33435         1.29193
| 75>    S       21.32940        -8.07455         2.05769
| 76>    C       23.70046        -9.38065         1.80053
| 77>    C       24.73140       -10.03308         1.18592
| 78>    C       25.57633       -11.02878         1.82060
| 79>    C       25.74154       -11.20905         3.16962
| 80>    C       26.59945       -12.17461         3.73607
| 81>    N       27.27370       -12.94475         4.25582
| 82>    C       25.11567       -10.43653         4.17024
| 83>    N       24.65718        -9.83577         5.03513
| 84>    C       26.29408       -11.74113         0.77201
| 85>    C       25.96689       -11.14781        -0.48019
| 86>    C       26.49297       -11.60266        -1.65479
| 87>    C       27.38814       -12.69537        -1.62980
| 88>    C       27.96356       -13.20826        -2.80883
| 89>    C       28.82297       -14.27238        -2.76190
| 90>    C       29.14570       -14.86861        -1.53375
| 91>    C       28.60479       -14.39364        -0.36993
| 92>    C       27.71587       -13.29960        -0.38149
| 93>    C       27.15523       -12.80537         0.81880
| 94>    C       25.01754       -10.04143        -0.27401
| 95>    O       24.52515        -9.34642        -1.13659
| 96>    H       -1.11970         2.16990        -1.72367
| 97>    H       -1.77419         4.09761        -3.11030
| 98>    H       -0.09072         5.75681        -3.80305
| 99>    H        2.25967         5.50489        -3.11164
|100>    H        3.99154         4.28364        -1.93257
|101>    H        0.62309         0.88051        -0.53177
|102>    H        5.22005        -1.07192         1.11616
|103>    H        7.30432         1.05744        -1.37001
|104>    H       13.31368        -0.33543        -1.82321
|105>    H       14.12638        -3.72965         1.39553
|106>    H       19.49102        -3.37053        -1.48575
|107>    H       24.05837        -7.37795        -0.27314
|108>    H       23.41535        -9.71844         2.79041
|109>    H       26.23019       -11.13258        -2.59079
|110>    H       27.71125       -12.74470        -3.75129
|111>    H       29.25840       -14.66049        -3.67054
|112>    H       29.82598       -15.70680        -1.51421
|113>    H       28.85168       -14.84847         0.57816
|114>    H       27.41654       -13.28866         1.74688
|115> *
|116>
|117>                          ****END OF INPUT****

CARTESIAN COORDINATES (ANGSTROEM)
---------------------------------
  C     -0.385710    2.900950   -2.029760
  C     -0.747500    3.972570   -2.800340
  C      0.211450    4.917320   -3.195030
  C      1.518150    4.778570   -2.813260
  C      1.924780    3.689140   -2.016680
  C      3.271350    3.548700   -1.608550
  C      3.628810    2.480440   -0.831640
  C      2.655500    1.507580   -0.458920
  C      1.347380    1.623100   -0.831960
  C      0.950800    2.727580   -1.619430
  C      3.308680    0.441090    0.317730
  O      2.802430   -0.521930    0.846420
  C      4.767750    0.757670    0.268570
  C      4.911750    2.102870   -0.247050
  C      5.947720    2.969110   -0.009040
  C      7.082600    2.644330    0.757720
  N      8.013150    2.425010    1.394100
  C      5.951800    4.317940   -0.422560
  N      6.001810    5.422580   -0.728810
  C      5.654340   -0.221030    0.599570
  C      7.027070   -0.318880    0.283880
  C      7.749790    0.352960   -0.691830
  C      9.080520   -0.040510   -0.724980
  C      9.384540   -1.032940    0.228790
  S      8.026020   -1.482700    1.148320
  C     10.760310   -1.353480    0.114150
  C     11.325170   -0.561690   -0.902440
  C     10.291200    0.298660   -1.453600
  C     10.421410    1.246720   -2.425150
  C     11.649810    1.508750   -3.068010
  N     12.643440    1.720660   -3.598960
  C      9.319300    2.021520   -2.845460
  N      8.412520    2.638560   -3.179900
  C     12.680300   -0.818230   -1.101520
  C     13.152420   -1.800220   -0.250420
  S     11.899250   -2.408150    0.822320
  C     14.475400   -2.337100   -0.200930
  C     14.849180   -3.345690    0.686800
  N     16.038250   -3.917370    0.750540
  C     17.020460   -3.551860   -0.060340
  C     16.802950   -2.509260   -1.002120
  C     15.505910   -1.895850   -1.073160
  N     15.462330   -0.948390   -2.009190
  S     16.899100   -0.840020   -2.717140
  N     17.652050   -1.986700   -1.883950
  C     18.253690   -4.258670    0.043020
  C     19.403960   -4.110020   -0.710660
  C     20.380280   -5.029070   -0.335370
  C     19.961070   -5.870800    0.715970
  S     18.371510   -5.531820    1.237570
  C     21.008400   -6.779750    1.004380
  C     22.084930   -6.522230    0.127990
  C     21.731840   -5.398330   -0.724950
  C     22.506420   -4.805830   -1.677590
  C     23.830300   -5.215310   -1.949320
  N     24.913980   -5.514010   -2.173240
  C     22.044910   -3.716740   -2.448310
  N     21.678030   -2.833040   -3.080080
  C     23.146410   -7.402750    0.292510
  C     22.900790   -8.334350    1.291930
  S     21.329400   -8.074550    2.057690
  C     23.700460   -9.380650    1.800530
  C     24.731400  -10.033080    1.185920
  C     25.576330  -11.028780    1.820600
  C     25.741540  -11.209050    3.169620
  C     26.599450  -12.174610    3.736070
  N     27.273700  -12.944750    4.255820
  C     25.115670  -10.436530    4.170240
  N     24.657180   -9.835770    5.035130
  C     26.294080  -11.741130    0.772010
  C     25.966890  -11.147810   -0.480190
  C     26.492970  -11.602660   -1.654790
  C     27.388140  -12.695370   -1.629800
  C     27.963560  -13.208260   -2.808830
  C     28.822970  -14.272380   -2.761900
  C     29.145700  -14.868610   -1.533750
  C     28.604790  -14.393640   -0.369930
  C     27.715870  -13.299600   -0.381490
  C     27.155230  -12.805370    0.818800
  C     25.017540  -10.041430   -0.274010
  O     24.525150   -9.346420   -1.136590
  H     -1.119700    2.169900   -1.723670
  H     -1.774190    4.097610   -3.110300
  H     -0.090720    5.756810   -3.803050
  H      2.259670    5.504890   -3.111640
  H      3.991540    4.283640   -1.932570
  H      0.623090    0.880510   -0.531770
  H      5.220050   -1.071920    1.116160
  H      7.304320    1.057440   -1.370010
  H     13.313680   -0.335430   -1.823210
  H     14.126380   -3.729650    1.395530
  H     19.491020   -3.370530   -1.485750
  H     24.058370   -7.377950   -0.273140
  H     23.415350   -9.718440    2.790410
  H     26.230190  -11.132580   -2.590790
  H     27.711250  -12.744700   -3.751290
  H     29.258400  -14.660490   -3.670540
  H     29.825980  -15.706800   -1.514210
  H     28.851680  -14.848470    0.578160
  H     27.416540  -13.288660    1.746880

 Total Charge           Charge          ....    0
 Multiplicity           Mult            ....    1
 Number of Electrons    NEL             ....  570
 Basis Dimension        Dim             .... 1249

ORBITAL ENERGIES
----------------

  NO   OCC          E(Eh)            E(eV)
   0   2.0000     -89.049861     -2423.1699
   1   2.0000     -88.998479     -2421.7717
   2   2.0000     -88.998144     -2421.7626
   3   2.0000     -88.996775     -2421.7254
   4   2.0000     -88.995171     -2421.6817
   5   2.0000     -19.218166      -522.9529
   6   2.0000     -19.214928      -522.8648
   7   2.0000     -14.465735      -393.6327
   8   2.0000     -14.460497      -393.4901
   9   2.0000     -14.435161      -392.8007
  10   2.0000     -14.434806      -392.7910
  11   2.0000     -14.432950      -392.7405
  12   2.0000     -14.432823      -392.7371
  13   2.0000     -14.430756      -392.6808
  14   2.0000     -14.417981      -392.3332
  15   2.0000     -14.416513      -392.2933
  16   2.0000     -14.414767      -392.2457
  17   2.0000     -14.412768      -392.1914
  18   2.0000     -10.370305      -282.1903
  19   2.0000     -10.369540      -282.1695
  20   2.0000     -10.368857      -282.1509
  21   2.0000     -10.366322      -282.0820
  22   2.0000     -10.356183      -281.8061
  23   2.0000     -10.355678      -281.7923
  24   2.0000     -10.354735      -281.7667
  25   2.0000     -10.350607      -281.6543
  26   2.0000     -10.347291      -281.5641
  27   2.0000     -10.347126      -281.5596
  28   2.0000     -10.345292      -281.5097
  29   2.0000     -10.343404      -281.4583
  30   2.0000     -10.342413      -281.4314
  31   2.0000     -10.342251      -281.4270
  32   2.0000     -10.341211      -281.3987
  33   2.0000     -10.339701      -281.3576
  34   2.0000     -10.339667      -281.3566
  35   2.0000     -10.334927      -281.2277
  36   2.0000     -10.334195      -281.2077
  37   2.0000     -10.333604      -281.1917
  38   2.0000     -10.332876      -281.1719
  39   2.0000     -10.332710      -281.1673
  40   2.0000     -10.330533      -281.1081
  41   2.0000     -10.330274      -281.1010
  42   2.0000     -10.329843      -281.0893
  43   2.0000     -10.329601      -281.0827
  44   2.0000     -10.328208      -281.0448
  45   2.0000     -10.325821      -280.9799
  46   2.0000     -10.322334      -280.8850
  47   2.0000     -10.319456      -280.8067
  48   2.0000     -10.319130      -280.7978
  49   2.0000     -10.317654      -280.7576
  50   2.0000     -10.315205      -280.6910
  51   2.0000     -10.314189      -280.6633
  52   2.0000     -10.311669      -280.5948
  53   2.0000     -10.311422      -280.5880
  54   2.0000     -10.310927      -280.5746
  55   2.0000     -10.310676      -280.5678
  56   2.0000     -10.309942      -280.5478
  57   2.0000     -10.306770      -280.4615
  58   2.0000     -10.303393      -280.3696
  59   2.0000     -10.303113      -280.3620
  60   2.0000     -10.302748      -280.3520
  61   2.0000     -10.301942      -280.3301
  62   2.0000     -10.301072      -280.3064
  63   2.0000     -10.298042      -280.2240
  64   2.0000     -10.297802      -280.2174
  65   2.0000     -10.297242      -280.2022
  66   2.0000     -10.297104      -280.1984
  67   2.0000     -10.296940      -280.1940
  68   2.0000     -10.296825      -280.1908
  69   2.0000     -10.296673      -280.1867
  70   2.0000     -10.295731      -280.1611
  71   2.0000     -10.289117      -279.9811
  72   2.0000     -10.289082      -279.9801
  73   2.0000     -10.286833      -279.9189
  74   2.0000     -10.286293      -279.9043
  75   2.0000     -10.286108      -279.8992
  76   2.0000     -10.285860      -279.8925
  77   2.0000     -10.285649      -279.8867
  78   2.0000     -10.285370      -279.8791
  79   2.0000     -10.284980      -279.8685
  80   2.0000     -10.284289      -279.8497
  81   2.0000      -8.141275      -221.5354
  82   2.0000      -8.093253      -220.2286
  83   2.0000      -8.092887      -220.2187
  84   2.0000      -8.091291      -220.1752
  85   2.0000      -8.089034      -220.1138
  86   2.0000      -6.112470      -166.3288
  87   2.0000      -6.104496      -166.1118
  88   2.0000      -6.103899      -166.0955
  89   2.0000      -6.062358      -164.9651
  90   2.0000      -6.062048      -164.9567
  91   2.0000      -6.060539      -164.9156
  92   2.0000      -6.058266      -164.8538
  93   2.0000      -6.058244      -164.8532
  94   2.0000      -6.057869      -164.8430
  95   2.0000      -6.056377      -164.8024
  96   2.0000      -6.055789      -164.7864
  97   2.0000      -6.055381      -164.7753
  98   2.0000      -6.053963      -164.7367
  99   2.0000      -6.053660      -164.7285
 100   2.0000      -6.051625      -164.6731
 101   2.0000      -1.150465       -31.3057
 102   2.0000      -1.133890       -30.8547
 103   2.0000      -1.130264       -30.7560
 104   2.0000      -1.071575       -29.1590
 105   2.0000      -1.052059       -28.6280
 106   2.0000      -1.050659       -28.5899
 107   2.0000      -1.026046       -27.9201
 108   2.0000      -1.024238       -27.8709
 109   2.0000      -1.019458       -27.7409
 110   2.0000      -1.019029       -27.7292
 111   2.0000      -1.011850       -27.5338
 112   2.0000      -1.010589       -27.4995
 113   2.0000      -1.008709       -27.4484
 114   2.0000      -1.003344       -27.3024
 115   2.0000      -0.999406       -27.1952
 116   2.0000      -0.998768       -27.1779
 117   2.0000      -0.998495       -27.1704
 118   2.0000      -0.994041       -27.0492
 119   2.0000      -0.992392       -27.0044
 120   2.0000      -0.972806       -26.4714
 121   2.0000      -0.972192       -26.4547
 122   2.0000      -0.965622       -26.2759
 123   2.0000      -0.963147       -26.2086
 124   2.0000      -0.934135       -25.4191
 125   2.0000      -0.929504       -25.2931
 126   2.0000      -0.924948       -25.1691
 127   2.0000      -0.920896       -25.0589
 128   2.0000      -0.915413       -24.9096
 129   2.0000      -0.904323       -24.6079
 130   2.0000      -0.898927       -24.4610
 131   2.0000      -0.890398       -24.2290
 132   2.0000      -0.881951       -23.9991
 133   2.0000      -0.881010       -23.9735
 134   2.0000      -0.878675       -23.9100
 135   2.0000      -0.878255       -23.8985
 136   2.0000      -0.869147       -23.6507
 137   2.0000      -0.862317       -23.4648
 138   2.0000      -0.861216       -23.4349
 139   2.0000      -0.860896       -23.4262
 140   2.0000      -0.830359       -22.5952
 141   2.0000      -0.828527       -22.5454
 142   2.0000      -0.827770       -22.5248
 143   2.0000      -0.815387       -22.1878
 144   2.0000      -0.806378       -21.9427
 145   2.0000      -0.783562       -21.3218
 146   2.0000      -0.782219       -21.2853
 147   2.0000      -0.777096       -21.1459
 148   2.0000      -0.770058       -20.9543
 149   2.0000      -0.762327       -20.7440
 150   2.0000      -0.760321       -20.6894
 151   2.0000      -0.744082       -20.2475
 152   2.0000      -0.742208       -20.1965
 153   2.0000      -0.728676       -19.8283
 154   2.0000      -0.719262       -19.5721
 155   2.0000      -0.707585       -19.2544
 156   2.0000      -0.706978       -19.2378
 157   2.0000      -0.704833       -19.1795
 158   2.0000      -0.701054       -19.0766
 159   2.0000      -0.700121       -19.0513
 160   2.0000      -0.694560       -18.8999
 161   2.0000      -0.689846       -18.7717
 162   2.0000      -0.685191       -18.6450
 163   2.0000      -0.683677       -18.6038
 164   2.0000      -0.676394       -18.4056
 165   2.0000      -0.674129       -18.3440
 166   2.0000      -0.661421       -17.9982
 167   2.0000      -0.653771       -17.7900
 168   2.0000      -0.651558       -17.7298
 169   2.0000      -0.641040       -17.4436
 170   2.0000      -0.637840       -17.3565
 171   2.0000      -0.635337       -17.2884
 172   2.0000      -0.631563       -17.1857
 173   2.0000      -0.626718       -17.0539
 174   2.0000      -0.623166       -16.9572
 175   2.0000      -0.620240       -16.8776
 176   2.0000      -0.617077       -16.7915
 177   2.0000      -0.608197       -16.5499
 178   2.0000      -0.606976       -16.5167
 179   2.0000      -0.605938       -16.4884
 180   2.0000      -0.599919       -16.3246
 181   2.0000      -0.594499       -16.1771
 182   2.0000      -0.589231       -16.0338
 183   2.0000      -0.578734       -15.7482
 184   2.0000      -0.577302       -15.7092
 185   2.0000      -0.575176       -15.6513
 186   2.0000      -0.560550       -15.2533
 187   2.0000      -0.557440       -15.1687
 188   2.0000      -0.555081       -15.1045
 189   2.0000      -0.553489       -15.0612
 190   2.0000      -0.552760       -15.0414
 191   2.0000      -0.549318       -14.9477
 192   2.0000      -0.547107       -14.8875
 193   2.0000      -0.545501       -14.8438
 194   2.0000      -0.540020       -14.6947
 195   2.0000      -0.538012       -14.6401
 196   2.0000      -0.537805       -14.6344
 197   2.0000      -0.532633       -14.4937
 198   2.0000      -0.530072       -14.4240
 199   2.0000      -0.527086       -14.3427
 200   2.0000      -0.524469       -14.2715
 201   2.0000      -0.520542       -14.1647
 202   2.0000      -0.518653       -14.1133
 203   2.0000      -0.517012       -14.0686
 204   2.0000      -0.514397       -13.9975
 205   2.0000      -0.512850       -13.9554
 206   2.0000      -0.510651       -13.8955
 207   2.0000      -0.509631       -13.8678
 208   2.0000      -0.509377       -13.8608
 209   2.0000      -0.507738       -13.8163
 210   2.0000      -0.506643       -13.7865
 211   2.0000      -0.504992       -13.7415
 212   2.0000      -0.503986       -13.7142
 213   2.0000      -0.501537       -13.6475
 214   2.0000      -0.499484       -13.5917
 215   2.0000      -0.496015       -13.4973
 216   2.0000      -0.492338       -13.3972
 217   2.0000      -0.492011       -13.3883
 218   2.0000      -0.489546       -13.3212
 219   2.0000      -0.485977       -13.2241
 220   2.0000      -0.485454       -13.2099
 221   2.0000      -0.482724       -13.1356
 222   2.0000      -0.479012       -13.0346
 223   2.0000      -0.477954       -13.0058
 224   2.0000      -0.474903       -12.9228
 225   2.0000      -0.465747       -12.6736
 226   2.0000      -0.464874       -12.6499
 227   2.0000      -0.464421       -12.6375
 228   2.0000      -0.462937       -12.5971
 229   2.0000      -0.461597       -12.5607
 230   2.0000      -0.459165       -12.4945
 231   2.0000      -0.458701       -12.4819
 232   2.0000      -0.456975       -12.4349
 233   2.0000      -0.452880       -12.3235
 234   2.0000      -0.450495       -12.2586
 235   2.0000      -0.449406       -12.2290
 236   2.0000      -0.448964       -12.2169
 237   2.0000      -0.447698       -12.1825
 238   2.0000      -0.444796       -12.1035
 239   2.0000      -0.443988       -12.0815
 240   2.0000      -0.443052       -12.0561
 241   2.0000      -0.442102       -12.0302
 242   2.0000      -0.441400       -12.0111
 243   2.0000      -0.441275       -12.0077
 244   2.0000      -0.439990       -11.9727
 245   2.0000      -0.438490       -11.9319
 246   2.0000      -0.434367       -11.8197
 247   2.0000      -0.433434       -11.7943
 248   2.0000      -0.433073       -11.7845
 249   2.0000      -0.431560       -11.7433
 250   2.0000      -0.430557       -11.7160
 251   2.0000      -0.428033       -11.6474
 252   2.0000      -0.427452       -11.6316
 253   2.0000      -0.425673       -11.5832
 254   2.0000      -0.425024       -11.5655
 255   2.0000      -0.421588       -11.4720
 256   2.0000      -0.419473       -11.4144
 257   2.0000      -0.418777       -11.3955
 258   2.0000      -0.417802       -11.3690
 259   2.0000      -0.409959       -11.1555
 260   2.0000      -0.409396       -11.1402
 261   2.0000      -0.404640       -11.0108
 262   2.0000      -0.402959       -10.9651
 263   2.0000      -0.391088       -10.6421
 264   2.0000      -0.387814       -10.5529
 265   2.0000      -0.384875       -10.4730
 266   2.0000      -0.377383       -10.2691
 267   2.0000      -0.375646       -10.2218
 268   2.0000      -0.369877       -10.0649
 269   2.0000      -0.363109        -9.8807
 270   2.0000      -0.360127        -9.7996
 271   2.0000      -0.355898        -9.6845
 272   2.0000      -0.353441        -9.6176
 273   2.0000      -0.345925        -9.4131
 274   2.0000      -0.338965        -9.2237
 275   2.0000      -0.334959        -9.1147
 276   2.0000      -0.327811        -8.9202
 277   2.0000      -0.325485        -8.8569
 278   2.0000      -0.319120        -8.6837
 279   2.0000      -0.316585        -8.6147
 280   2.0000      -0.311269        -8.4701
 281   2.0000      -0.295805        -8.0493
 282   2.0000      -0.293960        -7.9991
 283   2.0000      -0.278840        -7.5876
 284   2.0000      -0.255126        -6.9423
 285   0.0000      -0.122930        -3.3451
 286   0.0000      -0.111998        -3.0476
 287   0.0000      -0.093951        -2.5565
 288   0.0000      -0.089617        -2.4386
 289   0.0000      -0.085591        -2.3291

MULLIKEN ATOMIC CHARGES
-----------------------
   0 C :   -0.016749
   1 C :    0.037186
   2 C :    0.035841
   3 C :   -0.015609
   4 C :    0.091703
   5 C :   -0.076440
   6 C :    0.027874
   7 C :    0.020171
   8 C :   -0.081457
   9 C :    0.093580
  10 C :    0.133695
  11 O :   -0.145487
  12 C :   -0.136768
  13 C :    0.267981
  14 C :   -0.333969
  15 C :   -0.200610
  16 N :    0.166186
  17 C :   -0.168296
  18 N :    0.159701
  19 C :    0.080864
  20 C :   -0.110015
  21 C :    0.000469
  22 C :   -0.006958
  23 C :   -0.073520
  24 S :    0.214290
  25 C :   -0.093164
  26 C :    0.033580
  27 C :    0.309702
  28 C :   -0.287553
  29 C :   -0.186030
  30 N :    0.177779
  31 C :   -0.186355
  32 N :    0.170454
  33 C :   -0.058457
  34 C :   -0.097074
  35 S :    0.175909
  36 C :    0.079420
  37 C :   -0.057097
  38 N :   -0.057231
  39 C :    0.036177
  40 C :    0.002062
  41 C :    0.041668
  42 N :   -0.280591
  43 S :    0.567047
  44 N :   -0.260059
  45 C :   -0.115606
  46 C :   -0.055778
  47 C :    0.017810
  48 C :   -0.089153
  49 S :    0.243801
  50 C :   -0.091325
  51 C :   -0.021901
  52 C :    0.307305
  53 C :   -0.292588
  54 C :   -0.187084
  55 N :    0.185964
  56 C :   -0.191091
  57 N :    0.175021
  58 C :    0.047864
  59 C :   -0.115789
  60 S :    0.210393
  61 C :    0.028183
  62 C :   -0.096692
  63 C :    0.300386
  64 C :   -0.341691
  65 C :   -0.181714
  66 N :    0.146561
  67 C :   -0.206130
  68 N :    0.158983
  69 C :    0.049680
  70 C :   -0.009701
  71 C :   -0.073703
  72 C :    0.094555
  73 C :   -0.014218
  74 C :    0.037722
  75 C :    0.032838
  76 C :   -0.016326
  77 C :    0.094172
  78 C :   -0.079440
  79 C :    0.152122
  80 O :   -0.150786
  81 H :   -0.017947
  82 H :   -0.005740
  83 H :   -0.004499
  84 H :   -0.008562
  85 H :    0.000058
  86 H :   -0.012339
  87 H :    0.020373
  88 H :    0.025729
  89 H :    0.023669
  90 H :    0.010535
  91 H :    0.021343
  92 H :    0.031108
  93 H :    0.024235
  94 H :   -0.011548
  95 H :   -0.016667
  96 H :   -0.004840
  97 H :   -0.003191
  98 H :   -0.009874
  99 H :   -0.008337
Sum of atomic charges:   -0.0000000

LOEWDIN ATOMIC CHARGES
----------------------
   0 C :   -0.009710
   1 C :   -0.012815
   2 C :   -0.012617
   3 C :   -0.005274
   4 C :   -0.004984
   5 C :    0.018838
   6 C :   -0.022794
   7 C :   -0.057824
   8 C :    0.032531
   9 C :   -0.009185
  10 C :    0.083353
  11 O :   -0.145366
  12 C :   -0.089228
  13 C :    0.065464
  14 C :   -0.137128
  15 C :   -0.015690
  16 N :   -0.047851
  17 C :   -0.018323
  18 N :   -0.046616
  19 C :    0.041118
  20 C :   -0.180003
  21 C :    0.009494
  22 C :   -0.064716
  23 C :   -0.160832
  24 S :    0.499467
  25 C :   -0.179842
  26 C :   -0.059521
  27 C :    0.081473
  28 C :   -0.095085
  29 C :   -0.017352
  30 N :   -0.026620
  31 C :   -0.012989
  32 N :   -0.031127
  33 C :   -0.018983
  34 C :   -0.154927
  35 S :    0.479826
  36 C :   -0.067252
  37 C :    0.010461
  38 N :   -0.081034
  39 C :   -0.001137
  40 C :   -0.060702
  41 C :   -0.030365
  42 N :   -0.276162
  43 S :    0.689482
  44 N :   -0.263845
  45 C :   -0.171909
  46 C :   -0.010179
  47 C :   -0.062117
  48 C :   -0.179774
  49 S :    0.517921
  50 C :   -0.162979
  51 C :   -0.069810
  52 C :    0.076060
  53 C :   -0.094216
  54 C :   -0.019454
  55 N :   -0.021054
  56 C :   -0.016640
  57 N :   -0.028756
  58 C :    0.024778
  59 C :   -0.175833
  60 S :    0.495679
  61 C :    0.043403
  62 C :   -0.091712
  63 C :    0.075302
  64 C :   -0.141041
  65 C :   -0.017635
  66 N :   -0.053420
  67 C :   -0.025436
  68 N :   -0.053428
  69 C :   -0.026333
  70 C :   -0.055330
  71 C :    0.034109
  72 C :   -0.008253
  73 C :   -0.008912
  74 C :   -0.011727
  75 C :   -0.013209
  76 C :   -0.005266
  77 C :   -0.006213
  78 C :    0.019734
  79 C :    0.084246
  80 O :   -0.138832
  81 H :    0.031664
  82 H :    0.032604
  83 H :    0.033276
  84 H :    0.035220
  85 H :    0.040586
  86 H :    0.039206
  87 H :    0.045560
  88 H :    0.042855
  89 H :    0.040409
  90 H :    0.019383
  91 H :    0.041783
  92 H :    0.045822
  93 H :    0.044252
  94 H :    0.039771
  95 H :    0.032247
  96 H :    0.032935
  97 H :    0.033487
  98 H :    0.034606
  99 H :    0.038960

  Mayer bond orders larger than 0.100000
B(  0-C ,  1-C ) :   1.4900 B(  0-C ,  9-C ) :   1.2445 B(  0-C , 81-H ) :   0.9970
B(  1-C ,  2-C ) :   1.2611 B(  1-C , 82-H ) :   0.9885 B(  2-C ,  3-C ) :   1.4887
B(  2-C , 83-H ) :   0.9886 B(  3-C ,  4-C ) :   1.2425 B(  3-C , 84-H ) :   0.9971
B(  4-C ,  5-C ) :   1.2047 B(  4-C ,  9-C ) :   1.2561 B(  5-C ,  6-C ) :   1.4611
B(  5-C , 85-H ) :   0.9936 B(  6-C ,  7-C ) :   1.2143 B(  6-C , 13-C ) :   0.9963
B(  7-C ,  8-C ) :   1.4729 B(  7-C , 10-C ) :   0.9222 B(  8-C ,  9-C ) :   1.1856
B(  8-C , 86-H ) :   1.0153 B( 10-C , 11-O ) :   2.2654 B( 10-C , 12-C ) :   0.9402
B( 12-C , 13-C ) :   1.0349 B( 12-C , 19-C ) :   1.6726 B( 13-C , 14-C ) :   1.6487
B( 14-C , 15-C ) :   1.1733 B( 14-C , 17-C ) :   1.1290 B( 15-C , 16-N ) :   2.9944
B( 17-C , 18-N ) :   2.9928 B( 19-C , 20-C ) :   1.1360 B( 19-C , 87-H ) :   0.9275
B( 20-C , 21-C ) :   1.3948 B( 20-C , 24-S ) :   1.0900 B( 21-C , 22-C ) :   1.3589
B( 21-C , 88-H ) :   0.9794 B( 22-C , 23-C ) :   1.4110 B( 22-C , 27-C ) :   0.9954
B( 23-C , 24-S ) :   1.1527 B( 23-C , 25-C ) :   1.1914 B( 25-C , 26-C ) :   1.4362
B( 25-C , 35-S ) :   1.1206 B( 26-C , 27-C ) :   0.9956 B( 26-C , 33-C ) :   1.2493
B( 27-C , 28-C ) :   1.7174 B( 28-C , 29-C ) :   1.1359 B( 28-C , 31-C ) :   1.1332
B( 29-C , 30-N ) :   2.9884 B( 31-C , 32-N ) :   2.9820 B( 33-C , 34-C ) :   1.4779
B( 33-C , 89-H ) :   0.9851 B( 34-C , 35-S ) :   1.0992 B( 34-C , 36-C ) :   1.1198
B( 36-C , 37-C ) :   1.4071 B( 36-C , 39-C ) :   0.1095 B( 36-C , 41-C ) :   1.2104
B( 37-C , 38-N ) :   1.4609 B( 37-C , 90-H ) :   0.9755 B( 38-N , 39-C ) :   1.6598
B( 39-C , 40-C ) :   1.1716 B( 39-C , 45-C ) :   1.1302 B( 40-C , 41-C ) :   1.1863
B( 40-C , 44-N ) :   1.5411 B( 41-C , 42-N ) :   1.5164 B( 42-N , 43-S ) :   1.2687
B( 42-N , 44-N ) :   0.1449 B( 43-S , 44-N ) :   1.2848 B( 45-C , 46-C ) :   1.4738
B( 45-C , 49-S ) :   1.0996 B( 46-C , 47-C ) :   1.2686 B( 46-C , 91-H ) :   0.9833
B( 47-C , 48-C ) :   1.4214 B( 47-C , 52-C ) :   0.9950 B( 48-C , 49-S ) :   1.1201
B( 48-C , 50-C ) :   1.2029 B( 50-C , 51-C ) :   1.3915 B( 50-C , 60-S ) :   1.1620
B( 51-C , 52-C ) :   0.9908 B( 51-C , 58-C ) :   1.3428 B( 52-C , 53-C ) :   1.7199
B( 53-C , 54-C ) :   1.1317 B( 53-C , 56-C ) :   1.1377 B( 54-C , 55-N ) :   2.9942
B( 56-C , 57-N ) :   2.9883 B( 58-C , 59-C ) :   1.4113 B( 58-C , 92-H ) :   0.9745
B( 59-C , 60-S ) :   1.0790 B( 59-C , 61-C ) :   1.1846 B( 61-C , 62-C ) :   1.6076
B( 61-C , 93-H ) :   0.9290 B( 62-C , 63-C ) :   1.0684 B( 62-C , 79-C ) :   0.9407
B( 63-C , 64-C ) :   1.6373 B( 63-C , 69-C ) :   0.9915 B( 64-C , 65-C ) :   1.1447
B( 64-C , 67-C ) :   1.1388 B( 65-C , 66-N ) :   2.9670 B( 67-C , 68-N ) :   2.9947
B( 69-C , 70-C ) :   1.2130 B( 69-C , 78-C ) :   1.4517 B( 70-C , 71-C ) :   1.4724
B( 70-C , 79-C ) :   0.9471 B( 71-C , 72-C ) :   1.1799 B( 71-C , 94-H ) :   1.0164
B( 72-C , 73-C ) :   1.2438 B( 72-C , 77-C ) :   1.2571 B( 73-C , 74-C ) :   1.4883
B( 73-C , 95-H ) :   0.9980 B( 74-C , 75-C ) :   1.2604 B( 74-C , 96-H ) :   0.9890
B( 75-C , 76-C ) :   1.4875 B( 75-C , 97-H ) :   0.9894 B( 76-C , 77-C ) :   1.2418
B( 76-C , 98-H ) :   0.9974 B( 77-C , 78-C ) :   1.2041 B( 78-C , 99-H ) :   0.9906
B( 79-C , 80-O ) :   2.2026

-----------------------------------------------------------------------------
         ABSORPTION SPECTRUM VIA TRANSITION ELECTRIC DIPOLE MOMENTS
-----------------------------------------------------------------------------
State   Energy  Wavelength   fosc         T2         TX        TY        TZ
        (cm-1)    (nm)                  (au**2)     (au)      (au)      (au)
-----------------------------------------------------------------------------
   0   12963.0    771.4   0.988773373  25.11113   4.33997  -2.48940   0.28055
   1   14445.2    692.3   0.197870496   4.50956  -1.45394   1.47539  -0.46781
   2   18167.6    550.4   1.227296062  22.23962  -4.04204   2.41312  -0.27995
   3   20976.1    476.7   0.048656718   0.76365   0.40035   0.37411  -0.68074
   4   21370.5    467.9   0.121651278   1.87404   0.85506  -1.03465   0.26911
   5   22632.0    441.9   0.279208248   4.06144  -1.08989   1.62741  -0.47447
   6   23613.0    423.5   0.024962013   0.34802   0.13840  -0.55657   0.13818
   7   25103.5    398.4   0.022573400   0.29603   0.16328   0.31580   0.41187
   8   25242.9    396.2   0.049291230   0.64284  -0.56821   0.56266   0.05829
   9   26628.0    375.5   0.008985302   0.11109  -0.25396   0.21347   0.03198
  10   27165.4    368.1   0.005394099   0.06537   0.16466   0.19218  -0.03637
  11   27659.7    361.5   0.022059435   0.26256   0.31699  -0.36352   0.17299
  12   28391.9    352.2   0.027912939   0.32366  -0.51067   0.24636   0.04666
  13   28534.9    350.4   0.021922444   0.25292  -0.10286   0.05077   0.48966
  14   28818.8    347.0   0.001097490   0.01254  -0.07248   0.06578  -0.05438
  15   29132.6    343.3   0.093849671   1.06054  -0.58949  -0.75262   0.38290
  16   29283.4    341.5   0.055544271   0.62444  -0.52426   0.00963  -0.59119
  17   29467.2    339.4   0.350639102   3.91739   1.55689   0.45904  -1.13260
  18   29869.1    334.8   0.089008591   0.98104  -0.02987   0.98360   0.11254
  19   30081.9    332.4   0.330515891   3.61712   1.78975  -0.62723   0.14314
  20   30304.2    330.0   0.251723047   2.73461  -0.24722  -0.12947   1.62995
  21   30765.0    325.0   0.099917664   1.06921   0.26617  -0.94395   0.32759
  22   30798.0    324.7   0.021906337   0.23417  -0.07646   0.46137  -0.12434
  23   30937.1    323.2   0.339290971   3.61050  -1.74984   0.64024   0.37236
  24   31213.4    320.4   0.050840778   0.53622   0.45071   0.40343   0.41271
  25   31709.2    315.4   0.049100972   0.50978  -0.23326   0.64233   0.20682
  26   32109.7    311.4   0.563311078   5.77548   1.78026  -1.43131   0.74667
  27   32382.9    308.8   0.108092586   1.09889   0.05962   1.02973   0.18705
  28   32468.6    308.0   0.184436683   1.87008  -1.12821   0.52073   0.57102
  29   32951.1    303.5   0.101811936   1.01720   0.09769   0.49167  -0.87516
  30   33289.0    300.4   0.243486390   2.40796   1.39135  -0.63150   0.27078
  31   33499.7    298.5   0.266005664   2.61412   1.42633  -0.47153  -0.59780
  32   33757.6    296.2   0.020015008   0.19519   0.21421  -0.23626   0.30575
  33   33993.1    294.2   0.223856241   2.16797   0.56672   0.63183  -1.20316
  34   34228.5    292.2   0.223747921   2.15202  -1.35033   0.01889  -0.57296
  35   34267.6    291.8   0.136029501   1.30685   1.11513   0.10235   0.22989
  36   34475.5    290.1   0.057362414   0.54776   0.37936  -0.56841  -0.28419
  37   34858.1    286.9   0.439496075   4.15075   0.74250  -0.01346  -1.89717
  38   34948.8    286.1   0.044293244   0.41724  -0.14026  -0.61249  -0.14975
  39   35010.5    285.6   0.150010678   1.41058  -0.65460  -0.12200  -0.98346
  40   35438.5    282.2   0.045922048   0.42660   0.50723   0.40695  -0.06093
  41   35507.4    281.6   0.050842970   0.47140   0.16122  -0.53504  -0.39892
  42   35818.5    279.2   0.165488198   1.52102   1.10378   0.47717  -0.27388
  43   36328.5    275.3   0.164660915   1.49217  -0.97946   0.48967  -0.54133
  44   36776.3    271.9   0.006116820   0.05476  -0.11052   0.00282  -0.20624
  45   36941.9    270.7   0.069631715   0.62053   0.63879  -0.06227  -0.45673
  46   37190.6    268.9   0.042635163   0.37741  -0.17828   0.07380  -0.58325
  47   37399.2    267.4   0.177254591   1.56031  -0.47749  -0.50545   1.03771
  48   37624.8    265.8   0.003071752   0.02688   0.07271  -0.14073  -0.04225
  49   37747.3    264.9   0.020388945   0.17782  -0.06125  -0.30813   0.28129
  50   37872.3    264.0   0.020103309   0.17475   0.11301   0.24288   0.32092
  51   38042.6    262.9   0.030117722   0.26063  -0.32180   0.33531   0.21129
  52   38127.3    262.3   0.048107628   0.41539   0.10016   0.16226  -0.61565
  53   38315.9    261.0   0.000418322   0.00359  -0.01795  -0.01570   0.05501
  54   38579.3    259.2   0.033454889   0.28548   0.09888  -0.03309   0.52403
  55   38682.4    258.5   0.030869882   0.26272  -0.43910   0.13123   0.22954
  56   38764.7    258.0   0.013089347   0.11116  -0.32423   0.01273  -0.07667
  57   38972.9    256.6   0.073940973   0.62459  -0.67838   0.09255  -0.39475
  58   39035.9    256.2   0.042953691   0.36225   0.36290  -0.44673   0.17602
  59   39368.8    254.0   0.005749477   0.04808   0.02196  -0.11028   0.18824
  60   39517.0    253.1   0.046824389   0.39009   0.17017   0.13708  -0.58510
  61   39609.8    252.5   0.105032486   0.87296  -0.52474  -0.60389   0.48263
  62   39698.4    251.9   0.176655429   1.46497  -0.40592   0.87285  -0.73371
  63   40058.1    249.6   0.016949592   0.13930   0.16187   0.21087   0.26197

FINAL SINGLE POINT ENERGY     -5151.014494626726

DIPOLE MOMENT
-------------
                                X             Y             Z
Electronic contribution:      9.76034      11.89382      14.10556
Nuclear contribution   :    -11.90839     -14.12074     -15.69297
                        -----------------------------------------
Total Dipole Moment    :     -2.14805      -2.22691      -1.58741
                        -----------------------------------------
Magnitude (a.u.)       :      3.47752
Magnitude (Debye)      :      8.83915

Rotational constants in cm-1:     0.002439     0.000142     0.000138
Rotational constants in MHz :    73.117800     4.251579     4.146021

                             ****ORCA TERMINATED NORMALLY****
TOTAL RUN TIME: 0 days 0 hours 22 minutes 34 seconds 729 msec
