                         Program Version 4.2.0 -  RELEASE  -
|  1> # ORCA input file
|  2> # SCF done       -205.472240845176          0.000405480831
|  3> ! CAM-B3LYP def2-SVP def2/J RIJCOSX Grid4 TightSCF
|  4> %maxcore 5000
|  5> %tddft
|  6>     Mode sTDDFT
|  7>     Ethresh 5.0
|  8>     maxcore 5000
|  9> end
| 10>
| 11> %pal
| 12>   nprocs 6
| 13>   end
| 14> * xyz 0 1
| 15>    C       -0.64535         0.13940        -1.21531
| 16>    C       -1.25828         0.95871        -2.12421
| 17>    C       -0.51598         1.92232        -2.82331
| 18>    C        0.82833         2.05401        -2.60419
| 19>    C        1.49131         1.22833        -1.67379
| 20>    C        2.87824         1.36690        -1.43694
| 21>    C        3.48810         0.54882        -0.52474
| 22>    C        2.73333        -0.44647         0.16319
| 23>    C        1.39143        -0.59590        -0.04010
| 24>    C        0.73706         0.24752        -0.96599
| 25>    C        3.63116        -1.22101         1.03467
| 26>    O        3.35111        -2.10509         1.81011
| 27>    C        5.00708        -0.72902         0.71461
| 28>    C        4.87151         0.48467        -0.06618
| 29>    C        5.77295         1.51358        -0.14977
| 30>    C        7.02833         1.51464         0.48761
| 31>    N        8.05144         1.56412         1.00679
| 32>    C        5.50992         2.73361        -0.80857
| 33>    N        5.34555         3.74556        -1.32351
| 34>    C        6.07107        -1.48700         1.08982
| 35>    C        7.39830        -1.45001         0.60000
| 36>    C        7.86621        -0.92020        -0.59313
| 37>    C        9.23683        -1.09284        -0.74054
| 38>    C        9.82318        -1.77058         0.34511
| 39>    S        8.68361        -2.20452         1.53110
| 40>    C       11.21771        -1.87424         0.10353
| 41>    C       11.50951        -1.25837        -1.12848
| 42>    C       10.27526        -0.73526        -1.69223
| 43>    C       10.11446        -0.02395        -2.84424
| 44>    C       11.19643         0.28684        -3.69504
| 45>    N       12.07697         0.53173        -4.38653
| 46>    C        8.84527         0.44442        -3.24633
| 47>    N        7.80625         0.81362        -3.56052
| 48>    C       12.86426        -1.31304        -1.45621
| 49>    C       13.59182        -1.96660        -0.48121
| 50>    S       12.60079        -2.51610         0.85879
| 51>    C       14.99338        -2.25391        -0.41713
| 52>    C       15.92165        -1.93424        -1.35735
| 53>    C       17.29325        -2.29358        -1.16489
| 54>    C       18.27239        -1.99851        -2.09688
| 55>    C       19.61341        -2.36159        -1.89210
| 56>    N       20.70608        -2.66613        -1.71079
| 57>    C       17.98029        -1.32758        -3.29568
| 58>    N       17.73726        -0.78167        -4.27640
| 59>    C       17.59477        -2.98453         0.05145
| 60>    C       16.61033        -3.26896         0.94303
| 61>    O       15.31694        -2.91515         0.72754
| 62>    C       16.79318        -3.96246         2.18571
| 63>    C       15.79449        -4.26519         3.09179
| 64>    C       16.29328        -4.95361         4.19617
| 65>    C       17.68011        -5.16991         4.12011
| 66>    S       18.36803        -4.52831         2.69504
| 67>    C       18.08950        -5.87956         5.27737
| 68>    C       16.95599        -6.10963         6.08782
| 69>    C       15.79037        -5.54039         5.42941
| 70>    C       14.49354        -5.55685         5.84900
| 71>    C       14.07036        -6.17210         7.04814
| 72>    N       13.68738        -6.67032         8.00613
| 73>    C       13.46498        -4.96195         5.08568
| 74>    N       12.63416        -4.47874         4.46034
| 75>    C       17.25192        -6.80250         7.25552
| 76>    C       18.60264        -7.11030         7.35148
| 77>    S       19.50876        -6.52342         5.94949
| 78>    C       19.36294        -7.82389         8.30418
| 79>    C       19.03103        -8.34348         9.52240
| 80>    C       19.94972        -9.12125        10.34435
| 81>    C       21.15497        -9.64930         9.96008
| 82>    C       21.98842       -10.41067        10.80800
| 83>    N       22.71728       -11.03215        11.44043
| 84>    C       21.73488        -9.55642         8.67698
| 85>    N       22.26818        -9.54581         7.65952
| 86>    C       19.32844        -9.31655        11.64775
| 87>    C       18.02492        -8.74628        11.61680
| 88>    C       17.18860        -8.78983        12.69527
| 89>    C       17.62924        -9.41693        13.88157
| 90>    C       16.81121        -9.49801        15.02555
| 91>    C       17.26151       -10.10823        16.16486
| 92>    C       18.54911       -10.66366        16.20995
| 93>    C       19.36877       -10.60195        15.11597
| 94>    C       18.93688        -9.98215        13.92559
| 95>    C       19.77880        -9.92210        12.79171
| 96>    C       17.77701        -8.14540        10.29790
| 97>    O       16.76028        -7.58258         9.95129
| 98>    H       -1.21181        -0.60470        -0.67472
| 99>    H       -2.31803         0.86823        -2.30989
|100>    H       -1.01518         2.56065        -3.53671
|101>    H        1.40367         2.79633        -3.13740
|102>    H        3.42906         2.10792        -1.99492
|103>    H        0.83538        -1.34995         0.49687
|104>    H        5.84730        -2.26410         1.81455
|105>    H        7.22323        -0.47212        -1.32833
|106>    H       13.29693        -0.90313        -2.35006
|107>    H       15.63220        -1.41137        -2.25333
|108>    H       18.61139        -3.28188         0.25525
|109>    H       14.76719        -3.99131         2.93624
|110>    H       16.54344        -7.07429         8.01795
|111>    H       20.39060        -7.96746         7.99062
|112>    H       16.20297        -8.35202        12.64080
|113>    H       15.82102        -9.06854        14.98464
|114>    H       16.62835       -10.16628        17.03746
|115>    H       18.88856       -11.14158        17.11658
|116>    H       20.36021       -11.02950        15.14541
|117>    H       20.76350       -10.35575        12.86087
|118> *
|119>
|120>                          ****END OF INPUT****

CARTESIAN COORDINATES (ANGSTROEM)
---------------------------------
  C     -0.645350    0.139400   -1.215310
  C     -1.258280    0.958710   -2.124210
  C     -0.515980    1.922320   -2.823310
  C      0.828330    2.054010   -2.604190
  C      1.491310    1.228330   -1.673790
  C      2.878240    1.366900   -1.436940
  C      3.488100    0.548820   -0.524740
  C      2.733330   -0.446470    0.163190
  C      1.391430   -0.595900   -0.040100
  C      0.737060    0.247520   -0.965990
  C      3.631160   -1.221010    1.034670
  O      3.351110   -2.105090    1.810110
  C      5.007080   -0.729020    0.714610
  C      4.871510    0.484670   -0.066180
  C      5.772950    1.513580   -0.149770
  C      7.028330    1.514640    0.487610
  N      8.051440    1.564120    1.006790
  C      5.509920    2.733610   -0.808570
  N      5.345550    3.745560   -1.323510
  C      6.071070   -1.487000    1.089820
  C      7.398300   -1.450010    0.600000
  C      7.866210   -0.920200   -0.593130
  C      9.236830   -1.092840   -0.740540
  C      9.823180   -1.770580    0.345110
  S      8.683610   -2.204520    1.531100
  C     11.217710   -1.874240    0.103530
  C     11.509510   -1.258370   -1.128480
  C     10.275260   -0.735260   -1.692230
  C     10.114460   -0.023950   -2.844240
  C     11.196430    0.286840   -3.695040
  N     12.076970    0.531730   -4.386530
  C      8.845270    0.444420   -3.246330
  N      7.806250    0.813620   -3.560520
  C     12.864260   -1.313040   -1.456210
  C     13.591820   -1.966600   -0.481210
  S     12.600790   -2.516100    0.858790
  C     14.993380   -2.253910   -0.417130
  C     15.921650   -1.934240   -1.357350
  C     17.293250   -2.293580   -1.164890
  C     18.272390   -1.998510   -2.096880
  C     19.613410   -2.361590   -1.892100
  N     20.706080   -2.666130   -1.710790
  C     17.980290   -1.327580   -3.295680
  N     17.737260   -0.781670   -4.276400
  C     17.594770   -2.984530    0.051450
  C     16.610330   -3.268960    0.943030
  O     15.316940   -2.915150    0.727540
  C     16.793180   -3.962460    2.185710
  C     15.794490   -4.265190    3.091790
  C     16.293280   -4.953610    4.196170
  C     17.680110   -5.169910    4.120110
  S     18.368030   -4.528310    2.695040
  C     18.089500   -5.879560    5.277370
  C     16.955990   -6.109630    6.087820
  C     15.790370   -5.540390    5.429410
  C     14.493540   -5.556850    5.849000
  C     14.070360   -6.172100    7.048140
  N     13.687380   -6.670320    8.006130
  C     13.464980   -4.961950    5.085680
  N     12.634160   -4.478740    4.460340
  C     17.251920   -6.802500    7.255520
  C     18.602640   -7.110300    7.351480
  S     19.508760   -6.523420    5.949490
  C     19.362940   -7.823890    8.304180
  C     19.031030   -8.343480    9.522400
  C     19.949720   -9.121250   10.344350
  C     21.154970   -9.649300    9.960080
  C     21.988420  -10.410670   10.808000
  N     22.717280  -11.032150   11.440430
  C     21.734880   -9.556420    8.676980
  N     22.268180   -9.545810    7.659520
  C     19.328440   -9.316550   11.647750
  C     18.024920   -8.746280   11.616800
  C     17.188600   -8.789830   12.695270
  C     17.629240   -9.416930   13.881570
  C     16.811210   -9.498010   15.025550
  C     17.261510  -10.108230   16.164860
  C     18.549110  -10.663660   16.209950
  C     19.368770  -10.601950   15.115970
  C     18.936880   -9.982150   13.925590
  C     19.778800   -9.922100   12.791710
  C     17.777010   -8.145400   10.297900
  O     16.760280   -7.582580    9.951290
  H     -1.211810   -0.604700   -0.674720
  H     -2.318030    0.868230   -2.309890
  H     -1.015180    2.560650   -3.536710
  H      1.403670    2.796330   -3.137400
  H      3.429060    2.107920   -1.994920
  H      0.835380   -1.349950    0.496870
  H      5.847300   -2.264100    1.814550
  H      7.223230   -0.472120   -1.328330
  H     13.296930   -0.903130   -2.350060
  H     15.632200   -1.411370   -2.253330
  H     18.611390   -3.281880    0.255250
  H     14.767190   -3.991310    2.936240
  H     16.543440   -7.074290    8.017950
  H     20.390600   -7.967460    7.990620
  H     16.202970   -8.352020   12.640800
  H     15.821020   -9.068540   14.984640
  H     16.628350  -10.166280   17.037460
  H     18.888560  -11.141580   17.116580
  H     20.360210  -11.029500   15.145410
  H     20.763500  -10.355750   12.860870

 Total Charge           Charge          ....    0
 Multiplicity           Mult            ....    1
 Number of Electrons    NEL             ....  574
 Basis Dimension        Dim             .... 1278

ORBITAL ENERGIES
----------------

  NO   OCC          E(Eh)            E(eV)
   0   2.0000     -89.018773     -2422.3240
   1   2.0000     -89.010458     -2422.0977
   2   2.0000     -89.010177     -2422.0900
   3   2.0000     -89.004422     -2421.9335
   4   2.0000     -19.339295      -526.2490
   5   2.0000     -19.228282      -523.2282
   6   2.0000     -19.220421      -523.0142
   7   2.0000     -14.449702      -393.1964
   8   2.0000     -14.442641      -393.0042
   9   2.0000     -14.440873      -392.9561
  10   2.0000     -14.439476      -392.9181
  11   2.0000     -14.425833      -392.5469
  12   2.0000     -14.423667      -392.4879
  13   2.0000     -14.421298      -392.4235
  14   2.0000     -14.417967      -392.3328
  15   2.0000     -14.404073      -391.9548
  16   2.0000     -14.402215      -391.9042
  17   2.0000     -10.404561      -283.1225
  18   2.0000     -10.402516      -283.0668
  19   2.0000     -10.384415      -282.5743
  20   2.0000     -10.379183      -282.4319
  21   2.0000     -10.377092      -282.3750
  22   2.0000     -10.371787      -282.2307
  23   2.0000     -10.370706      -282.2013
  24   2.0000     -10.363984      -282.0183
  25   2.0000     -10.359945      -281.9084
  26   2.0000     -10.359514      -281.8967
  27   2.0000     -10.352634      -281.7095
  28   2.0000     -10.352370      -281.7023
  29   2.0000     -10.350669      -281.6560
  30   2.0000     -10.350106      -281.6407
  31   2.0000     -10.349910      -281.6354
  32   2.0000     -10.349669      -281.6288
  33   2.0000     -10.349547      -281.6255
  34   2.0000     -10.347914      -281.5811
  35   2.0000     -10.346872      -281.5527
  36   2.0000     -10.345928      -281.5270
  37   2.0000     -10.343410      -281.4585
  38   2.0000     -10.341269      -281.4002
  39   2.0000     -10.340708      -281.3850
  40   2.0000     -10.338885      -281.3354
  41   2.0000     -10.338323      -281.3201
  42   2.0000     -10.337388      -281.2946
  43   2.0000     -10.331319      -281.1295
  44   2.0000     -10.329976      -281.0929
  45   2.0000     -10.329518      -281.0805
  46   2.0000     -10.328588      -281.0552
  47   2.0000     -10.326860      -281.0081
  48   2.0000     -10.326663      -281.0028
  49   2.0000     -10.324825      -280.9528
  50   2.0000     -10.324567      -280.9457
  51   2.0000     -10.324061      -280.9320
  52   2.0000     -10.322681      -280.8944
  53   2.0000     -10.320121      -280.8248
  54   2.0000     -10.319718      -280.8138
  55   2.0000     -10.319524      -280.8085
  56   2.0000     -10.318416      -280.7784
  57   2.0000     -10.318011      -280.7674
  58   2.0000     -10.316433      -280.7244
  59   2.0000     -10.314112      -280.6613
  60   2.0000     -10.309648      -280.5398
  61   2.0000     -10.308379      -280.5053
  62   2.0000     -10.307472      -280.4806
  63   2.0000     -10.307423      -280.4792
  64   2.0000     -10.305214      -280.4191
  65   2.0000     -10.303775      -280.3800
  66   2.0000     -10.303561      -280.3741
  67   2.0000     -10.303207      -280.3645
  68   2.0000     -10.302956      -280.3577
  69   2.0000     -10.301313      -280.3130
  70   2.0000     -10.301107      -280.3074
  71   2.0000     -10.300814      -280.2994
  72   2.0000     -10.300288      -280.2851
  73   2.0000     -10.295306      -280.1495
  74   2.0000     -10.293766      -280.1076
  75   2.0000     -10.292020      -280.0601
  76   2.0000     -10.291419      -280.0438
  77   2.0000     -10.291225      -280.0385
  78   2.0000     -10.290739      -280.0253
  79   2.0000     -10.289361      -279.9877
  80   2.0000     -10.288878      -279.9746
  81   2.0000     -10.288481      -279.9638
  82   2.0000     -10.287850      -279.9466
  83   2.0000      -8.112923      -220.7639
  84   2.0000      -8.104843      -220.5440
  85   2.0000      -8.104458      -220.5335
  86   2.0000      -8.099104      -220.3878
  87   2.0000      -6.082242      -165.5062
  88   2.0000      -6.077984      -165.3903
  89   2.0000      -6.075275      -165.3166
  90   2.0000      -6.073890      -165.2789
  91   2.0000      -6.073706      -165.2739
  92   2.0000      -6.069768      -165.1668
  93   2.0000      -6.069375      -165.1561
  94   2.0000      -6.068254      -165.1256
  95   2.0000      -6.067488      -165.1047
  96   2.0000      -6.066972      -165.0907
  97   2.0000      -6.064048      -165.0111
  98   2.0000      -6.061630      -164.9453
  99   2.0000      -1.250936       -34.0397
 100   2.0000      -1.143667       -31.1208
 101   2.0000      -1.135996       -30.9120
 102   2.0000      -1.068032       -29.0626
 103   2.0000      -1.061459       -28.8838
 104   2.0000      -1.039608       -28.2892
 105   2.0000      -1.032847       -28.1052
 106   2.0000      -1.027759       -27.9668
 107   2.0000      -1.025967       -27.9180
 108   2.0000      -1.024018       -27.8649
 109   2.0000      -1.021486       -27.7960
 110   2.0000      -1.017909       -27.6987
 111   2.0000      -1.015315       -27.6281
 112   2.0000      -1.006702       -27.3937
 113   2.0000      -1.004869       -27.3439
 114   2.0000      -1.003846       -27.3160
 115   2.0000      -1.001398       -27.2494
 116   2.0000      -0.997819       -27.1520
 117   2.0000      -0.985381       -26.8136
 118   2.0000      -0.982160       -26.7259
 119   2.0000      -0.978970       -26.6391
 120   2.0000      -0.976922       -26.5834
 121   2.0000      -0.973120       -26.4799
 122   2.0000      -0.968140       -26.3444
 123   2.0000      -0.953553       -25.9475
 124   2.0000      -0.938097       -25.5269
 125   2.0000      -0.932380       -25.3713
 126   2.0000      -0.927719       -25.2445
 127   2.0000      -0.921322       -25.0704
 128   2.0000      -0.908520       -24.7221
 129   2.0000      -0.903736       -24.5919
 130   2.0000      -0.892896       -24.2969
 131   2.0000      -0.892350       -24.2821
 132   2.0000      -0.887237       -24.1429
 133   2.0000      -0.885815       -24.1043
 134   2.0000      -0.884233       -24.0612
 135   2.0000      -0.878615       -23.9083
 136   2.0000      -0.876502       -23.8508
 137   2.0000      -0.872503       -23.7420
 138   2.0000      -0.870331       -23.6829
 139   2.0000      -0.836577       -22.7644
 140   2.0000      -0.834506       -22.7081
 141   2.0000      -0.831944       -22.6384
 142   2.0000      -0.827090       -22.5063
 143   2.0000      -0.814169       -22.1547
 144   2.0000      -0.810780       -22.0624
 145   2.0000      -0.796659       -21.6782
 146   2.0000      -0.789016       -21.4702
 147   2.0000      -0.777983       -21.1700
 148   2.0000      -0.770331       -20.9618
 149   2.0000      -0.769031       -20.9264
 150   2.0000      -0.762243       -20.7417
 151   2.0000      -0.741557       -20.1788
 152   2.0000      -0.735383       -20.0108
 153   2.0000      -0.724013       -19.7014
 154   2.0000      -0.717381       -19.5209
 155   2.0000      -0.713040       -19.4028
 156   2.0000      -0.712120       -19.3778
 157   2.0000      -0.707342       -19.2478
 158   2.0000      -0.705253       -19.1909
 159   2.0000      -0.702072       -19.1044
 160   2.0000      -0.700183       -19.0530
 161   2.0000      -0.696574       -18.9547
 162   2.0000      -0.688600       -18.7378
 163   2.0000      -0.686823       -18.6894
 164   2.0000      -0.681508       -18.5448
 165   2.0000      -0.677788       -18.4435
 166   2.0000      -0.665192       -18.1008
 167   2.0000      -0.660523       -17.9737
 168   2.0000      -0.652793       -17.7634
 169   2.0000      -0.647760       -17.6265
 170   2.0000      -0.643035       -17.4979
 171   2.0000      -0.641431       -17.4542
 172   2.0000      -0.636730       -17.3263
 173   2.0000      -0.633429       -17.2365
 174   2.0000      -0.628580       -17.1045
 175   2.0000      -0.620410       -16.8822
 176   2.0000      -0.613495       -16.6940
 177   2.0000      -0.611987       -16.6530
 178   2.0000      -0.611229       -16.6324
 179   2.0000      -0.610202       -16.6044
 180   2.0000      -0.606408       -16.5012
 181   2.0000      -0.604666       -16.4538
 182   2.0000      -0.602272       -16.3886
 183   2.0000      -0.598739       -16.2925
 184   2.0000      -0.584218       -15.8974
 185   2.0000      -0.582525       -15.8513
 186   2.0000      -0.569801       -15.5051
 187   2.0000      -0.568381       -15.4664
 188   2.0000      -0.564904       -15.3718
 189   2.0000      -0.562068       -15.2946
 190   2.0000      -0.559299       -15.2193
 191   2.0000      -0.556943       -15.1552
 192   2.0000      -0.553588       -15.0639
 193   2.0000      -0.549829       -14.9616
 194   2.0000      -0.547145       -14.8886
 195   2.0000      -0.546428       -14.8691
 196   2.0000      -0.543714       -14.7952
 197   2.0000      -0.539259       -14.6740
 198   2.0000      -0.537712       -14.6319
 199   2.0000      -0.533730       -14.5235
 200   2.0000      -0.532819       -14.4987
 201   2.0000      -0.527569       -14.3559
 202   2.0000      -0.524117       -14.2619
 203   2.0000      -0.523304       -14.2398
 204   2.0000      -0.520765       -14.1707
 205   2.0000      -0.519407       -14.1338
 206   2.0000      -0.518281       -14.1032
 207   2.0000      -0.517154       -14.0725
 208   2.0000      -0.516860       -14.0645
 209   2.0000      -0.514942       -14.0123
 210   2.0000      -0.513478       -13.9725
 211   2.0000      -0.511676       -13.9234
 212   2.0000      -0.509913       -13.8754
 213   2.0000      -0.505909       -13.7665
 214   2.0000      -0.504922       -13.7396
 215   2.0000      -0.503989       -13.7142
 216   2.0000      -0.501944       -13.6586
 217   2.0000      -0.501096       -13.6355
 218   2.0000      -0.497559       -13.5393
 219   2.0000      -0.493099       -13.4179
 220   2.0000      -0.492210       -13.3937
 221   2.0000      -0.490432       -13.3453
 222   2.0000      -0.488136       -13.2829
 223   2.0000      -0.485505       -13.2113
 224   2.0000      -0.484136       -13.1740
 225   2.0000      -0.479901       -13.0588
 226   2.0000      -0.473086       -12.8733
 227   2.0000      -0.472047       -12.8450
 228   2.0000      -0.470266       -12.7966
 229   2.0000      -0.468997       -12.7621
 230   2.0000      -0.467262       -12.7148
 231   2.0000      -0.467184       -12.7127
 232   2.0000      -0.463382       -12.6093
 233   2.0000      -0.461011       -12.5447
 234   2.0000      -0.457823       -12.4580
 235   2.0000      -0.457050       -12.4370
 236   2.0000      -0.456000       -12.4084
 237   2.0000      -0.455663       -12.3992
 238   2.0000      -0.455028       -12.3819
 239   2.0000      -0.453129       -12.3303
 240   2.0000      -0.451193       -12.2776
 241   2.0000      -0.449805       -12.2398
 242   2.0000      -0.448697       -12.2097
 243   2.0000      -0.448290       -12.1986
 244   2.0000      -0.446239       -12.1428
 245   2.0000      -0.442996       -12.0545
 246   2.0000      -0.442502       -12.0411
 247   2.0000      -0.441169       -12.0048
 248   2.0000      -0.440588       -11.9890
 249   2.0000      -0.439835       -11.9685
 250   2.0000      -0.437576       -11.9070
 251   2.0000      -0.436771       -11.8851
 252   2.0000      -0.436445       -11.8763
 253   2.0000      -0.435190       -11.8421
 254   2.0000      -0.433667       -11.8007
 255   2.0000      -0.432962       -11.7815
 256   2.0000      -0.430764       -11.7217
 257   2.0000      -0.426922       -11.6171
 258   2.0000      -0.425629       -11.5820
 259   2.0000      -0.424169       -11.5422
 260   2.0000      -0.420418       -11.4402
 261   2.0000      -0.419319       -11.4103
 262   2.0000      -0.417808       -11.3691
 263   2.0000      -0.415725       -11.3125
 264   2.0000      -0.414721       -11.2851
 265   2.0000      -0.412626       -11.2281
 266   2.0000      -0.408315       -11.1108
 267   2.0000      -0.404478       -11.0064
 268   2.0000      -0.393604       -10.7105
 269   2.0000      -0.385651       -10.4941
 270   2.0000      -0.380531       -10.3548
 271   2.0000      -0.373909       -10.1746
 272   2.0000      -0.371587       -10.1114
 273   2.0000      -0.363059        -9.8793
 274   2.0000      -0.356108        -9.6902
 275   2.0000      -0.349527        -9.5111
 276   2.0000      -0.343907        -9.3582
 277   2.0000      -0.341342        -9.2884
 278   2.0000      -0.337092        -9.1727
 279   2.0000      -0.332139        -9.0380
 280   2.0000      -0.323898        -8.8137
 281   2.0000      -0.320405        -8.7187
 282   2.0000      -0.305559        -8.3147
 283   2.0000      -0.299700        -8.1553
 284   2.0000      -0.297141        -8.0856
 285   2.0000      -0.280773        -7.6402
 286   2.0000      -0.273890        -7.4529
 287   0.0000      -0.130086        -3.5398
 288   0.0000      -0.122230        -3.3260
 289   0.0000      -0.101763        -2.7691
 290   0.0000      -0.096400        -2.6232
 291   0.0000      -0.077587        -2.1113

MULLIKEN ATOMIC CHARGES
-----------------------
   0 C :   -0.015238
   1 C :    0.034777
   2 C :    0.036366
   3 C :   -0.016704
   4 C :    0.091924
   5 C :   -0.074540
   6 C :    0.026302
   7 C :    0.017844
   8 C :   -0.080601
   9 C :    0.095771
  10 C :    0.136373
  11 O :   -0.141670
  12 C :   -0.134653
  13 C :    0.269038
  14 C :   -0.331926
  15 C :   -0.199135
  16 N :    0.166636
  17 C :   -0.168031
  18 N :    0.162561
  19 C :    0.080391
  20 C :   -0.111523
  21 C :   -0.001905
  22 C :   -0.003121
  23 C :   -0.075800
  24 S :    0.232633
  25 C :   -0.088094
  26 C :    0.006997
  27 C :    0.306347
  28 C :   -0.283067
  29 C :   -0.190608
  30 N :    0.184271
  31 C :   -0.181517
  32 N :    0.176906
  33 C :   -0.021231
  34 C :   -0.108002
  35 S :    0.238341
  36 C :    0.277165
  37 C :   -0.171568
  38 C :    0.295378
  39 C :   -0.351411
  40 C :   -0.173590
  41 N :    0.128165
  42 C :   -0.170283
  43 N :    0.140335
  44 C :   -0.183365
  45 C :    0.269485
  46 O :   -0.252139
  47 C :   -0.092788
  48 C :   -0.029651
  49 C :    0.023318
  50 C :   -0.089280
  51 S :    0.228829
  52 C :   -0.087119
  53 C :    0.003618
  54 C :    0.306922
  55 C :   -0.292612
  56 C :   -0.192856
  57 N :    0.204959
  58 C :   -0.185621
  59 N :    0.164673
  60 C :   -0.011028
  61 C :   -0.111687
  62 S :    0.220423
  63 C :    0.035107
  64 C :   -0.086593
  65 C :    0.316966
  66 C :   -0.353068
  67 C :   -0.179467
  68 N :    0.152406
  69 C :   -0.197001
  70 N :    0.155907
  71 C :    0.045306
  72 C :   -0.003675
  73 C :   -0.075931
  74 C :    0.096621
  75 C :   -0.013752
  76 C :    0.036222
  77 C :    0.038411
  78 C :   -0.016535
  79 C :    0.093204
  80 C :   -0.077728
  81 C :    0.160643
  82 O :   -0.147577
  83 H :   -0.016356
  84 H :   -0.002816
  85 H :   -0.002588
  86 H :   -0.007232
  87 H :    0.001633
  88 H :   -0.010212
  89 H :    0.024450
  90 H :    0.027011
  91 H :    0.021727
  92 H :    0.032421
  93 H :    0.031833
  94 H :    0.009995
  95 H :    0.042025
  96 H :    0.010829
  97 H :   -0.009233
  98 H :   -0.015904
  99 H :   -0.002273
 100 H :   -0.003409
 101 H :   -0.008102
 102 H :   -0.007647
Sum of atomic charges:   -0.0000000

LOEWDIN ATOMIC CHARGES
----------------------
   0 C :   -0.008979
   1 C :   -0.011777
   2 C :   -0.011204
   3 C :   -0.004757
   4 C :   -0.004517
   5 C :    0.020263
   6 C :   -0.023552
   7 C :   -0.058625
   8 C :    0.034177
   9 C :   -0.008640
  10 C :    0.084077
  11 O :   -0.141246
  12 C :   -0.081923
  13 C :    0.065240
  14 C :   -0.133965
  15 C :   -0.015555
  16 N :   -0.046815
  17 C :   -0.018697
  18 N :   -0.042962
  19 C :    0.040047
  20 C :   -0.174799
  21 C :    0.005396
  22 C :   -0.058909
  23 C :   -0.168441
  24 S :    0.513095
  25 C :   -0.169062
  26 C :   -0.062086
  27 C :    0.079018
  28 C :   -0.091819
  29 C :   -0.019840
  30 N :   -0.019355
  31 C :   -0.012776
  32 N :   -0.027204
  33 C :   -0.002329
  34 C :   -0.189166
  35 S :    0.516397
  36 C :    0.074717
  37 C :   -0.047391
  38 C :    0.053903
  39 C :   -0.171447
  40 C :   -0.029963
  41 N :   -0.066823
  42 C :   -0.032195
  43 N :   -0.059234
  44 C :   -0.055446
  45 C :    0.073256
  46 O :   -0.016020
  47 C :   -0.185185
  48 C :   -0.009111
  49 C :   -0.059390
  50 C :   -0.171350
  51 S :    0.511005
  52 C :   -0.168074
  53 C :   -0.068672
  54 C :    0.075119
  55 C :   -0.090121
  56 C :   -0.024599
  57 N :   -0.007558
  58 C :   -0.011185
  59 N :   -0.036052
  60 C :    0.014663
  61 C :   -0.169388
  62 S :    0.509267
  63 C :    0.039350
  64 C :   -0.086188
  65 C :    0.076409
  66 C :   -0.138542
  67 C :   -0.017117
  68 N :   -0.049653
  69 C :   -0.024777
  70 N :   -0.050547
  71 C :   -0.027480
  72 C :   -0.056829
  73 C :    0.035845
  74 C :   -0.007768
  75 C :   -0.008139
  76 C :   -0.010280
  77 C :   -0.011274
  78 C :   -0.004595
  79 C :   -0.005620
  80 C :    0.021346
  81 C :    0.088094
  82 O :   -0.135415
  83 H :    0.032190
  84 H :    0.033507
  85 H :    0.033992
  86 H :    0.035592
  87 H :    0.040994
  88 H :    0.039872
  89 H :    0.047001
  90 H :    0.042929
  91 H :    0.047254
  92 H :    0.051629
  93 H :    0.042933
  94 H :    0.040555
  95 H :    0.044068
  96 H :    0.042972
  97 H :    0.040801
  98 H :    0.032864
  99 H :    0.033820
 100 H :    0.033962
 101 H :    0.035347
 102 H :    0.039461

  Mayer bond orders larger than 0.100000
B(  0-C ,  1-C ) :   1.4903 B(  0-C ,  9-C ) :   1.2438 B(  0-C , 83-H ) :   0.9977
B(  1-C ,  2-C ) :   1.2605 B(  1-C , 84-H ) :   0.9881 B(  2-C ,  3-C ) :   1.4897
B(  2-C , 85-H ) :   0.9890 B(  3-C ,  4-C ) :   1.2415 B(  3-C , 86-H ) :   0.9981
B(  4-C ,  5-C ) :   1.2056 B(  4-C ,  9-C ) :   1.2560 B(  5-C ,  6-C ) :   1.4587
B(  5-C , 87-H ) :   0.9944 B(  6-C ,  7-C ) :   1.2151 B(  6-C , 13-C ) :   0.9977
B(  7-C ,  8-C ) :   1.4715 B(  7-C , 10-C ) :   0.9237 B(  8-C ,  9-C ) :   1.1864
B(  8-C , 88-H ) :   1.0161 B( 10-C , 11-O ) :   2.2691 B( 10-C , 12-C ) :   0.9343
B( 12-C , 13-C ) :   1.0268 B( 12-C , 19-C ) :   1.6949 B( 13-C , 14-C ) :   1.6557
B( 14-C , 15-C ) :   1.1716 B( 14-C , 17-C ) :   1.1275 B( 15-C , 16-N ) :   2.9948
B( 17-C , 18-N ) :   2.9935 B( 19-C , 20-C ) :   1.1169 B( 19-C , 89-H ) :   0.9295
B( 20-C , 21-C ) :   1.4060 B( 20-C , 24-S ) :   1.1032 B( 21-C , 22-C ) :   1.3515
B( 21-C , 90-H ) :   0.9799 B( 22-C , 23-C ) :   1.4230 B( 22-C , 27-C ) :   0.9989
B( 23-C , 24-S ) :   1.1507 B( 23-C , 25-C ) :   1.1872 B( 25-C , 26-C ) :   1.4301
B( 25-C , 35-S ) :   1.1414 B( 26-C , 27-C ) :   0.9929 B( 26-C , 33-C ) :   1.3112
B( 27-C , 28-C ) :   1.7233 B( 28-C , 29-C ) :   1.1319 B( 28-C , 31-C ) :   1.1337
B( 29-C , 30-N ) :   2.9904 B( 31-C , 32-N ) :   2.9825 B( 33-C , 34-C ) :   1.4930
B( 33-C , 91-H ) :   0.9847 B( 34-C , 35-S ) :   1.1001 B( 34-C , 36-C ) :   1.0496
B( 36-C , 37-C ) :   1.5933 B( 36-C , 46-O ) :   1.1067 B( 37-C , 38-C ) :   1.1202
B( 37-C , 92-H ) :   0.9642 B( 38-C , 39-C ) :   1.5480 B( 38-C , 44-C ) :   1.1277
B( 39-C , 40-C ) :   1.1310 B( 39-C , 42-C ) :   1.1307 B( 40-C , 41-N ) :   3.0029
B( 42-C , 43-N ) :   3.0070 B( 44-C , 45-C ) :   1.5651 B( 44-C , 93-H ) :   0.9612
B( 45-C , 46-O ) :   1.1288 B( 45-C , 47-C ) :   1.0958 B( 47-C , 48-C ) :   1.4406
B( 47-C , 51-S ) :   1.1174 B( 48-C , 49-C ) :   1.2718 B( 48-C , 94-H ) :   1.0057
B( 49-C , 50-C ) :   1.4368 B( 49-C , 54-C ) :   0.9911 B( 50-C , 51-S ) :   1.1351
B( 50-C , 52-C ) :   1.1936 B( 52-C , 53-C ) :   1.3930 B( 52-C , 62-S ) :   1.1656
B( 53-C , 54-C ) :   0.9971 B( 53-C , 60-C ) :   1.2996 B( 54-C , 55-C ) :   1.7207
B( 55-C , 56-C ) :   1.1359 B( 55-C , 58-C ) :   1.1343 B( 56-C , 57-N ) :   3.0005
B( 58-C , 59-N ) :   2.9874 B( 60-C , 61-C ) :   1.4131 B( 60-C , 95-H ) :   0.9692
B( 61-C , 62-S ) :   1.0895 B( 61-C , 63-C ) :   1.1936 B( 63-C , 64-C ) :   1.6235
B( 63-C , 96-H ) :   0.9094 B( 64-C , 65-C ) :   1.0691 B( 64-C , 81-C ) :   0.9299
B( 65-C , 66-C ) :   1.6277 B( 65-C , 71-C ) :   0.9859 B( 66-C , 67-C ) :   1.1478
B( 66-C , 69-C ) :   1.1395 B( 67-C , 68-N ) :   2.9649 B( 69-C , 70-N ) :   2.9738
B( 71-C , 72-C ) :   1.2159 B( 71-C , 80-C ) :   1.4469 B( 72-C , 73-C ) :   1.4681
B( 72-C , 81-C ) :   0.9574 B( 73-C , 74-C ) :   1.1787 B( 73-C , 97-H ) :   1.0162
B( 74-C , 75-C ) :   1.2432 B( 74-C , 79-C ) :   1.2571 B( 75-C , 76-C ) :   1.4895
B( 75-C , 98-H ) :   0.9973 B( 76-C , 77-C ) :   1.2605 B( 76-C , 99-H ) :   0.9885
B( 77-C , 78-C ) :   1.4900 B( 77-C ,100-H ) :   0.9881 B( 78-C , 79-C ) :   1.2398
B( 78-C ,101-H ) :   0.9967 B( 79-C , 80-C ) :   1.2078 B( 80-C ,102-H ) :   0.9886
B( 81-C , 82-O ) :   2.1688

-----------------------------------------------------------------------------
         ABSORPTION SPECTRUM VIA TRANSITION ELECTRIC DIPOLE MOMENTS
-----------------------------------------------------------------------------
State   Energy  Wavelength   fosc         T2         TX        TY        TZ
        (cm-1)    (nm)                  (au**2)     (au)      (au)      (au)
-----------------------------------------------------------------------------
   0   14945.0    669.1   0.376449321   8.29249  -2.23077   1.27530  -1.29991
   1   15263.8    655.1   0.183907909   3.96656  -0.94734  -0.60282   1.64490
   2   19622.1    509.6   0.036969933   0.62027  -0.76709   0.13757   0.11364
   3   21420.9    466.8   1.107306781  17.01789   3.69279  -1.72085   0.64799
   4   22002.7    454.5   0.509638641   7.62540   0.22918  -1.36511   2.38942
   5   22829.1    438.0   0.627031246   9.04224   0.46452  -1.31048   2.66629
   6   23692.7    422.1   0.015173655   0.21084  -0.39853   0.15727   0.16517
   7   24387.9    410.0   0.020364671   0.27490   0.35530   0.14449   0.35747
   8   24738.0    404.2   0.182950716   2.43470   0.17959  -0.71396   1.37576
   9   26107.5    383.0   0.042259184   0.53288   0.68164  -0.25093   0.07273
  10   26586.0    376.1   0.278823612   3.45265  -1.85216  -0.03881   0.14371
  11   27234.7    367.2   0.011844653   0.14318  -0.22916  -0.08555   0.28870
  12   27435.4    364.5   0.035935110   0.43121  -0.20781  -0.36595   0.50408
  13   27781.0    360.0   0.039388038   0.46676  -0.29282   0.23805  -0.56951
  14   28414.7    351.9   0.067151094   0.77801   0.78523   0.12989   0.38021
  15   28578.8    349.9   0.087866445   1.01217  -0.88306   0.06450  -0.47773
  16   28861.8    346.5   0.293964109   3.35310   1.14084   0.41939  -1.36956
  17   29072.5    344.0   0.022772519   0.25787  -0.44850  -0.02449   0.23690
  18   29335.5    340.9   0.060026730   0.67364  -0.67636   0.07411  -0.45900
  19   29740.5    336.2   0.031986619   0.35408  -0.44374   0.07204   0.38984
  20   30142.4    331.8   0.323500591   3.53323  -0.20214   0.74375  -1.71441
  21   30419.8    328.7   0.135151747   1.46265  -0.48015  -0.19492   1.09276
  22   30455.3    328.4   0.075823024   0.81962  -0.68774   0.06982   0.58461
  23   30740.4    325.3   0.131166377   1.40472   1.11118  -0.34096  -0.23180
  24   30824.6    324.4   0.777822427   8.30727   2.58866   0.54602  -1.14366
  25   31704.5    315.4   0.237118349   2.46218   1.41966  -0.26056   0.61552
  26   31808.0    314.4   0.210055104   2.17406  -0.08207   0.74181  -1.27163
  27   32037.0    312.1   0.080322641   0.82540  -0.65903  -0.00034   0.62536
  28   32235.0    310.2   0.036354799   0.37129   0.36527  -0.41111   0.26240
  29   32381.7    308.8   0.156971483   1.59587  -1.24636   0.17701   0.10540
  30   32533.9    307.4   0.101039550   1.02242   0.22332  -0.35062   0.92175
  31   32768.7    305.2   0.039026351   0.39208   0.58203  -0.11856  -0.19816
  32   32906.6    303.9   0.048949566   0.48971  -0.32211   0.37111  -0.49824
  33   33114.9    302.0   0.232169843   2.30812  -0.54792  -0.56223   1.30069
  34   33630.9    297.3   0.060869737   0.59585  -0.28601  -0.09872  -0.71014
  35   33750.3    296.3   0.024226603   0.23631   0.29062  -0.20705  -0.33013
  36   33978.2    294.3   0.073937990   0.71638  -0.37913   0.42300  -0.62747
  37   34315.4    291.4   0.726281185   6.96774  -2.59575  -0.40325   0.25929
  38   34338.1    291.2   0.413396935   3.96338   0.69977  -0.11039  -1.86052
  39   34721.9    288.0   0.015922485   0.15097   0.28915   0.03210  -0.25754
  40   34847.8    287.0   0.025665054   0.24246   0.22223  -0.28135   0.33752
  41   35016.5    285.6   0.090149284   0.84755   0.28542  -0.48969   0.72546
  42   35088.8    285.0   0.142735171   1.33918  -1.05098  -0.01229  -0.48422
  43   35396.5    282.5   0.232997053   2.16704  -0.61559  -0.68207   1.15016
  44   35869.7    278.8   0.155063113   1.42317  -1.15821   0.00236  -0.28584
  45   36124.4    276.8   0.055806332   0.50858   0.38404   0.15728  -0.57996
  46   36521.7    273.8   0.054690039   0.49298  -0.29804  -0.20147   0.60297
  47   36997.3    270.3   0.022292470   0.19836   0.09736   0.13104  -0.41438
  48   37137.2    269.3   0.012793331   0.11341  -0.09070  -0.16310   0.28032
  49   37248.6    268.5   0.126052345   1.11408  -0.94843   0.03733   0.46171
  50   37611.6    265.9   0.008956008   0.07839  -0.23444   0.12757   0.08457
  51   38054.4    262.8   0.004461668   0.03860   0.14408   0.07813  -0.10832
  52   38265.7    261.3   0.098349823   0.84613   0.85627  -0.32157   0.09763
  53   38339.3    260.8   0.000502188   0.00431   0.04901  -0.04229   0.01105
  54   38472.0    259.9   0.003076642   0.02633   0.14433  -0.04280   0.06052
  55   38617.9    258.9   0.063197756   0.53875   0.64089  -0.31432   0.17093
  56   38637.5    258.8   0.004600565   0.03920   0.17450  -0.09289   0.01090
  57   39069.5    256.0   0.018394157   0.15499   0.02211  -0.32718   0.21785
  58   39147.3    255.4   0.006167941   0.05187  -0.07344   0.19679  -0.08803
  59   39537.1    252.9   0.041323264   0.34408   0.55814   0.07710   0.16317
  60   39890.1    250.7   0.008097415   0.06683   0.17531   0.13231  -0.13634
  61   40050.9    249.7   0.121237299   0.99655   0.41694  -0.84945   0.31802
  62   40169.4    248.9   0.249089756   2.04144   1.40935  -0.12519  -0.19878

FINAL SINGLE POINT ENERGY     -4888.123374586327

DIPOLE MOMENT
-------------
                                X             Y             Z
Electronic contribution:     31.89480       5.24222     -22.71949
Nuclear contribution   :    -35.49966      -7.09821      26.23890
                        -----------------------------------------
Total Dipole Moment    :     -3.60486      -1.85599       3.51941
                        -----------------------------------------
Magnitude (a.u.)       :      5.36898
Magnitude (Debye)      :     13.64686

Rotational constants in cm-1:     0.000983     0.000207     0.000173
Rotational constants in MHz :    29.459965     6.205902     5.189511

                             ****ORCA TERMINATED NORMALLY****
TOTAL RUN TIME: 0 days 0 hours 11 minutes 11 seconds 277 msec
