                         Program Version 4.2.0 -  RELEASE  -
|  1> # ORCA input file
|  2> # SCF done       -200.605324147850          0.000727679917
|  3> ! CAM-B3LYP def2-SVP def2/J RIJCOSX Grid4 TightSCF
|  4> %maxcore 5000
|  5> %tddft
|  6>     Mode sTDDFT
|  7>     Ethresh 5.0
|  8>     maxcore 5000
|  9> end
| 10>
| 11> %pal
| 12>   nprocs 6
| 13>   end
| 14> * xyz 0 1
| 15>    C       -0.15095         4.06474         0.48128
| 16>    C       -0.93937         4.02534         1.59919
| 17>    C       -0.66657         3.10958         2.62629
| 18>    C        0.38978         2.24599         2.52175
| 19>    C        1.22128         2.25808         1.38364
| 20>    C        2.30919         1.36207         1.26718
| 21>    C        3.09510         1.40281         0.14758
| 22>    C        2.82800         2.35379        -0.88041
| 23>    C        1.77891         3.22339        -0.79845
| 24>    C        0.94514         3.19070         0.34201
| 25>    C        3.84797         2.22797        -1.93412
| 26>    O        3.92070         2.82250        -2.98487
| 27>    C        4.83692         1.23966        -1.40680
| 28>    C        4.24725         0.59908        -0.24987
| 29>    C        4.53233        -0.65193         0.23339
| 30>    C        5.50809        -1.50287        -0.31913
| 31>    N        6.28199        -2.23190        -0.75325
| 32>    C        3.81286        -1.27053         1.27756
| 33>    N        3.25723        -1.82016         2.11769
| 34>    C        6.06285         1.18202        -1.99523
| 35>    C        7.27212         0.64715        -1.49896
| 36>    C        7.62132         0.32302        -0.19587
| 37>    C        8.92446        -0.14886        -0.10501
| 38>    C        9.58951        -0.17496        -1.34678
| 39>    S        8.60982         0.39039        -2.61504
| 40>    C       10.90330        -0.67663        -1.14756
| 41>    C       11.05190        -0.98440         0.21806
| 42>    C        9.81767        -0.66696         0.91675
| 43>    C        9.53799        -0.83321         2.24140
| 44>    C       10.48495        -1.35491         3.14708
| 45>    N       11.26305        -1.77472         3.87731
| 46>    C        8.28146        -0.48202         2.77831
| 47>    N        7.25924        -0.18321         3.20354
| 48>    C       12.31463        -1.48406         0.51137
| 49>    C       13.12512        -1.55978        -0.61381
| 50>    S       12.30830        -0.99499        -2.06116
| 51>    C       14.48317        -1.98798        -0.57870
| 52>    C       15.38051        -2.30682        -1.58762
| 53>    C       15.00255        -2.37412        -3.00766
| 54>    O       14.18154        -1.65434        -3.51933
| 55>    O       15.59986        -3.33150        -3.73608
| 56>    C       16.67211        -2.66906        -1.08242
| 57>    C       16.70741        -2.66549         0.28507
| 58>    S       15.21818        -2.21272         0.98869
| 59>    C       17.86969        -2.87982        -1.87154
| 60>    C       18.90555        -3.73833        -1.58410
| 61>    C       19.96918        -3.59298        -2.48336
| 62>    C       19.73072        -2.60096        -3.44499
| 63>    S       18.20894        -1.85286        -3.25737
| 64>    C       20.86523        -2.50727        -4.29321
| 65>    C       21.82309        -3.44934        -3.86338
| 66>    C       21.29106        -4.15780        -2.70834
| 67>    C       21.90136        -5.12600        -1.96802
| 68>    C       23.20926        -5.59360        -2.22424
| 69>    N       24.27272        -5.98665        -2.39045
| 70>    C       21.25895        -5.72216        -0.86136
| 71>    N       20.73069        -6.20120         0.03661
| 72>    C       22.98450        -3.43319        -4.62638
| 73>    C       22.93169        -2.48219        -5.63696
| 74>    S       21.39850        -1.59790        -5.62220
| 75>    C       23.86744        -2.05423        -6.60266
| 76>    C       25.08427        -2.55911        -6.96381
| 77>    C       25.96954        -1.91867        -7.92611
| 78>    C       25.87640        -0.63622        -8.40218
| 79>    C       26.78446        -0.06862        -9.32154
| 80>    N       27.47829         0.45321       -10.07253
| 81>    C       24.90690         0.31824        -8.02844
| 82>    N       24.16959         1.15885        -7.76407
| 83>    C       27.04353        -2.85277        -8.23735
| 84>    C       26.88010        -4.01319        -7.42976
| 85>    C       27.75035        -5.06356        -7.48670
| 86>    C       28.84644        -5.00059        -8.37555
| 87>    C       29.78077        -6.05000        -8.47622
| 88>    C       30.83348        -5.96757        -9.34696
| 89>    C       30.99794        -4.83234       -10.15472
| 90>    C       30.10813        -3.79540       -10.08125
| 91>    C       29.01308        -3.84647        -9.19478
| 92>    C       28.09519        -2.77456        -9.11223
| 93>    C       25.68039        -3.86867        -6.59017
| 94>    O       25.26400        -4.68404        -5.79484
| 95>    H       -0.35559         4.76808        -0.31266
| 96>    H       -1.77667         4.69986         1.69830
| 97>    H       -1.29853         3.09153         3.50152
| 98>    H        0.60186         1.53704         3.30842
| 99>    H        2.50382         0.67412         2.07508
|100>    H        1.58846         3.93028        -1.59228
|101>    H        6.12554         1.68483        -2.95605
|102>    H        6.96640         0.47247         0.64282
|103>    H       12.64408        -1.78602         1.48989
|104>    H       16.19620        -3.88705        -3.21412
|105>    H       17.55205        -2.87495         0.91043
|106>    H       18.87503        -4.44281        -0.77318
|107>    H       23.83571        -4.07391        -4.48099
|108>    H       23.53993        -1.17097        -7.13924
|109>    H       27.60391        -5.92989        -6.85887
|110>    H       29.64897        -6.92134        -7.85168
|111>    H       31.54511        -6.77644        -9.41821
|112>    H       31.83420        -4.78318       -10.83585
|113>    H       30.23138        -2.91856       -10.69984
|114>    H       28.24720        -1.91840        -9.74983
|115> *
|116>
|117>                          ****END OF INPUT****

CARTESIAN COORDINATES (ANGSTROEM)
---------------------------------
  C     -0.150950    4.064740    0.481280
  C     -0.939370    4.025340    1.599190
  C     -0.666570    3.109580    2.626290
  C      0.389780    2.245990    2.521750
  C      1.221280    2.258080    1.383640
  C      2.309190    1.362070    1.267180
  C      3.095100    1.402810    0.147580
  C      2.828000    2.353790   -0.880410
  C      1.778910    3.223390   -0.798450
  C      0.945140    3.190700    0.342010
  C      3.847970    2.227970   -1.934120
  O      3.920700    2.822500   -2.984870
  C      4.836920    1.239660   -1.406800
  C      4.247250    0.599080   -0.249870
  C      4.532330   -0.651930    0.233390
  C      5.508090   -1.502870   -0.319130
  N      6.281990   -2.231900   -0.753250
  C      3.812860   -1.270530    1.277560
  N      3.257230   -1.820160    2.117690
  C      6.062850    1.182020   -1.995230
  C      7.272120    0.647150   -1.498960
  C      7.621320    0.323020   -0.195870
  C      8.924460   -0.148860   -0.105010
  C      9.589510   -0.174960   -1.346780
  S      8.609820    0.390390   -2.615040
  C     10.903300   -0.676630   -1.147560
  C     11.051900   -0.984400    0.218060
  C      9.817670   -0.666960    0.916750
  C      9.537990   -0.833210    2.241400
  C     10.484950   -1.354910    3.147080
  N     11.263050   -1.774720    3.877310
  C      8.281460   -0.482020    2.778310
  N      7.259240   -0.183210    3.203540
  C     12.314630   -1.484060    0.511370
  C     13.125120   -1.559780   -0.613810
  S     12.308300   -0.994990   -2.061160
  C     14.483170   -1.987980   -0.578700
  C     15.380510   -2.306820   -1.587620
  C     15.002550   -2.374120   -3.007660
  O     14.181540   -1.654340   -3.519330
  O     15.599860   -3.331500   -3.736080
  C     16.672110   -2.669060   -1.082420
  C     16.707410   -2.665490    0.285070
  S     15.218180   -2.212720    0.988690
  C     17.869690   -2.879820   -1.871540
  C     18.905550   -3.738330   -1.584100
  C     19.969180   -3.592980   -2.483360
  C     19.730720   -2.600960   -3.444990
  S     18.208940   -1.852860   -3.257370
  C     20.865230   -2.507270   -4.293210
  C     21.823090   -3.449340   -3.863380
  C     21.291060   -4.157800   -2.708340
  C     21.901360   -5.126000   -1.968020
  C     23.209260   -5.593600   -2.224240
  N     24.272720   -5.986650   -2.390450
  C     21.258950   -5.722160   -0.861360
  N     20.730690   -6.201200    0.036610
  C     22.984500   -3.433190   -4.626380
  C     22.931690   -2.482190   -5.636960
  S     21.398500   -1.597900   -5.622200
  C     23.867440   -2.054230   -6.602660
  C     25.084270   -2.559110   -6.963810
  C     25.969540   -1.918670   -7.926110
  C     25.876400   -0.636220   -8.402180
  C     26.784460   -0.068620   -9.321540
  N     27.478290    0.453210  -10.072530
  C     24.906900    0.318240   -8.028440
  N     24.169590    1.158850   -7.764070
  C     27.043530   -2.852770   -8.237350
  C     26.880100   -4.013190   -7.429760
  C     27.750350   -5.063560   -7.486700
  C     28.846440   -5.000590   -8.375550
  C     29.780770   -6.050000   -8.476220
  C     30.833480   -5.967570   -9.346960
  C     30.997940   -4.832340  -10.154720
  C     30.108130   -3.795400  -10.081250
  C     29.013080   -3.846470   -9.194780
  C     28.095190   -2.774560   -9.112230
  C     25.680390   -3.868670   -6.590170
  O     25.264000   -4.684040   -5.794840
  H     -0.355590    4.768080   -0.312660
  H     -1.776670    4.699860    1.698300
  H     -1.298530    3.091530    3.501520
  H      0.601860    1.537040    3.308420
  H      2.503820    0.674120    2.075080
  H      1.588460    3.930280   -1.592280
  H      6.125540    1.684830   -2.956050
  H      6.966400    0.472470    0.642820
  H     12.644080   -1.786020    1.489890
  H     16.196200   -3.887050   -3.214120
  H     17.552050   -2.874950    0.910430
  H     18.875030   -4.442810   -0.773180
  H     23.835710   -4.073910   -4.480990
  H     23.539930   -1.170970   -7.139240
  H     27.603910   -5.929890   -6.858870
  H     29.648970   -6.921340   -7.851680
  H     31.545110   -6.776440   -9.418210
  H     31.834200   -4.783180  -10.835850
  H     30.231380   -2.918560  -10.699840
  H     28.247200   -1.918400   -9.749830

 Total Charge           Charge          ....    0
 Multiplicity           Mult            ....    1
 Number of Electrons    NEL             ....  566
 Basis Dimension        Dim             .... 1240

ORBITAL ENERGIES
----------------

  NO   OCC          E(Eh)            E(eV)
   0   2.0000     -89.006929     -2422.0017
   1   2.0000     -89.003231     -2421.9011
   2   2.0000     -88.995490     -2421.6904
   3   2.0000     -88.993558     -2421.6378
   4   2.0000     -88.992587     -2421.6114
   5   2.0000     -19.280065      -524.6372
   6   2.0000     -19.225194      -523.1441
   7   2.0000     -19.222448      -523.0694
   8   2.0000     -19.213659      -522.8302
   9   2.0000     -14.441482      -392.9727
  10   2.0000     -14.436214      -392.8294
  11   2.0000     -14.433073      -392.7439
  12   2.0000     -14.432572      -392.7302
  13   2.0000     -14.420968      -392.4145
  14   2.0000     -14.417043      -392.3077
  15   2.0000     -14.416835      -392.3020
  16   2.0000     -14.411860      -392.1666
  17   2.0000     -10.429543      -283.8023
  18   2.0000     -10.376656      -282.3632
  19   2.0000     -10.373739      -282.2838
  20   2.0000     -10.366810      -282.0952
  21   2.0000     -10.365043      -282.0472
  22   2.0000     -10.363425      -282.0031
  23   2.0000     -10.355116      -281.7770
  24   2.0000     -10.352875      -281.7160
  25   2.0000     -10.352565      -281.7076
  26   2.0000     -10.348137      -281.5871
  27   2.0000     -10.346335      -281.5381
  28   2.0000     -10.345537      -281.5164
  29   2.0000     -10.344771      -281.4955
  30   2.0000     -10.342507      -281.4339
  31   2.0000     -10.342451      -281.4324
  32   2.0000     -10.341544      -281.4077
  33   2.0000     -10.341281      -281.4006
  34   2.0000     -10.336904      -281.2815
  35   2.0000     -10.335797      -281.2513
  36   2.0000     -10.335091      -281.2321
  37   2.0000     -10.333492      -281.1886
  38   2.0000     -10.333086      -281.1776
  39   2.0000     -10.332882      -281.1720
  40   2.0000     -10.330402      -281.1045
  41   2.0000     -10.329191      -281.0716
  42   2.0000     -10.327908      -281.0367
  43   2.0000     -10.327110      -281.0149
  44   2.0000     -10.324204      -280.9359
  45   2.0000     -10.324006      -280.9305
  46   2.0000     -10.321482      -280.8618
  47   2.0000     -10.320070      -280.8234
  48   2.0000     -10.319305      -280.8026
  49   2.0000     -10.318394      -280.7778
  50   2.0000     -10.317913      -280.7647
  51   2.0000     -10.316433      -280.7244
  52   2.0000     -10.314327      -280.6671
  53   2.0000     -10.312846      -280.6268
  54   2.0000     -10.312502      -280.6174
  55   2.0000     -10.310548      -280.5643
  56   2.0000     -10.308385      -280.5054
  57   2.0000     -10.307985      -280.4945
  58   2.0000     -10.307344      -280.4771
  59   2.0000     -10.305302      -280.4215
  60   2.0000     -10.301784      -280.3258
  61   2.0000     -10.299937      -280.2755
  62   2.0000     -10.299805      -280.2720
  63   2.0000     -10.299706      -280.2692
  64   2.0000     -10.299233      -280.2564
  65   2.0000     -10.298818      -280.2451
  66   2.0000     -10.296136      -280.1721
  67   2.0000     -10.295945      -280.1669
  68   2.0000     -10.295659      -280.1591
  69   2.0000     -10.294777      -280.1351
  70   2.0000     -10.291036      -280.0333
  71   2.0000     -10.288536      -279.9653
  72   2.0000     -10.288020      -279.9512
  73   2.0000     -10.287984      -279.9503
  74   2.0000     -10.287806      -279.9454
  75   2.0000     -10.287363      -279.9334
  76   2.0000     -10.284985      -279.8687
  77   2.0000     -10.284499      -279.8554
  78   2.0000     -10.284122      -279.8452
  79   2.0000     -10.283415      -279.8259
  80   2.0000      -8.101470      -220.4522
  81   2.0000      -8.098046      -220.3590
  82   2.0000      -8.090278      -220.1477
  83   2.0000      -8.088295      -220.0937
  84   2.0000      -8.086149      -220.0353
  85   2.0000      -6.070654      -165.1909
  86   2.0000      -6.067113      -165.0945
  87   2.0000      -6.066442      -165.0763
  88   2.0000      -6.063919      -165.0076
  89   2.0000      -6.062973      -164.9819
  90   2.0000      -6.060637      -164.9183
  91   2.0000      -6.059373      -164.8839
  92   2.0000      -6.057663      -164.8374
  93   2.0000      -6.055580      -164.7807
  94   2.0000      -6.055241      -164.7715
  95   2.0000      -6.053135      -164.7142
  96   2.0000      -6.052829      -164.7058
  97   2.0000      -6.050901      -164.6534
  98   2.0000      -6.050531      -164.6433
  99   2.0000      -6.048591      -164.5905
 100   2.0000      -1.206726       -32.8367
 101   2.0000      -1.137896       -30.9637
 102   2.0000      -1.129183       -30.7266
 103   2.0000      -1.122377       -30.5414
 104   2.0000      -1.059943       -28.8425
 105   2.0000      -1.049887       -28.5689
 106   2.0000      -1.032488       -28.0954
 107   2.0000      -1.028698       -27.9923
 108   2.0000      -1.024316       -27.8731
 109   2.0000      -1.022397       -27.8208
 110   2.0000      -1.017856       -27.6973
 111   2.0000      -1.015544       -27.6343
 112   2.0000      -1.011453       -27.5230
 113   2.0000      -1.010279       -27.4911
 114   2.0000      -1.002151       -27.2699
 115   2.0000      -0.999423       -27.1957
 116   2.0000      -0.997645       -27.1473
 117   2.0000      -0.996976       -27.1291
 118   2.0000      -0.991348       -26.9760
 119   2.0000      -0.976058       -26.5599
 120   2.0000      -0.971254       -26.4292
 121   2.0000      -0.970048       -26.3963
 122   2.0000      -0.962039       -26.1784
 123   2.0000      -0.935070       -25.4446
 124   2.0000      -0.927996       -25.2521
 125   2.0000      -0.924921       -25.1684
 126   2.0000      -0.918837       -25.0028
 127   2.0000      -0.905909       -24.6510
 128   2.0000      -0.899916       -24.4879
 129   2.0000      -0.891687       -24.2640
 130   2.0000      -0.885940       -24.1076
 131   2.0000      -0.883218       -24.0336
 132   2.0000      -0.880670       -23.9642
 133   2.0000      -0.879438       -23.9307
 134   2.0000      -0.877059       -23.8660
 135   2.0000      -0.870500       -23.6875
 136   2.0000      -0.868924       -23.6446
 137   2.0000      -0.860530       -23.4162
 138   2.0000      -0.855548       -23.2806
 139   2.0000      -0.830741       -22.6056
 140   2.0000      -0.826831       -22.4992
 141   2.0000      -0.824753       -22.4427
 142   2.0000      -0.813829       -22.1454
 143   2.0000      -0.796443       -21.6723
 144   2.0000      -0.789677       -21.4882
 145   2.0000      -0.781302       -21.2603
 146   2.0000      -0.773329       -21.0434
 147   2.0000      -0.765670       -20.8349
 148   2.0000      -0.760129       -20.6842
 149   2.0000      -0.747868       -20.3505
 150   2.0000      -0.737268       -20.0621
 151   2.0000      -0.731792       -19.9131
 152   2.0000      -0.720645       -19.6098
 153   2.0000      -0.715513       -19.4701
 154   2.0000      -0.707868       -19.2621
 155   2.0000      -0.706911       -19.2360
 156   2.0000      -0.704009       -19.1571
 157   2.0000      -0.702366       -19.1124
 158   2.0000      -0.699967       -19.0471
 159   2.0000      -0.697567       -18.9818
 160   2.0000      -0.692938       -18.8558
 161   2.0000      -0.687960       -18.7203
 162   2.0000      -0.685673       -18.6581
 163   2.0000      -0.679937       -18.5020
 164   2.0000      -0.673973       -18.3397
 165   2.0000      -0.665104       -18.0984
 166   2.0000      -0.657187       -17.8830
 167   2.0000      -0.645068       -17.5532
 168   2.0000      -0.642560       -17.4849
 169   2.0000      -0.636750       -17.3269
 170   2.0000      -0.634672       -17.2703
 171   2.0000      -0.630401       -17.1541
 172   2.0000      -0.628373       -17.0989
 173   2.0000      -0.624325       -16.9888
 174   2.0000      -0.615753       -16.7555
 175   2.0000      -0.611580       -16.6419
 176   2.0000      -0.608119       -16.5477
 177   2.0000      -0.605964       -16.4891
 178   2.0000      -0.600451       -16.3391
 179   2.0000      -0.598301       -16.2806
 180   2.0000      -0.590060       -16.0564
 181   2.0000      -0.575989       -15.6735
 182   2.0000      -0.572848       -15.5880
 183   2.0000      -0.569014       -15.4837
 184   2.0000      -0.563758       -15.3406
 185   2.0000      -0.559599       -15.2275
 186   2.0000      -0.559198       -15.2165
 187   2.0000      -0.555909       -15.1270
 188   2.0000      -0.551961       -15.0196
 189   2.0000      -0.550724       -14.9859
 190   2.0000      -0.549591       -14.9551
 191   2.0000      -0.544876       -14.8268
 192   2.0000      -0.543100       -14.7785
 193   2.0000      -0.541616       -14.7381
 194   2.0000      -0.540493       -14.7076
 195   2.0000      -0.536869       -14.6090
 196   2.0000      -0.535568       -14.5736
 197   2.0000      -0.532275       -14.4840
 198   2.0000      -0.528492       -14.3810
 199   2.0000      -0.527342       -14.3497
 200   2.0000      -0.524628       -14.2758
 201   2.0000      -0.518985       -14.1223
 202   2.0000      -0.517061       -14.0700
 203   2.0000      -0.514361       -13.9965
 204   2.0000      -0.513320       -13.9681
 205   2.0000      -0.512784       -13.9536
 206   2.0000      -0.510965       -13.9041
 207   2.0000      -0.510813       -13.8999
 208   2.0000      -0.509461       -13.8631
 209   2.0000      -0.507369       -13.8062
 210   2.0000      -0.506937       -13.7944
 211   2.0000      -0.503570       -13.7028
 212   2.0000      -0.500254       -13.6126
 213   2.0000      -0.499459       -13.5910
 214   2.0000      -0.496302       -13.5051
 215   2.0000      -0.493515       -13.4292
 216   2.0000      -0.492106       -13.3909
 217   2.0000      -0.490228       -13.3398
 218   2.0000      -0.487454       -13.2643
 219   2.0000      -0.485713       -13.2169
 220   2.0000      -0.483326       -13.1520
 221   2.0000      -0.480804       -13.0833
 222   2.0000      -0.478560       -13.0223
 223   2.0000      -0.474422       -12.9097
 224   2.0000      -0.470847       -12.8124
 225   2.0000      -0.467942       -12.7334
 226   2.0000      -0.465821       -12.6756
 227   2.0000      -0.463847       -12.6219
 228   2.0000      -0.463479       -12.6119
 229   2.0000      -0.462046       -12.5729
 230   2.0000      -0.460306       -12.5256
 231   2.0000      -0.457078       -12.4377
 232   2.0000      -0.454553       -12.3690
 233   2.0000      -0.452767       -12.3204
 234   2.0000      -0.449697       -12.2369
 235   2.0000      -0.449508       -12.2317
 236   2.0000      -0.448358       -12.2004
 237   2.0000      -0.448054       -12.1922
 238   2.0000      -0.446975       -12.1628
 239   2.0000      -0.443732       -12.0746
 240   2.0000      -0.442855       -12.0507
 241   2.0000      -0.442677       -12.0459
 242   2.0000      -0.441773       -12.0212
 243   2.0000      -0.439205       -11.9514
 244   2.0000      -0.437605       -11.9078
 245   2.0000      -0.436568       -11.8796
 246   2.0000      -0.436404       -11.8752
 247   2.0000      -0.436142       -11.8680
 248   2.0000      -0.433803       -11.8044
 249   2.0000      -0.433139       -11.7863
 250   2.0000      -0.430689       -11.7196
 251   2.0000      -0.429565       -11.6891
 252   2.0000      -0.429269       -11.6810
 253   2.0000      -0.426124       -11.5954
 254   2.0000      -0.424646       -11.5552
 255   2.0000      -0.422643       -11.5007
 256   2.0000      -0.418158       -11.3787
 257   2.0000      -0.414443       -11.2776
 258   2.0000      -0.410557       -11.1718
 259   2.0000      -0.408837       -11.1250
 260   2.0000      -0.407657       -11.0929
 261   2.0000      -0.401381       -10.9221
 262   2.0000      -0.395560       -10.7637
 263   2.0000      -0.385551       -10.4914
 264   2.0000      -0.379089       -10.3155
 265   2.0000      -0.375141       -10.2081
 266   2.0000      -0.373284       -10.1576
 267   2.0000      -0.364658        -9.9229
 268   2.0000      -0.361807        -9.8453
 269   2.0000      -0.359678        -9.7873
 270   2.0000      -0.349760        -9.5175
 271   2.0000      -0.345567        -9.4034
 272   2.0000      -0.338964        -9.2237
 273   2.0000      -0.335855        -9.1391
 274   2.0000      -0.331608        -9.0235
 275   2.0000      -0.325747        -8.8640
 276   2.0000      -0.320451        -8.7199
 277   2.0000      -0.317851        -8.6492
 278   2.0000      -0.313056        -8.5187
 279   2.0000      -0.297616        -8.0985
 280   2.0000      -0.293483        -7.9861
 281   2.0000      -0.279415        -7.6033
 282   2.0000      -0.263332        -7.1656
 283   0.0000      -0.120275        -3.2729
 284   0.0000      -0.111258        -3.0275
 285   0.0000      -0.095278        -2.5927
 286   0.0000      -0.089058        -2.4234
 287   0.0000      -0.062082        -1.6893

MULLIKEN ATOMIC CHARGES
-----------------------
   0 C :   -0.016068
   1 C :    0.034221
   2 C :    0.035946
   3 C :   -0.016314
   4 C :    0.091444
   5 C :   -0.077006
   6 C :    0.028368
   7 C :    0.018600
   8 C :   -0.081610
   9 C :    0.094002
  10 C :    0.137074
  11 O :   -0.144924
  12 C :   -0.144003
  13 C :    0.269053
  14 C :   -0.329702
  15 C :   -0.203446
  16 N :    0.167518
  17 C :   -0.170250
  18 N :    0.160719
  19 C :    0.086705
  20 C :   -0.111619
  21 C :    0.002507
  22 C :   -0.011035
  23 C :   -0.074124
  24 S :    0.219203
  25 C :   -0.087856
  26 C :    0.035895
  27 C :    0.309510
  28 C :   -0.291721
  29 C :   -0.189554
  30 N :    0.170091
  31 C :   -0.182460
  32 N :    0.172616
  33 C :   -0.082084
  34 C :   -0.057497
  35 S :    0.250421
  36 C :   -0.115683
  37 C :   -0.021899
  38 C :    0.154550
  39 O :   -0.196762
  40 O :   -0.150811
  41 C :    0.080841
  42 C :   -0.092080
  43 S :    0.166834
  44 C :   -0.200162
  45 C :   -0.014941
  46 C :    0.015906
  47 C :   -0.108375
  48 S :    0.233637
  49 C :   -0.081869
  50 C :   -0.007264
  51 C :    0.305017
  52 C :   -0.292189
  53 C :   -0.189966
  54 N :    0.199535
  55 C :   -0.192846
  56 N :    0.172449
  57 C :   -0.002544
  58 C :   -0.113981
  59 S :    0.214537
  60 C :    0.034081
  61 C :   -0.088021
  62 C :    0.314674
  63 C :   -0.350323
  64 C :   -0.180248
  65 N :    0.146815
  66 C :   -0.197639
  67 N :    0.150586
  68 C :    0.043521
  69 C :   -0.005213
  70 C :   -0.077010
  71 C :    0.096993
  72 C :   -0.014824
  73 C :    0.036048
  74 C :    0.035152
  75 C :   -0.018804
  76 C :    0.094152
  77 C :   -0.079087
  78 C :    0.160233
  79 O :   -0.149737
  80 H :   -0.017461
  81 H :   -0.004895
  82 H :   -0.004137
  83 H :   -0.008245
  84 H :    0.000033
  85 H :   -0.011512
  86 H :    0.019833
  87 H :    0.025655
  88 H :    0.019629
  89 H :    0.193192
  90 H :    0.040592
  91 H :    0.012440
  92 H :    0.039597
  93 H :    0.013654
  94 H :   -0.008590
  95 H :   -0.015200
  96 H :   -0.002809
  97 H :   -0.003108
  98 H :   -0.008172
  99 H :   -0.006399
Sum of atomic charges:   -0.0000000

LOEWDIN ATOMIC CHARGES
----------------------
   0 C :   -0.009690
   1 C :   -0.013173
   2 C :   -0.012860
   3 C :   -0.005483
   4 C :   -0.005095
   5 C :    0.018552
   6 C :   -0.022659
   7 C :   -0.057790
   8 C :    0.032543
   9 C :   -0.009288
  10 C :    0.083678
  11 O :   -0.144944
  12 C :   -0.089410
  13 C :    0.065777
  14 C :   -0.136846
  15 C :   -0.015968
  16 N :   -0.046786
  17 C :   -0.018293
  18 N :   -0.046658
  19 C :    0.041493
  20 C :   -0.179714
  21 C :    0.009577
  22 C :   -0.065236
  23 C :   -0.159380
  24 S :    0.504632
  25 C :   -0.188228
  26 C :   -0.064107
  27 C :    0.083312
  28 C :   -0.101325
  29 C :   -0.015958
  30 N :   -0.033494
  31 C :   -0.013818
  32 N :   -0.032500
  33 C :   -0.029167
  34 C :   -0.194160
  35 S :    0.553086
  36 C :   -0.136358
  37 C :   -0.134040
  38 C :    0.075323
  39 O :   -0.171735
  40 O :   -0.020700
  41 C :   -0.087960
  42 C :   -0.164940
  43 S :    0.492364
  44 C :   -0.181734
  45 C :   -0.029641
  46 C :   -0.060899
  47 C :   -0.184601
  48 S :    0.502684
  49 C :   -0.163565
  50 C :   -0.073110
  51 C :    0.075122
  52 C :   -0.092696
  53 C :   -0.023801
  54 N :   -0.011298
  55 C :   -0.014835
  56 N :   -0.031343
  57 C :    0.017244
  58 C :   -0.173885
  59 S :    0.504526
  60 C :    0.041413
  61 C :   -0.091107
  62 C :    0.077005
  63 C :   -0.141391
  64 C :   -0.017162
  65 N :   -0.052813
  66 C :   -0.024596
  67 N :   -0.054000
  68 C :   -0.027169
  69 C :   -0.055957
  70 C :    0.034470
  71 C :   -0.007936
  72 C :   -0.008712
  73 C :   -0.011388
  74 C :   -0.012530
  75 C :   -0.005357
  76 C :   -0.005986
  77 C :    0.020250
  78 C :    0.087246
  79 O :   -0.137130
  80 H :    0.031738
  81 H :    0.032706
  82 H :    0.033261
  83 H :    0.035178
  84 H :    0.040437
  85 H :    0.039341
  86 H :    0.045601
  87 H :    0.042743
  88 H :    0.033165
  89 H :    0.090088
  90 H :    0.033016
  91 H :    0.042930
  92 H :    0.043952
  93 H :    0.042989
  94 H :    0.040648
  95 H :    0.032747
  96 H :    0.033458
  97 H :    0.033720
  98 H :    0.035050
  99 H :    0.039348

  Mayer bond orders larger than 0.100000
B(  0-C ,  1-C ) :   1.4893 B(  0-C ,  9-C ) :   1.2445 B(  0-C , 80-H ) :   0.9975
B(  1-C ,  2-C ) :   1.2618 B(  1-C , 81-H ) :   0.9888 B(  2-C ,  3-C ) :   1.4880
B(  2-C , 82-H ) :   0.9886 B(  3-C ,  4-C ) :   1.2429 B(  3-C , 83-H ) :   0.9974
B(  4-C ,  5-C ) :   1.2034 B(  4-C ,  9-C ) :   1.2574 B(  5-C ,  6-C ) :   1.4611
B(  5-C , 84-H ) :   0.9941 B(  6-C ,  7-C ) :   1.2148 B(  6-C , 13-C ) :   0.9969
B(  7-C ,  8-C ) :   1.4736 B(  7-C , 10-C ) :   0.9227 B(  8-C ,  9-C ) :   1.1853
B(  8-C , 85-H ) :   1.0158 B( 10-C , 11-O ) :   2.2638 B( 10-C , 12-C ) :   0.9404
B( 12-C , 13-C ) :   1.0347 B( 12-C , 19-C ) :   1.6748 B( 13-C , 14-C ) :   1.6491
B( 14-C , 15-C ) :   1.1727 B( 14-C , 17-C ) :   1.1285 B( 15-C , 16-N ) :   2.9944
B( 17-C , 18-N ) :   2.9938 B( 19-C , 20-C ) :   1.1368 B( 19-C , 86-H ) :   0.9251
B( 20-C , 21-C ) :   1.3961 B( 20-C , 24-S ) :   1.0927 B( 21-C , 22-C ) :   1.3560
B( 21-C , 87-H ) :   0.9784 B( 22-C , 23-C ) :   1.4155 B( 22-C , 27-C ) :   0.9984
B( 23-C , 24-S ) :   1.1577 B( 23-C , 25-C ) :   1.1829 B( 25-C , 26-C ) :   1.4100
B( 25-C , 35-S ) :   1.1045 B( 26-C , 27-C ) :   0.9895 B( 26-C , 33-C ) :   1.3348
B( 27-C , 28-C ) :   1.7168 B( 28-C , 29-C ) :   1.1351 B( 28-C , 31-C ) :   1.1318
B( 29-C , 30-N ) :   2.9878 B( 31-C , 32-N ) :   2.9845 B( 33-C , 34-C ) :   1.4149
B( 33-C , 88-H ) :   0.9827 B( 34-C , 35-S ) :   1.1259 B( 34-C , 36-C ) :   1.1612
B( 36-C , 37-C ) :   1.5027 B( 36-C , 43-S ) :   1.1854 B( 37-C , 38-C ) :   0.9363
B( 37-C , 41-C ) :   1.1868 B( 38-C , 39-O ) :   2.0633 B( 38-C , 40-O ) :   1.2510
B( 40-O , 89-H ) :   0.9453 B( 41-C , 42-C ) :   1.5944 B( 41-C , 44-C ) :   0.9880
B( 42-C , 43-S ) :   1.1508 B( 42-C , 90-H ) :   0.9692 B( 44-C , 45-C ) :   1.4890
B( 44-C , 48-S ) :   1.1323 B( 45-C , 46-C ) :   1.2623 B( 45-C , 91-H ) :   1.0026
B( 46-C , 47-C ) :   1.4448 B( 46-C , 51-C ) :   0.9925 B( 47-C , 48-S ) :   1.1323
B( 47-C , 49-C ) :   1.1893 B( 49-C , 50-C ) :   1.3941 B( 49-C , 59-S ) :   1.1705
B( 50-C , 51-C ) :   0.9963 B( 50-C , 57-C ) :   1.3082 B( 51-C , 52-C ) :   1.7193
B( 52-C , 53-C ) :   1.1328 B( 52-C , 55-C ) :   1.1356 B( 53-C , 54-N ) :   2.9990
B( 55-C , 56-N ) :   2.9886 B( 57-C , 58-C ) :   1.4083 B( 57-C , 92-H ) :   0.9703
B( 58-C , 59-S ) :   1.0829 B( 58-C , 60-C ) :   1.2015 B( 60-C , 61-C ) :   1.6082
B( 60-C , 93-H ) :   0.9140 B( 61-C , 62-C ) :   1.0731 B( 61-C , 78-C ) :   0.9342
B( 62-C , 63-C ) :   1.6241 B( 62-C , 68-C ) :   0.9874 B( 63-C , 64-C ) :   1.1469
B( 63-C , 66-C ) :   1.1393 B( 64-C , 65-N ) :   2.9646 B( 66-C , 67-N ) :   2.9785
B( 68-C , 69-C ) :   1.2151 B( 68-C , 77-C ) :   1.4492 B( 69-C , 70-C ) :   1.4730
B( 69-C , 78-C ) :   0.9540 B( 70-C , 71-C ) :   1.1778 B( 70-C , 94-H ) :   1.0159
B( 71-C , 72-C ) :   1.2456 B( 71-C , 76-C ) :   1.2557 B( 72-C , 73-C ) :   1.4886
B( 72-C , 95-H ) :   0.9973 B( 73-C , 74-C ) :   1.2607 B( 73-C , 96-H ) :   0.9882
B( 74-C , 75-C ) :   1.4903 B( 74-C , 97-H ) :   0.9883 B( 75-C , 76-C ) :   1.2399
B( 75-C , 98-H ) :   0.9967 B( 76-C , 77-C ) :   1.2084 B( 77-C , 99-H ) :   0.9888
B( 78-C , 79-O ) :   2.1731

-----------------------------------------------------------------------------
         ABSORPTION SPECTRUM VIA TRANSITION ELECTRIC DIPOLE MOMENTS
-----------------------------------------------------------------------------
State   Energy  Wavelength   fosc         T2         TX        TY        TZ
        (cm-1)    (nm)                  (au**2)     (au)      (au)      (au)
-----------------------------------------------------------------------------
   0   14559.0    686.9   0.325085075   7.35092   2.62308  -0.55125  -0.40805
   1   15408.6    649.0   0.174241105   3.72275   1.47555   0.15888  -1.23298
   2   20609.7    485.2   1.174256025  18.75717   4.23158  -0.62878  -0.67492
   3   21248.8    470.6   0.025429353   0.39398   0.57965  -0.06844   0.23087
   4   22718.0    440.2   0.979108401  14.18852   2.72744   0.63287  -2.51973
   5   25129.6    397.9   0.117707597   1.54203   0.98979  -0.43629  -0.60992
   6   25213.9    396.6   0.014637954   0.19112   0.15934   0.37296  -0.16320
   7   26147.4    382.4   0.009383438   0.11814   0.14837   0.01033  -0.30988
   8   27285.2    366.5   0.007065263   0.08525  -0.24885   0.15132   0.02056
   9   27550.4    363.0   0.200709288   2.39836  -1.40246   0.61541   0.22965
  10   28134.2    355.4   0.069751709   0.81620   0.78113  -0.17742  -0.41779
  11   28367.5    352.5   0.532780661   6.18306  -2.07165   1.35380  -0.24193
  12   28559.7    350.1   0.046685788   0.53815   0.52150  -0.51554   0.02046
  13   28765.8    347.6   0.008587383   0.09828  -0.19517   0.23804  -0.05938
  14   29229.6    342.1   0.041998435   0.47303  -0.43877  -0.31215   0.42787
  15   29279.6    341.5   0.016723003   0.18803   0.00700   0.16231   0.40204
  16   29941.7    334.0   0.138236620   1.51992   0.80479  -0.76389  -0.53731
  17   30085.2    332.4   0.173733213   1.90111   0.82105  -0.46603  -1.00489
  18   30462.2    328.3   0.200764938   2.16971   0.82388  -0.17005  -1.20914
  19   30838.7    324.3   0.174669743   1.86465  -0.17147  -0.42869   1.28510
  20   31290.9    319.6   0.905964708   9.53168  -2.09177   2.12057  -0.81200
  21   31463.3    317.8   0.090892978   0.95105  -0.75173   0.38850   0.48479
  22   31852.5    313.9   0.026968864   0.27874  -0.32142  -0.09580   0.40773
  23   31932.2    313.2   0.368823340   3.80246  -1.80219   0.50954   0.54307
  24   32451.4    308.2   0.231086459   2.34432  -1.27952   0.69510   0.47326
  25   32508.3    307.6   0.012677541   0.12839  -0.14409   0.32617  -0.03519
  26   32647.7    306.3   0.036966124   0.37276  -0.17468  -0.26568  -0.52121
  27   32821.7    304.7   0.015703937   0.15752  -0.14897   0.08946   0.35682
  28   33170.7    301.5   0.054179031   0.53772  -0.45069  -0.11776   0.56633
  29   33942.4    294.6   0.403607144   3.91465   1.24723  -1.15479  -1.01269
  30   33991.3    294.2   0.028798257   0.27892   0.27099  -0.45319  -0.00968
  31   34081.0    293.4   0.105649036   1.02054   0.32623  -0.92807   0.22978
  32   34413.6    290.6   0.394610573   3.77498   1.30833  -1.38871  -0.36708
  33   34551.0    289.4   0.304217160   2.89867   0.60948  -1.00116   1.23486
  34   34897.3    286.6   0.034651077   0.32689  -0.37721   0.42810  -0.03648
  35   35024.3    285.5   0.229485776   2.15706   1.06335  -0.99630   0.18366
  36   35107.5    284.8   0.046950772   0.44027   0.29017  -0.28330   0.52518
  37   35460.9    282.0   0.009048005   0.08400   0.12361  -0.18067   0.18995
  38   35964.3    278.1   0.108306062   0.99142   0.34967   0.30804  -0.87992
  39   36100.0    277.0   0.055313854   0.50443  -0.26461  -0.53499   0.38497
  40   36674.6    272.7   0.126702072   1.13735   0.80319  -0.36233  -0.60079
  41   36932.5    270.8   0.088503490   0.78891  -0.30451  -0.38700   0.73920
  42   37037.5    270.0   0.007565834   0.06725   0.12331   0.01590  -0.22758
  43   37222.3    268.7   0.002020537   0.01787  -0.06576  -0.01084   0.11588
  44   37342.5    267.8   0.003945975   0.03479  -0.13847  -0.04997  -0.11452
  45   37883.1    264.0   0.020688743   0.17979  -0.38090  -0.01482   0.18570
  46   38059.9    262.7   0.082796212   0.71617  -0.17317   0.70016  -0.44267
  47   38416.5    260.3   0.042568843   0.36480  -0.37688   0.37585  -0.28546
  48   38456.2    260.0   0.116369549   0.99620  -0.59183  -0.14124   0.79119
  49   38629.7    258.9   0.074674801   0.63640  -0.12709  -0.64152   0.45683
  50   38917.8    257.0   0.070064938   0.59269  -0.57665  -0.04019   0.50848
  51   39121.6    255.6   0.021365671   0.17979   0.10115   0.39923  -0.10090
  52   39335.4    254.2   0.017932414   0.15008   0.07046  -0.20597   0.32046
  53   39413.6    253.7   0.039616833   0.33091   0.08430  -0.52631   0.21632
  54   39529.2    253.0   0.047062307   0.39195  -0.33982  -0.38425   0.35892
  55   39569.7    252.7   0.106800197   0.88856   0.82977   0.32794  -0.30413
  56   39991.1    250.1   0.008234263   0.06779  -0.18897   0.14415   0.10628

FINAL SINGLE POINT ENERGY     -5137.857396910468

DIPOLE MOMENT
-------------
                                X             Y             Z
Electronic contribution:     -0.21990      -2.52942       7.64695
Nuclear contribution   :      1.13418       2.89296      -8.27071
                        -----------------------------------------
Total Dipole Moment    :      0.91428       0.36354      -0.62376
                        -----------------------------------------
Magnitude (a.u.)       :      1.16497
Magnitude (Debye)      :      2.96111

Rotational constants in cm-1:     0.002293     0.000154     0.000147
Rotational constants in MHz :    68.742754     4.604807     4.396090

                             ****ORCA TERMINATED NORMALLY****
TOTAL RUN TIME: 0 days 0 hours 11 minutes 20 seconds 141 msec
