                         Program Version 4.2.0 -  RELEASE  -
|  1> # ORCA input file
|  2> # SCF done       -201.672988572375          0.000973734036
|  3> ! CAM-B3LYP def2-SVP def2/J RIJCOSX Grid4 TightSCF
|  4> %maxcore 5000
|  5> %tddft
|  6>     Mode sTDDFT
|  7>     Ethresh 5.0
|  8>     maxcore 5000
|  9> end
| 10>
| 11> %pal
| 12>   nprocs 6
| 13>   end
| 14> * xyz 0 1
| 15>    C        0.39374         5.02624        -0.69598
| 16>    C       -0.40036         5.10169         0.41609
| 17>    C       -0.20699         4.21538         1.48624
| 18>    C        0.77705         3.26616         1.43013
| 19>    C        1.61208         3.15926         0.29956
| 20>    C        2.62540         2.17533         0.23372
| 21>    C        3.41712         2.10135        -0.88014
| 22>    C        3.23172         3.02090        -1.95397
| 23>    C        2.25527         3.97460        -1.92030
| 24>    C        1.41665         4.06167        -0.78625
| 25>    C        4.24243         2.76446        -2.99270
| 26>    O        4.36660         3.29811        -4.07048
| 27>    C        5.15071         1.73066        -2.40757
| 28>    C        4.50512         1.19306        -1.22707
| 29>    C        4.69105        -0.05147        -0.68405
| 30>    C        5.61165        -0.99430        -1.17996
| 31>    N        6.33681        -1.79588        -1.56754
| 32>    C        3.91387        -0.56741         0.37470
| 33>    N        3.30482        -1.03682         1.22617
| 34>    C        6.37500         1.55129        -2.97135
| 35>    C        7.53111         0.95646        -2.41437
| 36>    C        7.82877         0.71517        -1.08143
| 37>    C        9.09073         0.15681        -0.92018
| 38>    C        9.77226        -0.02402        -2.13853
| 39>    S        8.86057         0.50451        -3.47298
| 40>    C       11.04675        -0.59009        -1.86556
| 41>    C       11.15652        -0.77280        -0.47198
| 42>    C        9.92841        -0.32645         0.16467
| 43>    C        9.60148        -0.37198         1.48765
| 44>    C       10.48106        -0.87907         2.46751
| 45>    N       11.19429        -1.28678         3.26679
| 46>    C        8.35094         0.08992         1.95083
| 47>    N        7.33384         0.47592         2.31332
| 48>    C       12.38905        -1.29890        -0.10365
| 49>    C       13.19971        -1.51887        -1.20790
| 50>    S       12.44004        -1.07308        -2.72030
| 51>    C       14.53920        -1.99047        -1.12276
| 52>    C       15.46890        -2.42782        -2.06505
| 53>    C       15.19150        -2.60774        -3.49036
| 54>    O       14.35636        -1.96093        -4.07377
| 55>    O       15.87318        -3.56644        -4.13188
| 56>    C       16.63255        -2.70526        -1.27370
| 57>    N       16.37244        -2.47954        -0.00460
| 58>    O       15.09875        -2.06035         0.09585
| 59>    C       17.97593        -3.06166        -1.64987
| 60>    C       18.93884        -3.51827        -0.77605
| 61>    C       20.18202        -3.65255        -1.39964
| 62>    C       20.15584        -3.27820        -2.75296
| 63>    S       18.61041        -2.76840        -3.26078
| 64>    C       21.45704        -3.41499        -3.30326
| 65>    C       22.31036        -3.87778        -2.27713
| 66>    C       21.53692        -4.05355        -1.05578
| 67>    C       21.98341        -4.50849         0.14882
| 68>    C       23.32902        -4.88086         0.35917
| 69>    N       24.41802        -5.19395         0.52999
| 70>    C       21.12980        -4.65473         1.26361
| 71>    N       20.44144        -4.78384         2.17090
| 72>    C       23.61587        -4.01945        -2.71173
| 73>    C       23.76872        -3.68989        -4.06264
| 74>    S       22.24604        -3.19628        -4.79636
| 75>    C       25.02401        -3.73494        -4.69682
| 76>    C       25.35825        -3.51552        -6.00525
| 77>    C       26.69676        -3.57246        -6.57016
| 78>    C       27.88022        -3.63599        -5.88356
| 79>    C       29.14911        -3.66194        -6.50119
| 80>    N       30.20873        -3.68701        -6.94134
| 81>    C       28.01242        -3.64724        -4.47869
| 82>    N       28.19895        -3.64321        -3.34572
| 83>    C       26.56304        -3.48507        -8.02043
| 84>    C       25.18619        -3.30195        -8.33983
| 85>    C       24.75069        -3.18121        -9.62830
| 86>    C       25.69169        -3.24412       -10.67998
| 87>    C       25.30341        -3.12920       -12.02914
| 88>    C       26.23256        -3.19679       -13.03200
| 89>    C       27.58969        -3.38139       -12.72905
| 90>    C       27.99983        -3.49663       -11.42834
| 91>    C       27.07014        -3.43191       -10.37097
| 92>    C       27.49062        -3.55061        -9.02584
| 93>    C       24.40443        -3.28069        -7.09873
| 94>    O       23.19950        -3.11605        -6.99815
| 95>    H        0.24986         5.70647        -1.52268
| 96>    H       -1.18105         5.84502         0.47745
| 97>    H       -0.84243         4.28839         2.35603
| 98>    H        0.92802         2.57959         2.25001
| 99>    H        2.76180         1.51281         1.07417
|100>    H        2.12551         4.65710        -2.74703
|101>    H        6.49258         1.99398        -3.95600
|102>    H        7.17091         0.98209        -0.27484
|103>    H       12.70690        -1.51768         0.89984
|104>    H       16.45628        -4.07832        -3.55537
|105>    H       18.71957        -3.72852         0.25425
|106>    H       24.44247        -4.34081        -2.10304
|107>    H       25.82729        -4.00147        -4.02012
|108>    H       23.70147        -3.04142        -9.84244
|109>    H       24.25696        -2.98726       -12.25624
|110>    H       25.92658        -3.10854       -14.06362
|111>    H       28.30974        -3.43199       -13.53186
|112>    H       29.04382        -3.63809       -11.19036
|113>    H       28.54036        -3.69643        -8.82710
|114> *
|115>
|116>                          ****END OF INPUT****

CARTESIAN COORDINATES (ANGSTROEM)
---------------------------------
  C      0.393740    5.026240   -0.695980
  C     -0.400360    5.101690    0.416090
  C     -0.206990    4.215380    1.486240
  C      0.777050    3.266160    1.430130
  C      1.612080    3.159260    0.299560
  C      2.625400    2.175330    0.233720
  C      3.417120    2.101350   -0.880140
  C      3.231720    3.020900   -1.953970
  C      2.255270    3.974600   -1.920300
  C      1.416650    4.061670   -0.786250
  C      4.242430    2.764460   -2.992700
  O      4.366600    3.298110   -4.070480
  C      5.150710    1.730660   -2.407570
  C      4.505120    1.193060   -1.227070
  C      4.691050   -0.051470   -0.684050
  C      5.611650   -0.994300   -1.179960
  N      6.336810   -1.795880   -1.567540
  C      3.913870   -0.567410    0.374700
  N      3.304820   -1.036820    1.226170
  C      6.375000    1.551290   -2.971350
  C      7.531110    0.956460   -2.414370
  C      7.828770    0.715170   -1.081430
  C      9.090730    0.156810   -0.920180
  C      9.772260   -0.024020   -2.138530
  S      8.860570    0.504510   -3.472980
  C     11.046750   -0.590090   -1.865560
  C     11.156520   -0.772800   -0.471980
  C      9.928410   -0.326450    0.164670
  C      9.601480   -0.371980    1.487650
  C     10.481060   -0.879070    2.467510
  N     11.194290   -1.286780    3.266790
  C      8.350940    0.089920    1.950830
  N      7.333840    0.475920    2.313320
  C     12.389050   -1.298900   -0.103650
  C     13.199710   -1.518870   -1.207900
  S     12.440040   -1.073080   -2.720300
  C     14.539200   -1.990470   -1.122760
  C     15.468900   -2.427820   -2.065050
  C     15.191500   -2.607740   -3.490360
  O     14.356360   -1.960930   -4.073770
  O     15.873180   -3.566440   -4.131880
  C     16.632550   -2.705260   -1.273700
  N     16.372440   -2.479540   -0.004600
  O     15.098750   -2.060350    0.095850
  C     17.975930   -3.061660   -1.649870
  C     18.938840   -3.518270   -0.776050
  C     20.182020   -3.652550   -1.399640
  C     20.155840   -3.278200   -2.752960
  S     18.610410   -2.768400   -3.260780
  C     21.457040   -3.414990   -3.303260
  C     22.310360   -3.877780   -2.277130
  C     21.536920   -4.053550   -1.055780
  C     21.983410   -4.508490    0.148820
  C     23.329020   -4.880860    0.359170
  N     24.418020   -5.193950    0.529990
  C     21.129800   -4.654730    1.263610
  N     20.441440   -4.783840    2.170900
  C     23.615870   -4.019450   -2.711730
  C     23.768720   -3.689890   -4.062640
  S     22.246040   -3.196280   -4.796360
  C     25.024010   -3.734940   -4.696820
  C     25.358250   -3.515520   -6.005250
  C     26.696760   -3.572460   -6.570160
  C     27.880220   -3.635990   -5.883560
  C     29.149110   -3.661940   -6.501190
  N     30.208730   -3.687010   -6.941340
  C     28.012420   -3.647240   -4.478690
  N     28.198950   -3.643210   -3.345720
  C     26.563040   -3.485070   -8.020430
  C     25.186190   -3.301950   -8.339830
  C     24.750690   -3.181210   -9.628300
  C     25.691690   -3.244120  -10.679980
  C     25.303410   -3.129200  -12.029140
  C     26.232560   -3.196790  -13.032000
  C     27.589690   -3.381390  -12.729050
  C     27.999830   -3.496630  -11.428340
  C     27.070140   -3.431910  -10.370970
  C     27.490620   -3.550610   -9.025840
  C     24.404430   -3.280690   -7.098730
  O     23.199500   -3.116050   -6.998150
  H      0.249860    5.706470   -1.522680
  H     -1.181050    5.845020    0.477450
  H     -0.842430    4.288390    2.356030
  H      0.928020    2.579590    2.250010
  H      2.761800    1.512810    1.074170
  H      2.125510    4.657100   -2.747030
  H      6.492580    1.993980   -3.956000
  H      7.170910    0.982090   -0.274840
  H     12.706900   -1.517680    0.899840
  H     16.456280   -4.078320   -3.555370
  H     18.719570   -3.728520    0.254250
  H     24.442470   -4.340810   -2.103040
  H     25.827290   -4.001470   -4.020120
  H     23.701470   -3.041420   -9.842440
  H     24.256960   -2.987260  -12.256240
  H     25.926580   -3.108540  -14.063620
  H     28.309740   -3.431990  -13.531860
  H     29.043820   -3.638090  -11.190360
  H     28.540360   -3.696430   -8.827100

 Total Charge           Charge          ....    0
 Multiplicity           Mult            ....    1
 Number of Electrons    NEL             ....  558
 Basis Dimension        Dim             .... 1231

ORBITAL ENERGIES
----------------

  NO   OCC          E(Eh)            E(eV)
   0   2.0000     -89.012748     -2422.1600
   1   2.0000     -89.000829     -2421.8357
   2   2.0000     -88.999648     -2421.8035
   3   2.0000     -88.999522     -2421.8001
   4   2.0000     -19.343995      -526.3769
   5   2.0000     -19.288218      -524.8591
   6   2.0000     -19.232963      -523.3555
   7   2.0000     -19.229286      -523.2555
   8   2.0000     -19.217296      -522.9292
   9   2.0000     -14.483029      -394.1033
  10   2.0000     -14.437942      -392.8764
  11   2.0000     -14.437669      -392.8689
  12   2.0000     -14.435385      -392.8068
  13   2.0000     -14.433649      -392.7596
  14   2.0000     -14.422524      -392.4568
  15   2.0000     -14.419967      -392.3873
  16   2.0000     -14.419784      -392.3823
  17   2.0000     -14.414779      -392.2461
  18   2.0000     -10.437780      -284.0264
  19   2.0000     -10.392197      -282.7861
  20   2.0000     -10.380422      -282.4656
  21   2.0000     -10.375785      -282.3395
  22   2.0000     -10.370242      -282.1886
  23   2.0000     -10.368752      -282.1481
  24   2.0000     -10.362794      -281.9860
  25   2.0000     -10.357903      -281.8529
  26   2.0000     -10.356731      -281.8210
  27   2.0000     -10.350023      -281.6384
  28   2.0000     -10.348827      -281.6059
  29   2.0000     -10.347930      -281.5815
  30   2.0000     -10.347502      -281.5698
  31   2.0000     -10.346113      -281.5321
  32   2.0000     -10.345238      -281.5082
  33   2.0000     -10.344441      -281.4866
  34   2.0000     -10.342406      -281.4312
  35   2.0000     -10.339070      -281.3404
  36   2.0000     -10.338928      -281.3365
  37   2.0000     -10.337273      -281.2915
  38   2.0000     -10.337011      -281.2844
  39   2.0000     -10.336568      -281.2723
  40   2.0000     -10.335673      -281.2480
  41   2.0000     -10.335550      -281.2446
  42   2.0000     -10.333397      -281.1860
  43   2.0000     -10.332729      -281.1678
  44   2.0000     -10.327770      -281.0329
  45   2.0000     -10.324826      -280.9528
  46   2.0000     -10.322746      -280.8962
  47   2.0000     -10.322543      -280.8907
  48   2.0000     -10.321168      -280.8533
  49   2.0000     -10.321005      -280.8488
  50   2.0000     -10.320576      -280.8372
  51   2.0000     -10.319628      -280.8114
  52   2.0000     -10.317167      -280.7444
  53   2.0000     -10.317059      -280.7415
  54   2.0000     -10.315490      -280.6988
  55   2.0000     -10.315355      -280.6951
  56   2.0000     -10.312879      -280.6277
  57   2.0000     -10.312730      -280.6236
  58   2.0000     -10.309923      -280.5473
  59   2.0000     -10.308782      -280.5162
  60   2.0000     -10.305321      -280.4221
  61   2.0000     -10.304625      -280.4031
  62   2.0000     -10.304489      -280.3994
  63   2.0000     -10.304356      -280.3958
  64   2.0000     -10.304222      -280.3921
  65   2.0000     -10.303428      -280.3705
  66   2.0000     -10.298743      -280.2431
  67   2.0000     -10.298623      -280.2398
  68   2.0000     -10.298332      -280.2319
  69   2.0000     -10.297562      -280.2109
  70   2.0000     -10.297068      -280.1975
  71   2.0000     -10.292814      -280.0817
  72   2.0000     -10.292337      -280.0687
  73   2.0000     -10.291983      -280.0591
  74   2.0000     -10.291447      -280.0445
  75   2.0000     -10.290992      -280.0321
  76   2.0000     -10.287222      -279.9295
  77   2.0000     -10.286734      -279.9163
  78   2.0000     -10.286276      -279.9038
  79   2.0000     -10.285622      -279.8860
  80   2.0000      -8.107104      -220.6055
  81   2.0000      -8.094297      -220.2570
  82   2.0000      -8.093439      -220.2337
  83   2.0000      -8.091789      -220.1888
  84   2.0000      -6.076278      -165.3439
  85   2.0000      -6.072066      -165.2293
  86   2.0000      -6.069637      -165.1632
  87   2.0000      -6.063402      -164.9936
  88   2.0000      -6.062888      -164.9796
  89   2.0000      -6.061231      -164.9345
  90   2.0000      -6.059263      -164.8809
  91   2.0000      -6.058200      -164.8520
  92   2.0000      -6.056837      -164.8149
  93   2.0000      -6.056407      -164.8032
  94   2.0000      -6.055884      -164.7890
  95   2.0000      -6.054395      -164.7485
  96   2.0000      -1.284456       -34.9518
  97   2.0000      -1.213332       -33.0165
  98   2.0000      -1.148317       -31.2473
  99   2.0000      -1.132870       -30.8270
 100   2.0000      -1.128052       -30.6958
 101   2.0000      -1.059544       -28.8317
 102   2.0000      -1.054025       -28.6815
 103   2.0000      -1.031155       -28.0592
 104   2.0000      -1.027037       -27.9471
 105   2.0000      -1.025306       -27.9000
 106   2.0000      -1.022195       -27.8153
 107   2.0000      -1.020202       -27.7611
 108   2.0000      -1.014925       -27.6175
 109   2.0000      -1.012315       -27.5465
 110   2.0000      -1.009771       -27.4773
 111   2.0000      -1.006023       -27.3753
 112   2.0000      -1.000637       -27.2287
 113   2.0000      -0.999572       -27.1997
 114   2.0000      -0.995378       -27.0856
 115   2.0000      -0.993617       -27.0377
 116   2.0000      -0.978989       -26.6396
 117   2.0000      -0.974466       -26.5166
 118   2.0000      -0.969801       -26.3896
 119   2.0000      -0.965729       -26.2788
 120   2.0000      -0.942010       -25.6334
 121   2.0000      -0.934671       -25.4337
 122   2.0000      -0.928160       -25.2565
 123   2.0000      -0.924667       -25.1615
 124   2.0000      -0.917636       -24.9701
 125   2.0000      -0.906087       -24.6559
 126   2.0000      -0.899944       -24.4887
 127   2.0000      -0.888647       -24.1813
 128   2.0000      -0.886862       -24.1327
 129   2.0000      -0.882842       -24.0234
 130   2.0000      -0.881087       -23.9756
 131   2.0000      -0.876189       -23.8423
 132   2.0000      -0.870832       -23.6965
 133   2.0000      -0.867489       -23.6056
 134   2.0000      -0.865978       -23.5644
 135   2.0000      -0.835410       -22.7327
 136   2.0000      -0.833676       -22.6855
 137   2.0000      -0.829428       -22.5699
 138   2.0000      -0.824042       -22.4233
 139   2.0000      -0.805717       -21.9247
 140   2.0000      -0.801169       -21.8009
 141   2.0000      -0.789454       -21.4821
 142   2.0000      -0.783477       -21.3195
 143   2.0000      -0.772748       -21.0275
 144   2.0000      -0.770661       -20.9707
 145   2.0000      -0.762788       -20.7565
 146   2.0000      -0.755526       -20.5589
 147   2.0000      -0.742538       -20.2055
 148   2.0000      -0.731069       -19.8934
 149   2.0000      -0.723241       -19.6804
 150   2.0000      -0.717877       -19.5344
 151   2.0000      -0.712161       -19.3789
 152   2.0000      -0.708726       -19.2854
 153   2.0000      -0.706926       -19.2364
 154   2.0000      -0.703803       -19.1514
 155   2.0000      -0.702534       -19.1169
 156   2.0000      -0.693383       -18.8679
 157   2.0000      -0.691758       -18.8237
 158   2.0000      -0.689774       -18.7697
 159   2.0000      -0.684574       -18.6282
 160   2.0000      -0.677269       -18.4294
 161   2.0000      -0.668563       -18.1925
 162   2.0000      -0.661159       -17.9910
 163   2.0000      -0.657471       -17.8907
 164   2.0000      -0.651543       -17.7294
 165   2.0000      -0.641815       -17.4647
 166   2.0000      -0.639444       -17.4002
 167   2.0000      -0.634586       -17.2680
 168   2.0000      -0.632246       -17.2043
 169   2.0000      -0.628464       -17.1014
 170   2.0000      -0.626457       -17.0468
 171   2.0000      -0.621472       -16.9111
 172   2.0000      -0.613461       -16.6931
 173   2.0000      -0.610247       -16.6057
 174   2.0000      -0.609040       -16.5728
 175   2.0000      -0.605957       -16.4889
 176   2.0000      -0.603422       -16.4200
 177   2.0000      -0.599550       -16.3146
 178   2.0000      -0.591139       -16.0857
 179   2.0000      -0.577767       -15.7218
 180   2.0000      -0.570971       -15.5369
 181   2.0000      -0.566669       -15.4198
 182   2.0000      -0.562474       -15.3057
 183   2.0000      -0.559265       -15.2184
 184   2.0000      -0.559242       -15.2178
 185   2.0000      -0.556192       -15.1347
 186   2.0000      -0.555254       -15.1092
 187   2.0000      -0.554084       -15.0774
 188   2.0000      -0.549113       -14.9421
 189   2.0000      -0.547525       -14.8989
 190   2.0000      -0.547273       -14.8920
 191   2.0000      -0.544233       -14.8093
 192   2.0000      -0.540116       -14.6973
 193   2.0000      -0.538757       -14.6603
 194   2.0000      -0.533456       -14.5161
 195   2.0000      -0.531872       -14.4730
 196   2.0000      -0.530610       -14.4386
 197   2.0000      -0.527169       -14.3450
 198   2.0000      -0.524072       -14.2607
 199   2.0000      -0.520613       -14.1666
 200   2.0000      -0.517171       -14.0729
 201   2.0000      -0.516540       -14.0558
 202   2.0000      -0.516255       -14.0480
 203   2.0000      -0.513122       -13.9628
 204   2.0000      -0.511342       -13.9143
 205   2.0000      -0.509831       -13.8732
 206   2.0000      -0.509471       -13.8634
 207   2.0000      -0.507208       -13.8018
 208   2.0000      -0.505825       -13.7642
 209   2.0000      -0.504853       -13.7377
 210   2.0000      -0.502375       -13.6703
 211   2.0000      -0.501965       -13.6592
 212   2.0000      -0.495050       -13.4710
 213   2.0000      -0.492688       -13.4067
 214   2.0000      -0.492289       -13.3959
 215   2.0000      -0.489654       -13.3242
 216   2.0000      -0.489393       -13.3171
 217   2.0000      -0.486154       -13.2289
 218   2.0000      -0.483155       -13.1473
 219   2.0000      -0.479746       -13.0546
 220   2.0000      -0.473975       -12.8975
 221   2.0000      -0.469385       -12.7726
 222   2.0000      -0.467039       -12.7088
 223   2.0000      -0.466321       -12.6892
 224   2.0000      -0.465049       -12.6546
 225   2.0000      -0.462094       -12.5742
 226   2.0000      -0.461909       -12.5692
 227   2.0000      -0.456111       -12.4114
 228   2.0000      -0.454876       -12.3778
 229   2.0000      -0.452630       -12.3167
 230   2.0000      -0.451568       -12.2878
 231   2.0000      -0.450445       -12.2572
 232   2.0000      -0.448247       -12.1974
 233   2.0000      -0.447274       -12.1709
 234   2.0000      -0.446997       -12.1634
 235   2.0000      -0.446475       -12.1492
 236   2.0000      -0.445833       -12.1317
 237   2.0000      -0.444304       -12.0901
 238   2.0000      -0.443328       -12.0636
 239   2.0000      -0.442896       -12.0518
 240   2.0000      -0.441345       -12.0096
 241   2.0000      -0.440647       -11.9906
 242   2.0000      -0.440082       -11.9753
 243   2.0000      -0.437229       -11.8976
 244   2.0000      -0.433692       -11.8013
 245   2.0000      -0.433118       -11.7857
 246   2.0000      -0.432383       -11.7657
 247   2.0000      -0.432277       -11.7629
 248   2.0000      -0.430742       -11.7211
 249   2.0000      -0.427525       -11.6336
 250   2.0000      -0.422469       -11.4960
 251   2.0000      -0.421634       -11.4732
 252   2.0000      -0.419148       -11.4056
 253   2.0000      -0.415978       -11.3193
 254   2.0000      -0.413523       -11.2525
 255   2.0000      -0.411782       -11.2052
 256   2.0000      -0.411034       -11.1848
 257   2.0000      -0.408885       -11.1263
 258   2.0000      -0.404733       -11.0134
 259   2.0000      -0.395044       -10.7497
 260   2.0000      -0.390205       -10.6180
 261   2.0000      -0.380707       -10.3596
 262   2.0000      -0.377591       -10.2748
 263   2.0000      -0.375832       -10.2269
 264   2.0000      -0.366590        -9.9754
 265   2.0000      -0.363279        -9.8853
 266   2.0000      -0.354629        -9.6499
 267   2.0000      -0.349078        -9.4989
 268   2.0000      -0.344167        -9.3653
 269   2.0000      -0.340019        -9.2524
 270   2.0000      -0.332781        -9.0554
 271   2.0000      -0.331282        -9.0146
 272   2.0000      -0.325649        -8.8614
 273   2.0000      -0.324218        -8.8224
 274   2.0000      -0.317238        -8.6325
 275   2.0000      -0.301913        -8.2155
 276   2.0000      -0.296194        -8.0598
 277   2.0000      -0.281076        -7.6485
 278   2.0000      -0.273053        -7.4301
 279   0.0000      -0.120428        -3.2770
 280   0.0000      -0.115214        -3.1351
 281   0.0000      -0.096592        -2.6284
 282   0.0000      -0.092014        -2.5038
 283   0.0000      -0.068612        -1.8670

MULLIKEN ATOMIC CHARGES
-----------------------
   0 C :   -0.015885
   1 C :    0.034087
   2 C :    0.035899
   3 C :   -0.015582
   4 C :    0.090215
   5 C :   -0.075334
   6 C :    0.027520
   7 C :    0.018794
   8 C :   -0.080147
   9 C :    0.094275
  10 C :    0.136542
  11 O :   -0.143093
  12 C :   -0.138977
  13 C :    0.266123
  14 C :   -0.325064
  15 C :   -0.201683
  16 N :    0.167004
  17 C :   -0.171624
  18 N :    0.161592
  19 C :    0.084487
  20 C :   -0.111024
  21 C :    0.001391
  22 C :   -0.004616
  23 C :   -0.076595
  24 S :    0.223197
  25 C :   -0.076568
  26 C :    0.038119
  27 C :    0.305115
  28 C :   -0.287954
  29 C :   -0.195841
  30 N :    0.184166
  31 C :   -0.183725
  32 N :    0.173990
  33 C :   -0.044016
  34 C :   -0.126092
  35 S :    0.258097
  36 C :    0.210764
  37 C :   -0.190881
  38 C :    0.184130
  39 O :   -0.197065
  40 O :   -0.147679
  41 C :    0.039081
  42 N :    0.022358
  43 O :   -0.161581
  44 C :   -0.149876
  45 C :   -0.017683
  46 C :    0.029486
  47 C :   -0.103394
  48 S :    0.199702
  49 C :   -0.071952
  50 C :    0.048243
  51 C :    0.298131
  52 C :   -0.289879
  53 C :   -0.195063
  54 N :    0.190555
  55 C :   -0.193860
  56 N :    0.189788
  57 C :   -0.055354
  58 C :   -0.055632
  59 S :    0.251175
  60 C :   -0.025860
  61 C :   -0.091072
  62 C :    0.322125
  63 C :   -0.341377
  64 C :   -0.185745
  65 N :    0.152978
  66 C :   -0.200956
  67 N :    0.159969
  68 C :    0.042358
  69 C :   -0.003933
  70 C :   -0.076758
  71 C :    0.095680
  72 C :   -0.014318
  73 C :    0.035915
  74 C :    0.035550
  75 C :   -0.018249
  76 C :    0.094655
  77 C :   -0.078567
  78 C :    0.174418
  79 O :   -0.193086
  80 H :   -0.016643
  81 H :   -0.003604
  82 H :   -0.003107
  83 H :   -0.007340
  84 H :    0.001391
  85 H :   -0.010770
  86 H :    0.021112
  87 H :    0.026853
  88 H :    0.027726
  89 H :    0.184068
  90 H :    0.031412
  91 H :    0.028203
  92 H :    0.021372
  93 H :   -0.012283
  94 H :   -0.015836
  95 H :   -0.002972
  96 H :   -0.001053
  97 H :   -0.007004
  98 H :   -0.005561
Sum of atomic charges:    0.0000000

LOEWDIN ATOMIC CHARGES
----------------------
   0 C :   -0.009465
   1 C :   -0.012387
   2 C :   -0.012085
   3 C :   -0.005030
   4 C :   -0.004797
   5 C :    0.019654
   6 C :   -0.023108
   7 C :   -0.058312
   8 C :    0.033370
   9 C :   -0.008981
  10 C :    0.084085
  11 O :   -0.142967
  12 C :   -0.084670
  13 C :    0.065023
  14 C :   -0.134274
  15 C :   -0.016082
  16 N :   -0.045894
  17 C :   -0.018516
  18 N :   -0.044314
  19 C :    0.040728
  20 C :   -0.176287
  21 C :    0.006629
  22 C :   -0.060061
  23 C :   -0.165276
  24 S :    0.506687
  25 C :   -0.177333
  26 C :   -0.066482
  27 C :    0.080145
  28 C :   -0.096516
  29 C :   -0.019463
  30 N :   -0.023830
  31 C :   -0.012927
  32 N :   -0.031302
  33 C :    0.003817
  34 C :   -0.204974
  35 S :    0.558226
  36 C :    0.074429
  37 C :   -0.171182
  38 C :    0.079965
  39 O :   -0.173622
  40 O :   -0.017506
  41 C :   -0.048326
  42 N :   -0.029357
  43 O :    0.046122
  44 C :   -0.194662
  45 C :    0.003193
  46 C :   -0.057533
  47 C :   -0.179332
  48 S :    0.497509
  49 C :   -0.174951
  50 C :   -0.073774
  51 C :    0.074103
  52 C :   -0.092352
  53 C :   -0.019402
  54 N :   -0.019363
  55 C :   -0.020283
  56 N :   -0.019618
  57 C :    0.010838
  58 C :   -0.180421
  59 S :    0.554324
  60 C :    0.057296
  61 C :   -0.103925
  62 C :    0.075801
  63 C :   -0.137136
  64 C :   -0.017552
  65 N :   -0.050012
  66 C :   -0.024153
  67 N :   -0.045767
  68 C :   -0.025136
  69 C :   -0.056981
  70 C :    0.034332
  71 C :   -0.008944
  72 C :   -0.008853
  73 C :   -0.010819
  74 C :   -0.011014
  75 C :   -0.004519
  76 C :   -0.005274
  77 C :    0.021403
  78 C :    0.087669
  79 O :   -0.175737
  80 H :    0.031992
  81 H :    0.033123
  82 H :    0.033710
  83 H :    0.035509
  84 H :    0.040886
  85 H :    0.039610
  86 H :    0.046065
  87 H :    0.042812
  88 H :    0.047828
  89 H :    0.076813
  90 H :    0.051177
  91 H :    0.048325
  92 H :    0.054440
  93 H :    0.039293
  94 H :    0.032263
  95 H :    0.033679
  96 H :    0.034445
  97 H :    0.035613
  98 H :    0.039908

  Mayer bond orders larger than 0.100000
B(  0-C ,  1-C ) :   1.4899 B(  0-C ,  9-C ) :   1.2442 B(  0-C , 80-H ) :   0.9973
B(  1-C ,  2-C ) :   1.2613 B(  1-C , 81-H ) :   0.9889 B(  2-C ,  3-C ) :   1.4886
B(  2-C , 82-H ) :   0.9884 B(  3-C ,  4-C ) :   1.2435 B(  3-C , 83-H ) :   0.9972
B(  4-C ,  5-C ) :   1.2054 B(  4-C ,  9-C ) :   1.2557 B(  5-C ,  6-C ) :   1.4610
B(  5-C , 84-H ) :   0.9938 B(  6-C ,  7-C ) :   1.2134 B(  6-C , 13-C ) :   0.9979
B(  7-C ,  8-C ) :   1.4717 B(  7-C , 10-C ) :   0.9237 B(  8-C ,  9-C ) :   1.1871
B(  8-C , 85-H ) :   1.0157 B( 10-C , 11-O ) :   2.2670 B( 10-C , 12-C ) :   0.9362
B( 12-C , 13-C ) :   1.0306 B( 12-C , 19-C ) :   1.6881 B( 13-C , 14-C ) :   1.6544
B( 14-C , 15-C ) :   1.1709 B( 14-C , 17-C ) :   1.1279 B( 15-C , 16-N ) :   2.9954
B( 17-C , 18-N ) :   2.9944 B( 19-C , 20-C ) :   1.1245 B( 19-C , 86-H ) :   0.9274
B( 20-C , 21-C ) :   1.4035 B( 20-C , 24-S ) :   1.0993 B( 21-C , 22-C ) :   1.3515
B( 21-C , 87-H ) :   0.9788 B( 22-C , 23-C ) :   1.4220 B( 22-C , 27-C ) :   0.9992
B( 23-C , 24-S ) :   1.1525 B( 23-C , 25-C ) :   1.1819 B( 25-C , 26-C ) :   1.4038
B( 25-C , 35-S ) :   1.1182 B( 26-C , 27-C ) :   0.9818 B( 26-C , 33-C ) :   1.2945
B( 27-C , 28-C ) :   1.7237 B( 28-C , 29-C ) :   1.1339 B( 28-C , 31-C ) :   1.1337
B( 29-C , 30-N ) :   2.9982 B( 31-C , 32-N ) :   2.9834 B( 33-C , 34-C ) :   1.4007
B( 33-C , 88-H ) :   1.0113 B( 34-C , 35-S ) :   1.1201 B( 34-C , 36-C ) :   1.1356
B( 36-C , 37-C ) :   1.4650 B( 36-C , 43-O ) :   1.2144 B( 37-C , 38-C ) :   0.9400
B( 37-C , 41-C ) :   1.1473 B( 38-C , 39-O ) :   2.0713 B( 38-C , 40-O ) :   1.2641
B( 40-O , 89-H ) :   0.9388 B( 41-C , 42-N ) :   1.7469 B( 41-C , 44-C ) :   1.0157
B( 42-N , 43-O ) :   0.9889 B( 44-C , 45-C ) :   1.4918 B( 44-C , 48-S ) :   1.1140
B( 45-C , 46-C ) :   1.2493 B( 45-C , 90-H ) :   1.0104 B( 46-C , 47-C ) :   1.4378
B( 46-C , 51-C ) :   0.9872 B( 47-C , 48-S ) :   1.1180 B( 47-C , 49-C ) :   1.1943
B( 49-C , 50-C ) :   1.3699 B( 49-C , 59-S ) :   1.1239 B( 50-C , 51-C ) :   0.9879
B( 50-C , 57-C ) :   1.3239 B( 51-C , 52-C ) :   1.7272 B( 52-C , 53-C ) :   1.1357
B( 52-C , 55-C ) :   1.1324 B( 53-C , 54-N ) :   2.9951 B( 55-C , 56-N ) :   2.9985
B( 57-C , 58-C ) :   1.3419 B( 57-C , 91-H ) :   1.0073 B( 58-C , 59-S ) :   1.0805
B( 58-C , 60-C ) :   1.2488 B( 60-C , 61-C ) :   1.5156 B( 60-C , 92-H ) :   0.9427
B( 61-C , 62-C ) :   1.0644 B( 61-C , 78-C ) :   0.9798 B( 62-C , 63-C ) :   1.6356
B( 62-C , 68-C ) :   0.9893 B( 63-C , 64-C ) :   1.1462 B( 63-C , 66-C ) :   1.1428
B( 64-C , 65-N ) :   2.9657 B( 66-C , 67-N ) :   2.9736 B( 68-C , 69-C ) :   1.2132
B( 68-C , 77-C ) :   1.4556 B( 69-C , 70-C ) :   1.4665 B( 69-C , 78-C ) :   0.9672
B( 70-C , 71-C ) :   1.1782 B( 70-C , 93-H ) :   1.0171 B( 71-C , 72-C ) :   1.2458
B( 71-C , 76-C ) :   1.2562 B( 72-C , 73-C ) :   1.4857 B( 72-C , 94-H ) :   0.9980
B( 73-C , 74-C ) :   1.2618 B( 73-C , 95-H ) :   0.9896 B( 74-C , 75-C ) :   1.4874
B( 74-C , 96-H ) :   0.9889 B( 75-C , 76-C ) :   1.2413 B( 75-C , 97-H ) :   0.9975
B( 76-C , 77-C ) :   1.2037 B( 77-C , 98-H ) :   0.9895 B( 78-C , 79-O ) :   2.1034

-----------------------------------------------------------------------------
         ABSORPTION SPECTRUM VIA TRANSITION ELECTRIC DIPOLE MOMENTS
-----------------------------------------------------------------------------
State   Energy  Wavelength   fosc         T2         TX        TY        TZ
        (cm-1)    (nm)                  (au**2)     (au)      (au)      (au)
-----------------------------------------------------------------------------
   0   15623.7    640.1   0.341004138   7.18541  -2.56923   0.70881   0.28647
   1   16375.2    610.7   0.194036443   3.90097   1.63554  -0.08064  -1.10431
   2   21499.0    465.1   1.178816922  18.05113  -4.12602   0.79935   0.62301
   3   22914.8    436.4   0.898445716  12.90777   2.65128   0.03007  -2.42438
   4   23457.4    426.3   0.008439776   0.11845  -0.28394  -0.11033   0.16016
   5   25056.5    399.1   0.027213160   0.35755  -0.27582   0.52353   0.08595
   6   25739.9    388.5   0.146075654   1.86830   0.65735  -0.04602  -1.19753
   7   26613.0    375.8   0.006618424   0.08187  -0.18197   0.01981   0.21992
   8   27499.1    363.6   0.023360859   0.27967  -0.47017   0.02546   0.24076
   9   27889.3    358.6   0.000649385   0.00767  -0.07533   0.04288  -0.01233
  10   28392.4    352.2   0.123938733   1.43708  -0.48886   0.04551   1.09363
  11   28588.4    349.8   0.014357657   0.16534   0.23117  -0.31824  -0.10305
  12   28831.2    346.8   0.016669371   0.19034  -0.01256   0.43079  -0.06786
  13   29182.9    342.7   0.081438330   0.91871  -0.82437   0.47698  -0.10777
  14   29564.7    338.2   0.540300816   6.01641   2.00827  -1.22539   0.69402
  15   30079.4    332.5   0.538903892   5.89818  -1.74872   1.15369   1.22847
  16   30330.0    329.7   0.145307842   1.57722   0.00449  -0.04358   1.25511
  17   30729.1    325.4   0.159762082   1.71159   0.16616  -0.33668   1.25325
  18   30834.3    324.3   0.337505508   3.60348   0.07954  -0.75958   1.73787
  19   30909.0    323.5   0.012405033   0.13213  -0.12645   0.12768  -0.31596
  20   31954.4    312.9   0.417011791   4.29629  -1.24744   0.66890  -1.51419
  21   32033.1    312.2   0.309048817   3.17617  -1.29829   0.73191   0.97721
  22   32367.2    309.0   0.027878122   0.28355   0.18806  -0.05121  -0.49555
  23   32547.6    307.2   0.154738297   1.56514   0.52365  -0.11290   1.13057
  24   32803.2    304.8   0.252553483   2.53462  -0.52993   0.13037   1.49559
  25   33070.6    302.4   0.268935100   2.67720   1.52318  -0.53954  -0.25694
  26   33298.0    300.3   0.076187476   0.75325  -0.06394   0.17393  -0.84789
  27   33365.0    299.7   0.133392699   1.31618  -1.09648   0.29184  -0.16953
  28   33717.5    296.6   0.040359845   0.39407  -0.10305  -0.15045   0.60067
  29   34116.6    293.1   0.318749484   3.07581  -0.87346   1.34105   0.71727
  30   34674.0    288.4   0.164869638   1.56535  -0.27504   0.59725  -1.06443
  31   34760.8    287.7   0.045286162   0.42889  -0.30364   0.24675  -0.52518
  32   34882.3    286.7   0.379345737   3.58018   0.39449  -0.53861   1.77044
  33   35029.3    285.5   0.215844684   2.02855   0.98658  -1.02718  -0.01073
  34   35262.7    283.6   0.216301328   2.01939  -0.20106   0.20754  -1.39136
  35   35458.5    282.0   0.126728106   1.17660   0.15534  -0.08919   1.06982
  36   35935.7    278.3   0.050764966   0.46506  -0.60922   0.29047  -0.09767
  37   36273.5    275.7   0.001679403   0.01524  -0.09890  -0.07346  -0.00802
  38   36599.1    273.2   0.111261262   1.00081   0.91771   0.29631   0.26612
  39   36690.5    272.6   0.293819291   2.63635   1.52809  -0.45135  -0.31237
  40   37030.1    270.1   0.012314860   0.10948  -0.12267   0.05949  -0.30149
  41   37708.8    265.2   0.034382493   0.30017  -0.42143  -0.03575   0.34827
  42   37814.3    264.5   0.005739415   0.04997   0.16229   0.02998  -0.15076
  43   37846.4    264.2   0.020323525   0.17679   0.12815  -0.10023  -0.38771
  44   38158.6    262.1   0.001067903   0.00921  -0.06600  -0.00725   0.06931
  45   38229.1    261.6   0.185696045   1.59913  -1.19114   0.19378  -0.37783
  46   38441.1    260.1   0.013250154   0.11348   0.20828  -0.21220   0.15832
  47   38789.1    257.8   0.010909535   0.09259   0.30127  -0.03741   0.02077
  48   39101.0    255.7   0.018146853   0.15279  -0.07996  -0.13864  -0.35661
  49   39173.6    255.3   0.051487716   0.43270  -0.19824   0.31505  -0.54235
  50   39400.6    253.8   0.006284180   0.05251  -0.07668   0.17444   0.12727
  51   39822.0    251.1   0.098725393   0.81617   0.42738   0.20294  -0.76963
  52   39898.5    250.6   0.021557123   0.17787   0.22010   0.19502   0.30231
  53   40008.2    249.9   0.067616999   0.55639   0.02760  -0.62996   0.39848

FINAL SINGLE POINT ENERGY     -4830.915897583558

DIPOLE MOMENT
-------------
                                X             Y             Z
Electronic contribution:     12.62238     -14.53396      19.95576
Nuclear contribution   :    -13.82279      16.38741     -24.11075
                        -----------------------------------------
Total Dipole Moment    :     -1.20042       1.85345      -4.15499
                        -----------------------------------------
Magnitude (a.u.)       :      4.70534
Magnitude (Debye)      :     11.96002

Rotational constants in cm-1:     0.001733     0.000166     0.000154
Rotational constants in MHz :    51.955783     4.976234     4.611315

                             ****ORCA TERMINATED NORMALLY****
TOTAL RUN TIME: 0 days 0 hours 10 minutes 42 seconds 628 msec
