                         Program Version 4.2.0 -  RELEASE  -
|  1> # ORCA input file
|  2> # SCF done       -200.991976943441          0.000782859759
|  3> ! CAM-B3LYP def2-SVP def2/J RIJCOSX Grid4 TightSCF
|  4> %maxcore 5000
|  5> %tddft
|  6>     Mode sTDDFT
|  7>     Ethresh 5.0
|  8>     maxcore 5000
|  9> end
| 10>
| 11> %pal
| 12>   nprocs 6
| 13>   end
| 14> * xyz 0 1
| 15>    C       -0.09872         3.76411        -2.00705
| 16>    C       -0.65069         4.22126        -3.17296
| 17>    C        0.14730         4.39811        -4.31320
| 18>    C        1.48576         4.11657        -4.27214
| 19>    C        2.08782         3.64782        -3.08692
| 20>    C        3.47330         3.37071        -3.03517
| 21>    C        4.02561         2.92538        -1.86473
| 22>    C        3.20357         2.71870        -0.71818
| 23>    C        1.86456         2.98454        -0.73857
| 24>    C        1.27578         3.46477        -1.93002
| 25>    C        4.02745         2.18978         0.38059
| 26>    O        3.69622         1.93992         1.51648
| 27>    C        5.37846         1.96007        -0.21623
| 28>    C        5.40561         2.60681        -1.51259
| 29>    C        6.50830         3.08153        -2.17440
| 30>    C        7.82791         2.97121        -1.69650
| 31>    N        8.91812         2.92966        -1.33782
| 32>    C        6.44407         3.82864        -3.36980
| 33>    N        6.45065         4.44527        -4.33745
| 34>    C        6.26211         1.17806         0.46027
| 35>    C        7.42440         0.53350        -0.02222
| 36>    C        7.76221         0.21056        -1.32834
| 37>    C        8.99633        -0.42135        -1.40890
| 38>    C        9.60928        -0.59266        -0.15198
| 39>    S        8.64961        -0.00074         1.12113
| 40>    C       10.88125        -1.18976        -0.34852
| 41>    C       11.06735        -1.39260        -1.73237
| 42>    C        9.89452        -0.91184        -2.44121
| 43>    C        9.68698        -0.87434        -3.78895
| 44>    C       10.63513        -1.36011        -4.71380
| 45>    N       11.39968        -1.76009        -5.46875
| 46>    C        8.50230        -0.33658        -4.33502
| 47>    N        7.53364         0.10133        -4.76530
| 48>    C       12.30921        -1.94756        -2.03208
| 49>    C       13.05392        -2.15911        -0.88688
| 50>    S       12.22582        -1.68115         0.57801
| 51>    C       14.38604        -2.65224        -0.77646
| 52>    N       14.90857        -2.71885         0.44063
| 53>    N       16.12866        -3.07616         0.67871
| 54>    C       16.97853        -3.40708        -0.28505
| 55>    C       16.52902        -3.41930        -1.63526
| 56>    C       15.17853        -3.03044        -1.89753
| 57>    N       14.88903        -3.08094        -3.19430
| 58>    S       16.19115        -3.57018        -3.99948
| 59>    N       17.18711        -3.73951        -2.74439
| 60>    C       18.32873        -3.70037         0.06992
| 61>    C       18.86522        -3.67126         1.34617
| 62>    C       20.23112        -3.93498         1.33184
| 63>    C       20.72552        -4.16917         0.03171
| 64>    S       19.51000        -4.07328        -1.16355
| 65>    C       22.12349        -4.37930         0.11447
| 66>    C       22.51645        -4.26988         1.46558
| 67>    C       21.33562        -4.01668         2.27570
| 68>    C       21.27608        -3.89638         3.63181
| 69>    C       22.41173        -4.04255         4.45867
| 70>    N       23.31383        -4.17524         5.15316
| 71>    C       20.06593        -3.64581         4.31485
| 72>    N       19.09141        -3.44211         4.88281
| 73>    C       23.88892        -4.38645         1.64658
| 74>    C       24.55756        -4.58639         0.44728
| 75>    S       23.44100        -4.67540        -0.91903
| 76>    C       25.93293        -4.75349         0.17259
| 77>    C       26.99477        -4.32231         0.91526
| 78>    C       28.38691        -4.60921         0.61794
| 79>    C       28.85109        -5.62137        -0.18158
| 80>    C       30.21830        -5.87305        -0.41987
| 81>    N       31.31344        -6.12114        -0.65886
| 82>    C       28.03738        -6.56592        -0.84154
| 83>    N       27.43790        -7.37883        -1.38831
| 84>    C       29.20891        -3.68852         1.39167
| 85>    C       28.35242        -2.90172         2.21302
| 86>    C       28.83858        -1.94511         3.05683
| 87>    C       30.23291        -1.72633         3.11768
| 88>    C       30.79322        -0.75369         3.96874
| 89>    C       32.14659        -0.55335         4.00593
| 90>    C       32.99840        -1.31834         3.19522
| 91>    C       32.48611        -2.27228         2.35841
| 92>    C       31.09718        -2.50477         2.29425
| 93>    C       30.56368        -3.48934         1.43094
| 94>    C       26.95022        -3.28622         1.98290
| 95>    O       25.97435        -2.79393         2.50682
| 96>    H       -0.70841         3.62547        -1.12620
| 97>    H       -1.70501         4.44859        -3.22302
| 98>    H       -0.30409         4.75971        -5.22488
| 99>    H        2.10517         4.25446        -5.14607
|100>    H        4.06318         3.50629        -3.92814
|101>    H        1.26100         2.83091         0.14361
|102>    H        6.00029         0.98503         1.49642
|103>    H        7.11441         0.39952        -2.16490
|104>    H       12.67758        -2.18578        -3.01363
|105>    H       18.26140        -3.45371         2.20782
|106>    H       24.38901        -4.33608         2.59490
|107>    H       26.14576        -5.24290        -0.77102
|108>    H       28.16667        -1.36396         3.67079
|109>    H       30.13203        -0.16811         4.59055
|110>    H       32.56789         0.19557         4.65970
|111>    H       34.06374        -1.14805         3.23712
|112>    H       33.13833        -2.86463         1.73360
|113>    H       31.24279        -4.05688         0.81458
|114> *
|115>
|116>                          ****END OF INPUT****

CARTESIAN COORDINATES (ANGSTROEM)
---------------------------------
  C     -0.098720    3.764110   -2.007050
  C     -0.650690    4.221260   -3.172960
  C      0.147300    4.398110   -4.313200
  C      1.485760    4.116570   -4.272140
  C      2.087820    3.647820   -3.086920
  C      3.473300    3.370710   -3.035170
  C      4.025610    2.925380   -1.864730
  C      3.203570    2.718700   -0.718180
  C      1.864560    2.984540   -0.738570
  C      1.275780    3.464770   -1.930020
  C      4.027450    2.189780    0.380590
  O      3.696220    1.939920    1.516480
  C      5.378460    1.960070   -0.216230
  C      5.405610    2.606810   -1.512590
  C      6.508300    3.081530   -2.174400
  C      7.827910    2.971210   -1.696500
  N      8.918120    2.929660   -1.337820
  C      6.444070    3.828640   -3.369800
  N      6.450650    4.445270   -4.337450
  C      6.262110    1.178060    0.460270
  C      7.424400    0.533500   -0.022220
  C      7.762210    0.210560   -1.328340
  C      8.996330   -0.421350   -1.408900
  C      9.609280   -0.592660   -0.151980
  S      8.649610   -0.000740    1.121130
  C     10.881250   -1.189760   -0.348520
  C     11.067350   -1.392600   -1.732370
  C      9.894520   -0.911840   -2.441210
  C      9.686980   -0.874340   -3.788950
  C     10.635130   -1.360110   -4.713800
  N     11.399680   -1.760090   -5.468750
  C      8.502300   -0.336580   -4.335020
  N      7.533640    0.101330   -4.765300
  C     12.309210   -1.947560   -2.032080
  C     13.053920   -2.159110   -0.886880
  S     12.225820   -1.681150    0.578010
  C     14.386040   -2.652240   -0.776460
  N     14.908570   -2.718850    0.440630
  N     16.128660   -3.076160    0.678710
  C     16.978530   -3.407080   -0.285050
  C     16.529020   -3.419300   -1.635260
  C     15.178530   -3.030440   -1.897530
  N     14.889030   -3.080940   -3.194300
  S     16.191150   -3.570180   -3.999480
  N     17.187110   -3.739510   -2.744390
  C     18.328730   -3.700370    0.069920
  C     18.865220   -3.671260    1.346170
  C     20.231120   -3.934980    1.331840
  C     20.725520   -4.169170    0.031710
  S     19.510000   -4.073280   -1.163550
  C     22.123490   -4.379300    0.114470
  C     22.516450   -4.269880    1.465580
  C     21.335620   -4.016680    2.275700
  C     21.276080   -3.896380    3.631810
  C     22.411730   -4.042550    4.458670
  N     23.313830   -4.175240    5.153160
  C     20.065930   -3.645810    4.314850
  N     19.091410   -3.442110    4.882810
  C     23.888920   -4.386450    1.646580
  C     24.557560   -4.586390    0.447280
  S     23.441000   -4.675400   -0.919030
  C     25.932930   -4.753490    0.172590
  C     26.994770   -4.322310    0.915260
  C     28.386910   -4.609210    0.617940
  C     28.851090   -5.621370   -0.181580
  C     30.218300   -5.873050   -0.419870
  N     31.313440   -6.121140   -0.658860
  C     28.037380   -6.565920   -0.841540
  N     27.437900   -7.378830   -1.388310
  C     29.208910   -3.688520    1.391670
  C     28.352420   -2.901720    2.213020
  C     28.838580   -1.945110    3.056830
  C     30.232910   -1.726330    3.117680
  C     30.793220   -0.753690    3.968740
  C     32.146590   -0.553350    4.005930
  C     32.998400   -1.318340    3.195220
  C     32.486110   -2.272280    2.358410
  C     31.097180   -2.504770    2.294250
  C     30.563680   -3.489340    1.430940
  C     26.950220   -3.286220    1.982900
  O     25.974350   -2.793930    2.506820
  H     -0.708410    3.625470   -1.126200
  H     -1.705010    4.448590   -3.223020
  H     -0.304090    4.759710   -5.224880
  H      2.105170    4.254460   -5.146070
  H      4.063180    3.506290   -3.928140
  H      1.261000    2.830910    0.143610
  H      6.000290    0.985030    1.496420
  H      7.114410    0.399520   -2.164900
  H     12.677580   -2.185780   -3.013630
  H     18.261400   -3.453710    2.207820
  H     24.389010   -4.336080    2.594900
  H     26.145760   -5.242900   -0.771020
  H     28.166670   -1.363960    3.670790
  H     30.132030   -0.168110    4.590550
  H     32.567890    0.195570    4.659700
  H     34.063740   -1.148050    3.237120
  H     33.138330   -2.864630    1.733600
  H     31.242790   -4.056880    0.814580

 Total Charge           Charge          ....    0
 Multiplicity           Mult            ....    1
 Number of Electrons    NEL             ....  570
 Basis Dimension        Dim             .... 1244

ORBITAL ENERGIES
----------------

  NO   OCC          E(Eh)            E(eV)
   0   2.0000     -89.062335     -2423.5094
   1   2.0000     -88.998685     -2421.7774
   2   2.0000     -88.998200     -2421.7641
   3   2.0000     -88.998107     -2421.7616
   4   2.0000     -88.994938     -2421.6754
   5   2.0000     -19.218070      -522.9503
   6   2.0000     -19.216723      -522.9136
   7   2.0000     -14.477720      -393.9588
   8   2.0000     -14.477088      -393.9416
   9   2.0000     -14.459951      -393.4753
  10   2.0000     -14.459383      -393.4598
  11   2.0000     -14.434952      -392.7950
  12   2.0000     -14.433982      -392.7686
  13   2.0000     -14.431140      -392.6913
  14   2.0000     -14.430484      -392.6734
  15   2.0000     -14.419865      -392.3845
  16   2.0000     -14.416516      -392.2934
  17   2.0000     -14.414884      -392.2489
  18   2.0000     -14.414873      -392.2486
  19   2.0000     -10.370273      -282.1895
  20   2.0000     -10.369294      -282.1628
  21   2.0000     -10.368668      -282.1458
  22   2.0000     -10.367874      -282.1242
  23   2.0000     -10.359664      -281.9008
  24   2.0000     -10.358819      -281.8778
  25   2.0000     -10.356923      -281.8262
  26   2.0000     -10.355264      -281.7811
  27   2.0000     -10.355217      -281.7798
  28   2.0000     -10.354540      -281.7614
  29   2.0000     -10.346875      -281.5528
  30   2.0000     -10.345612      -281.5184
  31   2.0000     -10.344565      -281.4899
  32   2.0000     -10.344402      -281.4855
  33   2.0000     -10.342544      -281.4349
  34   2.0000     -10.341310      -281.4013
  35   2.0000     -10.340291      -281.3736
  36   2.0000     -10.338829      -281.3339
  37   2.0000     -10.335268      -281.2369
  38   2.0000     -10.334137      -281.2062
  39   2.0000     -10.331736      -281.1408
  40   2.0000     -10.331663      -281.1388
  41   2.0000     -10.330662      -281.1116
  42   2.0000     -10.330218      -281.0995
  43   2.0000     -10.329925      -281.0915
  44   2.0000     -10.329477      -281.0793
  45   2.0000     -10.329127      -281.0698
  46   2.0000     -10.327332      -281.0210
  47   2.0000     -10.321217      -280.8546
  48   2.0000     -10.319510      -280.8081
  49   2.0000     -10.317702      -280.7589
  50   2.0000     -10.317285      -280.7476
  51   2.0000     -10.314819      -280.6805
  52   2.0000     -10.312648      -280.6214
  53   2.0000     -10.311491      -280.5899
  54   2.0000     -10.311136      -280.5803
  55   2.0000     -10.310690      -280.5681
  56   2.0000     -10.310664      -280.5674
  57   2.0000     -10.308892      -280.5192
  58   2.0000     -10.308474      -280.5078
  59   2.0000     -10.304348      -280.3956
  60   2.0000     -10.303540      -280.3736
  61   2.0000     -10.303531      -280.3733
  62   2.0000     -10.303142      -280.3627
  63   2.0000     -10.298451      -280.2351
  64   2.0000     -10.298329      -280.2318
  65   2.0000     -10.298053      -280.2243
  66   2.0000     -10.297998      -280.2228
  67   2.0000     -10.297754      -280.2161
  68   2.0000     -10.297325      -280.2045
  69   2.0000     -10.297253      -280.2025
  70   2.0000     -10.296853      -280.1916
  71   2.0000     -10.290580      -280.0209
  72   2.0000     -10.289047      -279.9792
  73   2.0000     -10.286994      -279.9233
  74   2.0000     -10.286698      -279.9153
  75   2.0000     -10.286528      -279.9107
  76   2.0000     -10.286223      -279.9024
  77   2.0000     -10.286204      -279.9019
  78   2.0000     -10.286035      -279.8972
  79   2.0000     -10.285609      -279.8857
  80   2.0000     -10.285587      -279.8850
  81   2.0000      -8.153676      -221.8728
  82   2.0000      -8.093489      -220.2350
  83   2.0000      -8.092968      -220.2209
  84   2.0000      -8.091800      -220.1891
  85   2.0000      -8.088794      -220.1073
  86   2.0000      -6.124864      -166.6660
  87   2.0000      -6.116965      -166.4511
  88   2.0000      -6.116252      -166.4317
  89   2.0000      -6.062623      -164.9724
  90   2.0000      -6.062118      -164.9586
  91   2.0000      -6.061091      -164.9307
  92   2.0000      -6.058460      -164.8591
  93   2.0000      -6.058035      -164.8475
  94   2.0000      -6.057957      -164.8454
  95   2.0000      -6.056696      -164.8111
  96   2.0000      -6.055991      -164.7919
  97   2.0000      -6.055462      -164.7775
  98   2.0000      -6.054323      -164.7465
  99   2.0000      -6.053698      -164.7295
 100   2.0000      -6.051339      -164.6653
 101   2.0000      -1.165745       -31.7215
 102   2.0000      -1.137712       -30.9587
 103   2.0000      -1.133938       -30.8560
 104   2.0000      -1.132134       -30.8069
 105   2.0000      -1.052738       -28.6465
 106   2.0000      -1.051894       -28.6235
 107   2.0000      -1.026989       -27.9458
 108   2.0000      -1.024791       -27.8860
 109   2.0000      -1.022540       -27.8247
 110   2.0000      -1.020403       -27.7666
 111   2.0000      -1.018901       -27.7257
 112   2.0000      -1.011990       -27.5376
 113   2.0000      -1.008098       -27.4317
 114   2.0000      -1.005747       -27.3678
 115   2.0000      -1.003978       -27.3196
 116   2.0000      -1.000456       -27.2238
 117   2.0000      -0.998975       -27.1835
 118   2.0000      -0.994397       -27.0589
 119   2.0000      -0.994128       -27.0516
 120   2.0000      -0.975057       -26.5327
 121   2.0000      -0.973239       -26.4832
 122   2.0000      -0.969574       -26.3834
 123   2.0000      -0.965399       -26.2698
 124   2.0000      -0.948350       -25.8059
 125   2.0000      -0.939163       -25.5559
 126   2.0000      -0.928272       -25.2596
 127   2.0000      -0.927681       -25.2435
 128   2.0000      -0.918672       -24.9983
 129   2.0000      -0.916050       -24.9270
 130   2.0000      -0.900105       -24.4931
 131   2.0000      -0.897414       -24.4199
 132   2.0000      -0.882379       -24.0107
 133   2.0000      -0.881977       -23.9998
 134   2.0000      -0.879746       -23.9391
 135   2.0000      -0.878497       -23.9051
 136   2.0000      -0.871458       -23.7136
 137   2.0000      -0.865425       -23.5494
 138   2.0000      -0.862890       -23.4804
 139   2.0000      -0.862208       -23.4619
 140   2.0000      -0.838103       -22.8059
 141   2.0000      -0.829192       -22.5635
 142   2.0000      -0.828589       -22.5471
 143   2.0000      -0.817791       -22.2532
 144   2.0000      -0.811049       -22.0698
 145   2.0000      -0.790890       -21.5212
 146   2.0000      -0.783785       -21.3279
 147   2.0000      -0.781938       -21.2776
 148   2.0000      -0.776982       -21.1428
 149   2.0000      -0.764068       -20.7914
 150   2.0000      -0.762300       -20.7432
 151   2.0000      -0.758948       -20.6520
 152   2.0000      -0.746370       -20.3098
 153   2.0000      -0.731586       -19.9075
 154   2.0000      -0.720940       -19.6178
 155   2.0000      -0.709264       -19.3001
 156   2.0000      -0.708479       -19.2787
 157   2.0000      -0.704941       -19.1824
 158   2.0000      -0.702351       -19.1119
 159   2.0000      -0.700423       -19.0595
 160   2.0000      -0.697235       -18.9727
 161   2.0000      -0.692090       -18.8327
 162   2.0000      -0.686887       -18.6912
 163   2.0000      -0.684809       -18.6346
 164   2.0000      -0.678067       -18.4511
 165   2.0000      -0.675490       -18.3810
 166   2.0000      -0.670510       -18.2455
 167   2.0000      -0.662553       -18.0290
 168   2.0000      -0.652224       -17.7479
 169   2.0000      -0.649120       -17.6635
 170   2.0000      -0.638126       -17.3643
 171   2.0000      -0.636229       -17.3127
 172   2.0000      -0.633419       -17.2362
 173   2.0000      -0.630095       -17.1457
 174   2.0000      -0.624260       -16.9870
 175   2.0000      -0.621998       -16.9254
 176   2.0000      -0.619930       -16.8692
 177   2.0000      -0.608436       -16.5564
 178   2.0000      -0.607375       -16.5275
 179   2.0000      -0.603934       -16.4339
 180   2.0000      -0.603327       -16.4174
 181   2.0000      -0.598069       -16.2743
 182   2.0000      -0.594335       -16.1727
 183   2.0000      -0.591852       -16.1051
 184   2.0000      -0.580360       -15.7924
 185   2.0000      -0.577172       -15.7057
 186   2.0000      -0.559717       -15.2307
 187   2.0000      -0.558962       -15.2101
 188   2.0000      -0.555545       -15.1171
 189   2.0000      -0.554861       -15.0985
 190   2.0000      -0.552718       -15.0402
 191   2.0000      -0.549513       -14.9530
 192   2.0000      -0.547047       -14.8859
 193   2.0000      -0.546965       -14.8837
 194   2.0000      -0.539820       -14.6893
 195   2.0000      -0.538887       -14.6639
 196   2.0000      -0.537455       -14.6249
 197   2.0000      -0.533761       -14.5244
 198   2.0000      -0.530932       -14.4474
 199   2.0000      -0.527936       -14.3659
 200   2.0000      -0.527758       -14.3610
 201   2.0000      -0.521030       -14.1780
 202   2.0000      -0.520328       -14.1589
 203   2.0000      -0.518980       -14.1222
 204   2.0000      -0.516129       -14.0446
 205   2.0000      -0.512889       -13.9564
 206   2.0000      -0.511575       -13.9207
 207   2.0000      -0.510474       -13.8907
 208   2.0000      -0.509776       -13.8717
 209   2.0000      -0.508494       -13.8368
 210   2.0000      -0.507692       -13.8150
 211   2.0000      -0.506137       -13.7727
 212   2.0000      -0.504373       -13.7247
 213   2.0000      -0.504138       -13.7183
 214   2.0000      -0.501121       -13.6362
 215   2.0000      -0.496791       -13.5184
 216   2.0000      -0.494345       -13.4518
 217   2.0000      -0.491976       -13.3873
 218   2.0000      -0.488460       -13.2917
 219   2.0000      -0.486443       -13.2368
 220   2.0000      -0.484684       -13.1889
 221   2.0000      -0.482068       -13.1177
 222   2.0000      -0.478733       -13.0270
 223   2.0000      -0.476830       -12.9752
 224   2.0000      -0.467967       -12.7340
 225   2.0000      -0.466030       -12.6813
 226   2.0000      -0.465727       -12.6731
 227   2.0000      -0.465498       -12.6668
 228   2.0000      -0.462433       -12.5835
 229   2.0000      -0.461118       -12.5477
 230   2.0000      -0.460323       -12.5260
 231   2.0000      -0.458710       -12.4821
 232   2.0000      -0.456802       -12.4302
 233   2.0000      -0.452764       -12.3203
 234   2.0000      -0.451850       -12.2955
 235   2.0000      -0.449530       -12.2323
 236   2.0000      -0.449432       -12.2297
 237   2.0000      -0.445524       -12.1233
 238   2.0000      -0.444826       -12.1043
 239   2.0000      -0.444305       -12.0902
 240   2.0000      -0.444141       -12.0857
 241   2.0000      -0.441203       -12.0057
 242   2.0000      -0.440259       -11.9801
 243   2.0000      -0.440143       -11.9769
 244   2.0000      -0.439658       -11.9637
 245   2.0000      -0.439199       -11.9512
 246   2.0000      -0.435595       -11.8531
 247   2.0000      -0.434287       -11.8176
 248   2.0000      -0.433373       -11.7927
 249   2.0000      -0.433021       -11.7831
 250   2.0000      -0.431115       -11.7312
 251   2.0000      -0.428441       -11.6585
 252   2.0000      -0.427562       -11.6346
 253   2.0000      -0.427124       -11.6226
 254   2.0000      -0.426816       -11.6143
 255   2.0000      -0.422737       -11.5033
 256   2.0000      -0.420012       -11.4291
 257   2.0000      -0.419562       -11.4169
 258   2.0000      -0.411406       -11.1949
 259   2.0000      -0.411037       -11.1849
 260   2.0000      -0.409444       -11.1415
 261   2.0000      -0.404709       -11.0127
 262   2.0000      -0.404376       -11.0036
 263   2.0000      -0.401145       -10.9157
 264   2.0000      -0.393777       -10.7152
 265   2.0000      -0.392210       -10.6726
 266   2.0000      -0.383075       -10.4240
 267   2.0000      -0.378780       -10.3071
 268   2.0000      -0.372966       -10.1489
 269   2.0000      -0.365585        -9.9481
 270   2.0000      -0.356598        -9.7035
 271   2.0000      -0.353090        -9.6081
 272   2.0000      -0.346885        -9.4392
 273   2.0000      -0.340204        -9.2574
 274   2.0000      -0.336315        -9.1516
 275   2.0000      -0.327920        -8.9232
 276   2.0000      -0.325429        -8.8554
 277   2.0000      -0.321712        -8.7542
 278   2.0000      -0.320312        -8.7161
 279   2.0000      -0.317535        -8.6406
 280   2.0000      -0.314363        -8.5543
 281   2.0000      -0.296511        -8.0685
 282   2.0000      -0.294885        -8.0242
 283   2.0000      -0.280279        -7.6268
 284   2.0000      -0.259439        -7.0597
 285   0.0000      -0.125539        -3.4161
 286   0.0000      -0.111853        -3.0437
 287   0.0000      -0.097453        -2.6518
 288   0.0000      -0.090651        -2.4667
 289   0.0000      -0.088853        -2.4178

MULLIKEN ATOMIC CHARGES
-----------------------
   0 C :   -0.017538
   1 C :    0.036079
   2 C :    0.037507
   3 C :   -0.016140
   4 C :    0.092328
   5 C :   -0.075977
   6 C :    0.025601
   7 C :    0.020115
   8 C :   -0.084730
   9 C :    0.096570
  10 C :    0.134339
  11 O :   -0.141857
  12 C :   -0.134920
  13 C :    0.273920
  14 C :   -0.330255
  15 C :   -0.200830
  16 N :    0.166518
  17 C :   -0.170906
  18 N :    0.160225
  19 C :    0.078178
  20 C :   -0.113052
  21 C :   -0.003380
  22 C :   -0.000563
  23 C :   -0.081616
  24 S :    0.222785
  25 C :   -0.087491
  26 C :    0.016997
  27 C :    0.310384
  28 C :   -0.291535
  29 C :   -0.188567
  30 N :    0.174246
  31 C :   -0.185005
  32 N :    0.171817
  33 C :   -0.057442
  34 C :   -0.124291
  35 S :    0.257955
  36 C :    0.011688
  37 N :   -0.061599
  38 N :   -0.040115
  39 C :    0.018883
  40 C :    0.012801
  41 C :    0.040612
  42 N :   -0.248955
  43 S :    0.565723
  44 N :   -0.289653
  45 C :   -0.112537
  46 C :   -0.061941
  47 C :    0.043816
  48 C :   -0.087038
  49 S :    0.230055
  50 C :   -0.085491
  51 C :   -0.026629
  52 C :    0.300789
  53 C :   -0.288520
  54 C :   -0.188008
  55 N :    0.184360
  56 C :   -0.196295
  57 N :    0.186066
  58 C :    0.054862
  59 C :   -0.115402
  60 S :    0.207860
  61 C :    0.025275
  62 C :   -0.097511
  63 C :    0.301277
  64 C :   -0.342853
  65 C :   -0.180915
  66 N :    0.147573
  67 C :   -0.208711
  68 N :    0.161442
  69 C :    0.049124
  70 C :   -0.009811
  71 C :   -0.075752
  72 C :    0.097655
  73 C :   -0.015510
  74 C :    0.036180
  75 C :    0.034564
  76 C :   -0.019231
  77 C :    0.096684
  78 C :   -0.082620
  79 C :    0.150534
  80 O :   -0.148509
  81 H :   -0.017097
  82 H :   -0.004165
  83 H :   -0.004621
  84 H :   -0.008337
  85 H :    0.000290
  86 H :   -0.011628
  87 H :    0.023295
  88 H :    0.026883
  89 H :    0.018167
  90 H :    0.028182
  91 H :    0.029553
  92 H :    0.025498
  93 H :   -0.010036
  94 H :   -0.015561
  95 H :   -0.004353
  96 H :   -0.003472
  97 H :   -0.008971
  98 H :   -0.007314
Sum of atomic charges:    0.0000000

LOEWDIN ATOMIC CHARGES
----------------------
   0 C :   -0.009347
   1 C :   -0.012435
   2 C :   -0.012114
   3 C :   -0.005016
   4 C :   -0.004897
   5 C :    0.019353
   6 C :   -0.023198
   7 C :   -0.058085
   8 C :    0.033343
   9 C :   -0.008966
  10 C :    0.083494
  11 O :   -0.142970
  12 C :   -0.086413
  13 C :    0.066095
  14 C :   -0.135380
  15 C :   -0.015635
  16 N :   -0.047658
  17 C :   -0.018251
  18 N :   -0.045995
  19 C :    0.041524
  20 C :   -0.177954
  21 C :    0.006153
  22 C :   -0.060759
  23 C :   -0.163346
  24 S :    0.505946
  25 C :   -0.172120
  26 C :   -0.066154
  27 C :    0.082026
  28 C :   -0.098522
  29 C :   -0.016847
  30 N :   -0.029972
  31 C :   -0.013548
  32 N :   -0.032798
  33 C :   -0.009359
  34 C :   -0.177084
  35 S :    0.529171
  36 C :   -0.026378
  37 N :   -0.062709
  38 N :   -0.041520
  39 C :   -0.029860
  40 C :   -0.064048
  41 C :   -0.053738
  42 N :   -0.259701
  43 S :    0.689238
  44 N :   -0.285653
  45 C :   -0.175873
  46 C :    0.005922
  47 C :   -0.059143
  48 C :   -0.184279
  49 S :    0.515378
  50 C :   -0.163036
  51 C :   -0.069760
  52 C :    0.074907
  53 C :   -0.091684
  54 C :   -0.018469
  55 N :   -0.021053
  56 C :   -0.019177
  57 N :   -0.022730
  58 C :    0.025503
  59 C :   -0.176113
  60 S :    0.492537
  61 C :    0.043166
  62 C :   -0.091300
  63 C :    0.075336
  64 C :   -0.140923
  65 C :   -0.017486
  66 N :   -0.053400
  67 C :   -0.025440
  68 N :   -0.053358
  69 C :   -0.026320
  70 C :   -0.055373
  71 C :    0.034106
  72 C :   -0.008019
  73 C :   -0.008797
  74 C :   -0.011887
  75 C :   -0.013037
  76 C :   -0.005464
  77 C :   -0.005977
  78 C :    0.019696
  79 C :    0.083965
  80 O :   -0.137826
  81 H :    0.031921
  82 H :    0.033053
  83 H :    0.033340
  84 H :    0.035284
  85 H :    0.040596
  86 H :    0.039528
  87 H :    0.046462
  88 H :    0.042993
  89 H :    0.041801
  90 H :    0.049578
  91 H :    0.045828
  92 H :    0.044394
  93 H :    0.039988
  94 H :    0.032437
  95 H :    0.033079
  96 H :    0.033507
  97 H :    0.034696
  98 H :    0.039009

  Mayer bond orders larger than 0.100000
B(  0-C ,  1-C ) :   1.4898 B(  0-C ,  9-C ) :   1.2428 B(  0-C , 81-H ) :   0.9981
B(  1-C ,  2-C ) :   1.2602 B(  1-C , 82-H ) :   0.9889 B(  2-C ,  3-C ) :   1.4888
B(  2-C , 83-H ) :   0.9885 B(  3-C ,  4-C ) :   1.2429 B(  3-C , 84-H ) :   0.9977
B(  4-C ,  5-C ) :   1.2028 B(  4-C ,  9-C ) :   1.2572 B(  5-C ,  6-C ) :   1.4590
B(  5-C , 85-H ) :   0.9941 B(  6-C ,  7-C ) :   1.2151 B(  6-C , 13-C ) :   0.9983
B(  7-C ,  8-C ) :   1.4692 B(  7-C , 10-C ) :   0.9239 B(  8-C ,  9-C ) :   1.1861
B(  8-C , 86-H ) :   1.0168 B( 10-C , 11-O ) :   2.2685 B( 10-C , 12-C ) :   0.9372
B( 12-C , 13-C ) :   1.0298 B( 12-C , 19-C ) :   1.6853 B( 13-C , 14-C ) :   1.6514
B( 14-C , 15-C ) :   1.1722 B( 14-C , 17-C ) :   1.1277 B( 15-C , 16-N ) :   2.9957
B( 17-C , 18-N ) :   2.9925 B( 19-C , 20-C ) :   1.1227 B( 19-C , 87-H ) :   0.9277
B( 20-C , 21-C ) :   1.4017 B( 20-C , 24-S ) :   1.0973 B( 21-C , 22-C ) :   1.3539
B( 21-C , 88-H ) :   0.9806 B( 22-C , 23-C ) :   1.4210 B( 22-C , 27-C ) :   0.9949
B( 23-C , 24-S ) :   1.1523 B( 23-C , 25-C ) :   1.1938 B( 25-C , 26-C ) :   1.4231
B( 25-C , 35-S ) :   1.1282 B( 26-C , 27-C ) :   0.9959 B( 26-C , 33-C ) :   1.2720
B( 27-C , 28-C ) :   1.7154 B( 28-C , 29-C ) :   1.1369 B( 28-C , 31-C ) :   1.1335
B( 29-C , 30-N ) :   2.9901 B( 31-C , 32-N ) :   2.9831 B( 33-C , 34-C ) :   1.4781
B( 33-C , 89-H ) :   0.9846 B( 34-C , 35-S ) :   1.0911 B( 34-C , 36-C ) :   1.1663
B( 36-C , 37-N ) :   1.6961 B( 36-C , 39-C ) :   0.1135 B( 36-C , 41-C ) :   1.1294
B( 37-N , 38-N ) :   1.2326 B( 38-N , 39-C ) :   1.7056 B( 39-C , 40-C ) :   1.0927
B( 39-C , 45-C ) :   1.1498 B( 40-C , 41-C ) :   1.1980 B( 40-C , 44-N ) :   1.5221
B( 41-C , 42-N ) :   1.5479 B( 42-N , 43-S ) :   1.2818 B( 42-N , 44-N ) :   0.1433
B( 43-S , 44-N ) :   1.2704 B( 45-C , 46-C ) :   1.4226 B( 45-C , 49-S ) :   1.1227
B( 46-C , 47-C ) :   1.2590 B( 46-C , 90-H ) :   1.0153 B( 47-C , 48-C ) :   1.4095
B( 47-C , 52-C ) :   0.9917 B( 48-C , 49-S ) :   1.1119 B( 48-C , 50-C ) :   1.2026
B( 50-C , 51-C ) :   1.3908 B( 50-C , 60-S ) :   1.1587 B( 51-C , 52-C ) :   0.9948
B( 51-C , 58-C ) :   1.3395 B( 52-C , 53-C ) :   1.7242 B( 53-C , 54-C ) :   1.1331
B( 53-C , 56-C ) :   1.1352 B( 54-C , 55-N ) :   2.9927 B( 56-C , 57-N ) :   2.9996
B( 58-C , 59-C ) :   1.4159 B( 58-C , 91-H ) :   0.9753 B( 59-C , 60-S ) :   1.0784
B( 59-C , 61-C ) :   1.1789 B( 61-C , 62-C ) :   1.6120 B( 61-C , 92-H ) :   0.9303
B( 62-C , 63-C ) :   1.0666 B( 62-C , 79-C ) :   0.9414 B( 63-C , 64-C ) :   1.6377
B( 63-C , 69-C ) :   0.9931 B( 64-C , 65-C ) :   1.1444 B( 64-C , 67-C ) :   1.1405
B( 65-C , 66-N ) :   2.9678 B( 67-C , 68-N ) :   2.9963 B( 69-C , 70-C ) :   1.2123
B( 69-C , 78-C ) :   1.4531 B( 70-C , 71-C ) :   1.4757 B( 70-C , 79-C ) :   0.9461
B( 71-C , 72-C ) :   1.1802 B( 71-C , 93-H ) :   1.0157 B( 72-C , 73-C ) :   1.2444
B( 72-C , 77-C ) :   1.2557 B( 73-C , 74-C ) :   1.4900 B( 73-C , 94-H ) :   0.9977
B( 74-C , 75-C ) :   1.2597 B( 74-C , 95-H ) :   0.9885 B( 75-C , 76-C ) :   1.4908
B( 75-C , 96-H ) :   0.9881 B( 76-C , 77-C ) :   1.2410 B( 76-C , 97-H ) :   0.9970
B( 77-C , 78-C ) :   1.2064 B( 78-C , 98-H ) :   0.9901 B( 79-C , 80-O ) :   2.2057

-----------------------------------------------------------------------------
         ABSORPTION SPECTRUM VIA TRANSITION ELECTRIC DIPOLE MOMENTS
-----------------------------------------------------------------------------
State   Energy  Wavelength   fosc         T2         TX        TY        TZ
        (cm-1)    (nm)                  (au**2)     (au)      (au)      (au)
-----------------------------------------------------------------------------
   0   13451.5    743.4   1.266821223  31.00408  -5.29835   1.60319  -0.60112
   1   15057.5    664.1   0.074322242   1.62495   1.21308   0.25138   0.30032
   2   17813.8    561.4   0.737728452  13.63376  -3.45097   1.17081  -0.59480
   3   19530.2    512.0   0.014441917   0.24344  -0.46340   0.15974  -0.05647
   4   20969.6    476.9   0.113646657   1.78420   0.46714   1.24578   0.11834
   5   21699.5    460.8   0.114882034   1.74293   1.01396  -0.82577   0.18141
   6   22498.4    444.5   0.455949238   6.67175   2.54409  -0.34427  -0.28429
   7   24249.7    412.4   0.023827594   0.32348  -0.35443  -0.37773  -0.23492
   8   25019.8    399.7   0.013579189   0.17868  -0.13409   0.25514   0.30919
   9   25303.3    395.2   0.040776404   0.53053   0.69061   0.14322   0.18184
  10   26400.5    378.8   0.045135927   0.56284  -0.05470  -0.00224  -0.74823
  11   27271.1    366.7   0.029154642   0.35195  -0.38179   0.05160   0.45113
  12   27569.8    362.7   0.019397080   0.23162   0.32124  -0.25868   0.24801
  13   28399.8    352.1   0.035898126   0.41613  -0.59979   0.05889  -0.23005
  14   28644.7    349.1   0.023356015   0.26843   0.33480  -0.19219  -0.34554
  15   28767.9    347.6   0.004638311   0.05308   0.06430   0.20918  -0.07205
  16   28825.6    346.9   0.013410724   0.15316   0.33172   0.18494   0.09445
  17   29009.3    344.7   0.045325340   0.51437  -0.22190  -0.34381  -0.58901
  18   29073.8    344.0   0.222482601   2.51924   0.21169   0.14106  -1.56669
  19   29431.0    339.8   0.034140087   0.38189  -0.17075   0.24108   0.54278
  20   29805.1    335.5   0.083444417   0.92169  -0.88085  -0.23843  -0.29822
  21   30071.5    332.5   0.007151818   0.07830  -0.25361  -0.04127  -0.11078
  22   30207.8    331.0   0.596125977   6.49672   2.13351   0.60461   1.25669
  23   30387.2    329.1   0.164627523   1.78356   0.88737  -0.86470  -0.49842
  24   30837.9    324.3   0.023767640   0.25373  -0.33242   0.36254   0.10863
  25   31188.0    320.6   0.267111027   2.81955   1.50226  -0.61485  -0.42979
  26   31372.0    318.8   0.063798858   0.66949   0.48025  -0.51946   0.41111
  27   31713.9    315.3   0.057606354   0.59799  -0.41008   0.60443  -0.25394
  28   31953.2    313.0   0.262817736   2.70780   1.59951   0.08370  -0.37729
  29   32223.9    310.3   0.066316593   0.67752   0.77212   0.28397   0.02680
  30   32308.9    309.5   0.142922122   1.45631   1.12213   0.43694  -0.07883
  31   32607.4    306.7   0.406244630   4.10154   1.44348  -0.65634   1.25981
  32   32802.4    304.9   0.273543242   2.74534   0.75714  -0.03676   1.47334
  33   33258.1    300.7   0.220060457   2.17831   0.89571   0.11297   1.16758
  34   33538.9    298.2   0.139409262   1.36842   0.75189   0.23750   0.86410
  35   33925.5    294.8   0.172476981   1.67371   0.78719   0.15628   1.01470
  36   34151.2    292.8   0.374910331   3.61408  -1.86363   0.36330   0.09467
  37   34264.7    291.8   0.041777630   0.40140   0.34177   0.42690   0.31991
  38   34477.3    290.0   0.054763147   0.52291  -0.69281   0.19884  -0.05823
  39   34694.7    288.2   0.214724462   2.03748   1.03492   0.05289  -0.98164
  40   34835.7    287.1   0.155880216   1.47313   0.32969   0.77898   0.87042
  41   35039.2    285.4   0.386559087   3.63193   0.44580  -1.54717  -1.01954
  42   35116.7    284.8   0.091583430   0.85858  -0.85115  -0.36590   0.01560
  43   35436.4    282.2   0.150181732   1.39522   0.08618   0.43461   1.09494
  44   35738.0    279.8   0.008710526   0.08024   0.16291   0.20210  -0.11339
  45   35932.6    278.3   0.110100102   1.00873   0.38125   0.07221   0.92637
  46   36052.2    277.4   0.140906634   1.28669  -0.96925   0.07364   0.58466
  47   36491.4    274.0   0.078451690   0.70776  -0.83003   0.02812  -0.13426
  48   36595.7    273.3   0.021582646   0.19416  -0.39405   0.18766  -0.06052
  49   36702.7    272.5   0.040094712   0.35964   0.49944  -0.01996  -0.33136
  50   37199.0    268.8   0.011245100   0.09952   0.31246  -0.04060  -0.01549
  51   37374.0    267.6   0.005838988   0.05143   0.22651   0.00189   0.01118
  52   37464.9    266.9   0.052991885   0.46565   0.29591   0.28165   0.54659
  53   37581.6    266.1   0.016135138   0.14134   0.15628  -0.16557  -0.29918
  54   37945.3    263.5   0.004487696   0.03894   0.03287   0.08044  -0.17715
  55   37970.2    263.4   0.009856781   0.08546  -0.07718   0.23543   0.15517
  56   38079.8    262.6   0.013091920   0.11318   0.21098   0.17855  -0.19181
  57   38189.4    261.9   0.007341798   0.06329   0.20571   0.06584  -0.12899
  58   38464.6    260.0   0.017680525   0.15132  -0.37000   0.06703  -0.09967
  59   38676.0    258.6   0.082317218   0.70069  -0.34699   0.45429   0.61148
  60   38875.3    257.2   0.028920165   0.24491   0.27715  -0.24633  -0.32775
  61   39135.5    255.5   0.018056286   0.15189  -0.35610   0.15824  -0.00663
  62   39190.7    255.2   0.119712790   1.00562  -0.47546   0.58638   0.66009
  63   39504.7    253.1   0.041690009   0.34742  -0.43826  -0.18849  -0.34615
  64   39694.0    251.9   0.080478223   0.66747  -0.63882  -0.25825   0.43895
  65   39742.7    251.6   0.112435188   0.93137   0.71088  -0.63977  -0.12927
  66   39820.4    251.1   0.034110791   0.28201   0.52555   0.02348  -0.07247
  67   39958.2    250.3   0.004739981   0.03905   0.01991  -0.19635  -0.01012
  68   40178.1    248.9   0.068896747   0.56453   0.50351  -0.14196  -0.53931

FINAL SINGLE POINT ENERGY     -5167.002461401595

DIPOLE MOMENT
-------------
                                X             Y             Z
Electronic contribution:      0.23263     -25.75767      -6.81652
Nuclear contribution   :     -1.70055      26.62386       6.35737
                        -----------------------------------------
Total Dipole Moment    :     -1.46793       0.86619      -0.45915
                        -----------------------------------------
Magnitude (a.u.)       :      1.76519
Magnitude (Debye)      :      4.48676

Rotational constants in cm-1:     0.002165     0.000147     0.000144
Rotational constants in MHz :    64.895345     4.402180     4.315861

                             ****ORCA TERMINATED NORMALLY****
TOTAL RUN TIME: 0 days 0 hours 11 minutes 20 seconds 684 msec
