                         Program Version 4.2.0 -  RELEASE  -
|  1> # ORCA input file
|  2> # SCF done       -208.877320256731          0.000499893519
|  3> ! CAM-B3LYP def2-SVP def2/J RIJCOSX Grid4 TightSCF
|  4> %maxcore 5000
|  5> %tddft
|  6>     Mode sTDDFT
|  7>     Ethresh 5.0
|  8>     maxcore 5000
|  9> end
| 10>
| 11> %pal
| 12>   nprocs 6
| 13>   end
| 14> * xyz 0 1
| 15>    C       -0.21703         3.30759        -2.70114
| 16>    C       -1.14610         3.50407        -1.71564
| 17>    C       -1.05718         2.79706        -0.50732
| 18>    C       -0.04123         1.90388        -0.30084
| 19>    C        0.93165         1.67582        -1.29489
| 20>    C        1.97902         0.74806        -1.08921
| 21>    C        2.90554         0.55273        -2.07697
| 22>    C        2.82330         1.29208        -3.29303
| 23>    C        1.81809         2.18680        -3.52159
| 24>    C        0.84195         2.39612        -2.52118
| 25>    C        3.96492         0.93841        -4.15322
| 26>    O        4.20389         1.31672        -5.27740
| 27>    C        4.82418         0.04870        -3.31751
| 28>    C        4.05995        -0.33777        -2.15129
| 29>    C        4.22121        -1.47483        -1.40142
| 30>    C        5.22181        -2.43529        -1.64072
| 31>    N        6.01256        -3.24909        -1.81818
| 32>    C        3.34465        -1.86187        -0.36637
| 33>    N        2.65953        -2.22564         0.47931
| 34>    C        6.11284        -0.15796        -3.70862
| 35>    C        7.21499        -0.59805        -2.94637
| 36>    C        7.36772        -0.64208        -1.56738
| 37>    C        8.62616        -1.08955        -1.19115
| 38>    C        9.45748        -1.38697        -2.29134
| 39>    S        8.68444        -1.10076        -3.77881
| 40>    C       10.70994        -1.82869        -1.79690
| 41>    C       10.66664        -1.81903        -0.39137
| 42>    C        9.35323        -1.36791         0.03509
| 43>    C        8.88781        -1.24847         1.31218
| 44>    C        9.68378        -1.56164         2.43278
| 45>    N       10.33126        -1.80990         3.34630
| 46>    C        7.57777        -0.79764         1.57862
| 47>    N        6.51382        -0.41992         1.77985
| 48>    C       11.86740        -2.21168         0.19453
| 49>    C       12.83672        -2.51689        -0.74142
| 50>    S       12.23046        -2.32514        -2.38782
| 51>    C       14.20234        -2.89563        -0.52237
| 52>    C       15.06282        -3.08676        -1.59680
| 53>    C       16.40687        -3.36338        -1.42666
| 54>    C       16.98977        -3.47148        -0.16964
| 55>    C       16.12776        -3.34606         0.96364
| 56>    C       14.74777        -3.05771         0.78892
| 57>    N       13.95636        -2.93435         1.87105
| 58>    C       14.45102        -3.08236         3.07164
| 59>    C       15.83491        -3.37873         3.24671
| 60>    N       16.61897        -3.49833         2.20787
| 61>    C       16.43400        -3.56475         4.59677
| 62>    C       13.52607        -2.93520         4.22891
| 63>    C       18.40548        -3.65796        -0.03762
| 64>    C       19.16416        -3.70419         1.11649
| 65>    C       20.52716        -3.81701         0.85390
| 66>    C       20.81957        -3.86677        -0.52040
| 67>    S       19.41241        -3.77997        -1.48123
| 68>    C       22.22452        -3.92992        -0.68102
| 69>    C       22.82391        -3.90689         0.59800
| 70>    C       21.77344        -3.86771         1.60196
| 71>    C       21.91477        -3.88995         2.95823
| 72>    C       23.17150        -3.98230         3.59500
| 73>    N       24.17861        -4.07868         4.13367
| 74>    C       20.80180        -3.85027         3.82385
| 75>    N       19.90314        -3.81629         4.53570
| 76>    C       24.21174        -3.88809         0.54991
| 77>    C       24.68980        -3.90244        -0.75304
| 78>    S       23.37376        -3.98496        -1.93192
| 79>    C       26.00702        -3.89418        -1.25691
| 80>    C       27.13610        -3.42049        -0.64906
| 81>    C       28.47670        -3.52863        -1.19279
| 82>    C       28.89219        -4.41753        -2.15063
| 83>    C       30.21685        -4.50058        -2.62664
| 84>    N       31.27485        -4.61195        -3.05835
| 85>    C       28.06952        -5.38823        -2.75902
| 86>    N       27.46223        -6.21378        -3.27770
| 87>    C       29.32702        -2.58658        -0.47717
| 88>    C       28.55247        -1.96919         0.54550
| 89>    C       29.08037        -1.03052         1.38400
| 90>    C       30.43484        -0.65754         1.23319
| 91>    C       31.03421         0.30745         2.06608
| 92>    C       32.34569         0.66015         1.89649
| 93>    C       33.11546         0.06120         0.88828
| 94>    C       32.56371        -0.88084         0.06320
| 95>    C       31.21580        -1.26683         0.20889
| 96>    C       30.64100        -2.23784        -0.64337
| 97>    C       27.17587        -2.49241         0.51125
| 98>    O       26.26273        -2.16124         1.23720
| 99>    H       -0.28003         3.84964        -3.63343
|100>    H       -1.95384         4.20558        -1.86166
|101>    H       -1.79859         2.96351         0.25973
|102>    H        0.02994         1.35489         0.62653
|103>    H        2.03169         0.22479        -0.14724
|104>    H        1.76864         2.73128        -4.45286
|105>    H        6.32703         0.13349        -4.73275
|106>    H        6.60824        -0.31224        -0.88245
|107>    H       12.06645        -2.27711         1.24775
|108>    H       14.67577        -2.99453        -2.60149
|109>    H       17.02733        -3.47739        -2.30404
|110>    H       15.96142        -4.40533         5.10303
|111>    H       16.27190        -2.67698         5.20601
|112>    H       17.50104        -3.75109         4.51275
|113>    H       12.52637        -2.68741         3.88302
|114>    H       13.87953        -2.14980         4.89519
|115>    H       13.48915        -3.86231         4.79914
|116>    H       18.70824        -3.64403         2.08685
|117>    H       24.85525        -3.87117         1.40886
|118>    H       26.10290        -4.26627        -2.27071
|119>    H       28.47159        -0.57857         2.15296
|120>    H       30.43627         0.76491         2.84071
|121>    H       32.79674         1.40252         2.53783
|122>    H       34.14888         0.35008         0.76839
|123>    H       33.15289        -1.34573        -0.71363
|124>    H       31.25498        -2.67517        -1.41475
|125> *
|126>
|127>                          ****END OF INPUT****

CARTESIAN COORDINATES (ANGSTROEM)
---------------------------------
  C     -0.217030    3.307590   -2.701140
  C     -1.146100    3.504070   -1.715640
  C     -1.057180    2.797060   -0.507320
  C     -0.041230    1.903880   -0.300840
  C      0.931650    1.675820   -1.294890
  C      1.979020    0.748060   -1.089210
  C      2.905540    0.552730   -2.076970
  C      2.823300    1.292080   -3.293030
  C      1.818090    2.186800   -3.521590
  C      0.841950    2.396120   -2.521180
  C      3.964920    0.938410   -4.153220
  O      4.203890    1.316720   -5.277400
  C      4.824180    0.048700   -3.317510
  C      4.059950   -0.337770   -2.151290
  C      4.221210   -1.474830   -1.401420
  C      5.221810   -2.435290   -1.640720
  N      6.012560   -3.249090   -1.818180
  C      3.344650   -1.861870   -0.366370
  N      2.659530   -2.225640    0.479310
  C      6.112840   -0.157960   -3.708620
  C      7.214990   -0.598050   -2.946370
  C      7.367720   -0.642080   -1.567380
  C      8.626160   -1.089550   -1.191150
  C      9.457480   -1.386970   -2.291340
  S      8.684440   -1.100760   -3.778810
  C     10.709940   -1.828690   -1.796900
  C     10.666640   -1.819030   -0.391370
  C      9.353230   -1.367910    0.035090
  C      8.887810   -1.248470    1.312180
  C      9.683780   -1.561640    2.432780
  N     10.331260   -1.809900    3.346300
  C      7.577770   -0.797640    1.578620
  N      6.513820   -0.419920    1.779850
  C     11.867400   -2.211680    0.194530
  C     12.836720   -2.516890   -0.741420
  S     12.230460   -2.325140   -2.387820
  C     14.202340   -2.895630   -0.522370
  C     15.062820   -3.086760   -1.596800
  C     16.406870   -3.363380   -1.426660
  C     16.989770   -3.471480   -0.169640
  C     16.127760   -3.346060    0.963640
  C     14.747770   -3.057710    0.788920
  N     13.956360   -2.934350    1.871050
  C     14.451020   -3.082360    3.071640
  C     15.834910   -3.378730    3.246710
  N     16.618970   -3.498330    2.207870
  C     16.434000   -3.564750    4.596770
  C     13.526070   -2.935200    4.228910
  C     18.405480   -3.657960   -0.037620
  C     19.164160   -3.704190    1.116490
  C     20.527160   -3.817010    0.853900
  C     20.819570   -3.866770   -0.520400
  S     19.412410   -3.779970   -1.481230
  C     22.224520   -3.929920   -0.681020
  C     22.823910   -3.906890    0.598000
  C     21.773440   -3.867710    1.601960
  C     21.914770   -3.889950    2.958230
  C     23.171500   -3.982300    3.595000
  N     24.178610   -4.078680    4.133670
  C     20.801800   -3.850270    3.823850
  N     19.903140   -3.816290    4.535700
  C     24.211740   -3.888090    0.549910
  C     24.689800   -3.902440   -0.753040
  S     23.373760   -3.984960   -1.931920
  C     26.007020   -3.894180   -1.256910
  C     27.136100   -3.420490   -0.649060
  C     28.476700   -3.528630   -1.192790
  C     28.892190   -4.417530   -2.150630
  C     30.216850   -4.500580   -2.626640
  N     31.274850   -4.611950   -3.058350
  C     28.069520   -5.388230   -2.759020
  N     27.462230   -6.213780   -3.277700
  C     29.327020   -2.586580   -0.477170
  C     28.552470   -1.969190    0.545500
  C     29.080370   -1.030520    1.384000
  C     30.434840   -0.657540    1.233190
  C     31.034210    0.307450    2.066080
  C     32.345690    0.660150    1.896490
  C     33.115460    0.061200    0.888280
  C     32.563710   -0.880840    0.063200
  C     31.215800   -1.266830    0.208890
  C     30.641000   -2.237840   -0.643370
  C     27.175870   -2.492410    0.511250
  O     26.262730   -2.161240    1.237200
  H     -0.280030    3.849640   -3.633430
  H     -1.953840    4.205580   -1.861660
  H     -1.798590    2.963510    0.259730
  H      0.029940    1.354890    0.626530
  H      2.031690    0.224790   -0.147240
  H      1.768640    2.731280   -4.452860
  H      6.327030    0.133490   -4.732750
  H      6.608240   -0.312240   -0.882450
  H     12.066450   -2.277110    1.247750
  H     14.675770   -2.994530   -2.601490
  H     17.027330   -3.477390   -2.304040
  H     15.961420   -4.405330    5.103030
  H     16.271900   -2.676980    5.206010
  H     17.501040   -3.751090    4.512750
  H     12.526370   -2.687410    3.883020
  H     13.879530   -2.149800    4.895190
  H     13.489150   -3.862310    4.799140
  H     18.708240   -3.644030    2.086850
  H     24.855250   -3.871170    1.408860
  H     26.102900   -4.266270   -2.270710
  H     28.471590   -0.578570    2.152960
  H     30.436270    0.764910    2.840710
  H     32.796740    1.402520    2.537830
  H     34.148880    0.350080    0.768390
  H     33.152890   -1.345730   -0.713630
  H     31.254980   -2.675170   -1.414750

 Total Charge           Charge          ....    0
 Multiplicity           Mult            ....    1
 Number of Electrons    NEL             ....  584
 Basis Dimension        Dim             .... 1322

ORBITAL ENERGIES
----------------

  NO   OCC          E(Eh)            E(eV)
   0   2.0000     -88.996263     -2421.7114
   1   2.0000     -88.996081     -2421.7065
   2   2.0000     -88.992058     -2421.5970
   3   2.0000     -88.991613     -2421.5849
   4   2.0000     -19.215403      -522.8777
   5   2.0000     -19.212898      -522.8095
   6   2.0000     -14.435503      -392.8100
   7   2.0000     -14.435432      -392.8081
   8   2.0000     -14.433100      -392.7446
   9   2.0000     -14.429821      -392.6554
  10   2.0000     -14.425822      -392.5466
  11   2.0000     -14.425635      -392.5415
  12   2.0000     -14.416064      -392.2811
  13   2.0000     -14.413857      -392.2210
  14   2.0000     -14.412458      -392.1829
  15   2.0000     -14.411121      -392.1465
  16   2.0000     -10.367598      -282.1167
  17   2.0000     -10.367359      -282.1102
  18   2.0000     -10.367310      -282.1089
  19   2.0000     -10.364327      -282.0277
  20   2.0000     -10.355011      -281.7742
  21   2.0000     -10.354705      -281.7659
  22   2.0000     -10.346121      -281.5323
  23   2.0000     -10.344146      -281.4785
  24   2.0000     -10.341266      -281.4001
  25   2.0000     -10.340298      -281.3738
  26   2.0000     -10.339536      -281.3531
  27   2.0000     -10.338580      -281.3271
  28   2.0000     -10.336548      -281.2718
  29   2.0000     -10.336464      -281.2695
  30   2.0000     -10.334610      -281.2190
  31   2.0000     -10.334514      -281.2164
  32   2.0000     -10.333478      -281.1882
  33   2.0000     -10.330609      -281.1102
  34   2.0000     -10.330384      -281.1040
  35   2.0000     -10.329540      -281.0811
  36   2.0000     -10.328713      -281.0586
  37   2.0000     -10.328333      -281.0482
  38   2.0000     -10.328088      -281.0416
  39   2.0000     -10.327319      -281.0206
  40   2.0000     -10.326864      -281.0082
  41   2.0000     -10.326607      -281.0013
  42   2.0000     -10.326433      -280.9965
  43   2.0000     -10.323914      -280.9280
  44   2.0000     -10.317238      -280.7463
  45   2.0000     -10.317025      -280.7405
  46   2.0000     -10.315511      -280.6993
  47   2.0000     -10.313693      -280.6498
  48   2.0000     -10.312754      -280.6243
  49   2.0000     -10.310878      -280.5733
  50   2.0000     -10.310686      -280.5680
  51   2.0000     -10.309408      -280.5332
  52   2.0000     -10.307447      -280.4799
  53   2.0000     -10.307446      -280.4799
  54   2.0000     -10.306983      -280.4673
  55   2.0000     -10.305366      -280.4233
  56   2.0000     -10.301137      -280.3082
  57   2.0000     -10.301032      -280.3053
  58   2.0000     -10.299807      -280.2720
  59   2.0000     -10.299591      -280.2661
  60   2.0000     -10.299227      -280.2562
  61   2.0000     -10.298324      -280.2316
  62   2.0000     -10.296302      -280.1766
  63   2.0000     -10.296054      -280.1699
  64   2.0000     -10.295752      -280.1617
  65   2.0000     -10.295544      -280.1560
  66   2.0000     -10.295297      -280.1493
  67   2.0000     -10.295224      -280.1473
  68   2.0000     -10.294898      -280.1384
  69   2.0000     -10.294271      -280.1214
  70   2.0000     -10.291997      -280.0595
  71   2.0000     -10.291606      -280.0488
  72   2.0000     -10.287479      -279.9365
  73   2.0000     -10.287142      -279.9274
  74   2.0000     -10.285321      -279.8778
  75   2.0000     -10.284791      -279.8634
  76   2.0000     -10.284701      -279.8609
  77   2.0000     -10.284609      -279.8584
  78   2.0000     -10.284218      -279.8478
  79   2.0000     -10.284156      -279.8461
  80   2.0000     -10.283880      -279.8386
  81   2.0000     -10.283191      -279.8199
  82   2.0000     -10.266131      -279.3556
  83   2.0000     -10.265987      -279.3517
  84   2.0000      -8.090955      -220.1661
  85   2.0000      -8.090771      -220.1611
  86   2.0000      -8.086421      -220.0427
  87   2.0000      -8.085933      -220.0294
  88   2.0000      -6.060109      -164.9039
  89   2.0000      -6.059911      -164.8986
  90   2.0000      -6.055941      -164.7905
  91   2.0000      -6.055750      -164.7853
  92   2.0000      -6.055658      -164.7828
  93   2.0000      -6.055186      -164.7700
  94   2.0000      -6.053474      -164.7234
  95   2.0000      -6.053334      -164.7196
  96   2.0000      -6.051504      -164.6698
  97   2.0000      -6.050993      -164.6559
  98   2.0000      -6.048852      -164.5976
  99   2.0000      -6.048398      -164.5853
 100   2.0000      -1.130965       -30.7751
 101   2.0000      -1.128199       -30.6999
 102   2.0000      -1.089297       -29.6413
 103   2.0000      -1.049161       -28.5491
 104   2.0000      -1.048947       -28.5433
 105   2.0000      -1.025915       -27.9166
 106   2.0000      -1.025090       -27.8941
 107   2.0000      -1.017429       -27.6856
 108   2.0000      -1.016633       -27.6640
 109   2.0000      -1.013768       -27.5860
 110   2.0000      -1.011680       -27.5292
 111   2.0000      -1.009370       -27.4663
 112   2.0000      -1.003737       -27.3131
 113   2.0000      -0.999740       -27.2043
 114   2.0000      -0.997058       -27.1313
 115   2.0000      -0.996726       -27.1223
 116   2.0000      -0.991702       -26.9856
 117   2.0000      -0.990784       -26.9606
 118   2.0000      -0.976740       -26.5784
 119   2.0000      -0.970686       -26.4137
 120   2.0000      -0.969150       -26.3719
 121   2.0000      -0.962799       -26.1991
 122   2.0000      -0.955831       -26.0095
 123   2.0000      -0.928405       -25.2632
 124   2.0000      -0.926155       -25.2019
 125   2.0000      -0.919947       -25.0330
 126   2.0000      -0.915961       -24.9246
 127   2.0000      -0.901348       -24.5269
 128   2.0000      -0.897631       -24.4258
 129   2.0000      -0.893897       -24.3242
 130   2.0000      -0.885202       -24.0876
 131   2.0000      -0.880024       -23.9467
 132   2.0000      -0.879565       -23.9342
 133   2.0000      -0.876414       -23.8484
 134   2.0000      -0.875839       -23.8328
 135   2.0000      -0.865164       -23.5423
 136   2.0000      -0.858761       -23.3681
 137   2.0000      -0.856926       -23.3181
 138   2.0000      -0.854719       -23.2581
 139   2.0000      -0.826849       -22.4997
 140   2.0000      -0.826416       -22.4879
 141   2.0000      -0.822661       -22.3857
 142   2.0000      -0.820291       -22.3212
 143   2.0000      -0.811430       -22.0801
 144   2.0000      -0.810939       -22.0668
 145   2.0000      -0.793230       -21.5849
 146   2.0000      -0.780237       -21.2313
 147   2.0000      -0.778472       -21.1833
 148   2.0000      -0.769018       -20.9260
 149   2.0000      -0.759980       -20.6801
 150   2.0000      -0.758417       -20.6376
 151   2.0000      -0.743810       -20.2401
 152   2.0000      -0.730809       -19.8863
 153   2.0000      -0.726103       -19.7583
 154   2.0000      -0.725671       -19.7465
 155   2.0000      -0.716669       -19.5016
 156   2.0000      -0.705861       -19.2075
 157   2.0000      -0.703620       -19.1465
 158   2.0000      -0.702296       -19.1104
 159   2.0000      -0.699825       -19.0432
 160   2.0000      -0.697862       -18.9898
 161   2.0000      -0.694069       -18.8866
 162   2.0000      -0.685311       -18.6483
 163   2.0000      -0.682707       -18.5774
 164   2.0000      -0.679261       -18.4836
 165   2.0000      -0.674400       -18.3513
 166   2.0000      -0.670406       -18.2427
 167   2.0000      -0.666489       -18.1361
 168   2.0000      -0.653677       -17.7874
 169   2.0000      -0.647903       -17.6303
 170   2.0000      -0.637552       -17.3487
 171   2.0000      -0.637355       -17.3433
 172   2.0000      -0.631599       -17.1867
 173   2.0000      -0.629562       -17.1313
 174   2.0000      -0.627004       -17.0616
 175   2.0000      -0.621495       -16.9117
 176   2.0000      -0.616694       -16.7811
 177   2.0000      -0.613727       -16.7004
 178   2.0000      -0.612043       -16.6545
 179   2.0000      -0.605501       -16.4765
 180   2.0000      -0.605186       -16.4679
 181   2.0000      -0.600514       -16.3408
 182   2.0000      -0.594499       -16.1771
 183   2.0000      -0.588675       -16.0187
 184   2.0000      -0.580469       -15.7954
 185   2.0000      -0.570912       -15.5353
 186   2.0000      -0.569015       -15.4837
 187   2.0000      -0.558270       -15.1913
 188   2.0000      -0.556435       -15.1414
 189   2.0000      -0.554992       -15.1021
 190   2.0000      -0.553233       -15.0542
 191   2.0000      -0.550742       -14.9865
 192   2.0000      -0.549972       -14.9655
 193   2.0000      -0.546002       -14.8575
 194   2.0000      -0.545270       -14.8375
 195   2.0000      -0.544133       -14.8066
 196   2.0000      -0.538052       -14.6412
 197   2.0000      -0.535541       -14.5728
 198   2.0000      -0.535228       -14.5643
 199   2.0000      -0.531692       -14.4681
 200   2.0000      -0.527831       -14.3630
 201   2.0000      -0.522935       -14.2298
 202   2.0000      -0.521157       -14.1814
 203   2.0000      -0.518375       -14.1057
 204   2.0000      -0.517436       -14.0802
 205   2.0000      -0.514895       -14.0110
 206   2.0000      -0.513665       -13.9775
 207   2.0000      -0.511002       -13.9051
 208   2.0000      -0.510024       -13.8784
 209   2.0000      -0.509118       -13.8538
 210   2.0000      -0.508103       -13.8262
 211   2.0000      -0.506845       -13.7920
 212   2.0000      -0.505618       -13.7586
 213   2.0000      -0.504499       -13.7281
 214   2.0000      -0.502006       -13.6603
 215   2.0000      -0.500167       -13.6102
 216   2.0000      -0.498615       -13.5680
 217   2.0000      -0.496611       -13.5135
 218   2.0000      -0.494846       -13.4655
 219   2.0000      -0.492929       -13.4133
 220   2.0000      -0.491830       -13.3834
 221   2.0000      -0.488940       -13.3047
 222   2.0000      -0.487209       -13.2576
 223   2.0000      -0.485083       -13.1998
 224   2.0000      -0.484723       -13.1900
 225   2.0000      -0.481697       -13.1077
 226   2.0000      -0.480815       -13.0837
 227   2.0000      -0.478026       -13.0077
 228   2.0000      -0.476058       -12.9542
 229   2.0000      -0.474678       -12.9167
 230   2.0000      -0.471457       -12.8290
 231   2.0000      -0.463854       -12.6221
 232   2.0000      -0.463385       -12.6094
 233   2.0000      -0.462950       -12.5975
 234   2.0000      -0.462338       -12.5809
 235   2.0000      -0.459500       -12.5036
 236   2.0000      -0.455539       -12.3958
 237   2.0000      -0.454257       -12.3610
 238   2.0000      -0.452766       -12.3204
 239   2.0000      -0.449212       -12.2237
 240   2.0000      -0.447470       -12.1763
 241   2.0000      -0.447157       -12.1678
 242   2.0000      -0.446493       -12.1497
 243   2.0000      -0.444546       -12.0967
 244   2.0000      -0.443104       -12.0575
 245   2.0000      -0.442717       -12.0470
 246   2.0000      -0.442565       -12.0428
 247   2.0000      -0.442009       -12.0277
 248   2.0000      -0.441139       -12.0040
 249   2.0000      -0.440628       -11.9901
 250   2.0000      -0.439108       -11.9487
 251   2.0000      -0.437911       -11.9162
 252   2.0000      -0.437083       -11.8936
 253   2.0000      -0.433624       -11.7995
 254   2.0000      -0.432337       -11.7645
 255   2.0000      -0.431163       -11.7325
 256   2.0000      -0.430842       -11.7238
 257   2.0000      -0.429802       -11.6955
 258   2.0000      -0.428530       -11.6609
 259   2.0000      -0.426342       -11.6014
 260   2.0000      -0.424753       -11.5581
 261   2.0000      -0.424027       -11.5384
 262   2.0000      -0.420249       -11.4355
 263   2.0000      -0.418623       -11.3913
 264   2.0000      -0.415094       -11.2953
 265   2.0000      -0.414434       -11.2773
 266   2.0000      -0.408218       -11.1082
 267   2.0000      -0.407324       -11.0838
 268   2.0000      -0.402297       -10.9471
 269   2.0000      -0.401181       -10.9167
 270   2.0000      -0.384644       -10.4667
 271   2.0000      -0.380381       -10.3507
 272   2.0000      -0.378568       -10.3013
 273   2.0000      -0.374166       -10.1816
 274   2.0000      -0.369389       -10.0516
 275   2.0000      -0.356973        -9.7137
 276   2.0000      -0.353442        -9.6176
 277   2.0000      -0.350027        -9.5247
 278   2.0000      -0.342721        -9.3259
 279   2.0000      -0.336313        -9.1515
 280   2.0000      -0.332582        -9.0500
 281   2.0000      -0.329459        -8.9650
 282   2.0000      -0.325175        -8.8485
 283   2.0000      -0.323800        -8.8111
 284   2.0000      -0.323357        -8.7990
 285   2.0000      -0.316827        -8.6213
 286   2.0000      -0.314725        -8.5641
 287   2.0000      -0.306867        -8.3503
 288   2.0000      -0.293817        -7.9952
 289   2.0000      -0.292049        -7.9470
 290   2.0000      -0.273912        -7.4535
 291   2.0000      -0.249039        -6.7767
 292   0.0000      -0.117284        -3.1915
 293   0.0000      -0.109816        -2.9883
 294   0.0000      -0.089070        -2.4237
 295   0.0000      -0.087846        -2.3904
 296   0.0000      -0.066305        -1.8043

MULLIKEN ATOMIC CHARGES
-----------------------
   0 C :   -0.014606
   1 C :    0.034129
   2 C :    0.034731
   3 C :   -0.014540
   4 C :    0.089609
   5 C :   -0.074753
   6 C :    0.026310
   7 C :    0.019450
   8 C :   -0.081345
   9 C :    0.092945
  10 C :    0.135660
  11 O :   -0.145913
  12 C :   -0.144868
  13 C :    0.270546
  14 C :   -0.330206
  15 C :   -0.203975
  16 N :    0.166432
  17 C :   -0.169974
  18 N :    0.155442
  19 C :    0.085710
  20 C :   -0.113030
  21 C :    0.006911
  22 C :   -0.011995
  23 C :   -0.071050
  24 S :    0.211944
  25 C :   -0.092889
  26 C :    0.045138
  27 C :    0.312135
  28 C :   -0.297034
  29 C :   -0.175824
  30 N :    0.183100
  31 C :   -0.188271
  32 N :    0.174163
  33 C :   -0.057989
  34 C :   -0.107757
  35 S :    0.161082
  36 C :    0.164641
  37 C :   -0.074535
  38 C :   -0.075578
  39 C :    0.165387
  40 C :   -0.041931
  41 C :   -0.041887
  42 N :   -0.014559
  43 C :   -0.156564
  44 C :   -0.158241
  45 N :   -0.013954
  46 C :    0.126751
  47 C :    0.126085
  48 C :   -0.108850
  49 C :   -0.051765
  50 C :    0.042287
  51 C :   -0.091532
  52 S :    0.159892
  53 C :   -0.082080
  54 C :   -0.030253
  55 C :    0.310134
  56 C :   -0.298081
  57 C :   -0.189497
  58 N :    0.183234
  59 C :   -0.179526
  60 N :    0.185447
  61 C :    0.052687
  62 C :   -0.118629
  63 S :    0.204953
  64 C :    0.030071
  65 C :   -0.103753
  66 C :    0.301626
  67 C :   -0.341725
  68 C :   -0.182859
  69 N :    0.147263
  70 C :   -0.209636
  71 N :    0.157905
  72 C :    0.049682
  73 C :   -0.007036
  74 C :   -0.080164
  75 C :    0.098743
  76 C :   -0.017368
  77 C :    0.035424
  78 C :    0.036062
  79 C :   -0.019855
  80 C :    0.098291
  81 C :   -0.084494
  82 C :    0.154015
  83 O :   -0.154251
  84 H :   -0.018275
  85 H :   -0.005224
  86 H :   -0.004124
  87 H :   -0.009754
  88 H :   -0.000284
  89 H :   -0.013283
  90 H :    0.018545
  91 H :    0.025431
  92 H :    0.018015
  93 H :   -0.008312
  94 H :   -0.008164
  95 H :    0.026798
  96 H :    0.026430
  97 H :    0.035030
  98 H :    0.035764
  99 H :    0.026662
 100 H :    0.027492
 101 H :    0.016906
 102 H :    0.029765
 103 H :    0.025065
 104 H :   -0.011688
 105 H :   -0.016645
 106 H :   -0.005132
 107 H :   -0.004963
 108 H :   -0.009531
 109 H :   -0.007921
Sum of atomic charges:   -0.0000000

LOEWDIN ATOMIC CHARGES
----------------------
   0 C :   -0.009824
   1 C :   -0.013600
   2 C :   -0.013266
   3 C :   -0.005390
   4 C :   -0.005303
   5 C :    0.018373
   6 C :   -0.022730
   7 C :   -0.057460
   8 C :    0.032073
   9 C :   -0.009429
  10 C :    0.083176
  11 O :   -0.146853
  12 C :   -0.092352
  13 C :    0.065664
  14 C :   -0.138702
  15 C :   -0.016139
  16 N :   -0.048084
  17 C :   -0.018316
  18 N :   -0.048279
  19 C :    0.041828
  20 C :   -0.181813
  21 C :    0.011747
  22 C :   -0.067880
  23 C :   -0.156597
  24 S :    0.498427
  25 C :   -0.185002
  26 C :   -0.062066
  27 C :    0.085918
  28 C :   -0.101060
  29 C :   -0.003484
  30 N :   -0.029956
  31 C :   -0.014309
  32 N :   -0.032198
  33 C :   -0.021007
  34 C :   -0.146236
  35 S :    0.475191
  36 C :   -0.035570
  37 C :   -0.022958
  38 C :   -0.021594
  39 C :   -0.037888
  40 C :   -0.000715
  41 C :   -0.001192
  42 N :   -0.037742
  43 C :    0.012940
  44 C :    0.013245
  45 N :   -0.038267
  46 C :   -0.055007
  47 C :   -0.054607
  48 C :   -0.143344
  49 C :   -0.022821
  50 C :   -0.059138
  51 C :   -0.189660
  52 S :    0.473982
  53 C :   -0.156718
  54 C :   -0.076216
  55 C :    0.081572
  56 C :   -0.098464
  57 C :   -0.019573
  58 N :   -0.022443
  59 C :   -0.002762
  60 N :   -0.030324
  61 C :    0.027798
  62 C :   -0.180133
  63 S :    0.491270
  64 C :    0.043581
  65 C :   -0.095827
  66 C :    0.075586
  67 C :   -0.143160
  68 C :   -0.017937
  69 N :   -0.055180
  70 C :   -0.025473
  71 N :   -0.055181
  72 C :   -0.026010
  73 C :   -0.054563
  74 C :    0.032556
  75 C :   -0.008328
  76 C :   -0.009417
  77 C :   -0.012694
  78 C :   -0.013767
  79 C :   -0.005768
  80 C :   -0.006362
  81 C :    0.018962
  82 C :    0.084139
  83 O :   -0.141201
  84 H :    0.031511
  85 H :    0.032555
  86 H :    0.033205
  87 H :    0.034918
  88 H :    0.040434
  89 H :    0.038926
  90 H :    0.045017
  91 H :    0.042964
  92 H :    0.036394
  93 H :    0.022945
  94 H :    0.022946
  95 H :    0.041004
  96 H :    0.040456
  97 H :    0.037428
  98 H :    0.037775
  99 H :    0.040524
 100 H :    0.041192
 101 H :    0.036154
 102 H :    0.045972
 103 H :    0.044143
 104 H :    0.039464
 105 H :    0.032048
 106 H :    0.032723
 107 H :    0.033081
 108 H :    0.034603
 109 H :    0.038934

  Mayer bond orders larger than 0.100000
B(  0-C ,  1-C ) :   1.4894 B(  0-C ,  9-C ) :   1.2450 B(  0-C , 84-H ) :   0.9970
B(  1-C ,  2-C ) :   1.2615 B(  1-C , 85-H ) :   0.9886 B(  2-C ,  3-C ) :   1.4889
B(  2-C , 86-H ) :   0.9883 B(  3-C ,  4-C ) :   1.2433 B(  3-C , 87-H ) :   0.9969
B(  4-C ,  5-C ) :   1.2039 B(  4-C ,  9-C ) :   1.2577 B(  5-C ,  6-C ) :   1.4635
B(  5-C , 88-H ) :   0.9931 B(  6-C ,  7-C ) :   1.2149 B(  6-C , 13-C ) :   0.9953
B(  7-C ,  8-C ) :   1.4738 B(  7-C , 10-C ) :   0.9208 B(  8-C ,  9-C ) :   1.1846
B(  8-C , 89-H ) :   1.0157 B( 10-C , 11-O ) :   2.2643 B( 10-C , 12-C ) :   0.9426
B( 12-C , 13-C ) :   1.0402 B( 12-C , 19-C ) :   1.6632 B( 13-C , 14-C ) :   1.6440
B( 14-C , 15-C ) :   1.1724 B( 14-C , 17-C ) :   1.1292 B( 15-C , 16-N ) :   2.9946
B( 17-C , 18-N ) :   2.9910 B( 19-C , 20-C ) :   1.1467 B( 19-C , 90-H ) :   0.9262
B( 20-C , 21-C ) :   1.3896 B( 20-C , 24-S ) :   1.0864 B( 21-C , 22-C ) :   1.3631
B( 21-C , 91-H ) :   0.9778 B( 22-C , 23-C ) :   1.4080 B( 22-C , 27-C ) :   0.9949
B( 23-C , 24-S ) :   1.1568 B( 23-C , 25-C ) :   1.1889 B( 25-C , 26-C ) :   1.4312
B( 25-C , 35-S ) :   1.1214 B( 26-C , 27-C ) :   0.9992 B( 26-C , 33-C ) :   1.2214
B( 27-C , 28-C ) :   1.7129 B( 28-C , 29-C ) :   1.1415 B( 28-C , 31-C ) :   1.1311
B( 29-C , 30-N ) :   2.9804 B( 31-C , 32-N ) :   2.9860 B( 33-C , 34-C ) :   1.4830
B( 33-C , 92-H ) :   0.9809 B( 34-C , 35-S ) :   1.0967 B( 34-C , 36-C ) :   1.1170
B( 36-C , 37-C ) :   1.3774 B( 36-C , 39-C ) :   0.1218 B( 36-C , 41-C ) :   1.2137
B( 37-C , 38-C ) :   1.3226 B( 37-C , 93-H ) :   0.9855 B( 38-C , 39-C ) :   1.3768
B( 38-C , 94-H ) :   0.9854 B( 39-C , 40-C ) :   1.2142 B( 39-C , 48-C ) :   1.1171
B( 40-C , 41-C ) :   1.2639 B( 40-C , 45-N ) :   1.4425 B( 41-C , 42-N ) :   1.4403
B( 42-N , 43-C ) :   1.6646 B( 43-C , 44-C ) :   1.1592 B( 43-C , 47-C ) :   1.0976
B( 44-C , 45-N ) :   1.6642 B( 44-C , 46-C ) :   1.0975 B( 46-C , 95-H ) :   0.9321
B( 46-C , 96-H ) :   0.9338 B( 46-C , 97-H ) :   0.9296 B( 47-C , 98-H ) :   0.9305
B( 47-C , 99-H ) :   0.9342 B( 47-C ,100-H ) :   0.9324 B( 48-C , 49-C ) :   1.4790
B( 48-C , 52-S ) :   1.0993 B( 49-C , 50-C ) :   1.2250 B( 49-C ,101-H ) :   0.9806
B( 50-C , 51-C ) :   1.4299 B( 50-C , 55-C ) :   1.0021 B( 51-C , 52-S ) :   1.1163
B( 51-C , 53-C ) :   1.1982 B( 53-C , 54-C ) :   1.3827 B( 53-C , 63-S ) :   1.1659
B( 54-C , 55-C ) :   0.9900 B( 54-C , 61-C ) :   1.3470 B( 55-C , 56-C ) :   1.7143
B( 56-C , 57-C ) :   1.1293 B( 56-C , 59-C ) :   1.1422 B( 57-C , 58-N ) :   2.9963
B( 59-C , 60-N ) :   2.9813 B( 61-C , 62-C ) :   1.4105 B( 61-C ,102-H ) :   0.9753
B( 62-C , 63-S ) :   1.0698 B( 62-C , 64-C ) :   1.1921 B( 64-C , 65-C ) :   1.5969
B( 64-C ,103-H ) :   0.9305 B( 65-C , 66-C ) :   1.0707 B( 65-C , 82-C ) :   0.9449
B( 66-C , 67-C ) :   1.6350 B( 66-C , 72-C ) :   0.9925 B( 67-C , 68-C ) :   1.1432
B( 67-C , 70-C ) :   1.1411 B( 68-C , 69-N ) :   2.9682 B( 70-C , 71-N ) :   2.9971
B( 72-C , 73-C ) :   1.2127 B( 72-C , 81-C ) :   1.4503 B( 73-C , 74-C ) :   1.4748
B( 73-C , 82-C ) :   0.9449 B( 74-C , 75-C ) :   1.1758 B( 74-C ,104-H ) :   1.0167
B( 75-C , 76-C ) :   1.2454 B( 75-C , 80-C ) :   1.2579 B( 76-C , 77-C ) :   1.4866
B( 76-C ,105-H ) :   0.9982 B( 77-C , 78-C ) :   1.2610 B( 77-C ,106-H ) :   0.9894
B( 78-C , 79-C ) :   1.4885 B( 78-C ,107-H ) :   0.9880 B( 79-C , 80-C ) :   1.2390
B( 79-C ,108-H ) :   0.9976 B( 80-C , 81-C ) :   1.2034 B( 81-C ,109-H ) :   0.9914
B( 82-C , 83-O ) :   2.1986

-----------------------------------------------------------------------------
         ABSORPTION SPECTRUM VIA TRANSITION ELECTRIC DIPOLE MOMENTS
-----------------------------------------------------------------------------
State   Energy  Wavelength   fosc         T2         TX        TY        TZ
        (cm-1)    (nm)                  (au**2)     (au)      (au)      (au)
-----------------------------------------------------------------------------
   0   12495.1    800.3   0.742800581  19.57073   4.35905  -0.64896   0.38508
   1   13445.1    743.8   0.053814937   1.31769   1.03938   0.18600  -0.45032
   2   19065.4    524.5   1.905640063  32.90569  -5.68704   0.67325  -0.33167
   3   20799.0    480.8   0.196719171   3.11371   1.52808   0.29983  -0.82994
   4   21479.9    465.6   0.007744813   0.11870   0.22273   0.14594  -0.21862
   5   22864.4    437.4   0.084382123   1.21497  -0.95672  -0.25921   0.48215
   6   24654.6    405.6   0.112393333   1.50078  -0.96881   0.45609  -0.59513
   7   25410.5    393.5   0.065128398   0.84379   0.61841  -0.66335   0.14604
   8   25694.6    389.2   0.058319052   0.74721  -0.80517  -0.21929  -0.22546
   9   26851.1    372.4   0.004418609   0.05417  -0.07965   0.16989  -0.13773
  10   27177.7    367.9   0.002657617   0.03219   0.01468   0.17544   0.03462
  11   27667.3    361.4   0.012889073   0.15337   0.08237   0.13349  -0.35883
  12   27810.4    359.6   0.023013755   0.27243   0.07175   0.35181   0.37883
  13   28240.3    354.1   0.023449438   0.27336   0.38084   0.15618   0.32239
  14   28545.8    350.3   0.023181818   0.26735   0.08249   0.50965  -0.02836
  15   29005.9    344.8   0.035879061   0.40722   0.30805  -0.48073   0.28501
  16   29077.6    343.9   0.022518933   0.25496  -0.13760   0.48455   0.03509
  17   29371.9    340.5   0.069215574   0.77580  -0.12330   0.25568   0.83380
  18   29733.8    336.3   0.088498784   0.97986  -0.39326   0.37205  -0.82872
  19   30156.8    331.6   0.084931564   0.92717   0.01809  -0.27514   0.92257
  20   30267.3    330.4   0.228802550   2.48864   0.58357  -1.46540   0.02634
  21   30511.5    327.7   0.056185044   0.60622   0.75496   0.18163   0.05714
  22   30529.4    327.6   0.131457398   1.41756  -1.15966  -0.26166  -0.06550
  23   30692.3    325.8   0.275093796   2.95071   1.70540   0.12067   0.16659
  24   30772.7    325.0   0.077903165   0.83342  -0.86725   0.13005   0.25376
  25   31254.7    320.0   0.631890703   6.65582   0.05158  -0.09287  -2.57770
  26   31639.8    316.1   0.293179413   3.05053   1.65014  -0.48103   0.31013
  27   31943.9    313.0   0.035548534   0.36636   0.60134  -0.00292  -0.06884
  28   31995.1    312.5   0.055167579   0.56764  -0.34465  -0.54380  -0.39133
  29   32223.9    310.3   0.302424442   3.08969  -1.67927   0.26778   0.44499
  30   32467.5    308.0   0.025771410   0.26132  -0.02931   0.50230  -0.09030
  31   32650.8    306.3   0.217447922   2.19249  -1.00485  -0.78589  -0.75176
  32   33132.9    301.8   0.027174708   0.27001   0.49179  -0.14686   0.08113
  33   33725.2    296.5   0.040568906   0.39602  -0.07009  -0.48735  -0.39192
  34   33913.1    294.9   0.019702475   0.19126   0.33166  -0.24867  -0.13939
  35   33980.3    294.3   0.037478083   0.36310  -0.55847  -0.21397  -0.07364
  36   34136.6    292.9   0.023998779   0.23144   0.17485  -0.44785  -0.01731
  37   34218.3    292.2   0.352271184   3.38917  -1.48518   1.04738  -0.29394
  38   34676.1    288.4   0.138840997   1.31814  -0.64851  -0.92228  -0.21672
  39   34767.6    287.6   0.421156635   3.98790   0.76532   0.33258   1.81427
  40   35014.8    285.6   0.337191043   3.17030   0.23526  -1.58948  -0.76714
  41   35174.9    284.3   0.109483990   1.02469  -0.89942   0.42207  -0.19386
  42   35287.6    283.4   0.048210677   0.44978   0.44709  -0.06499  -0.49565
  43   35351.2    282.9   0.059658340   0.55557   0.40277  -0.40529  -0.47864
  44   35657.4    280.4   0.164956656   1.52299   0.08140   0.86491  -0.87652
  45   36017.4    277.6   0.221048761   2.02046   1.21537  -0.71410   0.18280
  46   36471.7    274.2   0.028385178   0.25622  -0.47450   0.16566   0.06020
  47   36543.1    273.6   0.013378158   0.12052   0.31109  -0.14576   0.04997
  48   36794.5    271.8   0.017905650   0.16021   0.33279   0.15219  -0.16216
  49   37157.6    269.1   0.091324864   0.80913   0.50088  -0.44956  -0.59678
  50   37214.3    268.7   0.173896267   1.53835  -0.26631  -0.32532  -1.16688
  51   37653.2    265.6   0.059737371   0.52230  -0.68723   0.21678  -0.05493
  52   37870.0    264.1   0.130376170   1.13339  -0.10079  -0.26457  -1.02627
  53   38073.3    262.7   0.090702014   0.78428   0.24851  -0.54836  -0.64948
  54   38260.9    261.4   0.009191549   0.07909   0.18381   0.14647  -0.15443
  55   38472.7    259.9   0.048181955   0.41229  -0.41016   0.43361   0.23674
  56   38688.2    258.5   0.039404698   0.33531  -0.16282   0.24298   0.49976
  57   39216.3    255.0   0.035705147   0.29974  -0.31626   0.31931   0.31266
  58   39454.5    253.5   0.037685291   0.31445   0.43105   0.01311   0.35843
  59   39631.1    252.3   0.183395353   1.52345  -0.89792   0.02388   0.84653
  60   39735.6    251.7   0.027351628   0.22661  -0.30952   0.34842   0.09701
  61   39791.4    251.3   0.126108138   1.04335  -0.06345   0.19949  -0.99976
  62   39856.2    250.9   0.088252985   0.72897   0.02120   0.30724  -0.79632
  63   40000.1    250.0   0.059599760   0.49052  -0.23906   0.08737  -0.65249
  64   40180.2    248.9   0.056967219   0.46675  -0.17868   0.03527   0.65847

FINAL SINGLE POINT ENERGY     -4892.786998265725

DIPOLE MOMENT
-------------
                                X             Y             Z
Electronic contribution:      3.86698     -20.01534     -26.22293
Nuclear contribution   :     -4.35208      23.24201      25.58005
                        -----------------------------------------
Total Dipole Moment    :     -0.48510       3.22667      -0.64288
                        -----------------------------------------
Magnitude (a.u.)       :      3.32566
Magnitude (Debye)      :      8.45315

Rotational constants in cm-1:     0.002016     0.000142     0.000139
Rotational constants in MHz :    60.430848     4.266175     4.179427

                             ****ORCA TERMINATED NORMALLY****
TOTAL RUN TIME: 0 days 0 hours 13 minutes 54 seconds 529 msec
