                         Program Version 4.2.0 -  RELEASE  -
|  1> # ORCA input file
|  2> # SCF done       -215.673408223864          0.000785291167
|  3> ! CAM-B3LYP def2-SVP def2/J RIJCOSX Grid4 TightSCF
|  4> %maxcore 5000
|  5> %tddft
|  6>     Mode sTDDFT
|  7>     Ethresh 5.0
|  8>     maxcore 5000
|  9> end
| 10>
| 11> %pal
| 12>   nprocs 6
| 13>   end
| 14> * xyz 0 1
| 15>    C        0.12630         1.96851         3.94703
| 16>    C       -0.26403         3.27636         4.04798
| 17>    C        0.69141         4.30360         4.04029
| 18>    C        2.02340         4.00954         3.93181
| 19>    C        2.46064         2.67349         3.82899
| 20>    C        3.83670         2.36405         3.72999
| 21>    C        4.22536         1.05492         3.63941
| 22>    C        3.24792         0.01695         3.62132
| 23>    C        1.91347         0.28722         3.72157
| 24>    C        1.48932         1.63055         3.83430
| 25>    C        3.92249        -1.28221         3.46602
| 26>    O        3.43265        -2.38835         3.46093
| 27>    C        5.36328        -0.95294         3.25096
| 28>    C        5.55053         0.44834         3.56625
| 29>    C        6.70938         1.05023         3.98423
| 30>    C        7.93955         0.38196         4.13181
| 31>    N        8.95615        -0.12619         4.29785
| 32>    C        6.78500         2.39165         4.41524
| 33>    N        6.90247         3.47283         4.78162
| 34>    C        6.18723        -1.91728         2.75841
| 35>    C        7.44952        -1.76513         2.14157
| 36>    C        7.99126        -0.64121         1.53538
| 37>    C        9.26149        -0.87916         1.02704
| 38>    C        9.70003        -2.20059         1.24357
| 39>    S        8.53297        -3.14762         2.04105
| 40>    C       11.01351        -2.32878         0.72941
| 41>    C       11.40486        -1.08910         0.18601
| 42>    C       10.32161        -0.13534         0.36687
| 43>    C       10.30318         1.18826         0.04055
| 44>    C       11.39261         1.83782        -0.57838
| 45>    N       12.26911         2.37615        -1.08387
| 46>    C        9.17793         1.99383         0.31751
| 47>    N        8.25439         2.63382         0.54679
| 48>    C       12.69221        -1.11377        -0.34247
| 49>    C       13.28527        -2.35763        -0.19253
| 50>    S       12.23549        -3.51231         0.60728
| 51>    C       14.58971        -2.74046        -0.62071
| 52>    C       15.14098        -3.98558        -0.32678
| 53>    O       14.39327        -4.85021         0.44507
| 54>    C       14.86375        -4.98613         1.77928
| 55>    C       16.41847        -4.39519        -0.78721
| 56>    O       16.90033        -5.64579        -0.53048
| 57>    C       16.06432        -6.76853        -0.77369
| 58>    C       17.27310        -3.53971        -1.48816
| 59>    C       16.75510        -2.24603        -1.76229
| 60>    C       15.42553        -1.86186        -1.36148
| 61>    N       15.23230        -0.63008        -1.78769
| 62>    O       16.34864        -0.26901        -2.40660
| 63>    N       17.27546        -1.21934        -2.40523
| 64>    C       18.56534        -3.94221        -1.93343
| 65>    C       19.46722        -3.17938        -2.66124
| 66>    C       20.62824        -3.88885        -2.95236
| 67>    C       20.60951        -5.19905        -2.43547
| 68>    S       19.16528        -5.55270        -1.59566
| 69>    C       21.82207        -5.83614        -2.78367
| 70>    C       22.61774        -4.92964        -3.52223
| 71>    C       21.89013        -3.67554        -3.64827
| 72>    C       22.29577        -2.53777        -4.27821
| 73>    C       23.54613        -2.41007        -4.92333
| 74>    N       24.55101        -2.26291        -5.45424
| 75>    C       21.48886        -1.37955        -4.33412
| 76>    N       20.84841        -0.43061        -4.39172
| 77>    C       23.83508        -5.46750        -3.91589
| 78>    C       23.99202        -6.78104        -3.48823
| 79>    S       22.57871        -7.34090        -2.57462
| 80>    C       25.02244        -7.73160        -3.62671
| 81>    C       26.23352        -7.68647        -4.26164
| 82>    C       27.17616        -8.79633        -4.27658
| 83>    C       27.02553       -10.02925        -3.69325
| 84>    C       27.99246       -11.05588        -3.75423
| 85>    N       28.72481       -11.94031        -3.75930
| 86>    C       25.91600       -10.48676        -2.95216
| 87>    N       25.06335       -10.95341        -2.33856
| 88>    C       28.34771        -8.37860        -5.03850
| 89>    C       28.13899        -7.04799        -5.49585
| 90>    C       29.06666        -6.38222        -6.24366
| 91>    C       30.27622        -7.03200        -6.57523
| 92>    C       31.27267        -6.39882        -7.34353
| 93>    C       32.43696        -7.04924        -7.65094
| 94>    C       32.65535        -8.36082        -7.20338
| 95>    C       31.70724        -9.00414        -6.45537
| 96>    C       30.49642        -8.36421        -6.12051
| 97>    C       29.51479        -9.02674        -5.34838
| 98>    C       26.82581        -6.56806        -5.03792
| 99>    O       26.35052        -5.47615        -5.27005
|100>    H       -0.60503         1.17348         3.95215
|101>    H       -1.31088         3.52633         4.13412
|102>    H        0.36653         5.32998         4.12160
|103>    H        2.76324         4.79633         3.92882
|104>    H        4.55076         3.17252         3.71531
|105>    H        1.18914        -0.51372         3.71520
|106>    H        5.78701        -2.92602         2.79711
|107>    H        7.45701         0.28672         1.44202
|108>    H       13.19780        -0.29162        -0.81520
|109>    H       14.79733        -4.03302         2.31263
|110>    H       15.89802        -5.33825         1.80826
|111>    H       14.20900        -5.71361         2.25437
|112>    H       16.74198        -7.58883        -1.00889
|113>    H       15.39772        -6.58843        -1.61890
|114>    H       15.47034        -7.02994         0.10335
|115>    H       19.25602        -2.16541        -2.94741
|116>    H       24.59057        -4.95767        -4.48768
|117>    H       24.78862        -8.66510        -3.12848
|118>    H       28.87769        -5.37239        -6.57634
|119>    H       31.09848        -5.38896        -7.68495
|120>    H       33.19594        -6.55692        -8.24038
|121>    H       33.57952        -8.85949        -7.45451
|122>    H       31.87075       -10.01403        -6.10865
|123>    H       29.71588       -10.03433        -5.02205
|124> *
|125>
|126>                          ****END OF INPUT****

CARTESIAN COORDINATES (ANGSTROEM)
---------------------------------
  C      0.126300    1.968510    3.947030
  C     -0.264030    3.276360    4.047980
  C      0.691410    4.303600    4.040290
  C      2.023400    4.009540    3.931810
  C      2.460640    2.673490    3.828990
  C      3.836700    2.364050    3.729990
  C      4.225360    1.054920    3.639410
  C      3.247920    0.016950    3.621320
  C      1.913470    0.287220    3.721570
  C      1.489320    1.630550    3.834300
  C      3.922490   -1.282210    3.466020
  O      3.432650   -2.388350    3.460930
  C      5.363280   -0.952940    3.250960
  C      5.550530    0.448340    3.566250
  C      6.709380    1.050230    3.984230
  C      7.939550    0.381960    4.131810
  N      8.956150   -0.126190    4.297850
  C      6.785000    2.391650    4.415240
  N      6.902470    3.472830    4.781620
  C      6.187230   -1.917280    2.758410
  C      7.449520   -1.765130    2.141570
  C      7.991260   -0.641210    1.535380
  C      9.261490   -0.879160    1.027040
  C      9.700030   -2.200590    1.243570
  S      8.532970   -3.147620    2.041050
  C     11.013510   -2.328780    0.729410
  C     11.404860   -1.089100    0.186010
  C     10.321610   -0.135340    0.366870
  C     10.303180    1.188260    0.040550
  C     11.392610    1.837820   -0.578380
  N     12.269110    2.376150   -1.083870
  C      9.177930    1.993830    0.317510
  N      8.254390    2.633820    0.546790
  C     12.692210   -1.113770   -0.342470
  C     13.285270   -2.357630   -0.192530
  S     12.235490   -3.512310    0.607280
  C     14.589710   -2.740460   -0.620710
  C     15.140980   -3.985580   -0.326780
  O     14.393270   -4.850210    0.445070
  C     14.863750   -4.986130    1.779280
  C     16.418470   -4.395190   -0.787210
  O     16.900330   -5.645790   -0.530480
  C     16.064320   -6.768530   -0.773690
  C     17.273100   -3.539710   -1.488160
  C     16.755100   -2.246030   -1.762290
  C     15.425530   -1.861860   -1.361480
  N     15.232300   -0.630080   -1.787690
  O     16.348640   -0.269010   -2.406600
  N     17.275460   -1.219340   -2.405230
  C     18.565340   -3.942210   -1.933430
  C     19.467220   -3.179380   -2.661240
  C     20.628240   -3.888850   -2.952360
  C     20.609510   -5.199050   -2.435470
  S     19.165280   -5.552700   -1.595660
  C     21.822070   -5.836140   -2.783670
  C     22.617740   -4.929640   -3.522230
  C     21.890130   -3.675540   -3.648270
  C     22.295770   -2.537770   -4.278210
  C     23.546130   -2.410070   -4.923330
  N     24.551010   -2.262910   -5.454240
  C     21.488860   -1.379550   -4.334120
  N     20.848410   -0.430610   -4.391720
  C     23.835080   -5.467500   -3.915890
  C     23.992020   -6.781040   -3.488230
  S     22.578710   -7.340900   -2.574620
  C     25.022440   -7.731600   -3.626710
  C     26.233520   -7.686470   -4.261640
  C     27.176160   -8.796330   -4.276580
  C     27.025530  -10.029250   -3.693250
  C     27.992460  -11.055880   -3.754230
  N     28.724810  -11.940310   -3.759300
  C     25.916000  -10.486760   -2.952160
  N     25.063350  -10.953410   -2.338560
  C     28.347710   -8.378600   -5.038500
  C     28.138990   -7.047990   -5.495850
  C     29.066660   -6.382220   -6.243660
  C     30.276220   -7.032000   -6.575230
  C     31.272670   -6.398820   -7.343530
  C     32.436960   -7.049240   -7.650940
  C     32.655350   -8.360820   -7.203380
  C     31.707240   -9.004140   -6.455370
  C     30.496420   -8.364210   -6.120510
  C     29.514790   -9.026740   -5.348380
  C     26.825810   -6.568060   -5.037920
  O     26.350520   -5.476150   -5.270050
  H     -0.605030    1.173480    3.952150
  H     -1.310880    3.526330    4.134120
  H      0.366530    5.329980    4.121600
  H      2.763240    4.796330    3.928820
  H      4.550760    3.172520    3.715310
  H      1.189140   -0.513720    3.715200
  H      5.787010   -2.926020    2.797110
  H      7.457010    0.286720    1.442020
  H     13.197800   -0.291620   -0.815200
  H     14.797330   -4.033020    2.312630
  H     15.898020   -5.338250    1.808260
  H     14.209000   -5.713610    2.254370
  H     16.741980   -7.588830   -1.008890
  H     15.397720   -6.588430   -1.618900
  H     15.470340   -7.029940    0.103350
  H     19.256020   -2.165410   -2.947410
  H     24.590570   -4.957670   -4.487680
  H     24.788620   -8.665100   -3.128480
  H     28.877690   -5.372390   -6.576340
  H     31.098480   -5.388960   -7.684950
  H     33.195940   -6.556920   -8.240380
  H     33.579520   -8.859490   -7.454510
  H     31.870750  -10.014030   -6.108650
  H     29.715880  -10.034330   -5.022050

 Total Charge           Charge          ....    0
 Multiplicity           Mult            ....    1
 Number of Electrons    NEL             ....  594
 Basis Dimension        Dim             .... 1326

ORBITAL ENERGIES
----------------

  NO   OCC          E(Eh)            E(eV)
   0   2.0000     -88.997668     -2421.7497
   1   2.0000     -88.995506     -2421.6908
   2   2.0000     -88.993857     -2421.6460
   3   2.0000     -88.992740     -2421.6156
   4   2.0000     -19.369223      -527.0633
   5   2.0000     -19.289674      -524.8987
   6   2.0000     -19.284032      -524.7452
   7   2.0000     -19.215885      -522.8908
   8   2.0000     -19.215613      -522.8834
   9   2.0000     -14.496097      -394.4589
  10   2.0000     -14.494268      -394.4091
  11   2.0000     -14.433193      -392.7471
  12   2.0000     -14.429417      -392.6444
  13   2.0000     -14.426890      -392.5756
  14   2.0000     -14.425746      -392.5445
  15   2.0000     -14.418720      -392.3533
  16   2.0000     -14.417226      -392.3127
  17   2.0000     -14.413549      -392.2126
  18   2.0000     -14.411606      -392.1597
  19   2.0000     -10.380953      -282.4801
  20   2.0000     -10.376816      -282.3675
  21   2.0000     -10.367636      -282.1177
  22   2.0000     -10.366995      -282.1003
  23   2.0000     -10.366695      -282.0921
  24   2.0000     -10.364900      -282.0433
  25   2.0000     -10.354389      -281.7573
  26   2.0000     -10.351269      -281.6724
  27   2.0000     -10.351107      -281.6680
  28   2.0000     -10.350992      -281.6648
  29   2.0000     -10.345585      -281.5177
  30   2.0000     -10.345244      -281.5084
  31   2.0000     -10.344195      -281.4799
  32   2.0000     -10.344006      -281.4747
  33   2.0000     -10.343465      -281.4600
  34   2.0000     -10.343031      -281.4482
  35   2.0000     -10.340085      -281.3680
  36   2.0000     -10.338967      -281.3376
  37   2.0000     -10.335299      -281.2378
  38   2.0000     -10.334977      -281.2290
  39   2.0000     -10.334454      -281.2148
  40   2.0000     -10.333737      -281.1953
  41   2.0000     -10.333359      -281.1850
  42   2.0000     -10.330407      -281.1047
  43   2.0000     -10.329926      -281.0916
  44   2.0000     -10.328781      -281.0604
  45   2.0000     -10.328753      -281.0596
  46   2.0000     -10.327582      -281.0278
  47   2.0000     -10.326486      -280.9980
  48   2.0000     -10.326195      -280.9900
  49   2.0000     -10.325976      -280.9841
  50   2.0000     -10.324747      -280.9506
  51   2.0000     -10.320545      -280.8363
  52   2.0000     -10.320265      -280.8287
  53   2.0000     -10.316009      -280.7129
  54   2.0000     -10.315152      -280.6896
  55   2.0000     -10.313323      -280.6398
  56   2.0000     -10.309343      -280.5315
  57   2.0000     -10.309264      -280.5293
  58   2.0000     -10.308656      -280.5128
  59   2.0000     -10.306843      -280.4635
  60   2.0000     -10.304888      -280.4103
  61   2.0000     -10.304024      -280.3867
  62   2.0000     -10.303364      -280.3688
  63   2.0000     -10.301982      -280.3312
  64   2.0000     -10.300966      -280.3035
  65   2.0000     -10.300123      -280.2806
  66   2.0000     -10.300019      -280.2778
  67   2.0000     -10.297685      -280.2143
  68   2.0000     -10.297541      -280.2103
  69   2.0000     -10.297293      -280.2036
  70   2.0000     -10.296443      -280.1805
  71   2.0000     -10.294982      -280.1407
  72   2.0000     -10.294730      -280.1338
  73   2.0000     -10.294062      -280.1157
  74   2.0000     -10.293138      -280.0905
  75   2.0000     -10.289710      -279.9972
  76   2.0000     -10.286316      -279.9049
  77   2.0000     -10.285808      -279.8911
  78   2.0000     -10.285357      -279.8788
  79   2.0000     -10.285093      -279.8716
  80   2.0000     -10.284787      -279.8633
  81   2.0000     -10.284193      -279.8471
  82   2.0000     -10.283565      -279.8300
  83   2.0000     -10.283384      -279.8251
  84   2.0000     -10.282998      -279.8146
  85   2.0000      -8.092347      -220.2040
  86   2.0000      -8.088670      -220.1039
  87   2.0000      -8.088583      -220.1015
  88   2.0000      -8.085895      -220.0284
  89   2.0000      -6.061500      -164.9418
  90   2.0000      -6.057979      -164.8460
  91   2.0000      -6.057714      -164.8388
  92   2.0000      -6.057341      -164.8286
  93   2.0000      -6.055319      -164.7736
  94   2.0000      -6.054875      -164.7615
  95   2.0000      -6.053639      -164.7279
  96   2.0000      -6.053403      -164.7215
  97   2.0000      -6.051249      -164.6629
  98   2.0000      -6.051183      -164.6611
  99   2.0000      -6.050774      -164.6499
 100   2.0000      -6.048364      -164.5844
 101   2.0000      -1.325751       -36.0755
 102   2.0000      -1.201477       -32.6938
 103   2.0000      -1.176312       -32.0091
 104   2.0000      -1.131209       -30.7818
 105   2.0000      -1.130922       -30.7740
 106   2.0000      -1.050624       -28.5889
 107   2.0000      -1.047490       -28.5036
 108   2.0000      -1.029882       -28.0245
 109   2.0000      -1.024629       -27.8816
 110   2.0000      -1.022838       -27.8328
 111   2.0000      -1.019404       -27.7394
 112   2.0000      -1.018757       -27.7218
 113   2.0000      -1.017360       -27.6838
 114   2.0000      -1.008510       -27.4429
 115   2.0000      -1.003760       -27.3137
 116   2.0000      -1.002668       -27.2840
 117   2.0000      -0.999460       -27.1967
 118   2.0000      -0.998577       -27.1727
 119   2.0000      -0.997032       -27.1306
 120   2.0000      -0.992948       -27.0195
 121   2.0000      -0.991962       -26.9927
 122   2.0000      -0.972505       -26.4632
 123   2.0000      -0.969862       -26.3913
 124   2.0000      -0.963975       -26.2311
 125   2.0000      -0.960289       -26.1308
 126   2.0000      -0.936504       -25.4836
 127   2.0000      -0.930539       -25.3212
 128   2.0000      -0.926152       -25.2019
 129   2.0000      -0.922640       -25.1063
 130   2.0000      -0.916421       -24.9371
 131   2.0000      -0.907112       -24.6838
 132   2.0000      -0.897638       -24.4260
 133   2.0000      -0.891475       -24.2583
 134   2.0000      -0.881539       -23.9879
 135   2.0000      -0.878757       -23.9122
 136   2.0000      -0.878356       -23.9013
 137   2.0000      -0.874705       -23.8019
 138   2.0000      -0.868342       -23.6288
 139   2.0000      -0.861895       -23.4534
 140   2.0000      -0.860784       -23.4231
 141   2.0000      -0.858344       -23.3567
 142   2.0000      -0.836896       -22.7731
 143   2.0000      -0.830665       -22.6036
 144   2.0000      -0.828344       -22.5404
 145   2.0000      -0.825788       -22.4708
 146   2.0000      -0.819612       -22.3028
 147   2.0000      -0.811893       -22.0927
 148   2.0000      -0.800979       -21.7958
 149   2.0000      -0.783054       -21.3080
 150   2.0000      -0.779240       -21.2042
 151   2.0000      -0.772635       -21.0245
 152   2.0000      -0.762348       -20.7446
 153   2.0000      -0.760706       -20.6999
 154   2.0000      -0.756564       -20.5871
 155   2.0000      -0.753208       -20.4958
 156   2.0000      -0.738561       -20.0973
 157   2.0000      -0.728629       -19.8270
 158   2.0000      -0.717638       -19.5279
 159   2.0000      -0.707440       -19.2504
 160   2.0000      -0.704011       -19.1571
 161   2.0000      -0.702212       -19.1082
 162   2.0000      -0.701266       -19.0824
 163   2.0000      -0.697157       -18.9706
 164   2.0000      -0.692750       -18.8507
 165   2.0000      -0.689499       -18.7622
 166   2.0000      -0.685325       -18.6486
 167   2.0000      -0.681788       -18.5524
 168   2.0000      -0.675900       -18.3922
 169   2.0000      -0.673843       -18.3362
 170   2.0000      -0.666083       -18.1250
 171   2.0000      -0.659790       -17.9538
 172   2.0000      -0.655951       -17.8493
 173   2.0000      -0.650038       -17.6884
 174   2.0000      -0.649298       -17.6683
 175   2.0000      -0.637197       -17.3390
 176   2.0000      -0.634680       -17.2705
 177   2.0000      -0.631625       -17.1874
 178   2.0000      -0.627046       -17.0628
 179   2.0000      -0.626974       -17.0608
 180   2.0000      -0.623533       -16.9672
 181   2.0000      -0.622026       -16.9262
 182   2.0000      -0.615402       -16.7459
 183   2.0000      -0.607621       -16.5342
 184   2.0000      -0.606826       -16.5126
 185   2.0000      -0.603792       -16.4300
 186   2.0000      -0.599831       -16.3222
 187   2.0000      -0.599162       -16.3040
 188   2.0000      -0.596401       -16.2289
 189   2.0000      -0.588427       -16.0119
 190   2.0000      -0.585630       -15.9358
 191   2.0000      -0.578345       -15.7376
 192   2.0000      -0.577090       -15.7034
 193   2.0000      -0.575446       -15.6587
 194   2.0000      -0.559146       -15.2151
 195   2.0000      -0.557436       -15.1686
 196   2.0000      -0.554864       -15.0986
 197   2.0000      -0.551962       -15.0196
 198   2.0000      -0.549756       -14.9596
 199   2.0000      -0.549520       -14.9532
 200   2.0000      -0.546606       -14.8739
 201   2.0000      -0.545569       -14.8457
 202   2.0000      -0.544489       -14.8163
 203   2.0000      -0.541324       -14.7302
 204   2.0000      -0.537860       -14.6359
 205   2.0000      -0.535923       -14.5832
 206   2.0000      -0.535523       -14.5723
 207   2.0000      -0.531331       -14.4582
 208   2.0000      -0.528450       -14.3799
 209   2.0000      -0.522026       -14.2050
 210   2.0000      -0.520806       -14.1718
 211   2.0000      -0.518995       -14.1226
 212   2.0000      -0.516067       -14.0429
 213   2.0000      -0.513602       -13.9758
 214   2.0000      -0.512822       -13.9546
 215   2.0000      -0.510392       -13.8885
 216   2.0000      -0.509879       -13.8745
 217   2.0000      -0.507605       -13.8126
 218   2.0000      -0.506789       -13.7904
 219   2.0000      -0.504647       -13.7321
 220   2.0000      -0.504060       -13.7162
 221   2.0000      -0.502833       -13.6828
 222   2.0000      -0.501060       -13.6345
 223   2.0000      -0.499947       -13.6043
 224   2.0000      -0.495850       -13.4928
 225   2.0000      -0.494025       -13.4431
 226   2.0000      -0.492378       -13.3983
 227   2.0000      -0.489230       -13.3126
 228   2.0000      -0.486406       -13.2358
 229   2.0000      -0.485399       -13.2084
 230   2.0000      -0.481738       -13.1087
 231   2.0000      -0.479549       -13.0492
 232   2.0000      -0.474817       -12.9204
 233   2.0000      -0.471436       -12.8284
 234   2.0000      -0.469675       -12.7805
 235   2.0000      -0.465881       -12.6773
 236   2.0000      -0.465048       -12.6546
 237   2.0000      -0.462428       -12.5833
 238   2.0000      -0.462221       -12.5777
 239   2.0000      -0.458949       -12.4886
 240   2.0000      -0.456513       -12.4223
 241   2.0000      -0.455900       -12.4057
 242   2.0000      -0.453985       -12.3536
 243   2.0000      -0.451802       -12.2942
 244   2.0000      -0.451506       -12.2861
 245   2.0000      -0.449210       -12.2236
 246   2.0000      -0.447920       -12.1885
 247   2.0000      -0.446263       -12.1434
 248   2.0000      -0.444116       -12.0850
 249   2.0000      -0.442245       -12.0341
 250   2.0000      -0.440940       -11.9986
 251   2.0000      -0.440699       -11.9920
 252   2.0000      -0.439927       -11.9710
 253   2.0000      -0.438816       -11.9408
 254   2.0000      -0.437938       -11.9169
 255   2.0000      -0.435552       -11.8520
 256   2.0000      -0.435094       -11.8395
 257   2.0000      -0.433879       -11.8064
 258   2.0000      -0.432249       -11.7621
 259   2.0000      -0.431848       -11.7512
 260   2.0000      -0.431516       -11.7422
 261   2.0000      -0.427900       -11.6438
 262   2.0000      -0.426718       -11.6116
 263   2.0000      -0.426304       -11.6003
 264   2.0000      -0.424392       -11.5483
 265   2.0000      -0.422996       -11.5103
 266   2.0000      -0.419742       -11.4218
 267   2.0000      -0.418637       -11.3917
 268   2.0000      -0.417222       -11.3532
 269   2.0000      -0.417047       -11.3484
 270   2.0000      -0.414104       -11.2683
 271   2.0000      -0.409467       -11.1422
 272   2.0000      -0.405078       -11.0227
 273   2.0000      -0.403754       -10.9867
 274   2.0000      -0.403515       -10.9802
 275   2.0000      -0.403012       -10.9665
 276   2.0000      -0.387854       -10.5540
 277   2.0000      -0.384306       -10.4575
 278   2.0000      -0.382879       -10.4187
 279   2.0000      -0.374243       -10.1837
 280   2.0000      -0.372576       -10.1383
 281   2.0000      -0.362372        -9.8607
 282   2.0000      -0.356748        -9.7076
 283   2.0000      -0.352577        -9.5941
 284   2.0000      -0.350803        -9.5458
 285   2.0000      -0.341126        -9.2825
 286   2.0000      -0.337085        -9.1726
 287   2.0000      -0.335128        -9.1193
 288   2.0000      -0.325777        -8.8649
 289   2.0000      -0.322978        -8.7887
 290   2.0000      -0.317813        -8.6481
 291   2.0000      -0.315682        -8.5902
 292   2.0000      -0.309294        -8.4163
 293   2.0000      -0.295095        -8.0299
 294   2.0000      -0.291908        -7.9432
 295   2.0000      -0.276431        -7.5221
 296   2.0000      -0.252041        -6.8584
 297   0.0000      -0.119103        -3.2410
 298   0.0000      -0.108534        -2.9534
 299   0.0000      -0.091443        -2.4883
 300   0.0000      -0.088762        -2.4153
 301   0.0000      -0.079695        -2.1686

MULLIKEN ATOMIC CHARGES
-----------------------
   0 C :   -0.016983
   1 C :    0.034751
   2 C :    0.035649
   3 C :   -0.017398
   4 C :    0.092350
   5 C :   -0.073680
   6 C :    0.026193
   7 C :    0.015059
   8 C :   -0.080807
   9 C :    0.094618
  10 C :    0.135872
  11 O :   -0.145387
  12 C :   -0.134984
  13 C :    0.272147
  14 C :   -0.333786
  15 C :   -0.199438
  16 N :    0.163493
  17 C :   -0.172478
  18 N :    0.162661
  19 C :    0.074018
  20 C :   -0.110307
  21 C :   -0.003458
  22 C :    0.000186
  23 C :   -0.074851
  24 S :    0.210892
  25 C :   -0.085960
  26 C :    0.039594
  27 C :    0.309714
  28 C :   -0.292986
  29 C :   -0.191852
  30 N :    0.191784
  31 C :   -0.186034
  32 N :    0.169080
  33 C :   -0.065914
  34 C :   -0.167059
  35 S :    0.193420
  36 C :    0.199082
  37 C :   -0.014699
  38 O :   -0.367845
  39 C :    0.185679
  40 C :    0.082750
  41 O :   -0.353205
  42 C :    0.191539
  43 C :    0.142104
  44 C :   -0.055677
  45 C :   -0.064598
  46 N :    0.050480
  47 O :   -0.071388
  48 N :    0.046793
  49 C :   -0.144953
  50 C :   -0.071175
  51 C :    0.036379
  52 C :   -0.085142
  53 S :    0.196398
  54 C :   -0.082820
  55 C :    0.004324
  56 C :    0.318067
  57 C :   -0.306397
  58 C :   -0.197813
  59 N :    0.199822
  60 C :   -0.193661
  61 N :    0.185997
  62 C :   -0.027922
  63 C :   -0.108865
  64 S :    0.197587
  65 C :    0.039500
  66 C :   -0.091713
  67 C :    0.332436
  68 C :   -0.374332
  69 C :   -0.180483
  70 N :    0.145899
  71 C :   -0.179218
  72 N :    0.139580
  73 C :    0.044976
  74 C :   -0.002651
  75 C :   -0.081466
  76 C :    0.099512
  77 C :   -0.014817
  78 C :    0.034418
  79 C :    0.037261
  80 C :   -0.019412
  81 C :    0.096222
  82 C :   -0.082431
  83 C :    0.157937
  84 O :   -0.146619
  85 H :   -0.016357
  86 H :   -0.004643
  87 H :   -0.004108
  88 H :   -0.006911
  89 H :    0.001093
  90 H :   -0.011121
  91 H :    0.022176
  92 H :    0.024997
  93 H :    0.028203
  94 H :    0.035205
  95 H :    0.043399
  96 H :    0.049379
  97 H :    0.041376
  98 H :    0.038557
  99 H :    0.034645
 100 H :    0.028096
 101 H :    0.041001
 102 H :   -0.002897
 103 H :   -0.008965
 104 H :   -0.016588
 105 H :   -0.004782
 106 H :   -0.006055
 107 H :   -0.009781
 108 H :   -0.009476
Sum of atomic charges:   -0.0000000

LOEWDIN ATOMIC CHARGES
----------------------
   0 C :   -0.009635
   1 C :   -0.012766
   2 C :   -0.012382
   3 C :   -0.004978
   4 C :   -0.004948
   5 C :    0.019704
   6 C :   -0.023093
   7 C :   -0.058098
   8 C :    0.032752
   9 C :   -0.009040
  10 C :    0.083438
  11 O :   -0.145453
  12 C :   -0.088382
  13 C :    0.066406
  14 C :   -0.136628
  15 C :   -0.015032
  16 N :   -0.050298
  17 C :   -0.018638
  18 N :   -0.046507
  19 C :    0.041488
  20 C :   -0.179816
  21 C :    0.006705
  22 C :   -0.062807
  23 C :   -0.161496
  24 S :    0.496513
  25 C :   -0.186594
  26 C :   -0.060686
  27 C :    0.079723
  28 C :   -0.094347
  29 C :   -0.021465
  30 N :   -0.018170
  31 C :   -0.012319
  32 N :   -0.032711
  33 C :   -0.014409
  34 C :   -0.164598
  35 S :    0.503675
  36 C :   -0.050987
  37 C :    0.021344
  38 O :   -0.132001
  39 C :    0.076863
  40 C :    0.037348
  41 O :   -0.114692
  42 C :    0.086190
  43 C :   -0.063509
  44 C :   -0.043781
  45 C :   -0.047219
  46 N :   -0.012266
  47 O :    0.091485
  48 N :   -0.014836
  49 C :   -0.156193
  50 C :   -0.022243
  51 C :   -0.054355
  52 C :   -0.198733
  53 S :    0.500855
  54 C :   -0.158346
  55 C :   -0.073649
  56 C :    0.072919
  57 C :   -0.091458
  58 C :   -0.023563
  59 N :   -0.014886
  60 C :   -0.019875
  61 N :   -0.021019
  62 C :    0.016008
  63 C :   -0.175675
  64 S :    0.492188
  65 C :    0.040600
  66 C :   -0.097449
  67 C :    0.078995
  68 C :   -0.146731
  69 C :   -0.016635
  70 N :   -0.057671
  71 C :   -0.022457
  72 N :   -0.058880
  73 C :   -0.027141
  74 C :   -0.055129
  75 C :    0.033270
  76 C :   -0.008040
  77 C :   -0.008884
  78 C :   -0.012432
  79 C :   -0.013975
  80 C :   -0.005573
  81 C :   -0.006718
  82 C :    0.019527
  83 C :    0.086858
  84 O :   -0.136839
  85 H :    0.031831
  86 H :    0.032864
  87 H :    0.033426
  88 H :    0.035473
  89 H :    0.040729
  90 H :    0.039304
  91 H :    0.045782
  92 H :    0.042808
  93 H :    0.042384
  94 H :    0.020459
  95 H :    0.020678
  96 H :    0.030354
  97 H :    0.026325
  98 H :    0.025071
  99 H :    0.019306
 100 H :    0.041347
 101 H :    0.043219
 102 H :    0.041171
 103 H :    0.040543
 104 H :    0.032426
 105 H :    0.032775
 106 H :    0.032815
 107 H :    0.034483
 108 H :    0.038703

  Mayer bond orders larger than 0.100000
B(  0-C ,  1-C ) :   1.4908 B(  0-C ,  9-C ) :   1.2454 B(  0-C , 85-H ) :   0.9973
B(  1-C ,  2-C ) :   1.2573 B(  1-C , 86-H ) :   0.9894 B(  2-C ,  3-C ) :   1.4910
B(  2-C , 87-H ) :   0.9895 B(  3-C ,  4-C ) :   1.2417 B(  3-C , 88-H ) :   0.9977
B(  4-C ,  5-C ) :   1.2079 B(  4-C ,  9-C ) :   1.2521 B(  5-C ,  6-C ) :   1.4612
B(  5-C , 89-H ) :   0.9930 B(  6-C ,  7-C ) :   1.2121 B(  6-C , 13-C ) :   0.9999
B(  7-C ,  8-C ) :   1.4749 B(  7-C , 10-C ) :   0.9236 B(  8-C ,  9-C ) :   1.1870
B(  8-C , 90-H ) :   1.0154 B( 10-C , 11-O ) :   2.2667 B( 10-C , 12-C ) :   0.9387
B( 12-C , 13-C ) :   1.0329 B( 12-C , 19-C ) :   1.6786 B( 13-C , 14-C ) :   1.6497
B( 14-C , 15-C ) :   1.1730 B( 14-C , 17-C ) :   1.1291 B( 15-C , 16-N ) :   2.9951
B( 17-C , 18-N ) :   2.9933 B( 19-C , 20-C ) :   1.1244 B( 19-C , 91-H ) :   0.9295
B( 20-C , 21-C ) :   1.4012 B( 20-C , 24-S ) :   1.0903 B( 21-C , 22-C ) :   1.3521
B( 21-C , 92-H ) :   0.9824 B( 22-C , 23-C ) :   1.4164 B( 22-C , 27-C ) :   0.9952
B( 23-C , 24-S ) :   1.1496 B( 23-C , 25-C ) :   1.1936 B( 25-C , 26-C ) :   1.4274
B( 25-C , 35-S ) :   1.0885 B( 26-C , 27-C ) :   0.9898 B( 26-C , 33-C ) :   1.2664
B( 27-C , 28-C ) :   1.7195 B( 28-C , 29-C ) :   1.1366 B( 28-C , 31-C ) :   1.1344
B( 29-C , 30-N ) :   2.9942 B( 31-C , 32-N ) :   2.9814 B( 33-C , 34-C ) :   1.4571
B( 33-C , 93-H ) :   0.9827 B( 34-C , 35-S ) :   1.0942 B( 34-C , 36-C ) :   1.1423
B( 36-C , 37-C ) :   1.4439 B( 36-C , 43-C ) :   0.1182 B( 36-C , 45-C ) :   1.1123
B( 37-C , 38-O ) :   1.1160 B( 37-C , 40-C ) :   1.1542 B( 38-O , 39-C ) :   0.8957
B( 39-C , 94-H ) :   0.9657 B( 39-C , 95-H ) :   0.9702 B( 39-C , 96-H ) :   0.9806
B( 40-C , 41-O ) :   1.1413 B( 40-C , 43-C ) :   1.4330 B( 41-O , 42-C ) :   0.9079
B( 42-C , 97-H ) :   0.9764 B( 42-C , 98-H ) :   0.9707 B( 42-C , 99-H ) :   0.9762
B( 43-C , 44-C ) :   1.1321 B( 43-C , 49-C ) :   1.1560 B( 44-C , 45-C ) :   1.1322
B( 44-C , 48-N ) :   1.6041 B( 45-C , 46-N ) :   1.6052 B( 46-N , 47-O ) :   1.0710
B( 46-N , 48-N ) :   0.1773 B( 47-O , 48-N ) :   1.0670 B( 49-C , 50-C ) :   1.4529
B( 49-C , 53-S ) :   1.1024 B( 50-C , 51-C ) :   1.2690 B( 50-C ,100-H ) :   0.9811
B( 51-C , 52-C ) :   1.4258 B( 51-C , 56-C ) :   0.9900 B( 52-C , 53-S ) :   1.0780
B( 52-C , 54-C ) :   1.2017 B( 54-C , 55-C ) :   1.3766 B( 54-C , 64-S ) :   1.1646
B( 55-C , 56-C ) :   0.9909 B( 55-C , 62-C ) :   1.3026 B( 56-C , 57-C ) :   1.7180
B( 57-C , 58-C ) :   1.1396 B( 57-C , 60-C ) :   1.1369 B( 58-C , 59-N ) :   2.9992
B( 60-C , 61-N ) :   2.9900 B( 62-C , 63-C ) :   1.3942 B( 62-C ,101-H ) :   0.9707
B( 63-C , 64-S ) :   1.0730 B( 63-C , 65-C ) :   1.2271 B( 65-C , 66-C ) :   1.5912
B( 65-C ,102-H ) :   0.8982 B( 66-C , 67-C ) :   1.0887 B( 66-C , 83-C ) :   0.9326
B( 67-C , 68-C ) :   1.6061 B( 67-C , 73-C ) :   0.9806 B( 68-C , 69-C ) :   1.1529
B( 68-C , 71-C ) :   1.1431 B( 69-C , 70-N ) :   2.9594 B( 71-C , 72-N ) :   2.9488
B( 73-C , 74-C ) :   1.2180 B( 73-C , 82-C ) :   1.4463 B( 74-C , 75-C ) :   1.4726
B( 74-C , 83-C ) :   0.9550 B( 75-C , 76-C ) :   1.1736 B( 75-C ,103-H ) :   1.0166
B( 76-C , 77-C ) :   1.2442 B( 76-C , 81-C ) :   1.2589 B( 77-C , 78-C ) :   1.4879
B( 77-C ,104-H ) :   0.9976 B( 78-C , 79-C ) :   1.2606 B( 78-C ,105-H ) :   0.9886
B( 79-C , 80-C ) :   1.4898 B( 79-C ,106-H ) :   0.9882 B( 80-C , 81-C ) :   1.2392
B( 80-C ,107-H ) :   0.9968 B( 81-C , 82-C ) :   1.2078 B( 82-C ,108-H ) :   0.9880
B( 83-C , 84-O ) :   2.1656 B( 84-O ,101-H ) :   0.1016

-----------------------------------------------------------------------------
         ABSORPTION SPECTRUM VIA TRANSITION ELECTRIC DIPOLE MOMENTS
-----------------------------------------------------------------------------
State   Energy  Wavelength   fosc         T2         TX        TY        TZ
        (cm-1)    (nm)                  (au**2)     (au)      (au)      (au)
-----------------------------------------------------------------------------
   0   13283.5    752.8   1.183985473  29.34325  -4.80278   1.78449   1.75846
   1   14602.4    684.8   0.067887713   1.53054  -1.02961   0.66838   0.15402
   2   18505.9    540.4   1.602155984  28.50161   4.65462  -1.90246  -1.79353
   3   20844.9    479.7   0.102443023   1.61792   0.95995  -0.67912   0.48499
   4   21820.3    458.3   0.010547525   0.15913   0.31270  -0.21514  -0.12274
   5   22934.8    436.0   0.142514780   2.04569  -0.61850   1.27111   0.21778
   6   23905.4    418.3   0.018574289   0.25579   0.13149  -0.46081  -0.16174
   7   25233.6    396.3   0.029242294   0.38151   0.54126  -0.25564   0.15230
   8   25553.7    391.3   0.059409713   0.76539   0.78579  -0.04612  -0.38183
   9   27529.3    363.2   0.003734334   0.04466   0.15333  -0.09256   0.11217
  10   27666.8    361.4   0.027020760   0.32152   0.14772  -0.54277  -0.07142
  11   27840.3    359.2   0.000076990   0.00091  -0.00099  -0.01939  -0.02310
  12   28190.2    354.7   0.017723943   0.20698  -0.38758   0.19655   0.13466
  13   28573.2    350.0   0.019970057   0.23009   0.27498   0.18991  -0.34411
  14   28946.3    345.5   0.062439986   0.71014   0.83557   0.03965  -0.10191
  15   29210.5    342.3   0.013810256   0.15565   0.31274   0.22431   0.08677
  16   29369.8    340.5   0.031698714   0.35532  -0.42139  -0.41358   0.08190
  17   29646.0    337.3   0.215031917   2.38788  -0.57051  -1.15824   0.84905
  18   29748.8    336.1   0.070632175   0.78164  -0.44667  -0.76243   0.02893
  19   30185.2    331.3   0.182337210   1.98864  -1.08300   0.90300   0.01884
  20   30442.7    328.5   0.181160977   1.95910  -0.00903   1.19021  -0.73650
  21   30685.4    325.9   0.518014741   5.55758   2.17650  -0.21236  -0.88052
  22   30947.2    323.1   0.243935570   2.59496   0.92517   1.14222  -0.65906
  23   31254.4    320.0   0.100572546   1.05936   0.79789  -0.62776  -0.16928
  24   32011.0    312.4   0.054085701   0.55624   0.68626  -0.28393   0.06833
  25   32352.6    309.1   0.371749699   3.78283  -1.67851   0.91467   0.35893
  26   32784.3    305.0   0.086710904   0.87073   0.63739   0.47114  -0.49244
  27   33096.5    302.1   0.306891982   3.05266  -1.54931  -0.01767   0.80746
  28   33444.8    299.0   0.004561366   0.04490   0.08517  -0.18389  -0.06187
  29   33523.8    298.3   0.000709813   0.00697  -0.05825  -0.02686   0.05345
  30   33759.1    296.2   0.111894940   1.09118  -0.90788   0.50786   0.09488
  31   33912.7    294.9   0.257715108   2.50180   1.52933  -0.26319  -0.30610
  32   33936.1    294.7   0.119201765   1.15637   1.01496  -0.32279  -0.14843
  33   34256.0    291.9   0.223759994   2.15041  -0.26480   1.11581  -0.91393
  34   34426.6    290.5   0.487113516   4.65814   1.22422   1.63546  -0.69620
  35   34776.5    287.6   0.242960140   2.29998   1.45593  -0.22797  -0.35817
  36   34924.3    286.3   0.026355570   0.24844   0.40693   0.06886  -0.27947
  37   34965.1    286.0   0.201317275   1.89549   0.20079   1.08158  -0.82786
  38   35097.6    284.9   0.097032047   0.91015  -0.92376  -0.17085   0.16620
  39   35210.9    284.0   0.153216091   1.43253  -0.39586   1.12815  -0.05567
  40   35515.4    281.6   0.002277545   0.02111   0.06697   0.11597  -0.05637
  41   36050.5    277.4   0.042390524   0.38711   0.52436   0.18273  -0.28065
  42   36396.8    274.7   0.104322859   0.94361  -0.96236  -0.08027   0.10505
  43   36909.0    270.9   0.091038190   0.81202  -0.50738   0.74441   0.02098
  44   37293.9    268.1   0.022278065   0.19666  -0.34638  -0.27250   0.04921
  45   37332.1    267.9   0.161408063   1.42337   0.66344   0.82094  -0.55613
  46   37533.7    266.4   0.147897737   1.29723   0.31342  -1.03091   0.36908
  47   37720.3    265.1   0.027069221   0.23625   0.36202  -0.26404   0.18835
  48   37933.5    263.6   0.000828750   0.00719  -0.05730   0.03974   0.04827
  49   38091.2    262.5   0.042256880   0.36521  -0.40238  -0.34650   0.28852
  50   38304.0    261.1   0.026918794   0.23136   0.36945  -0.11174  -0.28702
  51   38426.2    260.2   0.016483785   0.14122   0.29742  -0.20674  -0.10012
  52   38466.2    260.0   0.040004693   0.34238  -0.54558   0.20862  -0.03457
  53   38653.2    258.7   0.046722515   0.39794   0.51781  -0.26068  -0.24872
  54   38727.3    258.2   0.002132746   0.01813   0.11186  -0.02710   0.06987
  55   39182.1    255.2   0.041668232   0.35010   0.46684   0.29889  -0.20695
  56   39210.9    255.0   0.029919477   0.25120  -0.45633   0.10208   0.18039
  57   39385.5    253.9   0.050730182   0.42404  -0.63967   0.03817   0.11576
  58   39606.1    252.5   0.192068223   1.59650   0.35366  -1.21274   0.02611
  59   39693.1    251.9   0.056794876   0.47105  -0.65030  -0.16898  -0.14004
  60   39945.8    250.3   0.008954080   0.07379   0.02442   0.24691  -0.11061
  61   40008.8    249.9   0.023127936   0.19031   0.36521   0.20235  -0.12645
  62   40229.9    248.6   0.101716563   0.83237  -0.30413   0.85879   0.04856
  63   40300.5    248.1   0.003670381   0.02998  -0.09154   0.01127   0.14655

FINAL SINGLE POINT ENERGY     -5040.760470335103

DIPOLE MOMENT
-------------
                                X             Y             Z
Electronic contribution:      1.02814       3.82385      -1.43398
Nuclear contribution   :     -3.20925      -6.11344       1.75154
                        -----------------------------------------
Total Dipole Moment    :     -2.18111      -2.28959       0.31755
                        -----------------------------------------
Magnitude (a.u.)       :      3.17810
Magnitude (Debye)      :      8.07808

Rotational constants in cm-1:     0.002880     0.000138     0.000133
Rotational constants in MHz :    86.329471     4.139304     3.983260

                             ****ORCA TERMINATED NORMALLY****
TOTAL RUN TIME: 0 days 0 hours 13 minutes 25 seconds 882 msec
