                         Program Version 4.2.0 -  RELEASE  -
|  1> # ORCA input file
|  2> # SCF done       -190.330272886405          0.000692388953
|  3> ! CAM-B3LYP def2-SVP def2/J RIJCOSX Grid4 TightSCF
|  4> %maxcore 5000
|  5> %tddft
|  6>     Mode sTDDFT
|  7>     Ethresh 5.0
|  8>     maxcore 5000
|  9> end
| 10>
| 11> %pal
| 12>   nprocs 6
| 13>   end
| 14> * xyz 0 1
| 15>    C       -0.49444         3.41356        -1.05571
| 16>    C       -1.25136         3.71032         0.04521
| 17>    C       -0.96948         3.11022         1.28147
| 18>    C        0.06488         2.22223         1.40023
| 19>    C        0.86376         1.89279         0.28671
| 20>    C        1.92940         0.97058         0.40288
| 21>    C        2.68401         0.67552        -0.69982
| 22>    C        2.40756         1.30649        -1.94805
| 23>    C        1.37950         2.19330        -2.09031
| 24>    C        0.57821         2.50443        -0.96843
| 25>    C        3.39519         0.86178        -2.94554
| 26>    O        3.44999         1.13448        -4.12281
| 27>    C        4.37973         0.03948        -2.18086
| 28>    C        3.81120        -0.23407        -0.87783
| 29>    C        4.09034        -1.30387        -0.06673
| 30>    C        5.04446        -2.29240        -0.37319
| 31>    N        5.80064        -3.12748        -0.59648
| 32>    C        3.38766        -1.58976         1.12263
| 33>    N        2.84299        -1.87232         2.09223
| 34>    C        5.59229        -0.21478        -2.74582
| 35>    C        6.79621        -0.59674        -2.11508
| 36>    C        7.14813        -0.49373        -0.77706
| 37>    C        8.44317        -0.93206        -0.53808
| 38>    C        9.10039        -1.37086        -1.70561
| 39>    S        8.12131        -1.22594        -3.08957
| 40>    C       10.40375        -1.79613        -1.34814
| 41>    C       10.56836        -1.63268         0.03878
| 42>    C        9.33518        -1.09773         0.59539
| 43>    C        9.05402        -0.83231         1.90286
| 44>    C        9.99575        -1.03986         2.93279
| 45>    N       10.76609        -1.20235         3.76592
| 46>    C        7.79552        -0.32872         2.29550
| 47>    N        6.77149         0.08870         2.59849
| 48>    C       11.83396        -2.00722         0.48493
| 49>    C       12.63694        -2.45187        -0.55063
| 50>    S       11.80801        -2.41667        -2.09883
| 51>    C       13.98834        -2.87245        -0.46783
| 52>    C       14.81623        -3.30279        -1.48630
| 53>    C       16.10624        -3.60291        -1.05856
| 54>    C       16.29230        -3.40949         0.29639
| 55>    S       14.82891        -2.85153         1.05581
| 56>    C       17.47784        -3.57872         1.05498
| 57>    C       17.63625        -3.37769         2.41523
| 58>    C       18.95045        -3.59216         2.82462
| 59>    C       19.80027        -3.96200         1.76730
| 60>    S       18.97588        -4.05351         0.27157
| 61>    C       21.11184        -4.12204         2.27334
| 62>    C       21.09344        -3.84704         3.65884
| 63>    C       19.73068        -3.53251         4.05297
| 64>    C       19.26970        -3.26043         5.30629
| 65>    C       20.09928        -3.27986         6.44908
| 66>    N       20.74442        -3.31507         7.39560
| 67>    C       17.91165        -2.96347         5.55285
| 68>    N       16.80760        -2.72351         5.74681
| 69>    C       22.34940        -3.91640         4.24672
| 70>    C       23.33912        -4.24379         3.33002
| 71>    S       22.66968        -4.50612         1.71259
| 72>    C       24.72811        -4.43418         3.48021
| 73>    C       25.55339        -3.99546         4.47809
| 74>    C       26.96242        -4.33047         4.58429
| 75>    C       27.60070        -5.37005         3.95774
| 76>    C       28.97177        -5.66137         4.11410
| 77>    N       30.08129        -5.94553         4.19321
| 78>    C       26.98154        -6.30968         3.10741
| 79>    N       26.54219        -7.12024         2.42221
| 80>    C       27.56812        -3.42094         5.54820
| 81>    C       26.54416        -2.59467         6.09125
| 82>    C       26.80679        -1.64038         7.03108
| 83>    C       28.13534        -1.46256         7.47741
| 84>    C       28.46844        -0.49366         8.44405
| 85>    C       29.76397        -0.33237         8.85478
| 86>    C       30.78212        -1.13448         8.31825
| 87>    C       30.49155        -2.08641         7.37908
| 88>    C       29.16833        -2.27918         6.93285
| 89>    C       28.86401        -3.26180         5.96260
| 90>    C       25.25044        -2.93821         5.47807
| 91>    O       24.18571        -2.40466         5.70674
| 92>    H       -0.70651         3.87315        -2.01002
| 93>    H       -2.07068         4.40948        -0.03050
| 94>    H       -1.57668         3.35501         2.14000
| 95>    H        0.28427         1.75526         2.34903
| 96>    H        2.13363         0.53126         1.36682
| 97>    H        1.18080         2.65518        -3.04599
| 98>    H        5.64866        -0.02174        -3.81290
| 99>    H        6.49930        -0.07217        -0.03145
|100>    H       12.17376        -1.96076         1.50407
|101>    H       14.48389        -3.38744        -2.50578
|102>    H       16.89176        -3.94772        -1.70746
|103>    H       16.82395        -3.08321         3.05516
|104>    H       22.55226        -3.73714         5.28560
|105>    H       25.18946        -4.97218         2.65980
|106>    H       26.00982        -1.02987         7.42889
|107>    H       27.67986         0.12063         8.85339
|108>    H       30.01117         0.41411         9.59473
|109>    H       31.79896        -0.99450         8.65323
|110>    H       31.27200        -2.70749         6.96452
|111>    H       29.66894        -3.85958         5.56537
|112> *
|113>
|114>                          ****END OF INPUT****

CARTESIAN COORDINATES (ANGSTROEM)
---------------------------------
  C     -0.494440    3.413560   -1.055710
  C     -1.251360    3.710320    0.045210
  C     -0.969480    3.110220    1.281470
  C      0.064880    2.222230    1.400230
  C      0.863760    1.892790    0.286710
  C      1.929400    0.970580    0.402880
  C      2.684010    0.675520   -0.699820
  C      2.407560    1.306490   -1.948050
  C      1.379500    2.193300   -2.090310
  C      0.578210    2.504430   -0.968430
  C      3.395190    0.861780   -2.945540
  O      3.449990    1.134480   -4.122810
  C      4.379730    0.039480   -2.180860
  C      3.811200   -0.234070   -0.877830
  C      4.090340   -1.303870   -0.066730
  C      5.044460   -2.292400   -0.373190
  N      5.800640   -3.127480   -0.596480
  C      3.387660   -1.589760    1.122630
  N      2.842990   -1.872320    2.092230
  C      5.592290   -0.214780   -2.745820
  C      6.796210   -0.596740   -2.115080
  C      7.148130   -0.493730   -0.777060
  C      8.443170   -0.932060   -0.538080
  C      9.100390   -1.370860   -1.705610
  S      8.121310   -1.225940   -3.089570
  C     10.403750   -1.796130   -1.348140
  C     10.568360   -1.632680    0.038780
  C      9.335180   -1.097730    0.595390
  C      9.054020   -0.832310    1.902860
  C      9.995750   -1.039860    2.932790
  N     10.766090   -1.202350    3.765920
  C      7.795520   -0.328720    2.295500
  N      6.771490    0.088700    2.598490
  C     11.833960   -2.007220    0.484930
  C     12.636940   -2.451870   -0.550630
  S     11.808010   -2.416670   -2.098830
  C     13.988340   -2.872450   -0.467830
  C     14.816230   -3.302790   -1.486300
  C     16.106240   -3.602910   -1.058560
  C     16.292300   -3.409490    0.296390
  S     14.828910   -2.851530    1.055810
  C     17.477840   -3.578720    1.054980
  C     17.636250   -3.377690    2.415230
  C     18.950450   -3.592160    2.824620
  C     19.800270   -3.962000    1.767300
  S     18.975880   -4.053510    0.271570
  C     21.111840   -4.122040    2.273340
  C     21.093440   -3.847040    3.658840
  C     19.730680   -3.532510    4.052970
  C     19.269700   -3.260430    5.306290
  C     20.099280   -3.279860    6.449080
  N     20.744420   -3.315070    7.395600
  C     17.911650   -2.963470    5.552850
  N     16.807600   -2.723510    5.746810
  C     22.349400   -3.916400    4.246720
  C     23.339120   -4.243790    3.330020
  S     22.669680   -4.506120    1.712590
  C     24.728110   -4.434180    3.480210
  C     25.553390   -3.995460    4.478090
  C     26.962420   -4.330470    4.584290
  C     27.600700   -5.370050    3.957740
  C     28.971770   -5.661370    4.114100
  N     30.081290   -5.945530    4.193210
  C     26.981540   -6.309680    3.107410
  N     26.542190   -7.120240    2.422210
  C     27.568120   -3.420940    5.548200
  C     26.544160   -2.594670    6.091250
  C     26.806790   -1.640380    7.031080
  C     28.135340   -1.462560    7.477410
  C     28.468440   -0.493660    8.444050
  C     29.763970   -0.332370    8.854780
  C     30.782120   -1.134480    8.318250
  C     30.491550   -2.086410    7.379080
  C     29.168330   -2.279180    6.932850
  C     28.864010   -3.261800    5.962600
  C     25.250440   -2.938210    5.478070
  O     24.185710   -2.404660    5.706740
  H     -0.706510    3.873150   -2.010020
  H     -2.070680    4.409480   -0.030500
  H     -1.576680    3.355010    2.140000
  H      0.284270    1.755260    2.349030
  H      2.133630    0.531260    1.366820
  H      1.180800    2.655180   -3.045990
  H      5.648660   -0.021740   -3.812900
  H      6.499300   -0.072170   -0.031450
  H     12.173760   -1.960760    1.504070
  H     14.483890   -3.387440   -2.505780
  H     16.891760   -3.947720   -1.707460
  H     16.823950   -3.083210    3.055160
  H     22.552260   -3.737140    5.285600
  H     25.189460   -4.972180    2.659800
  H     26.009820   -1.029870    7.428890
  H     27.679860    0.120630    8.853390
  H     30.011170    0.414110    9.594730
  H     31.798960   -0.994500    8.653230
  H     31.272000   -2.707490    6.964520
  H     29.668940   -3.859580    5.565370

 Total Charge           Charge          ....    0
 Multiplicity           Mult            ....    1
 Number of Electrons    NEL             ....  544
 Basis Dimension        Dim             .... 1198

ORBITAL ENERGIES
----------------

  NO   OCC          E(Eh)            E(eV)
   0   2.0000     -88.999974     -2421.8124
   1   2.0000     -88.999528     -2421.8003
   2   2.0000     -88.998209     -2421.7644
   3   2.0000     -88.997524     -2421.7458
   4   2.0000     -88.981221     -2421.3021
   5   2.0000     -19.216278      -522.9015
   6   2.0000     -19.214257      -522.8465
   7   2.0000     -14.435446      -392.8085
   8   2.0000     -14.434126      -392.7725
   9   2.0000     -14.434050      -392.7705
  10   2.0000     -14.431435      -392.6993
  11   2.0000     -14.417374      -392.3167
  12   2.0000     -14.415172      -392.2568
  13   2.0000     -14.412948      -392.1963
  14   2.0000     -14.412049      -392.1718
  15   2.0000     -10.370808      -282.2040
  16   2.0000     -10.370699      -282.2011
  17   2.0000     -10.368250      -282.1344
  18   2.0000     -10.365785      -282.0674
  19   2.0000     -10.357410      -281.8394
  20   2.0000     -10.356821      -281.8234
  21   2.0000     -10.348222      -281.5894
  22   2.0000     -10.345928      -281.5270
  23   2.0000     -10.342585      -281.4361
  24   2.0000     -10.341499      -281.4065
  25   2.0000     -10.341306      -281.4012
  26   2.0000     -10.340255      -281.3726
  27   2.0000     -10.339951      -281.3644
  28   2.0000     -10.339702      -281.3576
  29   2.0000     -10.339679      -281.3570
  30   2.0000     -10.339495      -281.3520
  31   2.0000     -10.335435      -281.2415
  32   2.0000     -10.333909      -281.2000
  33   2.0000     -10.333778      -281.1964
  34   2.0000     -10.332104      -281.1508
  35   2.0000     -10.331704      -281.1400
  36   2.0000     -10.330621      -281.1105
  37   2.0000     -10.329165      -281.0709
  38   2.0000     -10.328579      -281.0549
  39   2.0000     -10.327880      -281.0359
  40   2.0000     -10.325340      -280.9668
  41   2.0000     -10.318622      -280.7840
  42   2.0000     -10.318299      -280.7752
  43   2.0000     -10.316301      -280.7208
  44   2.0000     -10.315999      -280.7126
  45   2.0000     -10.314546      -280.6731
  46   2.0000     -10.314540      -280.6729
  47   2.0000     -10.313983      -280.6577
  48   2.0000     -10.309896      -280.5465
  49   2.0000     -10.309849      -280.5452
  50   2.0000     -10.309740      -280.5423
  51   2.0000     -10.309524      -280.5364
  52   2.0000     -10.309389      -280.5327
  53   2.0000     -10.302112      -280.3347
  54   2.0000     -10.301342      -280.3138
  55   2.0000     -10.300977      -280.3038
  56   2.0000     -10.300840      -280.3001
  57   2.0000     -10.300368      -280.2873
  58   2.0000     -10.300216      -280.2831
  59   2.0000     -10.296586      -280.1843
  60   2.0000     -10.296429      -280.1801
  61   2.0000     -10.296416      -280.1797
  62   2.0000     -10.296182      -280.1733
  63   2.0000     -10.296165      -280.1729
  64   2.0000     -10.295555      -280.1563
  65   2.0000     -10.295236      -280.1476
  66   2.0000     -10.295008      -280.1414
  67   2.0000     -10.288571      -279.9662
  68   2.0000     -10.287137      -279.9272
  69   2.0000     -10.285392      -279.8797
  70   2.0000     -10.285391      -279.8797
  71   2.0000     -10.284901      -279.8664
  72   2.0000     -10.284859      -279.8652
  73   2.0000     -10.284677      -279.8603
  74   2.0000     -10.284433      -279.8536
  75   2.0000     -10.284238      -279.8483
  76   2.0000     -10.283805      -279.8366
  77   2.0000      -8.094500      -220.2625
  78   2.0000      -8.094057      -220.2505
  79   2.0000      -8.092888      -220.2187
  80   2.0000      -8.092276      -220.2020
  81   2.0000      -8.076467      -219.7718
  82   2.0000      -6.063845      -165.0056
  83   2.0000      -6.063390      -164.9932
  84   2.0000      -6.062076      -164.9575
  85   2.0000      -6.061411      -164.9394
  86   2.0000      -6.059635      -164.8911
  87   2.0000      -6.059181      -164.8787
  88   2.0000      -6.057883      -164.8434
  89   2.0000      -6.057286      -164.8271
  90   2.0000      -6.056707      -164.8114
  91   2.0000      -6.056290      -164.8000
  92   2.0000      -6.055367      -164.7749
  93   2.0000      -6.054787      -164.7591
  94   2.0000      -6.045898      -164.5172
  95   2.0000      -6.041732      -164.4039
  96   2.0000      -6.038330      -164.3113
  97   2.0000      -1.131926       -30.8013
  98   2.0000      -1.129637       -30.7390
  99   2.0000      -1.053607       -28.6701
 100   2.0000      -1.053117       -28.6568
 101   2.0000      -1.027302       -27.9543
 102   2.0000      -1.025706       -27.9109
 103   2.0000      -1.020836       -27.7784
 104   2.0000      -1.017909       -27.6987
 105   2.0000      -1.016799       -27.6685
 106   2.0000      -1.012289       -27.5458
 107   2.0000      -1.009890       -27.4805
 108   2.0000      -1.007050       -27.4032
 109   2.0000      -0.998189       -27.1621
 110   2.0000      -0.997711       -27.1491
 111   2.0000      -0.995950       -27.1012
 112   2.0000      -0.992463       -27.0063
 113   2.0000      -0.991563       -26.9818
 114   2.0000      -0.972156       -26.4537
 115   2.0000      -0.970943       -26.4207
 116   2.0000      -0.966036       -26.2872
 117   2.0000      -0.962422       -26.1888
 118   2.0000      -0.930633       -25.3238
 119   2.0000      -0.927949       -25.2508
 120   2.0000      -0.921252       -25.0685
 121   2.0000      -0.918257       -24.9871
 122   2.0000      -0.901854       -24.5407
 123   2.0000      -0.898094       -24.4384
 124   2.0000      -0.883538       -24.0423
 125   2.0000      -0.881469       -23.9860
 126   2.0000      -0.880800       -23.9678
 127   2.0000      -0.879761       -23.9395
 128   2.0000      -0.877850       -23.8875
 129   2.0000      -0.871313       -23.7096
 130   2.0000      -0.866048       -23.5664
 131   2.0000      -0.864341       -23.5199
 132   2.0000      -0.853133       -23.2149
 133   2.0000      -0.850108       -23.1326
 134   2.0000      -0.827277       -22.5114
 135   2.0000      -0.827030       -22.5046
 136   2.0000      -0.820472       -22.3262
 137   2.0000      -0.812364       -22.1056
 138   2.0000      -0.796460       -21.6728
 139   2.0000      -0.783478       -21.3195
 140   2.0000      -0.780669       -21.2431
 141   2.0000      -0.770259       -20.9598
 142   2.0000      -0.760646       -20.6982
 143   2.0000      -0.759608       -20.6700
 144   2.0000      -0.743342       -20.2274
 145   2.0000      -0.730513       -19.8783
 146   2.0000      -0.718480       -19.5508
 147   2.0000      -0.707832       -19.2611
 148   2.0000      -0.706813       -19.2334
 149   2.0000      -0.703320       -19.1383
 150   2.0000      -0.700642       -19.0654
 151   2.0000      -0.699173       -19.0255
 152   2.0000      -0.695138       -18.9157
 153   2.0000      -0.691737       -18.8231
 154   2.0000      -0.688460       -18.7340
 155   2.0000      -0.683307       -18.5937
 156   2.0000      -0.675440       -18.3797
 157   2.0000      -0.674753       -18.3609
 158   2.0000      -0.660044       -17.9607
 159   2.0000      -0.654082       -17.7985
 160   2.0000      -0.644101       -17.5269
 161   2.0000      -0.640204       -17.4208
 162   2.0000      -0.638385       -17.3713
 163   2.0000      -0.633542       -17.2396
 164   2.0000      -0.630914       -17.1680
 165   2.0000      -0.629522       -17.1302
 166   2.0000      -0.625721       -17.0267
 167   2.0000      -0.622163       -16.9299
 168   2.0000      -0.612105       -16.6562
 169   2.0000      -0.606576       -16.5058
 170   2.0000      -0.605848       -16.4860
 171   2.0000      -0.603579       -16.4242
 172   2.0000      -0.600941       -16.3524
 173   2.0000      -0.591926       -16.1071
 174   2.0000      -0.587848       -15.9962
 175   2.0000      -0.566894       -15.4260
 176   2.0000      -0.562687       -15.3115
 177   2.0000      -0.559238       -15.2176
 178   2.0000      -0.556461       -15.1421
 179   2.0000      -0.555924       -15.1275
 180   2.0000      -0.554151       -15.0792
 181   2.0000      -0.545572       -14.8458
 182   2.0000      -0.545437       -14.8421
 183   2.0000      -0.543552       -14.7908
 184   2.0000      -0.540327       -14.7031
 185   2.0000      -0.536903       -14.6099
 186   2.0000      -0.535851       -14.5812
 187   2.0000      -0.534808       -14.5529
 188   2.0000      -0.530780       -14.4433
 189   2.0000      -0.523246       -14.2383
 190   2.0000      -0.522985       -14.2311
 191   2.0000      -0.521169       -14.1817
 192   2.0000      -0.519945       -14.1484
 193   2.0000      -0.517533       -14.0828
 194   2.0000      -0.516621       -14.0580
 195   2.0000      -0.511807       -13.9270
 196   2.0000      -0.511424       -13.9165
 197   2.0000      -0.509886       -13.8747
 198   2.0000      -0.508597       -13.8396
 199   2.0000      -0.507961       -13.8223
 200   2.0000      -0.506616       -13.7857
 201   2.0000      -0.505245       -13.7484
 202   2.0000      -0.501877       -13.6568
 203   2.0000      -0.499906       -13.6031
 204   2.0000      -0.497373       -13.5342
 205   2.0000      -0.495513       -13.4836
 206   2.0000      -0.493821       -13.4376
 207   2.0000      -0.491934       -13.3862
 208   2.0000      -0.488802       -13.3010
 209   2.0000      -0.485422       -13.2090
 210   2.0000      -0.484971       -13.1967
 211   2.0000      -0.483976       -13.1697
 212   2.0000      -0.480382       -13.0718
 213   2.0000      -0.475493       -12.9388
 214   2.0000      -0.472332       -12.8528
 215   2.0000      -0.465314       -12.6618
 216   2.0000      -0.464252       -12.6329
 217   2.0000      -0.463984       -12.6257
 218   2.0000      -0.463312       -12.6074
 219   2.0000      -0.462879       -12.5956
 220   2.0000      -0.461657       -12.5623
 221   2.0000      -0.458601       -12.4792
 222   2.0000      -0.452685       -12.3182
 223   2.0000      -0.450268       -12.2524
 224   2.0000      -0.449969       -12.2443
 225   2.0000      -0.448065       -12.1925
 226   2.0000      -0.446079       -12.1384
 227   2.0000      -0.444778       -12.1030
 228   2.0000      -0.444259       -12.0889
 229   2.0000      -0.443563       -12.0700
 230   2.0000      -0.443353       -12.0643
 231   2.0000      -0.442301       -12.0356
 232   2.0000      -0.441952       -12.0261
 233   2.0000      -0.439983       -11.9725
 234   2.0000      -0.438330       -11.9276
 235   2.0000      -0.438018       -11.9191
 236   2.0000      -0.435463       -11.8495
 237   2.0000      -0.432833       -11.7780
 238   2.0000      -0.431862       -11.7516
 239   2.0000      -0.431512       -11.7420
 240   2.0000      -0.430792       -11.7224
 241   2.0000      -0.430252       -11.7078
 242   2.0000      -0.427729       -11.6391
 243   2.0000      -0.426216       -11.5979
 244   2.0000      -0.425099       -11.5675
 245   2.0000      -0.423481       -11.5235
 246   2.0000      -0.418781       -11.3956
 247   2.0000      -0.417883       -11.3712
 248   2.0000      -0.409864       -11.1530
 249   2.0000      -0.408112       -11.1053
 250   2.0000      -0.404394       -11.0041
 251   2.0000      -0.402927       -10.9642
 252   2.0000      -0.395108       -10.7514
 253   2.0000      -0.382853       -10.4179
 254   2.0000      -0.376887       -10.2556
 255   2.0000      -0.371684       -10.1140
 256   2.0000      -0.361832        -9.8459
 257   2.0000      -0.359165        -9.7734
 258   2.0000      -0.356222        -9.6933
 259   2.0000      -0.348382        -9.4800
 260   2.0000      -0.343305        -9.3418
 261   2.0000      -0.338223        -9.2035
 262   2.0000      -0.334033        -9.0895
 263   2.0000      -0.328605        -8.9418
 264   2.0000      -0.327174        -8.9029
 265   2.0000      -0.317680        -8.6445
 266   2.0000      -0.315655        -8.5894
 267   2.0000      -0.308695        -8.4000
 268   2.0000      -0.294576        -8.0158
 269   2.0000      -0.292632        -7.9629
 270   2.0000      -0.276588        -7.5263
 271   2.0000      -0.249479        -6.7887
 272   0.0000      -0.118901        -3.2355
 273   0.0000      -0.112142        -3.0515
 274   0.0000      -0.090666        -2.4671
 275   0.0000      -0.089286        -2.4296
 276   0.0000      -0.061135        -1.6636

MULLIKEN ATOMIC CHARGES
-----------------------
   0 C :   -0.014605
   1 C :    0.033955
   2 C :    0.035381
   3 C :   -0.013619
   4 C :    0.090112
   5 C :   -0.074248
   6 C :    0.026790
   7 C :    0.016356
   8 C :   -0.080500
   9 C :    0.092994
  10 C :    0.136011
  11 O :   -0.145179
  12 C :   -0.139422
  13 C :    0.270165
  14 C :   -0.332199
  15 C :   -0.202487
  16 N :    0.164657
  17 C :   -0.169965
  18 N :    0.160492
  19 C :    0.081663
  20 C :   -0.113278
  21 C :    0.003249
  22 C :   -0.008508
  23 C :   -0.071515
  24 S :    0.213370
  25 C :   -0.108796
  26 C :    0.028668
  27 C :    0.302636
  28 C :   -0.285738
  29 C :   -0.191688
  30 N :    0.182399
  31 C :   -0.184355
  32 N :    0.175124
  33 C :   -0.066644
  34 C :   -0.026318
  35 S :    0.194294
  36 C :   -0.051135
  37 C :   -0.007893
  38 C :   -0.004351
  39 C :   -0.053411
  40 S :    0.148328
  41 C :   -0.025458
  42 C :   -0.065250
  43 C :    0.027176
  44 C :   -0.108163
  45 S :    0.194888
  46 C :   -0.082773
  47 C :   -0.023364
  48 C :    0.301419
  49 C :   -0.287807
  50 C :   -0.188265
  51 N :    0.190716
  52 C :   -0.193902
  53 N :    0.180908
  54 C :    0.036020
  55 C :   -0.114946
  56 S :    0.205018
  57 C :    0.030195
  58 C :   -0.100767
  59 C :    0.305179
  60 C :   -0.345831
  61 C :   -0.181270
  62 N :    0.147333
  63 C :   -0.205254
  64 N :    0.154442
  65 C :    0.050283
  66 C :   -0.011819
  67 C :   -0.075426
  68 C :    0.096322
  69 C :   -0.014365
  70 C :    0.034871
  71 C :    0.036889
  72 C :   -0.018729
  73 C :    0.093904
  74 C :   -0.079883
  75 C :    0.155139
  76 O :   -0.153088
  77 H :   -0.018622
  78 H :   -0.004356
  79 H :   -0.004204
  80 H :   -0.009222
  81 H :   -0.000167
  82 H :   -0.013157
  83 H :    0.019949
  84 H :    0.027402
  85 H :    0.018915
  86 H :   -0.005268
  87 H :   -0.005010
  88 H :    0.019538
  89 H :    0.034121
  90 H :    0.021122
  91 H :   -0.011010
  92 H :   -0.016527
  93 H :   -0.004581
  94 H :   -0.005616
  95 H :   -0.009702
  96 H :   -0.008738
Sum of atomic charges:    0.0000000

LOEWDIN ATOMIC CHARGES
----------------------
   0 C :   -0.009583
   1 C :   -0.013130
   2 C :   -0.012837
   3 C :   -0.004973
   4 C :   -0.005203
   5 C :    0.019292
   6 C :   -0.022988
   7 C :   -0.057781
   8 C :    0.032484
   9 C :   -0.009241
  10 C :    0.083384
  11 O :   -0.145892
  12 C :   -0.089941
  13 C :    0.065479
  14 C :   -0.137754
  15 C :   -0.015907
  16 N :   -0.048441
  17 C :   -0.018706
  18 N :   -0.046823
  19 C :    0.041305
  20 C :   -0.180990
  21 C :    0.009939
  22 C :   -0.067167
  23 C :   -0.159182
  24 S :    0.497878
  25 C :   -0.185247
  26 C :   -0.054619
  27 C :    0.080890
  28 C :   -0.094077
  29 C :   -0.018298
  30 N :   -0.023927
  31 C :   -0.012994
  32 N :   -0.029100
  33 C :   -0.035195
  34 C :   -0.169401
  35 S :    0.481436
  36 C :   -0.180998
  37 C :   -0.055621
  38 C :   -0.053535
  39 C :   -0.183867
  40 S :    0.461998
  41 C :   -0.165686
  42 C :   -0.037796
  43 C :   -0.050615
  44 C :   -0.190893
  45 S :    0.479939
  46 C :   -0.158741
  47 C :   -0.075856
  48 C :    0.075799
  49 C :   -0.090844
  50 C :   -0.019954
  51 N :   -0.016804
  52 C :   -0.017102
  53 N :   -0.025432
  54 C :    0.025108
  55 C :   -0.178092
  56 S :    0.491164
  57 C :    0.042853
  58 C :   -0.095153
  59 C :    0.076204
  60 C :   -0.143434
  61 C :   -0.017637
  62 N :   -0.055090
  63 C :   -0.025058
  64 N :   -0.055719
  65 C :   -0.026297
  66 C :   -0.055108
  67 C :    0.033346
  68 C :   -0.008288
  69 C :   -0.009015
  70 C :   -0.012450
  71 C :   -0.013431
  72 C :   -0.005655
  73 C :   -0.006412
  74 C :    0.019353
  75 C :    0.084571
  76 O :   -0.140338
  77 H :    0.031465
  78 H :    0.032772
  79 H :    0.033347
  80 H :    0.035100
  81 H :    0.040612
  82 H :    0.038970
  83 H :    0.045402
  84 H :    0.043078
  85 H :    0.038715
  86 H :    0.029530
  87 H :    0.029700
  88 H :    0.038563
  89 H :    0.045566
  90 H :    0.043781
  91 H :    0.039802
  92 H :    0.032270
  93 H :    0.032875
  94 H :    0.032968
  95 H :    0.034542
  96 H :    0.038841

  Mayer bond orders larger than 0.100000
B(  0-C ,  1-C ) :   1.4892 B(  0-C ,  9-C ) :   1.2450 B(  0-C , 77-H ) :   0.9975
B(  1-C ,  2-C ) :   1.2605 B(  1-C , 78-H ) :   0.9892 B(  2-C ,  3-C ) :   1.4886
B(  2-C , 79-H ) :   0.9886 B(  3-C ,  4-C ) :   1.2423 B(  3-C , 80-H ) :   0.9975
B(  4-C ,  5-C ) :   1.2043 B(  4-C ,  9-C ) :   1.2572 B(  5-C ,  6-C ) :   1.4608
B(  5-C , 81-H ) :   0.9943 B(  6-C ,  7-C ) :   1.2145 B(  6-C , 13-C ) :   0.9967
B(  7-C ,  8-C ) :   1.4734 B(  7-C , 10-C ) :   0.9216 B(  8-C ,  9-C ) :   1.1846
B(  8-C , 82-H ) :   1.0160 B( 10-C , 11-O ) :   2.2657 B( 10-C , 12-C ) :   0.9403
B( 12-C , 13-C ) :   1.0361 B( 12-C , 19-C ) :   1.6694 B( 13-C , 14-C ) :   1.6480
B( 14-C , 15-C ) :   1.1721 B( 14-C , 17-C ) :   1.1288 B( 15-C , 16-N ) :   2.9951
B( 17-C , 18-N ) :   2.9934 B( 19-C , 20-C ) :   1.1394 B( 19-C , 83-H ) :   0.9291
B( 20-C , 21-C ) :   1.3971 B( 20-C , 24-S ) :   1.0871 B( 21-C , 22-C ) :   1.3607
B( 21-C , 84-H ) :   0.9778 B( 22-C , 23-C ) :   1.4091 B( 22-C , 27-C ) :   1.0008
B( 23-C , 24-S ) :   1.1542 B( 23-C , 25-C ) :   1.1984 B( 25-C , 26-C ) :   1.4427
B( 25-C , 35-S ) :   1.1126 B( 26-C , 27-C ) :   0.9915 B( 26-C , 33-C ) :   1.3035
B( 27-C , 28-C ) :   1.7190 B( 28-C , 29-C ) :   1.1325 B( 28-C , 31-C ) :   1.1358
B( 29-C , 30-N ) :   2.9943 B( 31-C , 32-N ) :   2.9831 B( 33-C , 34-C ) :   1.4495
B( 33-C , 85-H ) :   0.9890 B( 34-C , 35-S ) :   1.1126 B( 34-C , 36-C ) :   1.1632
B( 36-C , 37-C ) :   1.4898 B( 36-C , 39-C ) :   0.1021 B( 36-C , 40-S ) :   1.1289
B( 37-C , 38-C ) :   1.2811 B( 37-C , 86-H ) :   0.9926 B( 38-C , 39-C ) :   1.4910
B( 38-C , 87-H ) :   0.9915 B( 39-C , 40-S ) :   1.1269 B( 39-C , 41-C ) :   1.1632
B( 41-C , 42-C ) :   1.4484 B( 41-C , 45-S ) :   1.1154 B( 42-C , 43-C ) :   1.3077
B( 42-C , 88-H ) :   0.9866 B( 43-C , 44-C ) :   1.4388 B( 43-C , 48-C ) :   0.9945
B( 44-C , 45-S ) :   1.1066 B( 44-C , 46-C ) :   1.2083 B( 46-C , 47-C ) :   1.3823
B( 46-C , 56-S ) :   1.1643 B( 47-C , 48-C ) :   0.9954 B( 47-C , 54-C ) :   1.3385
B( 48-C , 49-C ) :   1.7213 B( 49-C , 50-C ) :   1.1341 B( 49-C , 52-C ) :   1.1343
B( 50-C , 51-N ) :   2.9953 B( 52-C , 53-N ) :   2.9918 B( 54-C , 55-C ) :   1.4093
B( 54-C , 89-H ) :   0.9733 B( 55-C , 56-S ) :   1.0712 B( 55-C , 57-C ) :   1.1973
B( 57-C , 58-C ) :   1.5970 B( 57-C , 90-H ) :   0.9260 B( 58-C , 59-C ) :   1.0720
B( 58-C , 75-C ) :   0.9427 B( 59-C , 60-C ) :   1.6307 B( 59-C , 65-C ) :   0.9894
B( 60-C , 61-C ) :   1.1455 B( 60-C , 63-C ) :   1.1397 B( 61-C , 62-N ) :   2.9668
B( 63-C , 64-N ) :   2.9911 B( 65-C , 66-C ) :   1.2127 B( 65-C , 74-C ) :   1.4519
B( 66-C , 67-C ) :   1.4758 B( 66-C , 75-C ) :   0.9481 B( 67-C , 68-C ) :   1.1783
B( 67-C , 91-H ) :   1.0155 B( 68-C , 69-C ) :   1.2443 B( 68-C , 73-C ) :   1.2563
B( 69-C , 70-C ) :   1.4882 B( 69-C , 92-H ) :   0.9976 B( 70-C , 71-C ) :   1.2592
B( 70-C , 93-H ) :   0.9894 B( 71-C , 72-C ) :   1.4897 B( 71-C , 94-H ) :   0.9888
B( 72-C , 73-C ) :   1.2413 B( 72-C , 95-H ) :   0.9969 B( 73-C , 74-C ) :   1.2051
B( 74-C , 96-H ) :   0.9900 B( 75-C , 76-O ) :   2.1943

-----------------------------------------------------------------------------
         ABSORPTION SPECTRUM VIA TRANSITION ELECTRIC DIPOLE MOMENTS
-----------------------------------------------------------------------------
State   Energy  Wavelength   fosc         T2         TX        TY        TZ
        (cm-1)    (nm)                  (au**2)     (au)      (au)      (au)
-----------------------------------------------------------------------------
   0   12232.2    817.5   0.739668572  19.90712   4.24794  -0.79494   1.10915
   1   13242.4    755.2   0.042796038   1.06393   0.87702   0.05163   0.54046
   2   19094.0    523.7   1.778647039  30.66682   5.37343  -0.84094   1.04205
   3   20806.8    480.6   0.198809775   3.14563  -1.50369   0.07505  -0.93751
   4   21328.6    468.9   0.039984324   0.61717   0.54543   0.01178   0.56528
   5   22540.3    443.6   0.120802556   1.76438   1.32738   0.01699  -0.04650
   6   25056.0    399.1   0.011223769   0.14747  -0.11148   0.32696   0.16776
   7   25420.3    393.4   0.030313499   0.39258   0.30071   0.42547   0.34803
   8   26500.9    377.3   0.366153736   4.54861   1.83211  -0.64751   0.87904
   9   26874.7    372.1   0.015216237   0.18640  -0.08444   0.12857  -0.40340
  10   27599.5    362.3   0.032999812   0.39363  -0.33645   0.08968  -0.52191
  11   27973.7    357.5   0.037900468   0.44604  -0.06478  -0.18697  -0.63787
  12   28242.1    354.1   0.010107043   0.11782  -0.10238  -0.32475   0.04324
  13   28507.1    350.8   0.052119974   0.60190  -0.40315   0.66256  -0.01945
  14   28949.4    345.4   0.015232982   0.17323  -0.03756   0.40575  -0.08476
  15   29049.9    344.2   0.041999377   0.47596   0.19004   0.35465   0.56042
  16   29618.0    337.6   0.095823486   1.06510   0.83776  -0.41128   0.44057
  17   29799.2    335.6   0.117212462   1.29492   0.80684  -0.67854  -0.42838
  18   30119.8    332.0   0.074218386   0.81121  -0.34302   0.08442  -0.82851
  19   30255.8    330.5   0.165579033   1.80166   0.21146  -1.28575  -0.32216
  20   30456.5    328.3   0.409096024   4.42202  -2.06374  -0.14982  -0.37491
  21   31025.2    322.3   0.308352378   3.27196  -0.06003   0.27522   1.78679
  22   31144.6    321.1   0.448065527   4.73625  -0.98321   0.53847   1.86537
  23   31910.4    313.4   0.136968709   1.41307   0.27529  -0.49687  -1.04422
  24   32296.2    309.6   0.108838862   1.10945   1.02593  -0.23855   0.00179
  25   32555.6    307.2   0.177396850   1.79389   0.23272   0.83881   1.01791
  26   32620.0    306.6   0.206903469   2.08814   1.24887   0.12554   0.71603
  27   33229.3    300.9   0.213171287   2.11194  -0.88319   0.86227   0.76708
  28   33387.3    299.5   0.034951656   0.34464  -0.45092   0.26508   0.26654
  29   33632.0    297.3   0.144152419   1.41106  -1.11928   0.15947  -0.36445
  30   34098.8    293.3   0.113224473   1.09314  -0.06717   0.93315   0.46675
  31   34188.6    292.5   0.207959257   2.00250  -0.94599   1.04715  -0.10528
  32   34534.5    289.6   0.115547374   1.10149  -0.12802  -0.42840  -0.94951
  33   34628.9    288.8   0.048464220   0.46074   0.44796  -0.25193   0.44340
  34   34862.4    286.8   0.097553330   0.92121   0.26353  -0.60253   0.69909
  35   34943.1    286.2   0.387961025   3.65512  -0.67460  -1.01706  -1.47161
  36   35116.7    284.8   0.234736376   2.20061  -0.47475   1.38211   0.25493
  37   35416.8    282.4   0.159315031   1.48089  -0.28089  -0.10992  -1.17895
  38   35504.3    281.7   0.298995648   2.77243  -1.24172   0.61730   0.92168
  39   35947.4    278.2   0.040423264   0.37020  -0.13776   0.48177  -0.34514
  40   36034.7    277.5   0.053332554   0.48725  -0.47619   0.47441  -0.18822
  41   36369.8    275.0   0.031531392   0.28542  -0.23981   0.04228   0.47552
  42   36504.0    273.9   0.006433602   0.05802   0.16825  -0.15609  -0.07312
  43   36931.5    270.8   0.004303700   0.03836   0.02261   0.10167  -0.16588
  44   37387.6    267.5   0.033361734   0.29376  -0.13496   0.42561   0.30726
  45   37547.6    266.3   0.042353084   0.37135  -0.19881  -0.06196  -0.57270
  46   37557.1    266.3   0.017672199   0.15491   0.30601  -0.21556   0.12164
  47   37792.0    264.6   0.039460333   0.34375   0.49378  -0.31550   0.01980
  48   38039.4    262.9   0.114854253   0.99401   0.08874  -0.50869  -0.85286
  49   38168.6    262.0   0.015024470   0.12959  -0.33611  -0.02592   0.12628
  50   38398.1    260.4   0.037289188   0.31970  -0.25598   0.42174   0.27626
  51   38688.2    258.5   0.097204771   0.82715   0.78992  -0.41144  -0.18411
  52   39107.3    255.7   0.025951846   0.21847   0.23741  -0.36882   0.16147
  53   39547.1    252.9   0.087900033   0.73173  -0.54277   0.32561   0.57542
  54   39625.8    252.4   0.014953704   0.12424   0.06208  -0.03474   0.34522
  55   39730.9    251.7   0.081976403   0.67926  -0.78561   0.11594   0.22054
  56   40084.4    249.5   0.118118351   0.97010   0.55616  -0.69653   0.41910

FINAL SINGLE POINT ENERGY     -4949.500383863761

DIPOLE MOMENT
-------------
                                X             Y             Z
Electronic contribution:      2.40804     -22.95601     -17.29044
Nuclear contribution   :     -2.46602      25.83470      14.79698
                        -----------------------------------------
Total Dipole Moment    :     -0.05798       2.87868      -2.49346
                        -----------------------------------------
Magnitude (a.u.)       :      3.80887
Magnitude (Debye)      :      9.68139

Rotational constants in cm-1:     0.002477     0.000154     0.000149
Rotational constants in MHz :    74.258031     4.631737     4.464842

                             ****ORCA TERMINATED NORMALLY****
TOTAL RUN TIME: 0 days 0 hours 10 minutes 24 seconds 717 msec
