                         Program Version 4.2.0 -  RELEASE  -
|  1> # ORCA input file
|  2> # SCF done       -205.483442254559          0.000616959759
|  3> ! CAM-B3LYP def2-SVP def2/J RIJCOSX Grid4 TightSCF
|  4> %maxcore 5000
|  5> %tddft
|  6>     Mode sTDDFT
|  7>     Ethresh 5.0
|  8>     maxcore 5000
|  9> end
| 10>
| 11> %pal
| 12>   nprocs 6
| 13>   end
| 14> * xyz 0 1
| 15>    C        3.15223         1.99659        -8.30187
| 16>    C        1.90057         1.47595        -8.49026
| 17>    C        1.46927         0.37681        -7.73298
| 18>    C        2.29449        -0.18591        -6.79762
| 19>    C        3.58987         0.32445        -6.57841
| 20>    C        4.44910        -0.25804        -5.61797
| 21>    C        5.70085         0.26282        -5.43232
| 22>    C        6.12649         1.39085        -6.19331
| 23>    C        5.32082         1.96822        -7.13152
| 24>    C        4.02689         1.44167        -7.34720
| 25>    C        7.48632         1.77461        -5.77456
| 26>    O        8.19287         2.64409        -6.22943
| 27>    C        7.79669         0.89813        -4.60708
| 28>    C        6.79216        -0.13942        -4.55000
| 29>    C        6.93376        -1.38322        -3.98799
| 30>    C        8.10892        -1.83178        -3.35398
| 31>    N        9.05310        -2.26147        -2.86181
| 32>    C        5.94952        -2.38967        -4.05464
| 33>    N        5.17232        -3.23467        -4.05916
| 34>    C        8.83589         1.23145        -3.79010
| 35>    C        9.07630         0.83325        -2.45754
| 36>    C        8.19012         0.31951        -1.52047
| 37>    C        8.78575         0.06870        -0.28966
| 38>    C       10.14799         0.40978        -0.26438
| 39>    S       10.66901         1.04479        -1.77579
| 40>    C       10.86261         0.26756         0.93690
| 41>    C       10.23084        -0.35195         2.01822
| 42>    C        8.87671        -0.96653         1.83790
| 43>    O        8.11292        -0.39016         0.78118
| 44>    C       11.01537        -0.36074         3.15626
| 45>    C       12.25710         0.24261         2.96942
| 46>    S       12.44716         0.83395         1.33914
| 47>    C       13.28378         0.40168         3.92813
| 48>    C       14.50775         1.02245         3.58150
| 49>    C       15.57920         1.19582         4.52556
| 50>    N       16.71398         1.78455         4.13435
| 51>    C       16.84362         2.20159         2.89715
| 52>    C       15.77586         2.03278         1.95929
| 53>    N       14.65524         1.45533         2.32682
| 54>    C       15.91192         2.48993         0.62550
| 55>    N       16.04842         2.87219        -0.44541
| 56>    C       18.05033         2.82905         2.49909
| 57>    N       19.00981         3.34284         2.14314
| 58>    C       15.48102         0.76885         5.86961
| 59>    C       14.25456         0.15610         6.22608
| 60>    C       13.18003        -0.02847         5.27403
| 61>    N       12.13015        -0.63007         5.83095
| 62>    S       12.44745        -0.93342         7.37652
| 63>    N       13.93031        -0.31994         7.42675
| 64>    C       16.55883         0.94993         6.77076
| 65>    C       16.58971         0.61420         8.11743
| 66>    C       17.79960         0.92650         8.72567
| 67>    C       18.72418         1.48727         7.83033
| 68>    S       18.05915         1.66210         6.24017
| 69>    C       20.02666         1.74787         8.28609
| 70>    C       20.31036         1.59472         9.64903
| 71>    C       19.19733         1.29512        10.60631
| 72>    O       18.07235         0.65096        10.01460
| 73>    C       21.64066         1.80533         9.95431
| 74>    C       22.41702         2.12618         8.84325
| 75>    S       21.43002         2.16288         7.38516
| 76>    C       23.78457         2.40537         8.68135
| 77>    C       24.82677         2.43196         9.57443
| 78>    C       26.19727         2.73783         9.19157
| 79>    C       26.65728         3.11909         7.95607
| 80>    C       28.01045         3.40136         7.67148
| 81>    N       29.08896         3.64549         7.36159
| 82>    C       25.89275         3.30736         6.78531
| 83>    N       25.36422         3.49362         5.78202
| 84>    C       27.03948         2.59122        10.37466
| 85>    C       26.21009         2.24060        11.47482
| 86>    C       26.71153         2.03897        12.72819
| 87>    C       28.10033         2.17881        12.94388
| 88>    C       28.67847         1.98322        14.21336
| 89>    C       30.02753         2.12244        14.39612
| 90>    C       30.85664         2.46334        13.31720
| 91>    C       30.32607         2.66035        12.07133
| 92>    C       28.94088         2.52541        11.84747
| 93>    C       28.38959         2.72957        10.56122
| 94>    C       24.81167         2.14199        11.02769
| 95>    O       23.86633         1.87281        11.74403
| 96>    H        3.48961         2.84301        -8.88196
| 97>    H        1.23621         1.90837        -9.22334
| 98>    H        0.47948        -0.02294        -7.89503
| 99>    H        1.96832        -1.03469        -6.21460
|100>    H        4.08959        -1.09731        -5.04312
|101>    H        5.66546         2.81671        -7.70363
|102>    H        9.52969         1.95626        -4.20496
|103>    H        7.14305         0.16687        -1.70491
|104>    H        8.26687        -0.85220         2.73811
|105>    H        8.99134        -2.04409         1.63120
|106>    H       10.72842        -0.78439         4.10056
|107>    H       15.75926         0.15908         8.62205
|108>    H       18.85285         2.23595        11.06881
|109>    H       19.53639         0.62819        11.40364
|110>    H       22.05917         1.73535        10.94155
|111>    H       24.04373         2.62610         7.65282
|112>    H       26.05544         1.77448        13.54426
|113>    H       28.03450         1.72109        15.04018
|114>    H       30.46294         1.97104        15.37260
|115>    H       31.91904         2.56895        13.47822
|116>    H       30.96063         2.92306        11.23766
|117>    H       29.05688         2.99006         9.75580
|118> *
|119>
|120>                          ****END OF INPUT****

CARTESIAN COORDINATES (ANGSTROEM)
---------------------------------
  C      3.152230    1.996590   -8.301870
  C      1.900570    1.475950   -8.490260
  C      1.469270    0.376810   -7.732980
  C      2.294490   -0.185910   -6.797620
  C      3.589870    0.324450   -6.578410
  C      4.449100   -0.258040   -5.617970
  C      5.700850    0.262820   -5.432320
  C      6.126490    1.390850   -6.193310
  C      5.320820    1.968220   -7.131520
  C      4.026890    1.441670   -7.347200
  C      7.486320    1.774610   -5.774560
  O      8.192870    2.644090   -6.229430
  C      7.796690    0.898130   -4.607080
  C      6.792160   -0.139420   -4.550000
  C      6.933760   -1.383220   -3.987990
  C      8.108920   -1.831780   -3.353980
  N      9.053100   -2.261470   -2.861810
  C      5.949520   -2.389670   -4.054640
  N      5.172320   -3.234670   -4.059160
  C      8.835890    1.231450   -3.790100
  C      9.076300    0.833250   -2.457540
  C      8.190120    0.319510   -1.520470
  C      8.785750    0.068700   -0.289660
  C     10.147990    0.409780   -0.264380
  S     10.669010    1.044790   -1.775790
  C     10.862610    0.267560    0.936900
  C     10.230840   -0.351950    2.018220
  C      8.876710   -0.966530    1.837900
  O      8.112920   -0.390160    0.781180
  C     11.015370   -0.360740    3.156260
  C     12.257100    0.242610    2.969420
  S     12.447160    0.833950    1.339140
  C     13.283780    0.401680    3.928130
  C     14.507750    1.022450    3.581500
  C     15.579200    1.195820    4.525560
  N     16.713980    1.784550    4.134350
  C     16.843620    2.201590    2.897150
  C     15.775860    2.032780    1.959290
  N     14.655240    1.455330    2.326820
  C     15.911920    2.489930    0.625500
  N     16.048420    2.872190   -0.445410
  C     18.050330    2.829050    2.499090
  N     19.009810    3.342840    2.143140
  C     15.481020    0.768850    5.869610
  C     14.254560    0.156100    6.226080
  C     13.180030   -0.028470    5.274030
  N     12.130150   -0.630070    5.830950
  S     12.447450   -0.933420    7.376520
  N     13.930310   -0.319940    7.426750
  C     16.558830    0.949930    6.770760
  C     16.589710    0.614200    8.117430
  C     17.799600    0.926500    8.725670
  C     18.724180    1.487270    7.830330
  S     18.059150    1.662100    6.240170
  C     20.026660    1.747870    8.286090
  C     20.310360    1.594720    9.649030
  C     19.197330    1.295120   10.606310
  O     18.072350    0.650960   10.014600
  C     21.640660    1.805330    9.954310
  C     22.417020    2.126180    8.843250
  S     21.430020    2.162880    7.385160
  C     23.784570    2.405370    8.681350
  C     24.826770    2.431960    9.574430
  C     26.197270    2.737830    9.191570
  C     26.657280    3.119090    7.956070
  C     28.010450    3.401360    7.671480
  N     29.088960    3.645490    7.361590
  C     25.892750    3.307360    6.785310
  N     25.364220    3.493620    5.782020
  C     27.039480    2.591220   10.374660
  C     26.210090    2.240600   11.474820
  C     26.711530    2.038970   12.728190
  C     28.100330    2.178810   12.943880
  C     28.678470    1.983220   14.213360
  C     30.027530    2.122440   14.396120
  C     30.856640    2.463340   13.317200
  C     30.326070    2.660350   12.071330
  C     28.940880    2.525410   11.847470
  C     28.389590    2.729570   10.561220
  C     24.811670    2.141990   11.027690
  O     23.866330    1.872810   11.744030
  H      3.489610    2.843010   -8.881960
  H      1.236210    1.908370   -9.223340
  H      0.479480   -0.022940   -7.895030
  H      1.968320   -1.034690   -6.214600
  H      4.089590   -1.097310   -5.043120
  H      5.665460    2.816710   -7.703630
  H      9.529690    1.956260   -4.204960
  H      7.143050    0.166870   -1.704910
  H      8.266870   -0.852200    2.738110
  H      8.991340   -2.044090    1.631200
  H     10.728420   -0.784390    4.100560
  H     15.759260    0.159080    8.622050
  H     18.852850    2.235950   11.068810
  H     19.536390    0.628190   11.403640
  H     22.059170    1.735350   10.941550
  H     24.043730    2.626100    7.652820
  H     26.055440    1.774480   13.544260
  H     28.034500    1.721090   15.040180
  H     30.462940    1.971040   15.372600
  H     31.919040    2.568950   13.478220
  H     30.960630    2.923060   11.237660
  H     29.056880    2.990060    9.755800

 Total Charge           Charge          ....    0
 Multiplicity           Mult            ....    1
 Number of Electrons    NEL             ....  576
 Basis Dimension        Dim             .... 1264

ORBITAL ENERGIES
----------------

  NO   OCC          E(Eh)            E(eV)
   0   2.0000     -89.055413     -2423.3210
   1   2.0000     -88.978160     -2421.2188
   2   2.0000     -88.974571     -2421.1212
   3   2.0000     -88.972070     -2421.0531
   4   2.0000     -88.968179     -2420.9472
   5   2.0000     -19.267377      -524.2920
   6   2.0000     -19.262477      -524.1586
   7   2.0000     -19.213670      -522.8305
   8   2.0000     -19.211337      -522.7671
   9   2.0000     -14.476342      -393.9213
  10   2.0000     -14.474244      -393.8642
  11   2.0000     -14.466773      -393.6609
  12   2.0000     -14.464456      -393.5978
  13   2.0000     -14.436417      -392.8349
  14   2.0000     -14.436205      -392.8291
  15   2.0000     -14.415765      -392.2729
  16   2.0000     -14.415238      -392.2586
  17   2.0000     -14.407887      -392.0585
  18   2.0000     -14.404523      -391.9670
  19   2.0000     -10.394195      -282.8404
  20   2.0000     -10.392229      -282.7869
  21   2.0000     -10.365116      -282.0491
  22   2.0000     -10.362392      -281.9750
  23   2.0000     -10.357573      -281.8439
  24   2.0000     -10.357313      -281.8368
  25   2.0000     -10.356129      -281.8046
  26   2.0000     -10.355965      -281.8001
  27   2.0000     -10.355681      -281.7924
  28   2.0000     -10.349829      -281.6332
  29   2.0000     -10.349021      -281.6112
  30   2.0000     -10.345699      -281.5208
  31   2.0000     -10.343158      -281.4516
  32   2.0000     -10.342208      -281.4258
  33   2.0000     -10.332287      -281.1558
  34   2.0000     -10.332171      -281.1527
  35   2.0000     -10.330917      -281.1185
  36   2.0000     -10.329781      -281.0876
  37   2.0000     -10.329605      -281.0829
  38   2.0000     -10.329174      -281.0711
  39   2.0000     -10.326025      -280.9854
  40   2.0000     -10.325726      -280.9773
  41   2.0000     -10.324728      -280.9501
  42   2.0000     -10.324282      -280.9380
  43   2.0000     -10.323769      -280.9240
  44   2.0000     -10.323115      -280.9062
  45   2.0000     -10.322451      -280.8882
  46   2.0000     -10.318484      -280.7802
  47   2.0000     -10.316915      -280.7375
  48   2.0000     -10.316802      -280.7345
  49   2.0000     -10.314473      -280.6711
  50   2.0000     -10.311023      -280.5772
  51   2.0000     -10.308336      -280.5041
  52   2.0000     -10.306927      -280.4658
  53   2.0000     -10.303645      -280.3764
  54   2.0000     -10.299798      -280.2718
  55   2.0000     -10.297928      -280.2209
  56   2.0000     -10.297723      -280.2153
  57   2.0000     -10.297692      -280.2145
  58   2.0000     -10.297541      -280.2103
  59   2.0000     -10.296965      -280.1947
  60   2.0000     -10.296836      -280.1912
  61   2.0000     -10.294946      -280.1397
  62   2.0000     -10.294685      -280.1326
  63   2.0000     -10.293362      -280.0966
  64   2.0000     -10.291729      -280.0522
  65   2.0000     -10.291360      -280.0421
  66   2.0000     -10.290932      -280.0305
  67   2.0000     -10.289690      -279.9967
  68   2.0000     -10.289252      -279.9848
  69   2.0000     -10.288995      -279.9778
  70   2.0000     -10.287229      -279.9297
  71   2.0000     -10.286551      -279.9113
  72   2.0000     -10.286195      -279.9016
  73   2.0000     -10.285945      -279.8948
  74   2.0000     -10.285527      -279.8834
  75   2.0000     -10.283203      -279.8202
  76   2.0000     -10.281368      -279.7703
  77   2.0000     -10.280917      -279.7580
  78   2.0000     -10.280757      -279.7536
  79   2.0000     -10.280300      -279.7412
  80   2.0000     -10.279721      -279.7254
  81   2.0000      -8.146716      -221.6834
  82   2.0000      -8.073421      -219.6890
  83   2.0000      -8.067937      -219.5397
  84   2.0000      -8.067464      -219.5269
  85   2.0000      -8.061438      -219.3629
  86   2.0000      -6.117899      -166.4765
  87   2.0000      -6.109951      -166.2602
  88   2.0000      -6.109428      -166.2460
  89   2.0000      -6.042717      -164.4307
  90   2.0000      -6.038693      -164.3212
  91   2.0000      -6.037596      -164.2913
  92   2.0000      -6.036651      -164.2656
  93   2.0000      -6.035400      -164.2316
  94   2.0000      -6.032880      -164.1630
  95   2.0000      -6.032586      -164.1550
  96   2.0000      -6.031191      -164.1171
  97   2.0000      -6.029961      -164.0836
  98   2.0000      -6.029652      -164.0752
  99   2.0000      -6.026562      -163.9911
 100   2.0000      -6.023209      -163.8999
 101   2.0000      -1.175960       -31.9995
 102   2.0000      -1.170605       -31.8538
 103   2.0000      -1.153418       -31.3861
 104   2.0000      -1.134876       -30.8815
 105   2.0000      -1.129119       -30.7249
 106   2.0000      -1.125632       -30.6300
 107   2.0000      -1.063181       -28.9306
 108   2.0000      -1.022804       -27.8319
 109   2.0000      -1.019805       -27.7503
 110   2.0000      -1.015178       -27.6244
 111   2.0000      -1.010655       -27.5013
 112   2.0000      -1.010077       -27.4856
 113   2.0000      -1.008452       -27.4414
 114   2.0000      -1.005145       -27.3514
 115   2.0000      -0.999831       -27.2068
 116   2.0000      -0.998338       -27.1662
 117   2.0000      -0.993383       -27.0313
 118   2.0000      -0.991269       -26.9738
 119   2.0000      -0.989473       -26.9249
 120   2.0000      -0.984615       -26.7927
 121   2.0000      -0.976211       -26.5641
 122   2.0000      -0.971184       -26.4273
 123   2.0000      -0.964221       -26.2378
 124   2.0000      -0.926173       -25.2025
 125   2.0000      -0.920883       -25.0585
 126   2.0000      -0.919788       -25.0287
 127   2.0000      -0.916923       -24.9507
 128   2.0000      -0.907383       -24.6912
 129   2.0000      -0.903433       -24.5837
 130   2.0000      -0.886357       -24.1190
 131   2.0000      -0.883919       -24.0526
 132   2.0000      -0.882263       -24.0076
 133   2.0000      -0.880764       -23.9668
 134   2.0000      -0.874173       -23.7875
 135   2.0000      -0.866972       -23.5915
 136   2.0000      -0.859710       -23.3939
 137   2.0000      -0.855182       -23.2707
 138   2.0000      -0.851752       -23.1774
 139   2.0000      -0.844908       -22.9911
 140   2.0000      -0.840399       -22.8684
 141   2.0000      -0.828405       -22.5421
 142   2.0000      -0.824299       -22.4303
 143   2.0000      -0.821847       -22.3636
 144   2.0000      -0.818464       -22.2715
 145   2.0000      -0.802189       -21.8287
 146   2.0000      -0.797158       -21.6918
 147   2.0000      -0.793384       -21.5891
 148   2.0000      -0.781402       -21.2630
 149   2.0000      -0.761899       -20.7323
 150   2.0000      -0.755051       -20.5460
 151   2.0000      -0.750158       -20.4128
 152   2.0000      -0.747577       -20.3426
 153   2.0000      -0.735767       -20.0212
 154   2.0000      -0.721234       -19.6258
 155   2.0000      -0.715560       -19.4714
 156   2.0000      -0.712859       -19.3979
 157   2.0000      -0.708978       -19.2923
 158   2.0000      -0.701966       -19.1015
 159   2.0000      -0.699120       -19.0240
 160   2.0000      -0.695756       -18.9325
 161   2.0000      -0.691913       -18.8279
 162   2.0000      -0.690888       -18.8000
 163   2.0000      -0.682644       -18.5757
 164   2.0000      -0.675686       -18.3864
 165   2.0000      -0.672528       -18.3004
 166   2.0000      -0.670676       -18.2500
 167   2.0000      -0.665714       -18.1150
 168   2.0000      -0.660724       -17.9792
 169   2.0000      -0.651591       -17.7307
 170   2.0000      -0.646772       -17.5996
 171   2.0000      -0.640983       -17.4420
 172   2.0000      -0.633625       -17.2418
 173   2.0000      -0.632473       -17.2105
 174   2.0000      -0.627731       -17.0814
 175   2.0000      -0.624396       -16.9907
 176   2.0000      -0.619000       -16.8439
 177   2.0000      -0.612596       -16.6696
 178   2.0000      -0.607445       -16.5294
 179   2.0000      -0.606675       -16.5085
 180   2.0000      -0.599821       -16.3219
 181   2.0000      -0.593907       -16.1610
 182   2.0000      -0.592720       -16.1287
 183   2.0000      -0.590993       -16.0817
 184   2.0000      -0.586370       -15.9559
 185   2.0000      -0.580553       -15.7977
 186   2.0000      -0.575326       -15.6554
 187   2.0000      -0.570768       -15.5314
 188   2.0000      -0.569619       -15.5001
 189   2.0000      -0.568504       -15.4698
 190   2.0000      -0.562883       -15.3168
 191   2.0000      -0.560227       -15.2445
 192   2.0000      -0.554335       -15.0842
 193   2.0000      -0.550402       -14.9772
 194   2.0000      -0.547289       -14.8925
 195   2.0000      -0.546079       -14.8596
 196   2.0000      -0.540556       -14.7093
 197   2.0000      -0.538705       -14.6589
 198   2.0000      -0.535777       -14.5792
 199   2.0000      -0.534596       -14.5471
 200   2.0000      -0.530598       -14.4383
 201   2.0000      -0.529854       -14.4181
 202   2.0000      -0.528263       -14.3748
 203   2.0000      -0.525846       -14.3090
 204   2.0000      -0.519390       -14.1333
 205   2.0000      -0.517408       -14.0794
 206   2.0000      -0.514284       -13.9944
 207   2.0000      -0.513053       -13.9609
 208   2.0000      -0.512274       -13.9397
 209   2.0000      -0.512068       -13.9341
 210   2.0000      -0.509985       -13.8774
 211   2.0000      -0.508071       -13.8253
 212   2.0000      -0.506874       -13.7927
 213   2.0000      -0.504010       -13.7148
 214   2.0000      -0.502237       -13.6666
 215   2.0000      -0.499052       -13.5799
 216   2.0000      -0.496315       -13.5054
 217   2.0000      -0.494466       -13.4551
 218   2.0000      -0.492531       -13.4025
 219   2.0000      -0.491769       -13.3817
 220   2.0000      -0.489069       -13.3082
 221   2.0000      -0.488287       -13.2870
 222   2.0000      -0.484868       -13.1939
 223   2.0000      -0.483679       -13.1616
 224   2.0000      -0.483472       -13.1559
 225   2.0000      -0.480141       -13.0653
 226   2.0000      -0.477918       -13.0048
 227   2.0000      -0.473968       -12.8973
 228   2.0000      -0.471908       -12.8413
 229   2.0000      -0.465978       -12.6799
 230   2.0000      -0.464967       -12.6524
 231   2.0000      -0.462974       -12.5982
 232   2.0000      -0.459168       -12.4946
 233   2.0000      -0.458734       -12.4828
 234   2.0000      -0.458130       -12.4664
 235   2.0000      -0.454633       -12.3712
 236   2.0000      -0.452185       -12.3046
 237   2.0000      -0.449807       -12.2399
 238   2.0000      -0.449562       -12.2332
 239   2.0000      -0.444869       -12.1055
 240   2.0000      -0.440859       -11.9964
 241   2.0000      -0.440113       -11.9761
 242   2.0000      -0.439220       -11.9518
 243   2.0000      -0.438364       -11.9285
 244   2.0000      -0.435389       -11.8475
 245   2.0000      -0.434022       -11.8103
 246   2.0000      -0.432915       -11.7802
 247   2.0000      -0.432474       -11.7682
 248   2.0000      -0.431884       -11.7522
 249   2.0000      -0.429975       -11.7002
 250   2.0000      -0.427302       -11.6275
 251   2.0000      -0.426763       -11.6128
 252   2.0000      -0.426590       -11.6081
 253   2.0000      -0.426092       -11.5946
 254   2.0000      -0.425262       -11.5720
 255   2.0000      -0.421208       -11.4617
 256   2.0000      -0.418753       -11.3949
 257   2.0000      -0.417887       -11.3713
 258   2.0000      -0.417364       -11.3570
 259   2.0000      -0.412461       -11.2236
 260   2.0000      -0.409694       -11.1483
 261   2.0000      -0.409005       -11.1296
 262   2.0000      -0.403114       -10.9693
 263   2.0000      -0.399854       -10.8806
 264   2.0000      -0.396026       -10.7764
 265   2.0000      -0.390712       -10.6318
 266   2.0000      -0.383407       -10.4330
 267   2.0000      -0.382534       -10.4093
 268   2.0000      -0.378536       -10.3005
 269   2.0000      -0.371522       -10.1096
 270   2.0000      -0.366848        -9.9824
 271   2.0000      -0.360057        -9.7977
 272   2.0000      -0.354472        -9.6457
 273   2.0000      -0.349231        -9.5031
 274   2.0000      -0.338510        -9.2113
 275   2.0000      -0.336855        -9.1663
 276   2.0000      -0.335605        -9.1323
 277   2.0000      -0.332681        -9.0527
 278   2.0000      -0.330948        -9.0055
 279   2.0000      -0.318697        -8.6722
 280   2.0000      -0.316178        -8.6036
 281   2.0000      -0.312738        -8.5100
 282   2.0000      -0.308201        -8.3866
 283   2.0000      -0.301297        -8.1987
 284   2.0000      -0.294510        -8.0140
 285   2.0000      -0.286823        -7.8049
 286   2.0000      -0.262071        -7.1313
 287   2.0000      -0.232085        -6.3154
 288   0.0000      -0.140378        -3.8199
 289   0.0000      -0.095587        -2.6011
 290   0.0000      -0.088063        -2.3963
 291   0.0000      -0.063271        -1.7217
 292   0.0000      -0.056560        -1.5391

MULLIKEN ATOMIC CHARGES
-----------------------
   0 C :   -0.013742
   1 C :    0.034378
   2 C :    0.038227
   3 C :   -0.019423
   4 C :    0.094522
   5 C :   -0.083347
   6 C :    0.036670
   7 C :    0.012190
   8 C :   -0.080934
   9 C :    0.093819
  10 C :    0.138459
  11 O :   -0.142137
  12 C :   -0.133434
  13 C :    0.266781
  14 C :   -0.342262
  15 C :   -0.202282
  16 N :    0.171705
  17 C :   -0.173232
  18 N :    0.153753
  19 C :    0.087981
  20 C :   -0.098658
  21 C :   -0.006522
  22 C :    0.197258
  23 C :   -0.161270
  24 S :    0.199101
  25 C :   -0.011372
  26 C :   -0.114984
  27 C :    0.354501
  28 O :   -0.293318
  29 C :   -0.031447
  30 C :   -0.175960
  31 S :    0.183918
  32 C :    0.206016
  33 C :   -0.062349
  34 C :   -0.056002
  35 N :    0.003432
  36 C :   -0.099265
  37 C :   -0.106230
  38 N :    0.000785
  39 C :   -0.238984
  40 N :    0.251918
  41 C :   -0.239388
  42 N :    0.258924
  43 C :    0.191826
  44 C :   -0.012543
  45 C :   -0.013558
  46 N :   -0.290165
  47 S :    0.553777
  48 N :   -0.288993
  49 C :   -0.148553
  50 C :   -0.073454
  51 C :    0.231555
  52 C :   -0.142282
  53 S :    0.179239
  54 C :   -0.040587
  55 C :   -0.141927
  56 C :    0.355714
  57 O :   -0.292336
  58 C :   -0.001229
  59 C :   -0.109879
  60 S :    0.183618
  61 C :    0.052268
  62 C :   -0.098950
  63 C :    0.328086
  64 C :   -0.369223
  65 C :   -0.182124
  66 N :    0.142012
  67 C :   -0.186459
  68 N :    0.147241
  69 C :    0.045646
  70 C :    0.002183
  71 C :   -0.084729
  72 C :    0.098235
  73 C :   -0.017282
  74 C :    0.036885
  75 C :    0.033571
  76 C :   -0.018251
  77 C :    0.093544
  78 C :   -0.081103
  79 C :    0.158533
  80 O :   -0.169001
  81 H :   -0.017179
  82 H :   -0.004566
  83 H :   -0.005483
  84 H :   -0.011324
  85 H :   -0.006606
  86 H :   -0.011602
  87 H :    0.026745
  88 H :    0.003397
  89 H :    0.027335
  90 H :    0.040788
  91 H :   -0.005633
  92 H :   -0.003626
  93 H :    0.032031
  94 H :    0.032188
  95 H :    0.009087
  96 H :   -0.001763
  97 H :   -0.018243
  98 H :   -0.020152
  99 H :   -0.008265
 100 H :   -0.006063
 101 H :   -0.009956
 102 H :   -0.010212
Sum of atomic charges:   -0.0000000

LOEWDIN ATOMIC CHARGES
----------------------
   0 C :   -0.008822
   1 C :   -0.013192
   2 C :   -0.012913
   3 C :   -0.006669
   4 C :   -0.005702
   5 C :    0.015062
   6 C :   -0.023199
   7 C :   -0.056987
   8 C :    0.032898
   9 C :   -0.009182
  10 C :    0.082717
  11 O :   -0.142162
  12 C :   -0.088410
  13 C :    0.065509
  14 C :   -0.141095
  15 C :   -0.018201
  16 N :   -0.045763
  17 C :   -0.019494
  18 N :   -0.053575
  19 C :    0.045245
  20 C :   -0.167337
  21 C :   -0.035527
  22 C :    0.040604
  23 C :   -0.220135
  24 S :    0.476439
  25 C :   -0.176967
  26 C :   -0.077614
  27 C :    0.108076
  28 O :   -0.088948
  29 C :   -0.024471
  30 C :   -0.165266
  31 S :    0.483943
  32 C :   -0.033898
  33 C :   -0.015630
  34 C :   -0.009619
  35 N :   -0.015250
  36 C :   -0.015735
  37 C :   -0.024324
  38 N :   -0.013603
  39 C :   -0.039670
  40 N :    0.001497
  41 C :   -0.039425
  42 N :    0.007901
  43 C :   -0.050328
  44 C :   -0.033244
  45 C :   -0.038489
  46 N :   -0.275339
  47 S :    0.675628
  48 N :   -0.274186
  49 C :   -0.149022
  50 C :   -0.056780
  51 C :    0.036937
  52 C :   -0.245634
  53 S :    0.473790
  54 C :   -0.159986
  55 C :   -0.084354
  56 C :    0.107674
  57 O :   -0.090458
  58 C :   -0.004221
  59 C :   -0.177945
  60 S :    0.469435
  61 C :    0.043981
  62 C :   -0.104894
  63 C :    0.076971
  64 C :   -0.147727
  65 C :   -0.016276
  66 N :   -0.061059
  67 C :   -0.025297
  68 N :   -0.054200
  69 C :   -0.025325
  70 C :   -0.053936
  71 C :    0.028332
  72 C :   -0.009273
  73 C :   -0.011339
  74 C :   -0.014291
  75 C :   -0.015757
  76 C :   -0.005456
  77 C :   -0.006978
  78 C :    0.018107
  79 C :    0.087952
  80 O :   -0.154655
  81 H :    0.032027
  82 H :    0.032890
  83 H :    0.033001
  84 H :    0.034103
  85 H :    0.038402
  86 H :    0.039616
  87 H :    0.047841
  88 H :    0.040390
  89 H :    0.035084
  90 H :    0.030657
  91 H :    0.031220
  92 H :    0.035209
  93 H :    0.026873
  94 H :    0.037303
  95 H :    0.034636
  96 H :    0.042597
  97 H :    0.036797
  98 H :    0.030704
  99 H :    0.031595
 100 H :    0.032447
 101 H :    0.034523
 102 H :    0.038623

  Mayer bond orders larger than 0.100000
B(  0-C ,  1-C ) :   1.4871 B(  0-C ,  9-C ) :   1.2449 B(  0-C , 81-H ) :   0.9986
B(  1-C ,  2-C ) :   1.2600 B(  1-C , 82-H ) :   0.9895 B(  2-C ,  3-C ) :   1.4891
B(  2-C , 83-H ) :   0.9886 B(  3-C ,  4-C ) :   1.2397 B(  3-C , 84-H ) :   0.9986
B(  4-C ,  5-C ) :   1.2023 B(  4-C ,  9-C ) :   1.2592 B(  5-C ,  6-C ) :   1.4546
B(  5-C , 85-H ) :   0.9952 B(  6-C ,  7-C ) :   1.2148 B(  6-C , 13-C ) :   0.9985
B(  7-C ,  8-C ) :   1.4747 B(  7-C , 10-C ) :   0.9191 B(  8-C ,  9-C ) :   1.1805
B(  8-C , 86-H ) :   1.0173 B( 10-C , 11-O ) :   2.2698 B( 10-C , 12-C ) :   0.9387
B( 12-C , 13-C ) :   1.0446 B( 12-C , 19-C ) :   1.6553 B( 13-C , 14-C ) :   1.6435
B( 14-C , 15-C ) :   1.1672 B( 14-C , 17-C ) :   1.1328 B( 15-C , 16-N ) :   3.0048
B( 17-C , 18-N ) :   2.9872 B( 19-C , 20-C ) :   1.1412 B( 19-C , 87-H ) :   0.9313
B( 20-C , 21-C ) :   1.3891 B( 20-C , 24-S ) :   1.1088 B( 21-C , 22-C ) :   1.3307
B( 21-C , 88-H ) :   0.9999 B( 22-C , 23-C ) :   1.3862 B( 22-C , 28-O ) :   1.1758
B( 23-C , 24-S ) :   1.1082 B( 23-C , 25-C ) :   1.1946 B( 25-C , 26-C ) :   1.4558
B( 25-C , 31-S ) :   1.0800 B( 26-C , 27-C ) :   1.0231 B( 26-C , 29-C ) :   1.3190
B( 27-C , 28-O ) :   0.9402 B( 27-C , 89-H ) :   0.9373 B( 27-C , 90-H ) :   0.9328
B( 29-C , 30-C ) :   1.3967 B( 29-C , 91-H ) :   0.9894 B( 30-C , 31-S ) :   1.1000
B( 30-C , 32-C ) :   1.2379 B( 32-C , 33-C ) :   1.2278 B( 32-C , 43-C ) :   0.1166
B( 32-C , 45-C ) :   1.1855 B( 33-C , 34-C ) :   1.1117 B( 33-C , 38-N ) :   1.4181
B( 34-C , 35-N ) :   1.4023 B( 34-C , 43-C ) :   1.2499 B( 35-N , 36-C ) :   1.6970
B( 36-C , 37-C ) :   1.2243 B( 36-C , 41-C ) :   1.1663 B( 37-C , 38-N ) :   1.6818
B( 37-C , 39-C ) :   1.1679 B( 39-C , 40-N ) :   3.0386 B( 41-C , 42-N ) :   3.0401
B( 43-C , 44-C ) :   1.1896 B( 43-C , 49-C ) :   1.2152 B( 44-C , 45-C ) :   1.1003
B( 44-C , 48-N ) :   1.5240 B( 45-C , 46-N ) :   1.5218 B( 46-N , 47-S ) :   1.2740
B( 46-N , 48-N ) :   0.1464 B( 47-S , 48-N ) :   1.2713 B( 49-C , 50-C ) :   1.3961
B( 49-C , 53-S ) :   1.1129 B( 50-C , 51-C ) :   1.2605 B( 50-C , 92-H ) :   1.0045
B( 51-C , 52-C ) :   1.3890 B( 51-C , 57-O ) :   1.1751 B( 52-C , 53-S ) :   1.0282
B( 52-C , 54-C ) :   1.1994 B( 54-C , 55-C ) :   1.4287 B( 54-C , 60-S ) :   1.1601
B( 55-C , 56-C ) :   1.0230 B( 55-C , 58-C ) :   1.3375 B( 56-C , 57-O ) :   0.9435
B( 56-C , 93-H ) :   0.9342 B( 56-C , 94-H ) :   0.9369 B( 58-C , 59-C ) :   1.3828
B( 58-C , 95-H ) :   0.9793 B( 59-C , 60-S ) :   1.0824 B( 59-C , 61-C ) :   1.2584
B( 61-C , 62-C ) :   1.5489 B( 61-C , 96-H ) :   0.9049 B( 62-C , 63-C ) :   1.0974
B( 62-C , 79-C ) :   0.9452 B( 63-C , 64-C ) :   1.6014 B( 63-C , 69-C ) :   0.9765
B( 64-C , 65-C ) :   1.1548 B( 64-C , 67-C ) :   1.1414 B( 65-C , 66-N ) :   2.9569
B( 67-C , 68-N ) :   2.9553 B( 69-C , 70-C ) :   1.2176 B( 69-C , 78-C ) :   1.4546
B( 70-C , 71-C ) :   1.4712 B( 70-C , 79-C ) :   0.9575 B( 71-C , 72-C ) :   1.1769
B( 71-C , 97-H ) :   1.0150 B( 72-C , 73-C ) :   1.2435 B( 72-C , 77-C ) :   1.2589
B( 73-C , 74-C ) :   1.4894 B( 73-C , 98-H ) :   0.9967 B( 74-C , 75-C ) :   1.2611
B( 74-C , 99-H ) :   0.9882 B( 75-C , 76-C ) :   1.4883 B( 75-C ,100-H ) :   0.9885
B( 76-C , 77-C ) :   1.2428 B( 76-C ,101-H ) :   0.9961 B( 77-C , 78-C ) :   1.2039
B( 78-C ,102-H ) :   0.9875 B( 79-C , 80-O ) :   2.1458 B( 80-O , 95-H ) :   0.1016

-----------------------------------------------------------------------------
         ABSORPTION SPECTRUM VIA TRANSITION ELECTRIC DIPOLE MOMENTS
-----------------------------------------------------------------------------
State   Energy  Wavelength   fosc         T2         TX        TY        TZ
        (cm-1)    (nm)                  (au**2)     (au)      (au)      (au)
-----------------------------------------------------------------------------
   0    5648.1   1770.5   0.635720583  37.05461   4.79704   0.66442   3.68803
   1   13097.3    763.5   0.045097945   1.13358   0.05984  -0.06648   1.06093
   2   16723.1    598.0   0.853975340  16.81144  -3.00472  -0.49390  -2.74576
   3   17650.8    566.5   0.786711521  14.67330  -3.67314  -0.51540  -0.95693
   4   20151.2    496.2   0.003602000   0.05885   0.00834  -0.02630  -0.24101
   5   20997.4    476.3   0.127816271   2.00400   1.27465   0.19789   0.58318
   6   21982.4    454.9   0.099985057   1.49739   1.05167   0.28475  -0.55705
   7   23064.3    433.6   0.033599769   0.47959   0.17820   0.18727  -0.64247
   8   23729.9    421.4   0.019757663   0.27410   0.05396   0.21097   0.47611
   9   23876.3    418.8   0.004020628   0.05544  -0.22219   0.05501  -0.05518
  10   24120.4    414.6   0.031419455   0.42883   0.59902   0.00043   0.26459
  11   24306.9    411.4   0.008422090   0.11407  -0.32971   0.05358  -0.04988
  12   25025.7    399.6   0.098418607   1.29469  -0.40588   0.43938  -0.96794
  13   25880.8    386.4   0.103731870   1.31950   0.50832  -0.21679   1.00703
  14   25946.4    385.4   0.244785411   3.10588   0.84308  -0.00073   1.54761
  15   26229.8    381.2   0.011496706   0.14430  -0.11882   0.17988  -0.31276
  16   26475.1    377.7   0.040146066   0.49921  -0.58488  -0.06704   0.39067
  17   26832.2    372.7   0.025314322   0.31059   0.38340  -0.32713   0.23786
  18   27502.2    363.6   0.108205074   1.29526  -0.26832   0.37511  -1.04046
  19   28040.1    356.6   0.000719164   0.00844   0.09160   0.00683   0.00243
  20   28166.4    355.0   0.034640285   0.40488  -0.42704   0.19561  -0.42925
  21   28713.1    348.3   0.183950689   2.10910  -0.92035   0.12071  -1.11691
  22   28930.9    345.7   0.020201794   0.22988   0.44078   0.14821   0.11674
  23   29163.3    342.9   0.065650363   0.74110  -0.80903   0.15592  -0.24952
  24   29386.7    340.3   0.048934463   0.54820   0.30667  -0.47524   0.47781
  25   29580.2    338.1   0.055787694   0.62089  -0.76349   0.09497   0.17015
  26   30156.0    331.6   0.096129479   1.04944   0.91313   0.43323   0.16715
  27   30350.8    329.5   0.038404766   0.41657   0.51540   0.38850   0.00099
  28   30591.9    326.9   0.284051012   3.05679   1.01372   0.73078  -1.22275
  29   30864.0    324.0   0.014203802   0.15151   0.05072  -0.04268   0.38355
  30   31205.5    320.5   0.028859938   0.30447  -0.27481   0.15810  -0.45161
  31   31372.0    318.8   0.000838392   0.00880  -0.08585  -0.02188  -0.03080
  32   31742.8    315.0   0.087980964   0.91247   0.38180   0.49409  -0.72289
  33   31954.7    312.9   0.112234249   1.15629  -0.90992  -0.08848  -0.56613
  34   32220.8    310.4   0.115662214   1.18176  -0.35696  -0.71968   0.73240
  35   32472.0    308.0   0.000705923   0.00716  -0.05529  -0.05693   0.02932
  36   32645.4    306.3   0.034078830   0.34367  -0.30627  -0.26474   0.42400
  37   33054.5    302.5   0.072992095   0.72698   0.81511  -0.08398  -0.23564
  38   33783.3    296.0   0.002430647   0.02369  -0.02816   0.04979  -0.14288
  39   33945.6    294.6   0.413106597   4.00639   0.77348  -1.08900   1.49070
  40   34095.9    293.3   0.446294938   4.30919   0.14802  -0.44910   2.02128
  41   34389.8    290.8   0.156876139   1.50177   0.54807  -0.47033   0.99004
  42   34415.7    290.6   0.076276629   0.72964  -0.30112   0.28940  -0.74513
  43   34834.3    287.1   0.131570035   1.24344   1.00063  -0.23374   0.43307
  44   34879.5    286.7   0.314176320   2.96537  -1.36413  -0.07228  -1.04847
  45   35220.8    283.9   0.205348981   1.91942   1.01476  -0.62791   0.70386
  46   35785.5    279.4   0.004574122   0.04208   0.18747   0.07644  -0.03307
  47   35989.9    277.9   0.093892502   0.85887   0.35637  -0.28257   0.80748
  48   36416.6    274.6   0.019920108   0.18008  -0.00503   0.13984  -0.40063
  49   36977.5    270.4   0.075052749   0.66820   0.71255   0.32049  -0.24032
  50   37269.6    268.3   0.100276387   0.88577  -0.37823   0.11506  -0.85409
  51   37357.7    267.7   0.067852472   0.59794   0.35899   0.29729  -0.61700
  52   37475.5    266.8   0.032575441   0.28617  -0.30317  -0.22043   0.38166
  53   37814.3    264.5   0.020841052   0.18144  -0.11035   0.05816  -0.40729
  54   38069.4    262.7   0.232079979   2.00696   0.70717   0.61064  -1.06489
  55   38289.1    261.2   0.042755457   0.36761  -0.40932  -0.18660   0.40651
  56   38721.5    258.3   0.193965361   1.64910  -0.44302  -0.74876   0.94456
  57   38967.1    256.6   0.041802877   0.35317  -0.05024   0.00726   0.59211
  58   39116.5    255.6   0.010858983   0.09139   0.14624   0.13376   0.22828
  59   39308.9    254.4   0.032409686   0.27143  -0.08465   0.24917   0.44964
  60   39451.3    253.5   0.029744088   0.24821  -0.36155  -0.10341   0.32679
  61   39492.2    253.2   0.022135955   0.18453   0.36356   0.06300  -0.21996
  62   39606.4    252.5   0.154058187   1.28055  -0.08202  -0.37413   1.06482
  63   39985.8    250.1   0.024215752   0.19937  -0.04228  -0.10518  -0.43188
  64   40076.0    249.5   0.090148697   0.74054   0.56609   0.45139  -0.46512
  65   40314.6    248.0   0.006408467   0.05233   0.05165  -0.13895  -0.17424

FINAL SINGLE POINT ENERGY     -5210.418216568148

DIPOLE MOMENT
-------------
                                X             Y             Z
Electronic contribution:     -0.57732      -0.49705      -5.96728
Nuclear contribution   :     -3.63902      -0.26599       9.38686
                        -----------------------------------------
Total Dipole Moment    :     -4.21634      -0.76304       3.41958
                        -----------------------------------------
Magnitude (a.u.)       :      5.48208
Magnitude (Debye)      :     13.93435

Rotational constants in cm-1:     0.002460     0.000149     0.000142
Rotational constants in MHz :    73.754222     4.473030     4.262060

                             ****ORCA TERMINATED NORMALLY****
TOTAL RUN TIME: 0 days 0 hours 12 minutes 29 seconds 127 msec
