                         Program Version 4.2.0 -  RELEASE  -
|  1> # ORCA input file
|  2> # SCF done       -197.233418562358          0.000974232972
|  3> ! CAM-B3LYP def2-SVP def2/J RIJCOSX Grid4 TightSCF
|  4> %maxcore 5000
|  5> %tddft
|  6>     Mode sTDDFT
|  7>     Ethresh 5.0
|  8>     maxcore 5000
|  9> end
| 10>
| 11> %pal
| 12>   nprocs 6
| 13>   end
| 14> * xyz 0 1
| 15>    C       12.10249         1.31801         8.79872
| 16>    C       13.09033         0.57907         9.39119
| 17>    C       13.45423        -0.66942         8.86472
| 18>    C       12.82324        -1.16404         7.75583
| 19>    C       11.79709        -0.43256         7.12472
| 20>    C       11.13176        -0.94761         5.98871
| 21>    C       10.14318        -0.20491         5.40322
| 22>    C        9.80297         1.08290         5.91546
| 23>    C       10.42185         1.59575         7.01924
| 24>    C       11.43315         0.83982         7.65494
| 25>    C        8.76479         1.69080         5.06362
| 26>    O        8.19040         2.74459         5.21182
| 27>    C        8.61736         0.75163         3.91334
| 28>    C        9.28438        -0.48794         4.26300
| 29>    C        8.95536        -1.73679         3.80609
| 30>    C        7.93310        -1.97070         2.86407
| 31>    N        7.08149        -2.19955         2.12801
| 32>    C        9.52948        -2.93209         4.28330
| 33>    N        9.94929        -3.94444         4.62400
| 34>    C        8.03953         1.15652         2.75102
| 35>    C        8.21610         0.55790         1.48212
| 36>    C        7.35970         0.53795         0.39959
| 37>    C        7.82882        -0.19451        -0.72192
| 38>    C        6.78740        -0.33054        -1.67968
| 39>    C        5.62706         0.30182        -1.35062
| 40>    S        5.73686         1.10121         0.19782
| 41>    C        4.36988         0.34000        -2.13765
| 42>    F        6.86804        -1.08761        -2.78429
| 43>    C        9.12632        -0.67880        -0.53201
| 44>    S        9.67119        -0.33030         1.08324
| 45>    C        9.99667        -1.37188        -1.40520
| 46>    C       11.05040        -2.15347        -0.87109
| 47>    C       11.88859        -2.98372        -1.69227
| 48>    N       12.79158        -3.76978        -1.10566
| 49>    C       12.97049        -3.73571         0.19231
| 50>    C       12.20564        -2.83201         0.99649
| 51>    N       11.26461        -2.10053         0.44484
| 52>    C       12.44749        -2.68397         2.38325
| 53>    N       12.66584        -2.54269         3.49887
| 54>    C       13.91890        -4.60083         0.79431
| 55>    N       14.66889        -5.27319         1.33863
| 56>    C       11.78985        -2.99688        -3.10829
| 57>    C       10.82434        -2.11342        -3.64741
| 58>    C        9.95157        -1.31172        -2.81554
| 59>    N        9.20369        -0.48574        -3.54114
| 60>    S        9.50491        -0.71666        -5.09617
| 61>    N       10.62929        -1.85742        -4.93753
| 62>    C       12.64490        -3.81842        -3.88086
| 63>    C       12.66340        -4.05148        -5.25623
| 64>    C       13.63931        -4.98794        -5.65476
| 65>    C       13.58320        -5.22456        -7.05181
| 66>    C       12.63048        -4.50499        -7.70206
| 67>    S       11.73895        -3.47561        -6.60239
| 68>    C       12.32718        -4.51924        -9.15439
| 69>    F       14.38552        -6.09806        -7.68213
| 70>    C       14.41849        -5.47955        -4.59150
| 71>    S       13.87601        -4.77293        -3.08712
| 72>    C       15.47556        -6.38314        -4.76348
| 73>    C       16.23875        -7.00818        -3.80784
| 74>    C       17.30768        -7.95541        -4.05839
| 75>    C       17.96335        -8.15732        -5.24556
| 76>    C       18.99877        -9.09867        -5.41941
| 77>    N       19.83966        -9.85283        -5.62549
| 78>    C       17.75094        -7.42034        -6.43012
| 79>    N       17.67092        -6.84173        -7.41858
| 80>    C       17.62957        -8.60232        -2.78952
| 81>    C       16.86219        -7.98188        -1.76176
| 82>    C       16.95953        -8.35376        -0.45218
| 83>    C       17.84187        -9.40145        -0.10516
| 84>    C       17.98237        -9.83793         1.22652
| 85>    C       18.83715       -10.85990         1.54046
| 86>    C       19.58923       -11.48741         0.53664
| 87>    C       19.47691       -11.08558        -0.76696
| 88>    C       18.60590       -10.03760        -1.12624
| 89>    C       18.48927        -9.61958        -2.47325
| 90>    C       16.01079        -6.94540        -2.35586
| 91>    O       15.26136        -6.19368        -1.75731
| 92>    H       11.82070         2.28127         9.19851
| 93>    H       13.59791         0.95398        10.26748
| 94>    H       14.23796        -1.23727         9.34318
| 95>    H       13.09739        -2.12382         7.34433
| 96>    H       11.43676        -1.90200         5.58885
| 97>    H       10.14751         2.56753         7.40231
| 98>    H        7.44441         2.06345         2.78919
| 99>    H        4.47367        -0.27487        -3.02803
|100>    H        4.13805         1.36172        -2.43677
|101>    H        3.53689        -0.03006        -1.54184
|102>    H       12.98295        -5.22273        -9.66192
|103>    H       12.47112        -3.52768        -9.58176
|104>    H       11.29116        -4.80891        -9.32494
|105>    H       15.68756        -6.62964        -5.79706
|106>    H       16.37082        -7.85494         0.30341
|107>    H       17.39994        -9.34920         1.99342
|108>    H       18.93799       -11.19025         2.56341
|109>    H       20.25930       -12.29186         0.80072
|110>    H       20.05569       -11.56535        -1.54257
|111>    H       19.08103       -10.12292        -3.22131
|112> *
|113>
|114>                          ****END OF INPUT****

CARTESIAN COORDINATES (ANGSTROEM)
---------------------------------
  C     12.102490    1.318010    8.798720
  C     13.090330    0.579070    9.391190
  C     13.454230   -0.669420    8.864720
  C     12.823240   -1.164040    7.755830
  C     11.797090   -0.432560    7.124720
  C     11.131760   -0.947610    5.988710
  C     10.143180   -0.204910    5.403220
  C      9.802970    1.082900    5.915460
  C     10.421850    1.595750    7.019240
  C     11.433150    0.839820    7.654940
  C      8.764790    1.690800    5.063620
  O      8.190400    2.744590    5.211820
  C      8.617360    0.751630    3.913340
  C      9.284380   -0.487940    4.263000
  C      8.955360   -1.736790    3.806090
  C      7.933100   -1.970700    2.864070
  N      7.081490   -2.199550    2.128010
  C      9.529480   -2.932090    4.283300
  N      9.949290   -3.944440    4.624000
  C      8.039530    1.156520    2.751020
  C      8.216100    0.557900    1.482120
  C      7.359700    0.537950    0.399590
  C      7.828820   -0.194510   -0.721920
  C      6.787400   -0.330540   -1.679680
  C      5.627060    0.301820   -1.350620
  S      5.736860    1.101210    0.197820
  C      4.369880    0.340000   -2.137650
  F      6.868040   -1.087610   -2.784290
  C      9.126320   -0.678800   -0.532010
  S      9.671190   -0.330300    1.083240
  C      9.996670   -1.371880   -1.405200
  C     11.050400   -2.153470   -0.871090
  C     11.888590   -2.983720   -1.692270
  N     12.791580   -3.769780   -1.105660
  C     12.970490   -3.735710    0.192310
  C     12.205640   -2.832010    0.996490
  N     11.264610   -2.100530    0.444840
  C     12.447490   -2.683970    2.383250
  N     12.665840   -2.542690    3.498870
  C     13.918900   -4.600830    0.794310
  N     14.668890   -5.273190    1.338630
  C     11.789850   -2.996880   -3.108290
  C     10.824340   -2.113420   -3.647410
  C      9.951570   -1.311720   -2.815540
  N      9.203690   -0.485740   -3.541140
  S      9.504910   -0.716660   -5.096170
  N     10.629290   -1.857420   -4.937530
  C     12.644900   -3.818420   -3.880860
  C     12.663400   -4.051480   -5.256230
  C     13.639310   -4.987940   -5.654760
  C     13.583200   -5.224560   -7.051810
  C     12.630480   -4.504990   -7.702060
  S     11.738950   -3.475610   -6.602390
  C     12.327180   -4.519240   -9.154390
  F     14.385520   -6.098060   -7.682130
  C     14.418490   -5.479550   -4.591500
  S     13.876010   -4.772930   -3.087120
  C     15.475560   -6.383140   -4.763480
  C     16.238750   -7.008180   -3.807840
  C     17.307680   -7.955410   -4.058390
  C     17.963350   -8.157320   -5.245560
  C     18.998770   -9.098670   -5.419410
  N     19.839660   -9.852830   -5.625490
  C     17.750940   -7.420340   -6.430120
  N     17.670920   -6.841730   -7.418580
  C     17.629570   -8.602320   -2.789520
  C     16.862190   -7.981880   -1.761760
  C     16.959530   -8.353760   -0.452180
  C     17.841870   -9.401450   -0.105160
  C     17.982370   -9.837930    1.226520
  C     18.837150  -10.859900    1.540460
  C     19.589230  -11.487410    0.536640
  C     19.476910  -11.085580   -0.766960
  C     18.605900  -10.037600   -1.126240
  C     18.489270   -9.619580   -2.473250
  C     16.010790   -6.945400   -2.355860
  O     15.261360   -6.193680   -1.757310
  H     11.820700    2.281270    9.198510
  H     13.597910    0.953980   10.267480
  H     14.237960   -1.237270    9.343180
  H     13.097390   -2.123820    7.344330
  H     11.436760   -1.902000    5.588850
  H     10.147510    2.567530    7.402310
  H      7.444410    2.063450    2.789190
  H      4.473670   -0.274870   -3.028030
  H      4.138050    1.361720   -2.436770
  H      3.536890   -0.030060   -1.541840
  H     12.982950   -5.222730   -9.661920
  H     12.471120   -3.527680   -9.581760
  H     11.291160   -4.808910   -9.324940
  H     15.687560   -6.629640   -5.797060
  H     16.370820   -7.854940    0.303410
  H     17.399940   -9.349200    1.993420
  H     18.937990  -11.190250    2.563410
  H     20.259300  -12.291860    0.800720
  H     20.055690  -11.565350   -1.542570
  H     19.081030  -10.122920   -3.221310

 Total Charge           Charge          ....    0
 Multiplicity           Mult            ....    1
 Number of Electrons    NEL             ....  552
 Basis Dimension        Dim             .... 1198

ORBITAL ENERGIES
----------------

  NO   OCC          E(Eh)            E(eV)
   0   2.0000     -89.053221     -2423.2613
   1   2.0000     -88.975269     -2421.1402
   2   2.0000     -88.966407     -2420.8990
   3   2.0000     -88.965215     -2420.8666
   4   2.0000     -88.961087     -2420.7542
   5   2.0000     -24.793408      -674.6629
   6   2.0000     -24.788749      -674.5362
   7   2.0000     -19.215702      -522.8858
   8   2.0000     -19.212307      -522.7934
   9   2.0000     -14.476082      -393.9142
  10   2.0000     -14.471476      -393.7889
  11   2.0000     -14.462787      -393.5524
  12   2.0000     -14.461592      -393.5199
  13   2.0000     -14.442599      -393.0031
  14   2.0000     -14.434221      -392.7751
  15   2.0000     -14.411905      -392.1679
  16   2.0000     -14.409525      -392.1031
  17   2.0000     -14.408168      -392.0662
  18   2.0000     -14.408043      -392.0628
  19   2.0000     -10.394546      -282.8500
  20   2.0000     -10.392955      -282.8067
  21   2.0000     -10.366656      -282.0911
  22   2.0000     -10.364179      -282.0237
  23   2.0000     -10.363304      -281.9998
  24   2.0000     -10.359525      -281.8970
  25   2.0000     -10.359039      -281.8838
  26   2.0000     -10.356747      -281.8214
  27   2.0000     -10.356697      -281.8200
  28   2.0000     -10.354484      -281.7598
  29   2.0000     -10.338601      -281.3276
  30   2.0000     -10.336923      -281.2820
  31   2.0000     -10.336490      -281.2702
  32   2.0000     -10.335230      -281.2359
  33   2.0000     -10.334705      -281.2216
  34   2.0000     -10.333836      -281.1980
  35   2.0000     -10.331846      -281.1438
  36   2.0000     -10.331157      -281.1251
  37   2.0000     -10.327222      -281.0180
  38   2.0000     -10.326237      -280.9912
  39   2.0000     -10.322194      -280.8812
  40   2.0000     -10.321561      -280.8639
  41   2.0000     -10.320826      -280.8439
  42   2.0000     -10.318725      -280.7868
  43   2.0000     -10.317795      -280.7615
  44   2.0000     -10.316758      -280.7333
  45   2.0000     -10.315933      -280.7108
  46   2.0000     -10.314296      -280.6663
  47   2.0000     -10.311809      -280.5986
  48   2.0000     -10.311064      -280.5783
  49   2.0000     -10.310487      -280.5626
  50   2.0000     -10.310417      -280.5607
  51   2.0000     -10.305062      -280.4150
  52   2.0000     -10.300582      -280.2931
  53   2.0000     -10.300152      -280.2814
  54   2.0000     -10.296799      -280.1902
  55   2.0000     -10.296150      -280.1725
  56   2.0000     -10.295213      -280.1470
  57   2.0000     -10.292405      -280.0706
  58   2.0000     -10.292105      -280.0624
  59   2.0000     -10.291234      -280.0387
  60   2.0000     -10.290960      -280.0313
  61   2.0000     -10.290224      -280.0112
  62   2.0000     -10.289852      -280.0011
  63   2.0000     -10.288713      -279.9701
  64   2.0000     -10.288159      -279.9550
  65   2.0000     -10.287934      -279.9489
  66   2.0000     -10.285220      -279.8751
  67   2.0000     -10.281363      -279.7701
  68   2.0000     -10.281357      -279.7699
  69   2.0000     -10.281294      -279.7682
  70   2.0000     -10.280838      -279.7558
  71   2.0000     -10.279966      -279.7321
  72   2.0000     -10.279831      -279.7284
  73   2.0000     -10.279580      -279.7216
  74   2.0000     -10.279034      -279.7067
  75   2.0000     -10.278991      -279.7056
  76   2.0000     -10.278826      -279.7011
  77   2.0000      -8.144426      -221.6211
  78   2.0000      -8.068126      -219.5449
  79   2.0000      -8.062481      -219.3913
  80   2.0000      -8.056954      -219.2409
  81   2.0000      -8.054935      -219.1859
  82   2.0000      -6.115551      -166.4126
  83   2.0000      -6.107751      -166.2004
  84   2.0000      -6.107146      -166.1839
  85   2.0000      -6.037900      -164.2996
  86   2.0000      -6.033032      -164.1671
  87   2.0000      -6.032233      -164.1454
  88   2.0000      -6.030052      -164.0860
  89   2.0000      -6.028079      -164.0324
  90   2.0000      -6.026464      -163.9884
  91   2.0000      -6.024796      -163.9430
  92   2.0000      -6.023482      -163.9073
  93   2.0000      -6.021835      -163.8625
  94   2.0000      -6.020400      -163.8234
  95   2.0000      -6.018798      -163.7798
  96   2.0000      -6.016142      -163.7076
  97   2.0000      -1.306930       -35.5634
  98   2.0000      -1.300914       -35.3997
  99   2.0000      -1.152535       -31.3621
 100   2.0000      -1.135871       -30.9086
 101   2.0000      -1.131768       -30.7970
 102   2.0000      -1.127327       -30.6761
 103   2.0000      -1.063505       -28.9394
 104   2.0000      -1.029258       -28.0075
 105   2.0000      -1.023502       -27.8509
 106   2.0000      -1.020397       -27.7664
 107   2.0000      -1.012905       -27.5625
 108   2.0000      -1.011360       -27.5205
 109   2.0000      -1.010252       -27.4904
 110   2.0000      -1.004346       -27.3296
 111   2.0000      -0.993868       -27.0445
 112   2.0000      -0.991949       -26.9923
 113   2.0000      -0.989605       -26.9285
 114   2.0000      -0.988542       -26.8996
 115   2.0000      -0.986551       -26.8454
 116   2.0000      -0.969132       -26.3714
 117   2.0000      -0.965834       -26.2817
 118   2.0000      -0.961403       -26.1611
 119   2.0000      -0.953830       -25.9550
 120   2.0000      -0.926668       -25.2159
 121   2.0000      -0.920894       -25.0588
 122   2.0000      -0.918667       -24.9982
 123   2.0000      -0.914070       -24.8731
 124   2.0000      -0.904142       -24.6030
 125   2.0000      -0.893008       -24.3000
 126   2.0000      -0.881251       -23.9801
 127   2.0000      -0.875574       -23.8256
 128   2.0000      -0.874429       -23.7944
 129   2.0000      -0.872208       -23.7340
 130   2.0000      -0.863810       -23.5055
 131   2.0000      -0.854556       -23.2536
 132   2.0000      -0.847738       -23.0681
 133   2.0000      -0.846073       -23.0228
 134   2.0000      -0.843434       -22.9510
 135   2.0000      -0.822885       -22.3918
 136   2.0000      -0.821620       -22.3574
 137   2.0000      -0.817526       -22.2460
 138   2.0000      -0.813328       -22.1318
 139   2.0000      -0.805538       -21.9198
 140   2.0000      -0.791257       -21.5312
 141   2.0000      -0.788653       -21.4603
 142   2.0000      -0.782534       -21.2938
 143   2.0000      -0.763178       -20.7671
 144   2.0000      -0.756117       -20.5750
 145   2.0000      -0.755222       -20.5506
 146   2.0000      -0.749256       -20.3883
 147   2.0000      -0.736307       -20.0359
 148   2.0000      -0.717029       -19.5114
 149   2.0000      -0.712552       -19.3895
 150   2.0000      -0.710811       -19.3422
 151   2.0000      -0.701530       -19.0896
 152   2.0000      -0.698063       -18.9953
 153   2.0000      -0.695621       -18.9288
 154   2.0000      -0.692108       -18.8332
 155   2.0000      -0.685797       -18.6615
 156   2.0000      -0.677459       -18.4346
 157   2.0000      -0.672018       -18.2865
 158   2.0000      -0.669657       -18.2223
 159   2.0000      -0.668975       -18.2037
 160   2.0000      -0.665235       -18.1020
 161   2.0000      -0.659455       -17.9447
 162   2.0000      -0.654334       -17.8053
 163   2.0000      -0.646815       -17.6007
 164   2.0000      -0.644989       -17.5510
 165   2.0000      -0.638957       -17.3869
 166   2.0000      -0.631168       -17.1749
 167   2.0000      -0.626355       -17.0440
 168   2.0000      -0.623494       -16.9661
 169   2.0000      -0.614584       -16.7237
 170   2.0000      -0.607167       -16.5219
 171   2.0000      -0.603182       -16.4134
 172   2.0000      -0.602246       -16.3880
 173   2.0000      -0.599345       -16.3090
 174   2.0000      -0.598046       -16.2737
 175   2.0000      -0.593579       -16.1521
 176   2.0000      -0.584836       -15.9142
 177   2.0000      -0.573906       -15.6168
 178   2.0000      -0.571775       -15.5588
 179   2.0000      -0.568248       -15.4628
 180   2.0000      -0.565684       -15.3930
 181   2.0000      -0.563005       -15.3202
 182   2.0000      -0.559081       -15.2134
 183   2.0000      -0.551838       -15.0163
 184   2.0000      -0.549882       -14.9631
 185   2.0000      -0.545792       -14.8518
 186   2.0000      -0.541527       -14.7357
 187   2.0000      -0.540836       -14.7169
 188   2.0000      -0.538562       -14.6550
 189   2.0000      -0.535830       -14.5807
 190   2.0000      -0.533369       -14.5137
 191   2.0000      -0.531722       -14.4689
 192   2.0000      -0.531515       -14.4632
 193   2.0000      -0.526862       -14.3366
 194   2.0000      -0.522191       -14.2095
 195   2.0000      -0.520239       -14.1564
 196   2.0000      -0.516820       -14.0634
 197   2.0000      -0.516675       -14.0594
 198   2.0000      -0.514351       -13.9962
 199   2.0000      -0.513678       -13.9779
 200   2.0000      -0.511275       -13.9125
 201   2.0000      -0.509947       -13.8764
 202   2.0000      -0.507941       -13.8218
 203   2.0000      -0.506464       -13.7816
 204   2.0000      -0.505964       -13.7680
 205   2.0000      -0.503992       -13.7143
 206   2.0000      -0.501397       -13.6437
 207   2.0000      -0.497305       -13.5324
 208   2.0000      -0.495088       -13.4720
 209   2.0000      -0.494383       -13.4528
 210   2.0000      -0.491839       -13.3836
 211   2.0000      -0.490799       -13.3553
 212   2.0000      -0.490053       -13.3350
 213   2.0000      -0.489395       -13.3171
 214   2.0000      -0.484749       -13.1907
 215   2.0000      -0.482945       -13.1416
 216   2.0000      -0.480498       -13.0750
 217   2.0000      -0.477778       -13.0010
 218   2.0000      -0.476221       -12.9586
 219   2.0000      -0.470517       -12.8034
 220   2.0000      -0.469114       -12.7652
 221   2.0000      -0.465078       -12.6554
 222   2.0000      -0.461014       -12.5448
 223   2.0000      -0.459166       -12.4945
 224   2.0000      -0.458204       -12.4684
 225   2.0000      -0.457107       -12.4385
 226   2.0000      -0.454967       -12.3803
 227   2.0000      -0.450116       -12.2483
 228   2.0000      -0.449119       -12.2212
 229   2.0000      -0.446625       -12.1533
 230   2.0000      -0.442040       -12.0285
 231   2.0000      -0.440249       -11.9798
 232   2.0000      -0.437352       -11.9009
 233   2.0000      -0.436776       -11.8853
 234   2.0000      -0.435701       -11.8560
 235   2.0000      -0.434891       -11.8340
 236   2.0000      -0.432920       -11.7804
 237   2.0000      -0.431344       -11.7375
 238   2.0000      -0.430682       -11.7195
 239   2.0000      -0.428578       -11.6622
 240   2.0000      -0.427528       -11.6336
 241   2.0000      -0.427053       -11.6207
 242   2.0000      -0.426058       -11.5936
 243   2.0000      -0.422394       -11.4939
 244   2.0000      -0.420761       -11.4495
 245   2.0000      -0.419303       -11.4098
 246   2.0000      -0.418912       -11.3992
 247   2.0000      -0.416757       -11.3405
 248   2.0000      -0.412859       -11.2345
 249   2.0000      -0.412544       -11.2259
 250   2.0000      -0.410556       -11.1718
 251   2.0000      -0.403209       -10.9719
 252   2.0000      -0.400864       -10.9081
 253   2.0000      -0.397632       -10.8201
 254   2.0000      -0.394135       -10.7249
 255   2.0000      -0.381078       -10.3697
 256   2.0000      -0.377724       -10.2784
 257   2.0000      -0.373433       -10.1616
 258   2.0000      -0.371532       -10.1099
 259   2.0000      -0.366565        -9.9747
 260   2.0000      -0.363083        -9.8800
 261   2.0000      -0.358767        -9.7625
 262   2.0000      -0.355956        -9.6861
 263   2.0000      -0.336718        -9.1626
 264   2.0000      -0.328662        -8.9434
 265   2.0000      -0.325489        -8.8570
 266   2.0000      -0.324442        -8.8285
 267   2.0000      -0.318348        -8.6627
 268   2.0000      -0.312875        -8.5137
 269   2.0000      -0.310847        -8.4586
 270   2.0000      -0.308689        -8.3998
 271   2.0000      -0.302530        -8.2323
 272   2.0000      -0.288691        -7.8557
 273   2.0000      -0.287497        -7.8232
 274   2.0000      -0.274268        -7.4632
 275   2.0000      -0.237747        -6.4694
 276   0.0000      -0.142638        -3.8814
 277   0.0000      -0.088813        -2.4167
 278   0.0000      -0.084733        -2.3057
 279   0.0000      -0.062104        -1.6899
 280   0.0000      -0.052980        -1.4417

MULLIKEN ATOMIC CHARGES
-----------------------
   0 C :   -0.014811
   1 C :    0.035969
   2 C :    0.032838
   3 C :   -0.011824
   4 C :    0.087536
   5 C :   -0.063040
   6 C :    0.028276
   7 C :    0.011166
   8 C :   -0.080753
   9 C :    0.090130
  10 C :    0.142228
  11 O :   -0.141106
  12 C :   -0.138790
  13 C :    0.246216
  14 C :   -0.324827
  15 C :   -0.196340
  16 N :    0.167448
  17 C :   -0.191548
  18 N :    0.171163
  19 C :    0.044855
  20 C :   -0.172023
  21 C :    0.012273
  22 C :    0.131258
  23 C :    0.226973
  24 C :   -0.300918
  25 S :    0.157027
  26 C :    0.115120
  27 F :   -0.181146
  28 C :   -0.206246
  29 S :    0.197655
  30 C :    0.149799
  31 C :   -0.044410
  32 C :   -0.058402
  33 N :    0.021384
  34 C :   -0.100210
  35 C :   -0.101184
  36 N :   -0.003165
  37 C :   -0.218541
  38 N :    0.244250
  39 C :   -0.212168
  40 N :    0.241992
  41 C :    0.159963
  42 C :    0.024200
  43 C :   -0.030655
  44 N :   -0.256406
  45 S :    0.552581
  46 N :   -0.321434
  47 C :   -0.206954
  48 C :   -0.025376
  49 C :    0.088922
  50 C :    0.229610
  51 C :   -0.285978
  52 S :    0.159927
  53 C :    0.118438
  54 F :   -0.175844
  55 C :   -0.053645
  56 S :    0.215003
  57 C :   -0.057811
  58 C :   -0.094275
  59 C :    0.308753
  60 C :   -0.339707
  61 C :   -0.182830
  62 N :    0.144078
  63 C :   -0.208262
  64 N :    0.161435
  65 C :    0.048323
  66 C :   -0.002976
  67 C :   -0.079817
  68 C :    0.093515
  69 C :   -0.015142
  70 C :    0.034995
  71 C :    0.035306
  72 C :   -0.020367
  73 C :    0.098318
  74 C :   -0.085378
  75 C :    0.172303
  76 O :   -0.176304
  77 H :   -0.020100
  78 H :   -0.007113
  79 H :   -0.005347
  80 H :   -0.005899
  81 H :    0.003273
  82 H :   -0.014348
  83 H :    0.026990
  84 H :    0.034112
  85 H :    0.041396
  86 H :    0.043541
  87 H :    0.039746
  88 H :    0.037829
  89 H :    0.035430
  90 H :    0.020837
  91 H :   -0.004106
  92 H :   -0.012880
  93 H :   -0.006783
  94 H :   -0.006488
  95 H :   -0.010841
  96 H :   -0.009862
Sum of atomic charges:   -0.0000000

LOEWDIN ATOMIC CHARGES
----------------------
   0 C :   -0.011030
   1 C :   -0.013762
   2 C :   -0.014364
   3 C :   -0.001756
   4 C :   -0.004683
   5 C :    0.026205
   6 C :   -0.025036
   7 C :   -0.058394
   8 C :    0.030521
   9 C :   -0.009220
  10 C :    0.082907
  11 O :   -0.142770
  12 C :   -0.080601
  13 C :    0.059553
  14 C :   -0.142199
  15 C :   -0.030870
  16 N :   -0.055265
  17 C :   -0.023360
  18 N :   -0.048641
  19 C :    0.039415
  20 C :   -0.195498
  21 C :   -0.162997
  22 C :   -0.068736
  23 C :    0.037041
  24 C :   -0.178497
  25 S :    0.418351
  26 C :   -0.055767
  27 F :   -0.055550
  28 C :   -0.147422
  29 S :    0.526662
  30 C :   -0.041358
  31 C :   -0.007593
  32 C :   -0.007669
  33 N :   -0.007463
  34 C :   -0.015769
  35 C :   -0.019168
  36 N :   -0.017337
  37 C :   -0.023361
  38 N :   -0.001908
  39 C :   -0.029548
  40 N :   -0.001201
  41 C :   -0.044877
  42 C :   -0.033717
  43 C :   -0.041367
  44 N :   -0.263123
  45 S :    0.679169
  46 N :   -0.293468
  47 C :   -0.174724
  48 C :   -0.180576
  49 C :   -0.072020
  50 C :    0.028579
  51 C :   -0.193912
  52 S :    0.445497
  53 C :   -0.056362
  54 F :   -0.054564
  55 C :   -0.178221
  56 S :    0.563569
  57 C :    0.046341
  58 C :   -0.093287
  59 C :    0.073632
  60 C :   -0.139434
  61 C :   -0.016758
  62 N :   -0.056819
  63 C :   -0.027275
  64 N :   -0.048109
  65 C :   -0.024689
  66 C :   -0.055956
  67 C :    0.036265
  68 C :   -0.009130
  69 C :   -0.007279
  70 C :   -0.014037
  71 C :   -0.014400
  72 C :   -0.007058
  73 C :   -0.006215
  74 C :    0.017032
  75 C :    0.084917
  76 O :   -0.163173
  77 H :    0.030760
  78 H :    0.031882
  79 H :    0.032641
  80 H :    0.037076
  81 H :    0.037990
  82 H :    0.038267
  83 H :    0.050110
  84 H :    0.042541
  85 H :    0.042444
  86 H :    0.043080
  87 H :    0.044371
  88 H :    0.041108
  89 H :    0.039919
  90 H :    0.047821
  91 H :    0.043185
  92 H :    0.033771
  93 H :    0.032124
  94 H :    0.032372
  95 H :    0.033954
  96 H :    0.038270

  Mayer bond orders larger than 0.100000
B(  0-C ,  1-C ) :   1.4902 B(  0-C ,  9-C ) :   1.2455 B(  0-C , 77-H ) :   0.9968
B(  1-C ,  2-C ) :   1.2587 B(  1-C , 78-H ) :   0.9890 B(  2-C ,  3-C ) :   1.4867
B(  2-C , 79-H ) :   0.9893 B(  3-C ,  4-C ) :   1.2457 B(  3-C , 80-H ) :   0.9980
B(  4-C ,  5-C ) :   1.2072 B(  4-C ,  9-C ) :   1.2520 B(  5-C ,  6-C ) :   1.4603
B(  5-C , 81-H ) :   0.9871 B(  6-C ,  7-C ) :   1.2079 B(  6-C , 13-C ) :   1.0040
B(  7-C ,  8-C ) :   1.4734 B(  7-C , 10-C ) :   0.9215 B(  8-C ,  9-C ) :   1.1884
B(  8-C , 82-H ) :   1.0152 B( 10-C , 11-O ) :   2.2804 B( 10-C , 12-C ) :   0.9312
B( 12-C , 13-C ) :   1.0316 B( 12-C , 19-C ) :   1.6687 B( 13-C , 14-C ) :   1.6578
B( 14-C , 15-C ) :   1.1544 B( 14-C , 17-C ) :   1.1473 B( 15-C , 16-N ) :   3.0094
B( 17-C , 18-N ) :   2.9878 B( 19-C , 20-C ) :   1.1179 B( 19-C , 83-H ) :   0.9502
B( 20-C , 21-C ) :   1.4529 B( 20-C , 29-S ) :   1.0928 B( 21-C , 22-C ) :   1.2489
B( 21-C , 25-S ) :   1.0607 B( 22-C , 23-C ) :   1.0985 B( 22-C , 28-C ) :   1.3436
B( 23-C , 24-C ) :   1.6266 B( 23-C , 27-F ) :   1.1451 B( 24-C , 25-S ) :   1.0736
B( 24-C , 26-C ) :   1.0715 B( 26-C , 84-H ) :   0.9548 B( 26-C , 85-H ) :   0.9476
B( 26-C , 86-H ) :   0.9470 B( 28-C , 29-S ) :   1.1482 B( 28-C , 30-C ) :   1.2008
B( 30-C , 31-C ) :   1.2451 B( 30-C , 41-C ) :   0.1094 B( 30-C , 43-C ) :   1.2018
B( 31-C , 32-C ) :   1.1298 B( 31-C , 36-N ) :   1.4077 B( 32-C , 33-N ) :   1.4196
B( 32-C , 41-C ) :   1.2295 B( 33-N , 34-C ) :   1.6888 B( 34-C , 35-C ) :   1.2194
B( 34-C , 39-C ) :   1.1728 B( 35-C , 36-N ) :   1.6762 B( 35-C , 37-C ) :   1.1657
B( 37-C , 38-N ) :   3.0071 B( 39-C , 40-N ) :   3.0051 B( 41-C , 42-C ) :   1.1739
B( 41-C , 47-C ) :   1.2540 B( 42-C , 43-C ) :   1.0924 B( 42-C , 46-N ) :   1.4960
B( 43-C , 44-N ) :   1.5366 B( 44-N , 45-S ) :   1.2902 B( 44-N , 46-N ) :   0.1436
B( 45-S , 46-N ) :   1.2548 B( 47-C , 48-C ) :   1.3933 B( 47-C , 56-S ) :   1.1150
B( 48-C , 49-C ) :   1.2956 B( 48-C , 52-S ) :   1.0773 B( 49-C , 50-C ) :   1.1121
B( 49-C , 55-C ) :   1.2818 B( 50-C , 51-C ) :   1.6344 B( 50-C , 54-F ) :   1.1234
B( 51-C , 52-S ) :   1.0424 B( 51-C , 53-C ) :   1.0638 B( 53-C , 87-H ) :   0.9558
B( 53-C , 88-H ) :   0.9479 B( 53-C , 89-H ) :   0.9480 B( 55-C , 56-S ) :   1.0529
B( 55-C , 57-C ) :   1.2799 B( 57-C , 58-C ) :   1.4994 B( 57-C , 90-H ) :   0.9432
B( 58-C , 59-C ) :   1.0689 B( 58-C , 75-C ) :   0.9748 B( 59-C , 60-C ) :   1.6307
B( 59-C , 65-C ) :   0.9864 B( 60-C , 61-C ) :   1.1451 B( 60-C , 63-C ) :   1.1417
B( 61-C , 62-N ) :   2.9666 B( 63-C , 64-N ) :   2.9928 B( 65-C , 66-C ) :   1.2118
B( 65-C , 74-C ) :   1.4579 B( 66-C , 67-C ) :   1.4734 B( 66-C , 75-C ) :   0.9626
B( 67-C , 68-C ) :   1.1709 B( 67-C , 91-H ) :   1.0173 B( 68-C , 69-C ) :   1.2482
B( 68-C , 73-C ) :   1.2563 B( 69-C , 70-C ) :   1.4852 B( 69-C , 92-H ) :   0.9985
B( 70-C , 71-C ) :   1.2603 B( 70-C , 93-H ) :   0.9894 B( 71-C , 72-C ) :   1.4870
B( 71-C , 94-H ) :   0.9891 B( 72-C , 73-C ) :   1.2416 B( 72-C , 95-H ) :   0.9973
B( 73-C , 74-C ) :   1.2017 B( 74-C , 96-H ) :   0.9910 B( 75-C , 76-O ) :   2.1073

-----------------------------------------------------------------------------
         ABSORPTION SPECTRUM VIA TRANSITION ELECTRIC DIPOLE MOMENTS
-----------------------------------------------------------------------------
State   Energy  Wavelength   fosc         T2         TX        TY        TZ
        (cm-1)    (nm)                  (au**2)     (au)      (au)      (au)
-----------------------------------------------------------------------------
   0    5623.8   1778.1   0.350935365  20.54325  -2.84204   2.55406   2.43779
   1   13440.5    744.0   0.021406425   0.52433  -0.10175   0.46532  -0.54540
   2   17024.6    587.4   0.128417976   2.48328   0.38194  -0.59566  -1.40804
   3   17247.6    579.8   0.070886717   1.35305  -0.13926   0.04848   1.15382
   4   17948.4    557.2   0.357021220   6.54853  -1.96648   1.63608   0.06863
   5   18380.1    544.1   0.017363957   0.31101  -0.16118   0.53259  -0.03713
   6   19393.8    515.6   0.004549364   0.07723   0.04910  -0.16576  -0.21758
   7   19788.4    505.3   0.007794771   0.12968  -0.34562  -0.00222  -0.10110
   8   20090.8    497.7   0.013241811   0.21698  -0.04136  -0.12698  -0.44626
   9   22062.4    453.3   0.068672750   1.02473   0.73852  -0.56391   0.40165
  10   22592.5    442.6   0.007313412   0.10657   0.05445   0.03644  -0.31981
  11   22876.9    437.1   0.216551474   3.11630   1.26649  -0.96576   0.76132
  12   23725.7    421.5   0.129241010   1.79332  -0.92908   0.81546   0.51492
  13   24443.3    409.1   0.005724605   0.07710  -0.07017   0.25588   0.08188
  14   24835.1    402.7   0.041725452   0.55311   0.43285  -0.02129   0.60440
  15   25262.6    395.8   0.023962759   0.31227   0.45143  -0.32913   0.01234
  16   25596.8    390.7   0.105009740   1.35058   0.61832  -0.54144   0.82164
  17   25964.5    385.1   0.012225532   0.15501  -0.05380   0.38745   0.04471
  18   26180.1    382.0   0.073084828   0.91903  -0.32464   0.83891   0.33147
  19   26469.5    377.8   0.070270086   0.87398   0.11562  -0.06222   0.92560
  20   26814.6    372.9   0.112025628   1.37538   0.07171   0.49075   1.06273
  21   27147.6    368.4   0.079081394   0.95900   0.42480  -0.42610   0.77265
  22   27847.0    359.1   0.199332870   2.35655   1.02858   0.19145   1.12335
  23   28718.7    348.2   0.105470912   1.20905   0.02137  -0.18808   1.08315
  24   28880.7    346.3   0.043720094   0.49837   0.31363  -0.22281   0.59191
  25   29308.0    341.2   0.156468749   1.75759  -0.70674   0.70518  -0.87225
  26   29471.8    339.3   0.028718731   0.32080  -0.08975   0.32337   0.45627
  27   29812.6    335.4   0.076614235   0.84603   0.82871  -0.29756   0.26596
  28   30019.1    333.1   0.226449326   2.48341  -0.39483   0.20717  -1.51149
  29   30398.2    329.0   0.390910464   4.23355  -1.26109   0.84097  -1.39139
  30   30571.6    327.1   0.064146891   0.69077  -0.68050   0.20982   0.42856
  31   30776.7    324.9   0.030340211   0.32454  -0.08383   0.03519  -0.56239
  32   31082.8    321.7   0.013299576   0.14086  -0.01416  -0.32051   0.19476
  33   31817.0    314.3   0.012471884   0.12905  -0.12088   0.28298  -0.18536
  34   32364.1    309.0   0.041121865   0.41830   0.42782   0.41722   0.24738
  35   32483.5    307.8   0.008865491   0.08985  -0.19977   0.15210   0.16373
  36   32620.7    306.6   0.030566479   0.30848   0.05441   0.11094  -0.54149
  37   32870.1    304.2   0.192964883   1.93265   0.83089  -0.43565   1.02591
  38   33245.0    300.8   0.025699891   0.25450  -0.12845  -0.45350   0.17983
  39   33379.9    299.6   0.079278012   0.78189  -0.16548  -0.84678   0.19357
  40   33751.4    296.3   0.387942459   3.78400  -0.89404  -0.58737  -1.62471
  41   34290.4    291.6   0.129179897   1.24022   0.10354  -0.06968  -1.10664
  42   34437.0    290.4   0.327524106   3.13108  -0.32754  -0.46070   1.67677
  43   34552.1    289.4   0.164795283   1.57017   0.28069  -0.29190   1.18582
  44   34685.1    288.3   0.242913589   2.30560   0.95281   0.02625   1.18198
  45   34770.1    287.6   0.055624474   0.52667   0.41578   0.37409   0.46244
  46   34900.1    286.5   0.107498302   1.01403  -0.35317  -0.37911  -0.86347
  47   35131.5    284.6   0.089809339   0.84159  -0.39329  -0.24574  -0.79153
  48   35455.0    282.0   0.031440716   0.29194   0.37900   0.20476   0.32615
  49   35685.2    280.2   0.152379172   1.40577   0.52432  -0.60428   0.87504
  50   36100.4    277.0   0.139298387   1.27031   0.18031  -0.30212   1.07076
  51   36113.8    276.9   0.024527595   0.22359   0.07947  -0.31503  -0.34355
  52   36568.9    273.5   0.045552428   0.41009   0.27720  -0.17359  -0.55056
  53   36582.1    273.4   0.013593299   0.12233   0.08930   0.33688  -0.02940
  54   36852.1    271.4   0.047999430   0.42879   0.43039  -0.09626   0.48404
  55   37123.2    269.4   0.048474099   0.42987  -0.11949  -0.34344  -0.54557
  56   37235.3    268.6   0.034674978   0.30658   0.27326  -0.22378   0.42641
  57   37377.3    267.5   0.191031555   1.68257   0.78070  -0.32730   0.98282
  58   37621.5    265.8   0.009191413   0.08043  -0.01936   0.06113   0.27626
  59   37717.4    265.1   0.013450175   0.11740  -0.13287  -0.07920  -0.30573
  60   37790.7    264.6   0.024079984   0.20977  -0.03362  -0.19952  -0.41089
  61   38028.0    263.0   0.036644409   0.31723   0.28984   0.05024  -0.48031
  62   38094.8    262.5   0.048588568   0.41990   0.14303  -0.10328   0.62352
  63   38338.9    260.8   0.010648739   0.09144  -0.18671   0.22049  -0.08924
  64   38590.9    259.1   0.442630807   3.77601   1.31009  -1.22246   0.75185
  65   38705.5    258.4   0.024663330   0.20978   0.30842  -0.18575   0.28311
  66   38758.3    258.0   0.104976439   0.89167  -0.72796   0.57631  -0.17206
  67   39160.9    255.4   0.026832396   0.22557  -0.16179  -0.33706   0.29289
  68   39317.7    254.3   0.056354463   0.47186   0.28548  -0.58913  -0.20804
  69   39459.8    253.4   0.028893185   0.24105  -0.31207  -0.18089   0.33309
  70   39632.7    252.3   0.069970083   0.58121  -0.36635   0.53361   0.40282
  71   39716.2    251.8   0.122194103   1.01288   0.78309  -0.41019   0.48103
  72   39815.1    251.2   0.005497927   0.04546  -0.14059   0.06667   0.14577
  73   40119.0    249.3   0.050054177   0.41074  -0.56677  -0.06582  -0.29185
  74   40182.7    248.9   0.044604902   0.36544   0.25479  -0.54704   0.03570

FINAL SINGLE POINT ENERGY     -5106.167186013804

DIPOLE MOMENT
-------------
                                X             Y             Z
Electronic contribution:    -18.11949      13.44222     -30.64853
Nuclear contribution   :     16.53446     -11.47492      30.84498
                        -----------------------------------------
Total Dipole Moment    :     -1.58503       1.96729       0.19646
                        -----------------------------------------
Magnitude (a.u.)       :      2.53400
Magnitude (Debye)      :      6.44091

Rotational constants in cm-1:     0.001016     0.000468     0.000334
Rotational constants in MHz :    30.466072    14.029183    10.027205

                             ****ORCA TERMINATED NORMALLY****
TOTAL RUN TIME: 0 days 0 hours 12 minutes 12 seconds 185 msec
