                         Program Version 4.2.0 -  RELEASE  -
|  1> # ORCA input file
|  2> # SCF done       -232.525793235442          0.000380391368
|  3> ! CAM-B3LYP def2-SVP def2/J RIJCOSX Grid4 TightSCF
|  4> %maxcore 5000
|  5> %tddft
|  6>     Mode sTDDFT
|  7>     Ethresh 5.0
|  8>     maxcore 5000
|  9> end
| 10>
| 11> %pal
| 12>   nprocs 6
| 13>   end
| 14> * xyz 0 1
| 15>    C       -3.45332        -2.63214         5.79690
| 16>    C       -3.50958        -2.74258         4.41734
| 17>    C       -4.40560        -3.61427         3.80274
| 18>    C       -5.26955        -4.40114         4.55618
| 19>    C       -5.20794        -4.28816         5.93108
| 20>    C       -4.30692        -3.41320         6.56567
| 21>    C       -4.46935        -3.51270         8.01310
| 22>    C       -3.77006        -2.81807         8.95386
| 23>    C       -2.75865        -1.87316         8.66352
| 24>    N       -1.93256        -1.09657         8.49282
| 25>    C       -3.96024        -2.94545        10.34962
| 26>    N       -4.06258        -3.00163        11.49018
| 27>    C       -5.52302        -4.49789         8.26680
| 28>    C       -6.03840        -4.93974         9.41617
| 29>    C       -6.00862        -5.00637         6.94324
| 30>    O       -6.87098        -5.82821         6.76223
| 31>    C       -4.39286        -3.74066         2.30305
| 32>    F       -4.11889        -2.55228         1.70577
| 33>    F       -5.60429        -4.11701         1.81531
| 34>    F       -2.13939        -4.43299         2.37562
| 35>    C       -3.34108        -4.78828         1.82050
| 36>    C       -3.26635        -4.86833         0.32870
| 37>    C       -3.62502        -6.06460        -0.15658
| 38>    C       -3.97191        -7.06555         0.84348
| 39>    S       -3.83003        -6.46796         2.45423
| 40>    C       -4.31114        -8.22811         0.21541
| 41>    C       -4.19414        -8.03824        -1.21377
| 42>    C       -3.76698        -6.68577        -1.47402
| 43>    C       -3.53625        -6.09904        -2.68384
| 44>    C       -3.70594        -6.79615        -3.89995
| 45>    N       -3.83946        -7.35135        -4.89380
| 46>    C       -3.10851        -4.76018        -2.80633
| 47>    N       -2.75615        -3.67473        -2.91538
| 48>    C       -4.49641        -9.16378        -1.92810
| 49>    C       -4.85796       -10.24718        -1.09826
| 50>    S       -4.82171        -9.83353         0.61294
| 51>    C       -5.20346       -11.52857        -1.52182
| 52>    C       -5.55794       -12.53454        -0.57409
| 53>    C       -5.89967       -13.86112        -0.96035
| 54>    N       -6.23043       -14.75925        -0.02384
| 55>    C       -6.22938       -14.40413         1.23396
| 56>    C       -5.88418       -13.09806         1.61533
| 57>    N       -5.56072       -12.20044         0.72186
| 58>    F       -5.87255       -12.72561         2.89164
| 59>    F       -6.56632       -15.32570         2.13150
| 60>    C       -5.89393       -14.28783        -2.32085
| 61>    C       -5.55518       -13.28474        -3.27918
| 62>    C       -5.22308       -11.93847        -2.89005
| 63>    N       -4.94373       -11.17882        -3.94080
| 64>    S       -5.08072       -12.04984        -5.29092
| 65>    N       -5.50274       -13.44248        -4.59513
| 66>    C       -6.18795       -15.61048        -2.64898
| 67>    C       -6.16926       -16.17175        -3.94327
| 68>    C       -6.47315       -17.50545        -3.93758
| 69>    C       -6.74985       -18.01547        -2.61396
| 70>    S       -6.60735       -16.78237        -1.40524
| 71>    C       -7.02838       -19.34824        -2.70476
| 72>    C       -6.92841       -19.76404        -4.09654
| 73>    C       -6.58617       -18.58194        -4.88935
| 74>    C       -6.41175       -18.52885        -6.24191
| 75>    C       -6.56378       -19.66674        -7.06109
| 76>    N       -6.69101       -20.59471        -7.72254
| 77>    C       -6.07322       -17.33255        -6.91032
| 78>    N       -5.79641       -16.36840        -7.46496
| 79>    C       -7.13878       -21.06672        -4.32365
| 80>    C       -7.42526       -21.86669        -3.08563
| 81>    S       -7.43180       -20.65154        -1.65932
| 82>    C       -6.24204       -22.82997        -2.85090
| 83>    C       -8.69372       -22.69315        -3.10921
| 84>    C       -9.25823       -23.10528        -4.31215
| 85>    C      -10.38279       -23.90612        -4.26689
| 86>    C      -10.96551       -24.31076        -3.05335
| 87>    C      -10.39542       -23.89423        -1.85758
| 88>    C       -9.26678       -23.09317        -1.90192
| 89>    C      -12.12593       -25.15286        -3.32542
| 90>    C      -12.96792       -25.69103        -2.39933
| 91>    C      -12.84045       -25.50449        -1.00333
| 92>    N      -12.78932       -25.38385         0.13576
| 93>    C      -14.08849       -26.49668        -2.70843
| 94>    N      -15.01047       -27.15336        -2.89039
| 95>    C      -12.22834       -25.29521        -4.77959
| 96>    C      -13.07850       -26.00660        -5.52316
| 97>    C      -11.13785       -24.47677        -5.40152
| 98>    O      -10.93374       -24.32709        -6.57933
| 99>    F       -6.16047       -23.73619        -3.83252
|100>    F       -5.07124       -22.18503        -2.81826
|101>    F       -6.34781       -23.50726        -1.70481
|102>    H       -2.75250        -1.94832         6.24626
|103>    H       -2.85240        -2.14320         3.80636
|104>    H       -5.97569        -5.07329         4.09376
|105>    H       -5.72240        -4.60374        10.38775
|106>    H       -6.82148        -5.68079         9.37616
|107>    H       -2.96045        -3.99626        -0.22146
|108>    H       -4.47621        -9.26995        -2.99808
|109>    H       -5.92842       -15.57202        -4.80278
|110>    H       -7.05543       -21.56375        -5.27347
|111>    H       -8.84892       -22.83346        -5.27159
|112>    H      -10.80357       -24.18313        -0.90326
|113>    H       -8.81939       -22.77390        -0.97238
|114>    H      -13.86534       -26.61900        -5.11981
|115>    H      -12.97382       -25.97370        -6.59645
|116> *
|117>
|118>                          ****END OF INPUT****

CARTESIAN COORDINATES (ANGSTROEM)
---------------------------------
  C     -3.453320   -2.632140    5.796900
  C     -3.509580   -2.742580    4.417340
  C     -4.405600   -3.614270    3.802740
  C     -5.269550   -4.401140    4.556180
  C     -5.207940   -4.288160    5.931080
  C     -4.306920   -3.413200    6.565670
  C     -4.469350   -3.512700    8.013100
  C     -3.770060   -2.818070    8.953860
  C     -2.758650   -1.873160    8.663520
  N     -1.932560   -1.096570    8.492820
  C     -3.960240   -2.945450   10.349620
  N     -4.062580   -3.001630   11.490180
  C     -5.523020   -4.497890    8.266800
  C     -6.038400   -4.939740    9.416170
  C     -6.008620   -5.006370    6.943240
  O     -6.870980   -5.828210    6.762230
  C     -4.392860   -3.740660    2.303050
  F     -4.118890   -2.552280    1.705770
  F     -5.604290   -4.117010    1.815310
  F     -2.139390   -4.432990    2.375620
  C     -3.341080   -4.788280    1.820500
  C     -3.266350   -4.868330    0.328700
  C     -3.625020   -6.064600   -0.156580
  C     -3.971910   -7.065550    0.843480
  S     -3.830030   -6.467960    2.454230
  C     -4.311140   -8.228110    0.215410
  C     -4.194140   -8.038240   -1.213770
  C     -3.766980   -6.685770   -1.474020
  C     -3.536250   -6.099040   -2.683840
  C     -3.705940   -6.796150   -3.899950
  N     -3.839460   -7.351350   -4.893800
  C     -3.108510   -4.760180   -2.806330
  N     -2.756150   -3.674730   -2.915380
  C     -4.496410   -9.163780   -1.928100
  C     -4.857960  -10.247180   -1.098260
  S     -4.821710   -9.833530    0.612940
  C     -5.203460  -11.528570   -1.521820
  C     -5.557940  -12.534540   -0.574090
  C     -5.899670  -13.861120   -0.960350
  N     -6.230430  -14.759250   -0.023840
  C     -6.229380  -14.404130    1.233960
  C     -5.884180  -13.098060    1.615330
  N     -5.560720  -12.200440    0.721860
  F     -5.872550  -12.725610    2.891640
  F     -6.566320  -15.325700    2.131500
  C     -5.893930  -14.287830   -2.320850
  C     -5.555180  -13.284740   -3.279180
  C     -5.223080  -11.938470   -2.890050
  N     -4.943730  -11.178820   -3.940800
  S     -5.080720  -12.049840   -5.290920
  N     -5.502740  -13.442480   -4.595130
  C     -6.187950  -15.610480   -2.648980
  C     -6.169260  -16.171750   -3.943270
  C     -6.473150  -17.505450   -3.937580
  C     -6.749850  -18.015470   -2.613960
  S     -6.607350  -16.782370   -1.405240
  C     -7.028380  -19.348240   -2.704760
  C     -6.928410  -19.764040   -4.096540
  C     -6.586170  -18.581940   -4.889350
  C     -6.411750  -18.528850   -6.241910
  C     -6.563780  -19.666740   -7.061090
  N     -6.691010  -20.594710   -7.722540
  C     -6.073220  -17.332550   -6.910320
  N     -5.796410  -16.368400   -7.464960
  C     -7.138780  -21.066720   -4.323650
  C     -7.425260  -21.866690   -3.085630
  S     -7.431800  -20.651540   -1.659320
  C     -6.242040  -22.829970   -2.850900
  C     -8.693720  -22.693150   -3.109210
  C     -9.258230  -23.105280   -4.312150
  C    -10.382790  -23.906120   -4.266890
  C    -10.965510  -24.310760   -3.053350
  C    -10.395420  -23.894230   -1.857580
  C     -9.266780  -23.093170   -1.901920
  C    -12.125930  -25.152860   -3.325420
  C    -12.967920  -25.691030   -2.399330
  C    -12.840450  -25.504490   -1.003330
  N    -12.789320  -25.383850    0.135760
  C    -14.088490  -26.496680   -2.708430
  N    -15.010470  -27.153360   -2.890390
  C    -12.228340  -25.295210   -4.779590
  C    -13.078500  -26.006600   -5.523160
  C    -11.137850  -24.476770   -5.401520
  O    -10.933740  -24.327090   -6.579330
  F     -6.160470  -23.736190   -3.832520
  F     -5.071240  -22.185030   -2.818260
  F     -6.347810  -23.507260   -1.704810
  H     -2.752500   -1.948320    6.246260
  H     -2.852400   -2.143200    3.806360
  H     -5.975690   -5.073290    4.093760
  H     -5.722400   -4.603740   10.387750
  H     -6.821480   -5.680790    9.376160
  H     -2.960450   -3.996260   -0.221460
  H     -4.476210   -9.269950   -2.998080
  H     -5.928420  -15.572020   -4.802780
  H     -7.055430  -21.563750   -5.273470
  H     -8.848920  -22.833460   -5.271590
  H    -10.803570  -24.183130   -0.903260
  H     -8.819390  -22.773900   -0.972380
  H    -13.865340  -26.619000   -5.119810
  H    -12.973820  -25.973700   -6.596450

 Total Charge           Charge          ....    0
 Multiplicity           Mult            ....    1
 Number of Electrons    NEL             ....  626
 Basis Dimension        Dim             .... 1308

ORBITAL ENERGIES
----------------

  NO   OCC          E(Eh)            E(eV)
   0   2.0000     -89.025585     -2422.5093
   1   2.0000     -88.988399     -2421.4974
   2   2.0000     -88.981795     -2421.3177
   3   2.0000     -88.980371     -2421.2790
   4   2.0000     -88.980259     -2421.2759
   5   2.0000     -24.829328      -675.6404
   6   2.0000     -24.827707      -675.5963
   7   2.0000     -24.824413      -675.5066
   8   2.0000     -24.818521      -675.3463
   9   2.0000     -24.817933      -675.3303
  10   2.0000     -24.812981      -675.1955
  11   2.0000     -24.811254      -675.1486
  12   2.0000     -24.807123      -675.0361
  13   2.0000     -19.236773      -523.4592
  14   2.0000     -19.236012      -523.4385
  15   2.0000     -14.464541      -393.6002
  16   2.0000     -14.464319      -393.5941
  17   2.0000     -14.449018      -393.1778
  18   2.0000     -14.448643      -393.1676
  19   2.0000     -14.441625      -392.9766
  20   2.0000     -14.438451      -392.8902
  21   2.0000     -14.438212      -392.8837
  22   2.0000     -14.436719      -392.8431
  23   2.0000     -14.434966      -392.7954
  24   2.0000     -14.434610      -392.7857
  25   2.0000     -14.434406      -392.7802
  26   2.0000     -14.434188      -392.7742
  27   2.0000     -10.545864      -286.9675
  28   2.0000     -10.473008      -284.9850
  29   2.0000     -10.431291      -283.8498
  30   2.0000     -10.430718      -283.8343
  31   2.0000     -10.428813      -283.7824
  32   2.0000     -10.385315      -282.5988
  33   2.0000     -10.384717      -282.5825
  34   2.0000     -10.381524      -282.4956
  35   2.0000     -10.375658      -282.3360
  36   2.0000     -10.373889      -282.2879
  37   2.0000     -10.367698      -282.1194
  38   2.0000     -10.367414      -282.1117
  39   2.0000     -10.366036      -282.0742
  40   2.0000     -10.363955      -282.0176
  41   2.0000     -10.360804      -281.9318
  42   2.0000     -10.360142      -281.9138
  43   2.0000     -10.359654      -281.9005
  44   2.0000     -10.359344      -281.8921
  45   2.0000     -10.349905      -281.6352
  46   2.0000     -10.346909      -281.5537
  47   2.0000     -10.346518      -281.5431
  48   2.0000     -10.346106      -281.5319
  49   2.0000     -10.345049      -281.5031
  50   2.0000     -10.344793      -281.4961
  51   2.0000     -10.341624      -281.4099
  52   2.0000     -10.340314      -281.3742
  53   2.0000     -10.338571      -281.3268
  54   2.0000     -10.338307      -281.3196
  55   2.0000     -10.338083      -281.3135
  56   2.0000     -10.337692      -281.3029
  57   2.0000     -10.336470      -281.2696
  58   2.0000     -10.336275      -281.2643
  59   2.0000     -10.336179      -281.2617
  60   2.0000     -10.335552      -281.2447
  61   2.0000     -10.335371      -281.2398
  62   2.0000     -10.335304      -281.2379
  63   2.0000     -10.331106      -281.1237
  64   2.0000     -10.330858      -281.1169
  65   2.0000     -10.330557      -281.1088
  66   2.0000     -10.329216      -281.0723
  67   2.0000     -10.328247      -281.0459
  68   2.0000     -10.326878      -281.0086
  69   2.0000     -10.326795      -281.0064
  70   2.0000     -10.326061      -280.9864
  71   2.0000     -10.322525      -280.8902
  72   2.0000     -10.321866      -280.8722
  73   2.0000     -10.321236      -280.8551
  74   2.0000     -10.320797      -280.8432
  75   2.0000     -10.320584      -280.8374
  76   2.0000     -10.320041      -280.8226
  77   2.0000     -10.319004      -280.7944
  78   2.0000     -10.317824      -280.7623
  79   2.0000     -10.317507      -280.7536
  80   2.0000     -10.317468      -280.7526
  81   2.0000     -10.316658      -280.7305
  82   2.0000     -10.316259      -280.7197
  83   2.0000     -10.315973      -280.7119
  84   2.0000     -10.314585      -280.6741
  85   2.0000     -10.312470      -280.6166
  86   2.0000     -10.312359      -280.6135
  87   2.0000      -8.117596      -220.8910
  88   2.0000      -8.083077      -219.9517
  89   2.0000      -8.077431      -219.7981
  90   2.0000      -8.073546      -219.6923
  91   2.0000      -8.073476      -219.6904
  92   2.0000      -6.089242      -165.6967
  93   2.0000      -6.081323      -165.4812
  94   2.0000      -6.079137      -165.4217
  95   2.0000      -6.053275      -164.7180
  96   2.0000      -6.049285      -164.6094
  97   2.0000      -6.047379      -164.5576
  98   2.0000      -6.043627      -164.4554
  99   2.0000      -6.043624      -164.4554
 100   2.0000      -6.043534      -164.4529
 101   2.0000      -6.043070      -164.4403
 102   2.0000      -6.038814      -164.3245
 103   2.0000      -6.038758      -164.3230
 104   2.0000      -6.037510      -164.2890
 105   2.0000      -6.034689      -164.2122
 106   2.0000      -6.034613      -164.2102
 107   2.0000      -1.419230       -38.6192
 108   2.0000      -1.365881       -37.1675
 109   2.0000      -1.346601       -36.6429
 110   2.0000      -1.332714       -36.2650
 111   2.0000      -1.322009       -35.9737
 112   2.0000      -1.321653       -35.9640
 113   2.0000      -1.318905       -35.8892
 114   2.0000      -1.296305       -35.2742
 115   2.0000      -1.152363       -31.3574
 116   2.0000      -1.151600       -31.3366
 117   2.0000      -1.135470       -30.8977
 118   2.0000      -1.123460       -30.5709
 119   2.0000      -1.058640       -28.8071
 120   2.0000      -1.055083       -28.7103
 121   2.0000      -1.049150       -28.5488
 122   2.0000      -1.038126       -28.2488
 123   2.0000      -1.037120       -28.2215
 124   2.0000      -1.032026       -28.0829
 125   2.0000      -1.028679       -27.9918
 126   2.0000      -1.022183       -27.8150
 127   2.0000      -1.017594       -27.6902
 128   2.0000      -1.017016       -27.6744
 129   2.0000      -1.014841       -27.6152
 130   2.0000      -1.012802       -27.5597
 131   2.0000      -1.012216       -27.5438
 132   2.0000      -1.009727       -27.4761
 133   2.0000      -1.002939       -27.2914
 134   2.0000      -0.992682       -27.0123
 135   2.0000      -0.983295       -26.7568
 136   2.0000      -0.976459       -26.5708
 137   2.0000      -0.971165       -26.4267
 138   2.0000      -0.963904       -26.2292
 139   2.0000      -0.959864       -26.1192
 140   2.0000      -0.935715       -25.4621
 141   2.0000      -0.926242       -25.2043
 142   2.0000      -0.921673       -25.0800
 143   2.0000      -0.919237       -25.0137
 144   2.0000      -0.904166       -24.6036
 145   2.0000      -0.897188       -24.4137
 146   2.0000      -0.891845       -24.2683
 147   2.0000      -0.890366       -24.2281
 148   2.0000      -0.885656       -24.0999
 149   2.0000      -0.883466       -24.0403
 150   2.0000      -0.882638       -24.0178
 151   2.0000      -0.879126       -23.9222
 152   2.0000      -0.867589       -23.6083
 153   2.0000      -0.865545       -23.5527
 154   2.0000      -0.852935       -23.2095
 155   2.0000      -0.846069       -23.0227
 156   2.0000      -0.822997       -22.3949
 157   2.0000      -0.813480       -22.1359
 158   2.0000      -0.807290       -21.9675
 159   2.0000      -0.801226       -21.8025
 160   2.0000      -0.793657       -21.5965
 161   2.0000      -0.788162       -21.4470
 162   2.0000      -0.786656       -21.4060
 163   2.0000      -0.785829       -21.3835
 164   2.0000      -0.781011       -21.2524
 165   2.0000      -0.766902       -20.8685
 166   2.0000      -0.759844       -20.6764
 167   2.0000      -0.746460       -20.3122
 168   2.0000      -0.735925       -20.0255
 169   2.0000      -0.725685       -19.7469
 170   2.0000      -0.720814       -19.6143
 171   2.0000      -0.717771       -19.5315
 172   2.0000      -0.714804       -19.4508
 173   2.0000      -0.712079       -19.3767
 174   2.0000      -0.710296       -19.3281
 175   2.0000      -0.703763       -19.1504
 176   2.0000      -0.700590       -19.0640
 177   2.0000      -0.698740       -19.0137
 178   2.0000      -0.697631       -18.9835
 179   2.0000      -0.696472       -18.9520
 180   2.0000      -0.694265       -18.8919
 181   2.0000      -0.691040       -18.8042
 182   2.0000      -0.686588       -18.6830
 183   2.0000      -0.680618       -18.5206
 184   2.0000      -0.675513       -18.3816
 185   2.0000      -0.672668       -18.3042
 186   2.0000      -0.669558       -18.2196
 187   2.0000      -0.667750       -18.1704
 188   2.0000      -0.661056       -17.9882
 189   2.0000      -0.656391       -17.8613
 190   2.0000      -0.645717       -17.5708
 191   2.0000      -0.640031       -17.4161
 192   2.0000      -0.639172       -17.3927
 193   2.0000      -0.635743       -17.2994
 194   2.0000      -0.632792       -17.2192
 195   2.0000      -0.631445       -17.1825
 196   2.0000      -0.628935       -17.1142
 197   2.0000      -0.625293       -17.0151
 198   2.0000      -0.623330       -16.9617
 199   2.0000      -0.623092       -16.9552
 200   2.0000      -0.614420       -16.7192
 201   2.0000      -0.610748       -16.6193
 202   2.0000      -0.600760       -16.3475
 203   2.0000      -0.598763       -16.2932
 204   2.0000      -0.594740       -16.1837
 205   2.0000      -0.593629       -16.1535
 206   2.0000      -0.583288       -15.8721
 207   2.0000      -0.581786       -15.8312
 208   2.0000      -0.581544       -15.8246
 209   2.0000      -0.574404       -15.6303
 210   2.0000      -0.573856       -15.6154
 211   2.0000      -0.572719       -15.5845
 212   2.0000      -0.568885       -15.4802
 213   2.0000      -0.567436       -15.4407
 214   2.0000      -0.562059       -15.2944
 215   2.0000      -0.561067       -15.2674
 216   2.0000      -0.558217       -15.1898
 217   2.0000      -0.556068       -15.1314
 218   2.0000      -0.555287       -15.1101
 219   2.0000      -0.555143       -15.1062
 220   2.0000      -0.553065       -15.0497
 221   2.0000      -0.551383       -15.0039
 222   2.0000      -0.547242       -14.8912
 223   2.0000      -0.543327       -14.7847
 224   2.0000      -0.541836       -14.7441
 225   2.0000      -0.540160       -14.6985
 226   2.0000      -0.539471       -14.6798
 227   2.0000      -0.535452       -14.5704
 228   2.0000      -0.533222       -14.5097
 229   2.0000      -0.531847       -14.4723
 230   2.0000      -0.529290       -14.4027
 231   2.0000      -0.528211       -14.3734
 232   2.0000      -0.526120       -14.3165
 233   2.0000      -0.521348       -14.1866
 234   2.0000      -0.520805       -14.1718
 235   2.0000      -0.520616       -14.1667
 236   2.0000      -0.517453       -14.0806
 237   2.0000      -0.515782       -14.0351
 238   2.0000      -0.515328       -14.0228
 239   2.0000      -0.514006       -13.9868
 240   2.0000      -0.513786       -13.9808
 241   2.0000      -0.513312       -13.9679
 242   2.0000      -0.511272       -13.9124
 243   2.0000      -0.510934       -13.9032
 244   2.0000      -0.510253       -13.8847
 245   2.0000      -0.507687       -13.8149
 246   2.0000      -0.505611       -13.7584
 247   2.0000      -0.503283       -13.6950
 248   2.0000      -0.503030       -13.6882
 249   2.0000      -0.490858       -13.3569
 250   2.0000      -0.487491       -13.2653
 251   2.0000      -0.485212       -13.2033
 252   2.0000      -0.484045       -13.1715
 253   2.0000      -0.481533       -13.1032
 254   2.0000      -0.477803       -13.0017
 255   2.0000      -0.475706       -12.9446
 256   2.0000      -0.474496       -12.9117
 257   2.0000      -0.473778       -12.8922
 258   2.0000      -0.472113       -12.8468
 259   2.0000      -0.470276       -12.7968
 260   2.0000      -0.468899       -12.7594
 261   2.0000      -0.467375       -12.7179
 262   2.0000      -0.466288       -12.6883
 263   2.0000      -0.465965       -12.6796
 264   2.0000      -0.465233       -12.6596
 265   2.0000      -0.464753       -12.6466
 266   2.0000      -0.464163       -12.6305
 267   2.0000      -0.460826       -12.5397
 268   2.0000      -0.460220       -12.5232
 269   2.0000      -0.460198       -12.5226
 270   2.0000      -0.450511       -12.2590
 271   2.0000      -0.449857       -12.2412
 272   2.0000      -0.448898       -12.2151
 273   2.0000      -0.447882       -12.1875
 274   2.0000      -0.447529       -12.1779
 275   2.0000      -0.445280       -12.1167
 276   2.0000      -0.444680       -12.1003
 277   2.0000      -0.444351       -12.0914
 278   2.0000      -0.442336       -12.0366
 279   2.0000      -0.441004       -12.0003
 280   2.0000      -0.440763       -11.9938
 281   2.0000      -0.435806       -11.8589
 282   2.0000      -0.434866       -11.8333
 283   2.0000      -0.433356       -11.7922
 284   2.0000      -0.431646       -11.7457
 285   2.0000      -0.430372       -11.7110
 286   2.0000      -0.427778       -11.6404
 287   2.0000      -0.426506       -11.6058
 288   2.0000      -0.422559       -11.4984
 289   2.0000      -0.420285       -11.4365
 290   2.0000      -0.416850       -11.3431
 291   2.0000      -0.414023       -11.2661
 292   2.0000      -0.410631       -11.1738
 293   2.0000      -0.389367       -10.5952
 294   2.0000      -0.377372       -10.2688
 295   2.0000      -0.375485       -10.2175
 296   2.0000      -0.372700       -10.1417
 297   2.0000      -0.371881       -10.1194
 298   2.0000      -0.368175       -10.0186
 299   2.0000      -0.365805        -9.9541
 300   2.0000      -0.365200        -9.9376
 301   2.0000      -0.362674        -9.8689
 302   2.0000      -0.358790        -9.7632
 303   2.0000      -0.357194        -9.7197
 304   2.0000      -0.356868        -9.7109
 305   2.0000      -0.351252        -9.5581
 306   2.0000      -0.344371        -9.3708
 307   2.0000      -0.335385        -9.1263
 308   2.0000      -0.333654        -9.0792
 309   2.0000      -0.331932        -9.0323
 310   2.0000      -0.331406        -9.0180
 311   2.0000      -0.288562        -7.8522
 312   2.0000      -0.240834        -6.5534
 313   0.0000      -0.125574        -3.4170
 314   0.0000      -0.109291        -2.9740
 315   0.0000      -0.102049        -2.7769
 316   0.0000      -0.101102        -2.7511
 317   0.0000      -0.088270        -2.4019

MULLIKEN ATOMIC CHARGES
-----------------------
   0 C :   -0.021453
   1 C :    0.043311
   2 C :   -0.036087
   3 C :   -0.028095
   4 C :   -0.018547
   5 C :    0.034372
   6 C :    0.309204
   7 C :   -0.317793
   8 C :   -0.185528
   9 N :    0.169908
  10 C :   -0.197182
  11 N :    0.172331
  12 C :   -0.133843
  13 C :    0.016463
  14 C :    0.148277
  15 O :   -0.117846
  16 C :    0.414075
  17 F :   -0.182306
  18 F :   -0.185134
  19 F :   -0.199215
  20 C :    0.037048
  21 C :   -0.046220
  22 C :    0.073286
  23 C :   -0.084944
  24 S :    0.128508
  25 C :   -0.049844
  26 C :    0.066096
  27 C :    0.298816
  28 C :   -0.291143
  29 C :   -0.191897
  30 N :    0.182237
  31 C :   -0.196195
  32 N :    0.186216
  33 C :   -0.077516
  34 C :   -0.154571
  35 S :    0.184569
  36 C :    0.144207
  37 C :   -0.038629
  38 C :   -0.029578
  39 N :   -0.076646
  40 C :    0.150691
  41 C :    0.150554
  42 N :   -0.072980
  43 F :   -0.142990
  44 F :   -0.142204
  45 C :    0.139407
  46 C :   -0.004555
  47 C :    0.001579
  48 N :   -0.292016
  49 S :    0.518935
  50 N :   -0.289516
  51 C :   -0.152641
  52 C :   -0.073520
  53 C :    0.062373
  54 C :   -0.056081
  55 S :    0.182995
  56 C :   -0.069058
  57 C :    0.098692
  58 C :    0.301976
  59 C :   -0.289746
  60 C :   -0.195393
  61 N :    0.177947
  62 C :   -0.188562
  63 N :    0.184239
  64 C :   -0.071436
  65 C :   -0.390705
  66 S :    0.153111
  67 C :    0.601850
  68 C :    0.122527
  69 C :   -0.035331
  70 C :   -0.027588
  71 C :    0.033359
  72 C :   -0.023739
  73 C :    0.023792
  74 C :    0.307502
  75 C :   -0.318567
  76 C :   -0.185300
  77 N :    0.167653
  78 C :   -0.194529
  79 N :    0.171082
  80 C :   -0.133903
  81 C :    0.016667
  82 C :    0.149525
  83 O :   -0.114772
  84 F :   -0.152254
  85 F :   -0.148536
  86 F :   -0.146557
  87 H :    0.010058
  88 H :    0.013814
  89 H :    0.015779
  90 H :    0.057256
  91 H :    0.058788
  92 H :    0.041292
  93 H :    0.033940
  94 H :    0.031892
  95 H :    0.050698
  96 H :   -0.002557
  97 H :    0.007585
  98 H :    0.010770
  99 H :    0.058014
 100 H :    0.059980
Sum of atomic charges:   -0.0000000

LOEWDIN ATOMIC CHARGES
----------------------
   0 C :    0.007073
   1 C :    0.024593
   2 C :   -0.056230
   3 C :    0.023561
   4 C :   -0.044507
   5 C :   -0.004464
   6 C :    0.069314
   7 C :   -0.112974
   8 C :   -0.018924
   9 N :   -0.033294
  10 C :   -0.018221
  11 N :   -0.031349
  12 C :   -0.078077
  13 C :    0.078725
  14 C :    0.083526
  15 O :   -0.119859
  16 C :    0.126326
  17 F :   -0.068145
  18 F :   -0.072948
  19 F :   -0.091933
  20 C :   -0.035436
  21 C :   -0.015735
  22 C :   -0.013671
  23 C :   -0.167597
  24 S :    0.369759
  25 C :   -0.185665
  26 C :   -0.029204
  27 C :    0.066628
  28 C :   -0.097100
  29 C :   -0.018090
  30 N :   -0.022838
  31 C :   -0.018756
  32 N :   -0.025898
  33 C :   -0.002217
  34 C :   -0.104249
  35 S :    0.459757
  36 C :   -0.087991
  37 C :    0.003862
  38 C :    0.005282
  39 N :   -0.070910
  40 C :    0.050073
  41 C :    0.049232
  42 N :   -0.069309
  43 F :   -0.031511
  44 F :   -0.031577
  45 C :   -0.091891
  46 C :   -0.038497
  47 C :   -0.039043
  48 N :   -0.276430
  49 S :    0.629367
  50 N :   -0.277604
  51 C :   -0.103035
  52 C :   -0.003327
  53 C :   -0.029121
  54 C :   -0.195622
  55 S :    0.458983
  56 C :   -0.164161
  57 C :   -0.016067
  58 C :    0.067622
  59 C :   -0.098548
  60 C :   -0.017426
  61 N :   -0.028835
  62 C :   -0.018700
  63 N :   -0.021415
  64 C :    0.002946
  65 C :   -0.150982
  66 S :    0.390227
  67 C :    0.142366
  68 C :   -0.022279
  69 C :    0.021974
  70 C :   -0.039991
  71 C :   -0.007558
  72 C :    0.009616
  73 C :    0.005441
  74 C :    0.069853
  75 C :   -0.114159
  76 C :   -0.018647
  77 N :   -0.034819
  78 C :   -0.018385
  79 N :   -0.031469
  80 C :   -0.078029
  81 C :    0.079406
  82 C :    0.083647
  83 O :   -0.116859
  84 F :   -0.049541
  85 F :   -0.048557
  86 F :   -0.046243
  87 H :    0.043854
  88 H :    0.041923
  89 H :    0.041512
  90 H :    0.041090
  91 H :    0.045816
  92 H :    0.048725
  93 H :    0.042127
  94 H :    0.041766
  95 H :    0.044778
  96 H :    0.042905
  97 H :    0.043856
  98 H :    0.030545
  99 H :    0.041392
 100 H :    0.046472

  Mayer bond orders larger than 0.100000
B(  0-C ,  1-C ) :   1.3811 B(  0-C ,  5-C ) :   1.3558 B(  0-C , 87-H ) :   0.9868
B(  1-C ,  2-C ) :   1.3715 B(  1-C , 88-H ) :   0.9875 B(  2-C ,  3-C ) :   1.3482
B(  2-C , 16-C ) :   0.9646 B(  3-C ,  4-C ) :   1.3443 B(  3-C , 89-H ) :   1.0088
B(  4-C ,  5-C ) :   1.3359 B(  4-C , 14-C ) :   0.9207 B(  5-C ,  6-C ) :   1.0054
B(  6-C ,  7-C ) :   1.6912 B(  6-C , 12-C ) :   0.9941 B(  7-C ,  8-C ) :   1.1284
B(  7-C , 10-C ) :   1.1397 B(  8-C ,  9-N ) :   2.9827 B( 10-C , 11-N ) :   2.9868
B( 12-C , 13-C ) :   1.9480 B( 12-C , 14-C ) :   0.9147 B( 13-C , 90-H ) :   0.9251
B( 13-C , 91-H ) :   0.9225 B( 14-C , 15-O ) :   2.2965 B( 16-C , 17-F ) :   1.1150
B( 16-C , 18-F ) :   1.1105 B( 16-C , 20-C ) :   0.8936 B( 19-F , 20-C ) :   1.0225
B( 20-C , 21-C ) :   0.9402 B( 20-C , 24-S ) :   1.0150 B( 21-C , 22-C ) :   1.7413
B( 21-C , 92-H ) :   0.9726 B( 22-C , 23-C ) :   1.0990 B( 22-C , 27-C ) :   0.9779
B( 23-C , 24-S ) :   1.0104 B( 23-C , 25-C ) :   1.6832 B( 25-C , 26-C ) :   1.1354
B( 25-C , 35-S ) :   0.9580 B( 26-C , 27-C ) :   1.0119 B( 26-C , 33-C ) :   1.4967
B( 27-C , 28-C ) :   1.7182 B( 28-C , 29-C ) :   1.1458 B( 28-C , 31-C ) :   1.1344
B( 29-C , 30-N ) :   2.9848 B( 31-C , 32-N ) :   2.9979 B( 33-C , 34-C ) :   1.1708
B( 33-C , 93-H ) :   0.9797 B( 34-C , 35-S ) :   1.0552 B( 34-C , 36-C ) :   1.5059
B( 36-C , 37-C ) :   1.1199 B( 36-C , 47-C ) :   1.0879 B( 37-C , 38-C ) :   1.1940
B( 37-C , 42-N ) :   1.4870 B( 38-C , 39-N ) :   1.4788 B( 38-C , 45-C ) :   1.1266
B( 39-N , 40-C ) :   1.5112 B( 40-C , 41-C ) :   1.2364 B( 40-C , 44-F ) :   1.1825
B( 41-C , 42-N ) :   1.5076 B( 41-C , 43-F ) :   1.1808 B( 45-C , 46-C ) :   1.0880
B( 45-C , 51-C ) :   1.4941 B( 46-C , 47-C ) :   1.1253 B( 46-C , 50-N ) :   1.6029
B( 47-C , 48-N ) :   1.5996 B( 48-N , 49-S ) :   1.2134 B( 48-N , 50-N ) :   0.1116
B( 49-S , 50-N ) :   1.2112 B( 51-C , 52-C ) :   1.1785 B( 51-C , 55-S ) :   1.0604
B( 52-C , 53-C ) :   1.4888 B( 52-C , 94-H ) :   0.9784 B( 53-C , 54-C ) :   1.1422
B( 53-C , 58-C ) :   1.0165 B( 54-C , 55-S ) :   0.9518 B( 54-C , 56-C ) :   1.6771
B( 56-C , 57-C ) :   1.1028 B( 56-C , 66-S ) :   1.0111 B( 57-C , 58-C ) :   0.9877
B( 57-C , 64-C ) :   1.7463 B( 58-C , 59-C ) :   1.7126 B( 59-C , 60-C ) :   1.1371
B( 59-C , 62-C ) :   1.1439 B( 60-C , 61-N ) :   2.9898 B( 62-C , 63-N ) :   2.9849
B( 64-C , 65-C ) :   0.9509 B( 64-C , 95-H ) :   0.9563 B( 65-C , 66-S ) :   1.0416
B( 65-C , 67-C ) :   0.8554 B( 65-C , 68-C ) :   0.8836 B( 67-C , 84-F ) :   1.1634
B( 67-C , 85-F ) :   1.1722 B( 67-C , 86-F ) :   1.1701 B( 68-C , 69-C ) :   1.3821
B( 68-C , 73-C ) :   1.3639 B( 69-C , 70-C ) :   1.3688 B( 69-C , 96-H ) :   1.0003
B( 70-C , 71-C ) :   1.3399 B( 70-C , 82-C ) :   0.9191 B( 71-C , 72-C ) :   1.3496
B( 71-C , 74-C ) :   1.0040 B( 72-C , 73-C ) :   1.4098 B( 72-C , 97-H ) :   0.9849
B( 73-C , 98-H ) :   0.9786 B( 74-C , 75-C ) :   1.6928 B( 74-C , 80-C ) :   0.9907
B( 75-C , 76-C ) :   1.1278 B( 75-C , 78-C ) :   1.1383 B( 76-C , 77-N ) :   2.9831
B( 78-C , 79-N ) :   2.9872 B( 80-C , 81-C ) :   1.9500 B( 80-C , 82-C ) :   0.9167
B( 81-C , 99-H ) :   0.9251 B( 81-C ,100-H ) :   0.9215 B( 82-C , 83-O ) :   2.2913

-----------------------------------------------------------------------------
         ABSORPTION SPECTRUM VIA TRANSITION ELECTRIC DIPOLE MOMENTS
-----------------------------------------------------------------------------
State   Energy  Wavelength   fosc         T2         TX        TY        TZ
        (cm-1)    (nm)                  (au**2)     (au)      (au)      (au)
-----------------------------------------------------------------------------
   0   11061.4    904.0   0.869818950  25.88781   1.21463   4.72571   1.44227
   1   13536.1    738.8   0.012068711   0.29352   0.20192   0.50226  -0.02207
   2   17595.1    568.3   0.581635389  10.88263   0.83519   3.05617   0.91920
   3   18029.1    554.7   0.406417251   7.42119   0.64185   2.50770   0.84893
   4   20781.1    481.2   0.038586783   0.61129   0.18363   0.31461  -0.69180
   5   21144.0    472.9   0.013062171   0.20338   0.00891  -0.39635   0.21496
   6   21595.1    463.1   0.006266518   0.09553  -0.13021  -0.27995  -0.01438
   7   23850.3    419.3   0.087875283   1.21296   0.31215   0.99332   0.35895
   8   26431.5    378.3   0.007041365   0.08770  -0.08761  -0.16530  -0.22957
   9   26666.1    375.0   0.006441105   0.07952   0.10949   0.07981  -0.24731
  10   27481.9    363.9   0.169003961   2.02454   0.16206   0.26928  -1.38772
  11   28157.6    355.1   0.231535261   2.70705   0.40329   1.47523   0.60672
  12   28724.7    348.1   0.113864835   1.30500  -0.35926  -0.99813   0.42386
  13   29556.7    338.3   0.286410512   3.19013  -0.32644  -1.66684  -0.55247
  14   29861.6    334.9   0.321896214   3.54877  -0.26068  -0.22844   1.85166
  15   31056.0    322.0   0.018269957   0.19367  -0.23770  -0.36998  -0.01697
  16   31173.3    320.8   0.000134192   0.00142  -0.00442  -0.00849  -0.03641
  17   31206.3    320.4   0.000027279   0.00029   0.00096   0.01540   0.00705
  18   31753.4    314.9   0.021520480   0.22312   0.23185   0.11568  -0.39494
  19   31973.0    312.8   0.061772586   0.63605  -0.11693  -0.21381   0.75938
  20   32082.6    311.7   0.016019977   0.16439  -0.02305  -0.07251  -0.39824
  21   32108.1    311.4   0.019074123   0.19557   0.05240   0.14445  -0.41468
  22   32203.8    310.5   0.018004898   0.18406  -0.05525   0.03164   0.42427
  23   32321.9    309.4   0.004257817   0.04337   0.17598   0.09197  -0.06275
  24   32960.1    303.4   0.000937241   0.00936  -0.00806  -0.07962  -0.05437
  25   33150.5    301.7   0.198111977   1.96742   0.42248   1.11028  -0.74579
  26   33251.0    300.7   0.109482911   1.08397  -0.02490   0.36714   0.97394
  27   34118.1    293.1   0.098874682   0.95406   0.61612   0.73913   0.16777
  28   34576.9    289.2   0.303225472   2.88706  -0.22271  -0.50627  -1.60659
  29   34700.8    288.2   0.182062432   1.72725   0.00660   0.50404   1.21374
  30   34918.2    286.4   0.093617846   0.88264  -0.09632   0.64241  -0.67873
  31   35011.2    285.6   0.146405681   1.37666   0.86806   0.71999  -0.32365
  32   35199.6    284.1   0.186058737   1.74015   0.37729   0.51764   1.15319
  33   35451.1    282.1   0.061127680   0.56765  -0.38765  -0.46617   0.44729
  34   35682.1    280.3   0.389806135   3.59645  -0.87907  -1.21889   1.15671
  35   35863.5    278.8   0.005392800   0.04950  -0.05523   0.01497  -0.21501
  36   36047.0    277.4   0.304114344   2.77743   0.05609   0.14026  -1.65970
  37   36183.4    276.4   0.027277740   0.24818   0.33902   0.18110   0.31694
  38   36455.0    274.3   0.078698904   0.71070  -0.43863  -0.70151  -0.16185
  39   36520.3    273.8   0.317023887   2.85781   0.37809   0.47536   1.57762
  40   36577.4    273.4   0.028268773   0.25443   0.11383   0.03662   0.49003
  41   36653.6    272.8   0.487045336   4.37450  -1.65538  -0.90879   0.89906
  42   36978.5    270.4   0.003933279   0.03502   0.12074  -0.01463   0.14221
  43   37119.5    269.4   0.170937127   1.51604   0.22492   0.29538  -1.17397
  44   37366.0    267.6   0.004124984   0.03634  -0.12760  -0.03626   0.13691
  45   37483.1    266.8   0.007153278   0.06283  -0.08668  -0.09392  -0.21562
  46   37745.6    264.9   0.041557882   0.36246   0.26306   0.15081  -0.52011
  47   38024.0    263.0   0.002945740   0.02550  -0.01117  -0.11213   0.11317
  48   38088.6    262.5   0.007343822   0.06348  -0.02183  -0.14831   0.20249
  49   38606.6    259.0   0.002794686   0.02383   0.08784   0.06660   0.10807
  50   39323.4    254.3   0.008313827   0.06960  -0.08931   0.01446   0.24783
  51   39369.1    254.0   0.032625688   0.27282   0.22397   0.13083  -0.45337
  52   39595.4    252.6   0.090420995   0.75180   0.47647   0.47801   0.54432
  53   39773.0    251.4   0.019150543   0.15851  -0.02115  -0.07828  -0.38979
  54   39908.2    250.6   0.062691634   0.51716  -0.25572  -0.06063  -0.66940
  55   40102.6    249.4   0.033562983   0.27553  -0.01427   0.35351   0.38776
  56   40130.8    249.2   0.005045851   0.04139   0.13904  -0.12490   0.08037
  57   40187.9    248.8   0.045021045   0.36880   0.20551   0.12787   0.55697
  58   40315.6    248.0   0.000068262   0.00056  -0.00183   0.00589   0.02279

FINAL SINGLE POINT ENERGY     -5886.432262760216

DIPOLE MOMENT
-------------
                                X             Y             Z
Electronic contribution:     19.20372       2.49771      -1.70882
Nuclear contribution   :    -19.33700      -3.20740       2.14828
                        -----------------------------------------
Total Dipole Moment    :     -0.13328      -0.70969       0.43946
                        -----------------------------------------
Magnitude (a.u.)       :      0.84531
Magnitude (Debye)      :      2.14861

Rotational constants in cm-1:     0.001170     0.000169     0.000153
Rotational constants in MHz :    35.074152     5.076906     4.601491

                             ****ORCA TERMINATED NORMALLY****
TOTAL RUN TIME: 0 days 0 hours 15 minutes 44 seconds 897 msec
