                         Program Version 4.2.0 -  RELEASE  -
|  1> # ORCA input file
|  2> # SCF done       -156.086251850693          0.000197197047
|  3> ! CAM-B3LYP def2-SVP def2/J RIJCOSX Grid4 TightSCF
|  4> %maxcore 5000
|  5> %tddft
|  6>     Mode sTDDFT
|  7>     Ethresh 5.0
|  8>     maxcore 5000
|  9> end
| 10>
| 11> %pal
| 12>   nprocs 6
| 13>   end
| 14> * xyz 0 1
| 15>    C        1.31390         0.19764        -3.90717
| 16>    C       -0.05564         0.34609        -3.73153
| 17>    N       -0.79551        -0.61207        -3.20669
| 18>    C       -0.18786        -1.74062        -2.82879
| 19>    C        1.20273        -1.85341        -2.96291
| 20>    N        1.93745        -0.90072        -3.50468
| 21>    C       -1.02727        -2.79314        -2.25672
| 22>    C       -0.61472        -4.13003        -2.24178
| 23>    C       -1.43303        -5.07592        -1.67113
| 24>    C       -2.66807        -4.71166        -1.10969
| 25>    C       -3.08896        -3.39051        -1.13562
| 26>    C       -2.26542        -2.44339        -1.71131
| 27>    C       -3.29880        -5.90090        -0.57448
| 28>    C       -2.45367        -6.99823        -0.80664
| 29>    C       -1.19992        -6.56258        -1.52905
| 30>    C        0.06283        -6.85656        -0.69861
| 31>    C        0.02475        -6.21291         0.68198
| 32>    C       -1.08354        -7.24772        -2.90371
| 33>    C       -2.31140        -7.02955        -3.77990
| 34>    C       -2.80593        -8.25875        -0.38984
| 35>    C       -4.03434        -8.44918         0.26021
| 36>    C       -4.85694        -7.34224         0.50512
| 37>    C       -4.50147        -6.07415         0.09420
| 38>    C       -4.44385        -9.75953         0.70629
| 39>    S       -5.34958        -9.92077         2.16977
| 40>    C       -5.40321       -11.65074         2.06923
| 41>    C       -4.74835       -12.08732         0.91304
| 42>    C       -4.21494       -11.00983         0.13372
| 43>    C       -3.61162       -11.29596        -1.10969
| 44>    C       -3.48347       -12.59184        -1.51922
| 45>    S       -2.73678       -13.00028        -3.08304
| 46>    C       -3.95345       -13.67254        -0.71795
| 47>    O       -3.81004       -14.96224        -1.11026
| 48>    C       -4.58824       -13.41252         0.46702
| 49>    C       -6.05594       -12.43662         3.05243
| 50>    C       -6.70288       -11.92772         4.12354
| 51>    C       -7.40640       -12.66099         5.14349
| 52>    C       -7.46130       -14.06416         5.17196
| 53>    C       -8.17429       -14.70028         6.15848
| 54>    C       -8.80888       -13.95686         7.17046
| 55>    C       -8.75822       -12.57060         7.16065
| 56>    C       -8.06957       -11.93872         6.14687
| 57>    C       -9.40257       -14.87543         8.11805
| 58>    C       -9.13651       -16.18722         7.69273
| 59>    C       -8.39150       -16.18160         6.37456
| 60>    C       -7.07193       -16.96237         6.45169
| 61>    C       -6.17321       -16.46917         7.57986
| 62>    C       -9.34966       -16.78042         5.31763
| 63>    C       -8.87043       -16.71964         3.87322
| 64>    C       -9.57431       -17.26082         8.42875
| 65>    C      -10.29180       -17.03721         9.60992
| 66>    C      -10.54495       -15.72940        10.02971
| 67>    C      -10.10415       -14.64680         9.29248
| 68>    C      -10.75600       -18.19265        10.37670
| 69>    C      -11.83385       -18.14277        11.27190
| 70>    N      -12.21498       -19.19247        11.97427
| 71>    C      -11.55027       -20.32493        11.79066
| 72>    C      -10.51708       -20.40421        10.86673
| 73>    N      -10.12214       -19.35190        10.17508
| 74>    H        1.92749         0.96207        -4.36232
| 75>    H       -0.57796         1.24879        -4.01964
| 76>    H        1.74575        -2.71945        -2.61055
| 77>    H        0.32479        -4.41691        -2.69013
| 78>    H       -4.04063        -3.10583        -0.71263
| 79>    H       -2.56053        -1.40634        -1.74716
| 80>    H        0.93428        -6.49109        -1.24620
| 81>    H        0.16753        -7.93842        -0.59055
| 82>    H       -0.05939        -5.13153         0.59975
| 83>    H        0.93480        -6.44748         1.22932
| 84>    H       -0.82519        -6.58007         1.25293
| 85>    H       -0.93125        -8.31854        -2.74761
| 86>    H       -0.20069        -6.85886        -3.41544
| 87>    H       -3.20288        -7.43191        -3.30297
| 88>    H       -2.18016        -7.52256        -4.74084
| 89>    H       -2.47064        -5.96842        -3.95736
| 90>    H       -2.13116        -9.09145        -0.51743
| 91>    H       -5.79465        -7.49897         1.01853
| 92>    H       -5.15141        -5.23457         0.28923
| 93>    H       -3.28459       -10.48571        -1.74316
| 94>    H       -2.54059       -11.74440        -3.46758
| 95>    H       -3.36807       -15.00797        -1.96762
| 96>    H       -4.96352       -14.24367         1.04030
| 97>    H       -6.01631       -13.50351         2.88836
| 98>    H       -6.71739       -10.84945         4.23533
| 99>    H       -6.92945       -14.63458         4.42748
|100>    H       -9.24502       -11.99595         7.93470
|101>    H       -8.02653       -10.85894         6.12321
|102>    H       -6.53990       -16.86222         5.50466
|103>    H       -7.29701       -18.02007         6.60257
|104>    H       -5.93657       -15.41540         7.44777
|105>    H       -5.24282       -17.03244         7.59216
|106>    H       -6.66323       -16.59258         8.54290
|107>    H      -10.30267       -16.24945         5.39188
|108>    H       -9.53159       -17.82242         5.59034
|109>    H       -8.77270       -15.69004         3.53992
|110>    H       -9.59829       -17.21308         3.23243
|111>    H       -7.91679       -17.22602         3.74942
|112>    H       -9.38057       -18.27856         8.12776
|113>    H      -11.07123       -15.55602        10.95629
|114>    H      -10.30068       -13.64025         9.63053
|115>    H      -12.41859       -17.24506        11.41674
|116>    H      -11.86439       -21.17101        12.38524
|117>    H       -9.98721       -21.32794        10.67458
|118> *
|119>
|120>                          ****END OF INPUT****

CARTESIAN COORDINATES (ANGSTROEM)
---------------------------------
  C      1.313900    0.197640   -3.907170
  C     -0.055640    0.346090   -3.731530
  N     -0.795510   -0.612070   -3.206690
  C     -0.187860   -1.740620   -2.828790
  C      1.202730   -1.853410   -2.962910
  N      1.937450   -0.900720   -3.504680
  C     -1.027270   -2.793140   -2.256720
  C     -0.614720   -4.130030   -2.241780
  C     -1.433030   -5.075920   -1.671130
  C     -2.668070   -4.711660   -1.109690
  C     -3.088960   -3.390510   -1.135620
  C     -2.265420   -2.443390   -1.711310
  C     -3.298800   -5.900900   -0.574480
  C     -2.453670   -6.998230   -0.806640
  C     -1.199920   -6.562580   -1.529050
  C      0.062830   -6.856560   -0.698610
  C      0.024750   -6.212910    0.681980
  C     -1.083540   -7.247720   -2.903710
  C     -2.311400   -7.029550   -3.779900
  C     -2.805930   -8.258750   -0.389840
  C     -4.034340   -8.449180    0.260210
  C     -4.856940   -7.342240    0.505120
  C     -4.501470   -6.074150    0.094200
  C     -4.443850   -9.759530    0.706290
  S     -5.349580   -9.920770    2.169770
  C     -5.403210  -11.650740    2.069230
  C     -4.748350  -12.087320    0.913040
  C     -4.214940  -11.009830    0.133720
  C     -3.611620  -11.295960   -1.109690
  C     -3.483470  -12.591840   -1.519220
  S     -2.736780  -13.000280   -3.083040
  C     -3.953450  -13.672540   -0.717950
  O     -3.810040  -14.962240   -1.110260
  C     -4.588240  -13.412520    0.467020
  C     -6.055940  -12.436620    3.052430
  C     -6.702880  -11.927720    4.123540
  C     -7.406400  -12.660990    5.143490
  C     -7.461300  -14.064160    5.171960
  C     -8.174290  -14.700280    6.158480
  C     -8.808880  -13.956860    7.170460
  C     -8.758220  -12.570600    7.160650
  C     -8.069570  -11.938720    6.146870
  C     -9.402570  -14.875430    8.118050
  C     -9.136510  -16.187220    7.692730
  C     -8.391500  -16.181600    6.374560
  C     -7.071930  -16.962370    6.451690
  C     -6.173210  -16.469170    7.579860
  C     -9.349660  -16.780420    5.317630
  C     -8.870430  -16.719640    3.873220
  C     -9.574310  -17.260820    8.428750
  C    -10.291800  -17.037210    9.609920
  C    -10.544950  -15.729400   10.029710
  C    -10.104150  -14.646800    9.292480
  C    -10.756000  -18.192650   10.376700
  C    -11.833850  -18.142770   11.271900
  N    -12.214980  -19.192470   11.974270
  C    -11.550270  -20.324930   11.790660
  C    -10.517080  -20.404210   10.866730
  N    -10.122140  -19.351900   10.175080
  H      1.927490    0.962070   -4.362320
  H     -0.577960    1.248790   -4.019640
  H      1.745750   -2.719450   -2.610550
  H      0.324790   -4.416910   -2.690130
  H     -4.040630   -3.105830   -0.712630
  H     -2.560530   -1.406340   -1.747160
  H      0.934280   -6.491090   -1.246200
  H      0.167530   -7.938420   -0.590550
  H     -0.059390   -5.131530    0.599750
  H      0.934800   -6.447480    1.229320
  H     -0.825190   -6.580070    1.252930
  H     -0.931250   -8.318540   -2.747610
  H     -0.200690   -6.858860   -3.415440
  H     -3.202880   -7.431910   -3.302970
  H     -2.180160   -7.522560   -4.740840
  H     -2.470640   -5.968420   -3.957360
  H     -2.131160   -9.091450   -0.517430
  H     -5.794650   -7.498970    1.018530
  H     -5.151410   -5.234570    0.289230
  H     -3.284590  -10.485710   -1.743160
  H     -2.540590  -11.744400   -3.467580
  H     -3.368070  -15.007970   -1.967620
  H     -4.963520  -14.243670    1.040300
  H     -6.016310  -13.503510    2.888360
  H     -6.717390  -10.849450    4.235330
  H     -6.929450  -14.634580    4.427480
  H     -9.245020  -11.995950    7.934700
  H     -8.026530  -10.858940    6.123210
  H     -6.539900  -16.862220    5.504660
  H     -7.297010  -18.020070    6.602570
  H     -5.936570  -15.415400    7.447770
  H     -5.242820  -17.032440    7.592160
  H     -6.663230  -16.592580    8.542900
  H    -10.302670  -16.249450    5.391880
  H     -9.531590  -17.822420    5.590340
  H     -8.772700  -15.690040    3.539920
  H     -9.598290  -17.213080    3.232430
  H     -7.916790  -17.226020    3.749420
  H     -9.380570  -18.278560    8.127760
  H    -11.071230  -15.556020   10.956290
  H    -10.300680  -13.640250    9.630530
  H    -12.418590  -17.245060   11.416740
  H    -11.864390  -21.171010   12.385240
  H     -9.987210  -21.327940   10.674580

 Total Charge           Charge          ....    0
 Multiplicity           Mult            ....    1
 Number of Electrons    NEL             ....  424
 Basis Dimension        Dim             .... 1054

ORBITAL ENERGIES
----------------

  NO   OCC          E(Eh)            E(eV)
   0   2.0000     -88.954070     -2420.5633
   1   2.0000     -88.941434     -2420.2195
   2   2.0000     -19.245867      -523.7067
   3   2.0000     -14.415809      -392.2741
   4   2.0000     -14.414599      -392.2412
   5   2.0000     -14.412077      -392.1726
   6   2.0000     -14.411074      -392.1453
   7   2.0000     -10.336601      -281.2732
   8   2.0000     -10.315745      -280.7057
   9   2.0000     -10.311805      -280.5985
  10   2.0000     -10.308722      -280.5146
  11   2.0000     -10.308477      -280.5079
  12   2.0000     -10.306829      -280.4631
  13   2.0000     -10.305069      -280.4152
  14   2.0000     -10.304936      -280.4116
  15   2.0000     -10.302745      -280.3519
  16   2.0000     -10.301318      -280.3131
  17   2.0000     -10.295547      -280.1561
  18   2.0000     -10.289850      -280.0011
  19   2.0000     -10.284958      -279.8679
  20   2.0000     -10.279195      -279.7111
  21   2.0000     -10.278094      -279.6812
  22   2.0000     -10.275842      -279.6199
  23   2.0000     -10.275624      -279.6139
  24   2.0000     -10.275484      -279.6101
  25   2.0000     -10.272745      -279.5356
  26   2.0000     -10.271971      -279.5145
  27   2.0000     -10.271733      -279.5081
  28   2.0000     -10.270896      -279.4853
  29   2.0000     -10.270455      -279.4733
  30   2.0000     -10.270408      -279.4720
  31   2.0000     -10.270395      -279.4717
  32   2.0000     -10.269932      -279.4591
  33   2.0000     -10.269445      -279.4458
  34   2.0000     -10.269219      -279.4397
  35   2.0000     -10.268527      -279.4208
  36   2.0000     -10.268467      -279.4192
  37   2.0000     -10.267221      -279.3853
  38   2.0000     -10.266261      -279.3592
  39   2.0000     -10.265677      -279.3433
  40   2.0000     -10.264822      -279.3200
  41   2.0000     -10.264618      -279.3145
  42   2.0000     -10.264510      -279.3115
  43   2.0000     -10.264147      -279.3016
  44   2.0000     -10.263513      -279.2844
  45   2.0000     -10.263284      -279.2781
  46   2.0000     -10.263127      -279.2739
  47   2.0000     -10.262038      -279.2442
  48   2.0000     -10.261590      -279.2321
  49   2.0000     -10.261160      -279.2204
  50   2.0000     -10.260875      -279.2126
  51   2.0000     -10.259723      -279.1813
  52   2.0000     -10.259098      -279.1643
  53   2.0000     -10.256584      -279.0958
  54   2.0000     -10.255242      -279.0593
  55   2.0000     -10.248885      -278.8863
  56   2.0000     -10.245515      -278.7946
  57   2.0000     -10.245295      -278.7887
  58   2.0000     -10.238855      -278.6134
  59   2.0000      -8.049065      -219.0262
  60   2.0000      -8.037070      -218.6998
  61   2.0000      -6.017991      -163.7579
  62   2.0000      -6.014001      -163.6493
  63   2.0000      -6.011909      -163.5924
  64   2.0000      -6.007422      -163.4703
  65   2.0000      -6.003369      -163.3600
  66   2.0000      -5.997098      -163.1893
  67   2.0000      -1.143794       -31.1242
  68   2.0000      -1.071441       -29.1554
  69   2.0000      -1.067654       -29.0523
  70   2.0000      -0.993346       -27.0303
  71   2.0000      -0.991432       -26.9782
  72   2.0000      -0.988629       -26.9020
  73   2.0000      -0.984341       -26.7853
  74   2.0000      -0.978511       -26.6266
  75   2.0000      -0.944301       -25.6957
  76   2.0000      -0.938828       -25.5468
  77   2.0000      -0.934225       -25.4215
  78   2.0000      -0.917173       -24.9575
  79   2.0000      -0.911296       -24.7976
  80   2.0000      -0.890869       -24.2418
  81   2.0000      -0.883924       -24.0528
  82   2.0000      -0.876940       -23.8627
  83   2.0000      -0.874968       -23.8091
  84   2.0000      -0.858530       -23.3618
  85   2.0000      -0.848299       -23.0834
  86   2.0000      -0.838114       -22.8062
  87   2.0000      -0.835858       -22.7449
  88   2.0000      -0.830499       -22.5990
  89   2.0000      -0.829584       -22.5741
  90   2.0000      -0.828011       -22.5313
  91   2.0000      -0.824974       -22.4487
  92   2.0000      -0.821878       -22.3644
  93   2.0000      -0.816242       -22.2111
  94   2.0000      -0.799326       -21.7508
  95   2.0000      -0.794913       -21.6307
  96   2.0000      -0.766237       -20.8504
  97   2.0000      -0.762038       -20.7361
  98   2.0000      -0.759021       -20.6540
  99   2.0000      -0.749347       -20.3908
 100   2.0000      -0.738883       -20.1060
 101   2.0000      -0.735110       -20.0034
 102   2.0000      -0.733662       -19.9640
 103   2.0000      -0.719175       -19.5697
 104   2.0000      -0.711333       -19.3563
 105   2.0000      -0.707244       -19.2451
 106   2.0000      -0.701936       -19.1006
 107   2.0000      -0.692578       -18.8460
 108   2.0000      -0.683739       -18.6055
 109   2.0000      -0.675549       -18.3826
 110   2.0000      -0.675168       -18.3722
 111   2.0000      -0.668587       -18.1932
 112   2.0000      -0.665653       -18.1133
 113   2.0000      -0.663262       -18.0483
 114   2.0000      -0.655436       -17.8353
 115   2.0000      -0.650128       -17.6909
 116   2.0000      -0.636468       -17.3192
 117   2.0000      -0.631628       -17.1875
 118   2.0000      -0.620964       -16.8973
 119   2.0000      -0.609071       -16.5737
 120   2.0000      -0.600015       -16.3272
 121   2.0000      -0.597893       -16.2695
 122   2.0000      -0.596689       -16.2367
 123   2.0000      -0.592921       -16.1342
 124   2.0000      -0.591899       -16.1064
 125   2.0000      -0.583639       -15.8816
 126   2.0000      -0.581551       -15.8248
 127   2.0000      -0.573293       -15.6001
 128   2.0000      -0.566645       -15.4192
 129   2.0000      -0.561732       -15.2855
 130   2.0000      -0.552972       -15.0471
 131   2.0000      -0.550193       -14.9715
 132   2.0000      -0.543630       -14.7929
 133   2.0000      -0.541581       -14.7372
 134   2.0000      -0.539258       -14.6740
 135   2.0000      -0.536048       -14.5866
 136   2.0000      -0.531147       -14.4532
 137   2.0000      -0.525238       -14.2924
 138   2.0000      -0.524067       -14.2606
 139   2.0000      -0.522628       -14.2214
 140   2.0000      -0.520143       -14.1538
 141   2.0000      -0.518185       -14.1005
 142   2.0000      -0.516035       -14.0420
 143   2.0000      -0.515049       -14.0152
 144   2.0000      -0.513635       -13.9767
 145   2.0000      -0.511253       -13.9119
 146   2.0000      -0.509035       -13.8515
 147   2.0000      -0.508696       -13.8423
 148   2.0000      -0.505588       -13.7578
 149   2.0000      -0.503108       -13.6903
 150   2.0000      -0.501801       -13.6547
 151   2.0000      -0.496790       -13.5183
 152   2.0000      -0.492574       -13.4036
 153   2.0000      -0.485386       -13.2080
 154   2.0000      -0.484151       -13.1744
 155   2.0000      -0.481672       -13.1070
 156   2.0000      -0.476775       -12.9737
 157   2.0000      -0.475933       -12.9508
 158   2.0000      -0.471159       -12.8209
 159   2.0000      -0.470464       -12.8020
 160   2.0000      -0.466021       -12.6811
 161   2.0000      -0.463126       -12.6023
 162   2.0000      -0.461764       -12.5652
 163   2.0000      -0.460563       -12.5326
 164   2.0000      -0.458830       -12.4854
 165   2.0000      -0.456802       -12.4302
 166   2.0000      -0.448130       -12.1942
 167   2.0000      -0.446434       -12.1481
 168   2.0000      -0.443136       -12.0583
 169   2.0000      -0.440191       -11.9782
 170   2.0000      -0.438366       -11.9285
 171   2.0000      -0.436628       -11.8812
 172   2.0000      -0.434290       -11.8176
 173   2.0000      -0.429619       -11.6905
 174   2.0000      -0.425719       -11.5844
 175   2.0000      -0.425683       -11.5834
 176   2.0000      -0.422942       -11.5088
 177   2.0000      -0.421102       -11.4588
 178   2.0000      -0.416526       -11.3342
 179   2.0000      -0.414738       -11.2856
 180   2.0000      -0.414048       -11.2668
 181   2.0000      -0.408140       -11.1061
 182   2.0000      -0.407402       -11.0860
 183   2.0000      -0.405285       -11.0284
 184   2.0000      -0.403308       -10.9746
 185   2.0000      -0.400170       -10.8892
 186   2.0000      -0.398562       -10.8454
 187   2.0000      -0.393489       -10.7074
 188   2.0000      -0.389407       -10.5963
 189   2.0000      -0.387712       -10.5502
 190   2.0000      -0.384206       -10.4548
 191   2.0000      -0.382247       -10.4015
 192   2.0000      -0.377823       -10.2811
 193   2.0000      -0.375875       -10.2281
 194   2.0000      -0.374933       -10.2025
 195   2.0000      -0.371602       -10.1118
 196   2.0000      -0.370030       -10.0690
 197   2.0000      -0.357648        -9.7321
 198   2.0000      -0.357008        -9.7147
 199   2.0000      -0.337666        -9.1884
 200   2.0000      -0.324312        -8.8250
 201   2.0000      -0.319987        -8.7073
 202   2.0000      -0.314527        -8.5587
 203   2.0000      -0.312849        -8.5130
 204   2.0000      -0.312618        -8.5068
 205   2.0000      -0.310639        -8.4529
 206   2.0000      -0.306200        -8.3321
 207   2.0000      -0.306089        -8.3291
 208   2.0000      -0.280186        -7.6243
 209   2.0000      -0.276402        -7.5213
 210   2.0000      -0.262412        -7.1406
 211   2.0000      -0.216074        -5.8797
 212   0.0000      -0.054295        -1.4774
 213   0.0000      -0.026615        -0.7242
 214   0.0000      -0.017090        -0.4650
 215   0.0000      -0.000408        -0.0111
 216   0.0000       0.003909         0.1064

MULLIKEN ATOMIC CHARGES
-----------------------
   0 C :    0.016332
   1 C :    0.034511
   2 N :   -0.053430
   3 C :   -0.035858
   4 C :   -0.005520
   5 N :   -0.048557
   6 C :    0.113125
   7 C :   -0.094788
   8 C :    0.005075
   9 C :    0.115483
  10 C :   -0.047359
  11 C :   -0.003299
  12 C :    0.111464
  13 C :    0.008895
  14 C :   -0.137078
  15 C :    0.066951
  16 C :    0.025230
  17 C :    0.069880
  18 C :    0.022911
  19 C :   -0.113906
  20 C :    0.090187
  21 C :   -0.017231
  22 C :   -0.049882
  23 C :   -0.134744
  24 S :    0.139834
  25 C :   -0.109377
  26 C :    0.121466
  27 C :    0.138416
  28 C :   -0.073958
  29 C :   -0.073733
  30 S :   -0.016202
  31 C :    0.130569
  32 O :   -0.174953
  33 C :   -0.111105
  34 C :    0.021265
  35 C :   -0.031544
  36 C :    0.136055
  37 C :   -0.097312
  38 C :    0.023680
  39 C :    0.096106
  40 C :   -0.048733
  41 C :   -0.026596
  42 C :    0.110097
  43 C :    0.026347
  44 C :   -0.129631
  45 C :    0.050935
  46 C :    0.028097
  47 C :    0.079902
  48 C :    0.033610
  49 C :   -0.093867
  50 C :    0.114167
  51 C :   -0.016871
  52 C :   -0.055961
  53 C :   -0.031981
  54 C :   -0.005959
  55 N :   -0.050688
  56 C :    0.015654
  57 C :    0.034972
  58 N :   -0.056854
  59 H :    0.010316
  60 H :    0.007500
  61 H :    0.000343
  62 H :   -0.038305
  63 H :   -0.035755
  64 H :   -0.013830
  65 H :   -0.004958
  66 H :   -0.000043
  67 H :    0.022127
  68 H :    0.009203
  69 H :    0.023179
  70 H :   -0.009373
  71 H :   -0.001546
  72 H :    0.022131
  73 H :    0.005692
  74 H :    0.025825
  75 H :   -0.030143
  76 H :   -0.022055
  77 H :   -0.033147
  78 H :   -0.041828
  79 H :    0.075535
  80 H :    0.180779
  81 H :   -0.032284
  82 H :   -0.018640
  83 H :   -0.025405
  84 H :   -0.046094
  85 H :   -0.037989
  86 H :   -0.030687
  87 H :    0.004214
  88 H :    0.000239
  89 H :    0.018862
  90 H :    0.006630
  91 H :    0.021904
  92 H :    0.002693
  93 H :   -0.003040
  94 H :    0.018432
  95 H :    0.011483
  96 H :    0.001046
  97 H :   -0.027375
  98 H :   -0.027764
  99 H :   -0.038598
 100 H :    0.001187
 101 H :    0.008785
 102 H :    0.006511
Sum of atomic charges:   -0.0000000

LOEWDIN ATOMIC CHARGES
----------------------
   0 C :   -0.008849
   1 C :    0.001952
   2 N :   -0.048722
   3 C :    0.001142
   4 C :    0.000167
   5 N :   -0.042849
   6 C :   -0.035819
   7 C :   -0.019519
   8 C :    0.000760
   9 C :   -0.012430
  10 C :   -0.019561
  11 C :    0.001288
  12 C :   -0.021111
  13 C :    0.005063
  14 C :   -0.035447
  15 C :   -0.012205
  16 C :   -0.057411
  17 C :   -0.012242
  18 C :   -0.058408
  19 C :   -0.026353
  20 C :   -0.036105
  21 C :   -0.026233
  22 C :   -0.014039
  23 C :   -0.172431
  24 S :    0.477265
  25 C :   -0.187573
  26 C :   -0.038374
  27 C :   -0.052804
  28 C :   -0.046075
  29 C :   -0.174487
  30 S :    0.206452
  31 C :    0.033683
  32 O :   -0.050246
  33 C :   -0.054628
  34 C :   -0.036939
  35 C :   -0.033607
  36 C :   -0.022167
  37 C :   -0.020783
  38 C :    0.006176
  39 C :   -0.020643
  40 C :   -0.019688
  41 C :   -0.021403
  42 C :   -0.011650
  43 C :    0.003895
  44 C :   -0.034474
  45 C :   -0.015412
  46 C :   -0.056157
  47 C :   -0.009100
  48 C :   -0.059561
  49 C :   -0.002438
  50 C :   -0.037663
  51 C :   -0.017906
  52 C :   -0.022205
  53 C :    0.002480
  54 C :    0.000824
  55 N :   -0.043250
  56 C :   -0.010372
  57 C :    0.000922
  58 N :   -0.050817
  59 H :    0.024434
  60 H :    0.024970
  61 H :    0.022110
  62 H :    0.023165
  63 H :    0.026700
  64 H :    0.029896
  65 H :    0.019068
  66 H :    0.020223
  67 H :    0.025529
  68 H :    0.024228
  69 H :    0.026321
  70 H :    0.016605
  71 H :    0.020368
  72 H :    0.024340
  73 H :    0.022560
  74 H :    0.027655
  75 H :    0.025898
  76 H :    0.021493
  77 H :    0.028124
  78 H :    0.024722
  79 H :   -0.014636
  80 H :    0.074104
  81 H :    0.031892
  82 H :    0.029609
  83 H :    0.017553
  84 H :    0.021122
  85 H :    0.025887
  86 H :    0.025104
  87 H :    0.018566
  88 H :    0.021492
  89 H :    0.025070
  90 H :    0.023062
  91 H :    0.025709
  92 H :    0.026072
  93 H :    0.020463
  94 H :    0.023843
  95 H :    0.027185
  96 H :    0.019302
  97 H :    0.026371
  98 H :    0.025322
  99 H :    0.025677
 100 H :    0.022660
 101 H :    0.023836
 102 H :    0.024417

  Mayer bond orders larger than 0.100000
B(  0-C ,  1-C ) :   1.3566 B(  0-C ,  5-N ) :   1.5372 B(  0-C , 59-H ) :   0.9780
B(  1-C ,  2-N ) :   1.5489 B(  1-C , 60-H ) :   0.9760 B(  2-N ,  3-C ) :   1.5622
B(  3-C ,  4-C ) :   1.3322 B(  3-C ,  6-C ) :   0.9638 B(  4-C ,  5-N ) :   1.5824
B(  4-C , 61-H ) :   0.9765 B(  6-C ,  7-C ) :   1.3259 B(  6-C , 11-C ) :   1.3886
B(  7-C ,  8-C ) :   1.3972 B(  7-C , 62-H ) :   0.9957 B(  8-C ,  9-C ) :   1.3712
B(  8-C , 14-C ) :   0.9146 B(  9-C , 10-C ) :   1.3400 B(  9-C , 12-C ) :   0.9878
B( 10-C , 11-C ) :   1.3594 B( 10-C , 63-H ) :   0.9949 B( 11-C , 64-H ) :   0.9860
B( 12-C , 13-C ) :   1.3715 B( 12-C , 22-C ) :   1.3382 B( 13-C , 14-C ) :   0.9134
B( 13-C , 19-C ) :   1.3904 B( 14-C , 15-C ) :   1.0391 B( 14-C , 17-C ) :   1.0343
B( 15-C , 16-C ) :   1.1009 B( 15-C , 65-H ) :   0.9386 B( 15-C , 66-H ) :   0.9392
B( 16-C , 67-H ) :   0.9643 B( 16-C , 68-H ) :   0.9642 B( 16-C , 69-H ) :   0.9643
B( 17-C , 18-C ) :   1.1017 B( 17-C , 70-H ) :   0.9386 B( 17-C , 71-H ) :   0.9393
B( 18-C , 72-H ) :   0.9635 B( 18-C , 73-H ) :   0.9639 B( 18-C , 74-H ) :   0.9645
B( 19-C , 20-C ) :   1.3134 B( 19-C , 75-H ) :   1.0030 B( 20-C , 21-C ) :   1.3499
B( 20-C , 23-C ) :   1.0254 B( 21-C , 22-C ) :   1.3859 B( 21-C , 76-H ) :   0.9834
B( 22-C , 77-H ) :   0.9927 B( 23-C , 24-S ) :   1.1658 B( 23-C , 25-C ) :   0.1169
B( 23-C , 27-C ) :   1.3987 B( 24-S , 25-C ) :   1.1230 B( 25-C , 26-C ) :   1.3456
B( 25-C , 34-C ) :   1.1739 B( 26-C , 27-C ) :   1.1904 B( 26-C , 33-C ) :   1.1683
B( 27-C , 28-C ) :   1.1957 B( 28-C , 29-C ) :   1.5522 B( 28-C , 78-H ) :   0.9776
B( 29-C , 30-S ) :   1.0026 B( 29-C , 31-C ) :   1.1813 B( 30-S , 79-H ) :   0.9532
B( 31-C , 32-O ) :   1.2630 B( 31-C , 33-C ) :   1.5317 B( 32-O , 80-H ) :   0.9511
B( 33-C , 81-H ) :   1.0002 B( 34-C , 35-C ) :   1.6592 B( 34-C , 82-H ) :   0.9632
B( 35-C , 36-C ) :   1.0807 B( 35-C , 83-H ) :   0.9808 B( 36-C , 37-C ) :   1.2925
B( 36-C , 41-C ) :   1.3328 B( 37-C , 38-C ) :   1.4185 B( 37-C , 84-H ) :   0.9916
B( 38-C , 39-C ) :   1.3683 B( 38-C , 44-C ) :   0.9195 B( 39-C , 40-C ) :   1.3444
B( 39-C , 42-C ) :   0.9947 B( 40-C , 41-C ) :   1.3741 B( 40-C , 85-H ) :   0.9900
B( 41-C , 86-H ) :   0.9940 B( 42-C , 43-C ) :   1.3751 B( 42-C , 52-C ) :   1.3453
B( 43-C , 44-C ) :   0.9221 B( 43-C , 49-C ) :   1.3575 B( 44-C , 45-C ) :   1.0310
B( 44-C , 47-C ) :   1.0162 B( 45-C , 46-C ) :   1.1057 B( 45-C , 87-H ) :   0.9388
B( 45-C , 88-H ) :   0.9389 B( 46-C , 89-H ) :   0.9650 B( 46-C , 90-H ) :   0.9641
B( 46-C , 91-H ) :   0.9628 B( 47-C , 48-C ) :   1.1146 B( 47-C , 92-H ) :   0.9383
B( 47-C , 93-H ) :   0.9368 B( 48-C , 94-H ) :   0.9602 B( 48-C , 95-H ) :   0.9594
B( 48-C , 96-H ) :   0.9626 B( 49-C , 50-C ) :   1.3322 B( 49-C , 97-H ) :   1.0086
B( 50-C , 51-C ) :   1.3719 B( 50-C , 53-C ) :   0.9647 B( 51-C , 52-C ) :   1.3800
B( 51-C , 98-H ) :   0.9833 B( 52-C , 99-H ) :   0.9909 B( 53-C , 54-C ) :   1.3305
B( 53-C , 58-N ) :   1.5629 B( 54-C , 55-N ) :   1.5835 B( 54-C ,100-H ) :   0.9776
B( 55-N , 56-C ) :   1.5352 B( 56-C , 57-C ) :   1.3582 B( 56-C ,101-H ) :   0.9783
B( 57-C , 58-N ) :   1.5468 B( 57-C ,102-H ) :   0.9763

-----------------------------------------------------------------------------
         ABSORPTION SPECTRUM VIA TRANSITION ELECTRIC DIPOLE MOMENTS
-----------------------------------------------------------------------------
State   Energy  Wavelength   fosc         T2         TX        TY        TZ
        (cm-1)    (nm)                  (au**2)     (au)      (au)      (au)
-----------------------------------------------------------------------------
   0   20022.8    499.4   1.624882967  26.71615  -2.37862  -3.23412   3.25557
   1   28103.4    355.8   0.185812977   2.17667   0.56127  -0.21572  -1.34726
   2   29408.6    340.0   0.229544889   2.56962  -0.53400  -1.48865   0.26150
   3   30650.2    326.3   0.284549390   3.05632   0.63904  -0.59143  -1.51597
   4   32896.5    304.0   0.364141985   3.64416   0.47755   1.81784  -0.33402
   5   33619.9    297.4   0.335184586   3.28219  -0.87076  -1.25978   0.96795
   6   34177.7    292.6   0.105833117   1.01942  -0.28499  -0.92245   0.29545
   7   35225.7    283.9   0.178859466   1.67158  -0.72611   0.35978   1.00742
   8   36040.5    277.5   0.062458406   0.57053   0.44697  -0.18596  -0.57979
   9   36341.9    275.2   0.032699119   0.29621  -0.01040   0.53539   0.09728
  10   36673.9    272.7   0.071053664   0.63783  -0.13861   0.68966   0.37814
  11   37616.9    265.8   0.026783836   0.23440  -0.09458  -0.27263   0.38876
  12   38732.7    258.2   0.614918951   5.22655  -0.73153  -2.02137   0.77814
  13   39342.7    254.2   0.254523344   2.12980  -1.07997  -0.21762   0.95714
  14   39680.9    252.0   0.015242251   0.12646  -0.22492  -0.26305  -0.08168

FINAL SINGLE POINT ENERGY     -3095.495649598636

DIPOLE MOMENT
-------------
                                X             Y             Z
Electronic contribution:     -7.07772      11.10383      -1.87212
Nuclear contribution   :      7.53045     -10.68039       0.96374
                        -----------------------------------------
Total Dipole Moment    :      0.45273       0.42344      -0.90838
                        -----------------------------------------
Magnitude (a.u.)       :      1.09973
Magnitude (Debye)      :      2.79530

Rotational constants in cm-1:     0.003527     0.000324     0.000304
Rotational constants in MHz :   105.739234     9.711546     9.108808

                             ****ORCA TERMINATED NORMALLY****
TOTAL RUN TIME: 0 days 0 hours 8 minutes 42 seconds 794 msec
