                         Program Version 4.2.0 -  RELEASE  -
|  1> # ORCA input file
|  2> # SCF done       -141.709645260405          0.000255099626
|  3> ! CAM-B3LYP def2-SVP def2/J RIJCOSX Grid4 TightSCF
|  4> %maxcore 5000
|  5> %tddft
|  6>     Mode sTDDFT
|  7>     Ethresh 5.0
|  8>     maxcore 5000
|  9> end
| 10>
| 11> %pal
| 12>   nprocs 6
| 13>   end
| 14> * xyz 0 1
| 15>    C       -3.56573         0.96351        -5.20354
| 16>    C       -3.63614         2.14434        -4.23219
| 17>    C       -4.92970         2.93768        -4.43762
| 18>    C       -2.42164         3.03367        -4.35502
| 19>    C       -1.82786         3.79602        -5.35120
| 20>    C       -0.67333         4.41965        -4.91410
| 21>    C        0.18701         5.25501        -5.70474
| 22>    C        1.36100         5.83739        -5.19917
| 23>    N        2.14946         6.58248        -5.94479
| 24>    C        1.79184         6.77325        -7.20901
| 25>    C        0.62722         6.21272        -7.71859
| 26>    N       -0.16776         5.46107        -6.98104
| 27>    S       -0.31847         4.06458        -3.23929
| 28>    C       -1.71851         3.07766        -3.14889
| 29>    C       -2.36885         2.26222        -2.19624
| 30>    S       -2.16845         1.77536        -0.56234
| 31>    C       -3.59976         0.77153        -0.68525
| 32>    C       -4.03982        -0.01347         0.41184
| 33>    C       -5.15049        -0.89118         0.33930
| 34>    N       -5.92668        -1.09277        -0.72524
| 35>    S       -7.05825        -2.17358        -0.36490
| 36>    N       -6.63045        -2.44920         1.15808
| 37>    C       -5.57049        -1.70117         1.46352
| 38>    C       -4.90771        -1.65991         2.71573
| 39>    C       -5.30866        -2.44062         3.83079
| 40>    C       -6.33619        -3.38152         3.86790
| 41>    C       -6.48096        -3.95500         5.11575
| 42>    C       -5.56634        -3.45377         6.05031
| 43>    S       -4.50763        -2.27998         5.38117
| 44>    C       -5.80918        -4.07832         7.29381
| 45>    S       -5.19029        -4.02039         8.89258
| 46>    C       -6.36738        -5.21177         9.39436
| 47>    C       -6.44413        -5.66854        10.75397
| 48>    C       -5.59395        -5.19711        11.76778
| 49>    N       -5.68708        -5.61918        13.01119
| 50>    C       -6.62395        -6.52033        13.28082
| 51>    C       -7.46870        -6.99806        12.28669
| 52>    N       -7.38466        -6.58072        11.03786
| 53>    C       -7.18138        -5.61873         8.35291
| 54>    C       -6.86939        -4.97807         7.16203
| 55>    C       -7.38776        -4.98757         5.74348
| 56>    C       -7.19945        -6.36083         5.09252
| 57>    C       -8.85484        -4.55601         5.68070
| 58>    C       -3.81105        -0.77191         2.78197
| 59>    N       -3.14067        -0.67718         3.94666
| 60>    C       -2.12684         0.12050         4.04304
| 61>    F       -1.49261         0.18600         5.21186
| 62>    C       -1.70479         0.90029         2.93727
| 63>    F       -0.66020         1.72017         3.03374
| 64>    N       -2.32409         0.83731         1.80325
| 65>    C       -3.38629         0.02050         1.66381
| 66>    C       -4.18527         0.84802        -1.94770
| 67>    C       -3.49536         1.68852        -2.79874
| 68>    H       -3.59455         1.32158        -6.22955
| 69>    H       -4.40750         0.29581        -5.03825
| 70>    H       -2.64382         0.40636        -5.05385
| 71>    H       -4.97575         3.31995        -5.45426
| 72>    H       -4.97189         3.77669        -3.74688
| 73>    H       -5.79017         2.29721        -4.26129
| 74>    H       -2.18143         3.91466        -6.35850
| 75>    H        1.66263         5.69030        -4.17034
| 76>    H        2.45153         7.38303        -7.80939
| 77>    H        0.31891         6.36531        -8.74430
| 78>    H       -6.92799        -3.60432         3.00033
| 79>    H       -4.82697        -4.46227        11.56084
| 80>    H       -6.68920        -6.85534        14.30597
| 81>    H       -8.23508        -7.73395        12.49045
| 82>    H       -7.95621        -6.34793         8.50006
| 83>    H       -6.15534        -6.66144         5.14029
| 84>    H       -7.50414        -6.32297         4.04974
| 85>    H       -7.80043        -7.10450         5.60978
| 86>    H       -8.98315        -3.58500         6.15328
| 87>    H       -9.47964        -5.28056         6.19678
| 88>    H       -9.17728        -4.48512         4.64502
| 89>    H       -5.07259         0.29524        -2.19188
| 90> *
| 91>
| 92>                          ****END OF INPUT****

CARTESIAN COORDINATES (ANGSTROEM)
---------------------------------
  C     -3.565730    0.963510   -5.203540
  C     -3.636140    2.144340   -4.232190
  C     -4.929700    2.937680   -4.437620
  C     -2.421640    3.033670   -4.355020
  C     -1.827860    3.796020   -5.351200
  C     -0.673330    4.419650   -4.914100
  C      0.187010    5.255010   -5.704740
  C      1.361000    5.837390   -5.199170
  N      2.149460    6.582480   -5.944790
  C      1.791840    6.773250   -7.209010
  C      0.627220    6.212720   -7.718590
  N     -0.167760    5.461070   -6.981040
  S     -0.318470    4.064580   -3.239290
  C     -1.718510    3.077660   -3.148890
  C     -2.368850    2.262220   -2.196240
  S     -2.168450    1.775360   -0.562340
  C     -3.599760    0.771530   -0.685250
  C     -4.039820   -0.013470    0.411840
  C     -5.150490   -0.891180    0.339300
  N     -5.926680   -1.092770   -0.725240
  S     -7.058250   -2.173580   -0.364900
  N     -6.630450   -2.449200    1.158080
  C     -5.570490   -1.701170    1.463520
  C     -4.907710   -1.659910    2.715730
  C     -5.308660   -2.440620    3.830790
  C     -6.336190   -3.381520    3.867900
  C     -6.480960   -3.955000    5.115750
  C     -5.566340   -3.453770    6.050310
  S     -4.507630   -2.279980    5.381170
  C     -5.809180   -4.078320    7.293810
  S     -5.190290   -4.020390    8.892580
  C     -6.367380   -5.211770    9.394360
  C     -6.444130   -5.668540   10.753970
  C     -5.593950   -5.197110   11.767780
  N     -5.687080   -5.619180   13.011190
  C     -6.623950   -6.520330   13.280820
  C     -7.468700   -6.998060   12.286690
  N     -7.384660   -6.580720   11.037860
  C     -7.181380   -5.618730    8.352910
  C     -6.869390   -4.978070    7.162030
  C     -7.387760   -4.987570    5.743480
  C     -7.199450   -6.360830    5.092520
  C     -8.854840   -4.556010    5.680700
  C     -3.811050   -0.771910    2.781970
  N     -3.140670   -0.677180    3.946660
  C     -2.126840    0.120500    4.043040
  F     -1.492610    0.186000    5.211860
  C     -1.704790    0.900290    2.937270
  F     -0.660200    1.720170    3.033740
  N     -2.324090    0.837310    1.803250
  C     -3.386290    0.020500    1.663810
  C     -4.185270    0.848020   -1.947700
  C     -3.495360    1.688520   -2.798740
  H     -3.594550    1.321580   -6.229550
  H     -4.407500    0.295810   -5.038250
  H     -2.643820    0.406360   -5.053850
  H     -4.975750    3.319950   -5.454260
  H     -4.971890    3.776690   -3.746880
  H     -5.790170    2.297210   -4.261290
  H     -2.181430    3.914660   -6.358500
  H      1.662630    5.690300   -4.170340
  H      2.451530    7.383030   -7.809390
  H      0.318910    6.365310   -8.744300
  H     -6.927990   -3.604320    3.000330
  H     -4.826970   -4.462270   11.560840
  H     -6.689200   -6.855340   14.305970
  H     -8.235080   -7.733950   12.490450
  H     -7.956210   -6.347930    8.500060
  H     -6.155340   -6.661440    5.140290
  H     -7.504140   -6.322970    4.049740
  H     -7.800430   -7.104500    5.609780
  H     -8.983150   -3.585000    6.153280
  H     -9.479640   -5.280560    6.196780
  H     -9.177280   -4.485120    4.645020
  H     -5.072590    0.295240   -2.191880

 Total Charge           Charge          ....    0
 Multiplicity           Mult            ....    1
 Number of Electrons    NEL             ....  404
 Basis Dimension        Dim             ....  872

ORBITAL ENERGIES
----------------

  NO   OCC          E(Eh)            E(eV)
   0   2.0000     -89.033648     -2422.7287
   1   2.0000     -88.959064     -2420.6992
   2   2.0000     -88.958937     -2420.6958
   3   2.0000     -88.950999     -2420.4797
   4   2.0000     -88.950765     -2420.4734
   5   2.0000     -24.810034      -675.1153
   6   2.0000     -24.809848      -675.1103
   7   2.0000     -14.450197      -393.2098
   8   2.0000     -14.450046      -393.2057
   9   2.0000     -14.444285      -393.0490
  10   2.0000     -14.444202      -393.0467
  11   2.0000     -14.414436      -392.2367
  12   2.0000     -14.414421      -392.2363
  13   2.0000     -14.413594      -392.2138
  14   2.0000     -14.413560      -392.2129
  15   2.0000     -10.425408      -283.6898
  16   2.0000     -10.425104      -283.6815
  17   2.0000     -10.335012      -281.2300
  18   2.0000     -10.334736      -281.2225
  19   2.0000     -10.332764      -281.1688
  20   2.0000     -10.332529      -281.1624
  21   2.0000     -10.320100      -280.8242
  22   2.0000     -10.320002      -280.8215
  23   2.0000     -10.307299      -280.4759
  24   2.0000     -10.307177      -280.4725
  25   2.0000     -10.306013      -280.4409
  26   2.0000     -10.305920      -280.4383
  27   2.0000     -10.304056      -280.3876
  28   2.0000     -10.303897      -280.3833
  29   2.0000     -10.301768      -280.3254
  30   2.0000     -10.301725      -280.3242
  31   2.0000     -10.298699      -280.2418
  32   2.0000     -10.298518      -280.2369
  33   2.0000     -10.298385      -280.2333
  34   2.0000     -10.298304      -280.2311
  35   2.0000     -10.294929      -280.1393
  36   2.0000     -10.294926      -280.1392
  37   2.0000     -10.290355      -280.0148
  38   2.0000     -10.290320      -280.0139
  39   2.0000     -10.287291      -279.9314
  40   2.0000     -10.287262      -279.9306
  41   2.0000     -10.271645      -279.5057
  42   2.0000     -10.271633      -279.5054
  43   2.0000     -10.268166      -279.4110
  44   2.0000     -10.268066      -279.4083
  45   2.0000     -10.266247      -279.3588
  46   2.0000     -10.266150      -279.3561
  47   2.0000     -10.263540      -279.2851
  48   2.0000     -10.263501      -279.2841
  49   2.0000     -10.259318      -279.1702
  50   2.0000     -10.259306      -279.1699
  51   2.0000     -10.259262      -279.1687
  52   2.0000     -10.259240      -279.1681
  53   2.0000      -8.125089      -221.0949
  54   2.0000      -8.053887      -219.1574
  55   2.0000      -8.053828      -219.1558
  56   2.0000      -8.044303      -218.8966
  57   2.0000      -8.044152      -218.8925
  58   2.0000      -6.096297      -165.8887
  59   2.0000      -6.088426      -165.6745
  60   2.0000      -6.087704      -165.6548
  61   2.0000      -6.023174      -163.8989
  62   2.0000      -6.023104      -163.8970
  63   2.0000      -6.019152      -163.7894
  64   2.0000      -6.019096      -163.7879
  65   2.0000      -6.016047      -163.7050
  66   2.0000      -6.015975      -163.7030
  67   2.0000      -6.013885      -163.6461
  68   2.0000      -6.013749      -163.6424
  69   2.0000      -6.009323      -163.5220
  70   2.0000      -6.009154      -163.5174
  71   2.0000      -6.006384      -163.4420
  72   2.0000      -6.006217      -163.4375
  73   2.0000      -1.337756       -36.4022
  74   2.0000      -1.323761       -36.0214
  75   2.0000      -1.131581       -30.7919
  76   2.0000      -1.109132       -30.1810
  77   2.0000      -1.069942       -29.1146
  78   2.0000      -1.069916       -29.1139
  79   2.0000      -1.035809       -28.1858
  80   2.0000      -1.005194       -27.3527
  81   2.0000      -1.004801       -27.3420
  82   2.0000      -0.990823       -26.9617
  83   2.0000      -0.990441       -26.9513
  84   2.0000      -0.986758       -26.8510
  85   2.0000      -0.974527       -26.5182
  86   2.0000      -0.963055       -26.2060
  87   2.0000      -0.952811       -25.9273
  88   2.0000      -0.920988       -25.0614
  89   2.0000      -0.914650       -24.8889
  90   2.0000      -0.880447       -23.9582
  91   2.0000      -0.878248       -23.8983
  92   2.0000      -0.875651       -23.8277
  93   2.0000      -0.873466       -23.7682
  94   2.0000      -0.848409       -23.0864
  95   2.0000      -0.835858       -22.7448
  96   2.0000      -0.822925       -22.3929
  97   2.0000      -0.822629       -22.3849
  98   2.0000      -0.815195       -22.1826
  99   2.0000      -0.814758       -22.1707
 100   2.0000      -0.808495       -22.0003
 101   2.0000      -0.790988       -21.5239
 102   2.0000      -0.777065       -21.1450
 103   2.0000      -0.770921       -20.9778
 104   2.0000      -0.770916       -20.9777
 105   2.0000      -0.759539       -20.6681
 106   2.0000      -0.756728       -20.5916
 107   2.0000      -0.737377       -20.0651
 108   2.0000      -0.737370       -20.0649
 109   2.0000      -0.735470       -20.0132
 110   2.0000      -0.722243       -19.6532
 111   2.0000      -0.697722       -18.9860
 112   2.0000      -0.693255       -18.8644
 113   2.0000      -0.692784       -18.8516
 114   2.0000      -0.678914       -18.4742
 115   2.0000      -0.670452       -18.2439
 116   2.0000      -0.663797       -18.0628
 117   2.0000      -0.655805       -17.8453
 118   2.0000      -0.638333       -17.3699
 119   2.0000      -0.628773       -17.1098
 120   2.0000      -0.622565       -16.9408
 121   2.0000      -0.621934       -16.9237
 122   2.0000      -0.616679       -16.7807
 123   2.0000      -0.615915       -16.7599
 124   2.0000      -0.613296       -16.6886
 125   2.0000      -0.613170       -16.6852
 126   2.0000      -0.611187       -16.6312
 127   2.0000      -0.596655       -16.2358
 128   2.0000      -0.596569       -16.2335
 129   2.0000      -0.591687       -16.1006
 130   2.0000      -0.588043       -16.0015
 131   2.0000      -0.575869       -15.6702
 132   2.0000      -0.565294       -15.3824
 133   2.0000      -0.560190       -15.2435
 134   2.0000      -0.557822       -15.1791
 135   2.0000      -0.551880       -15.0174
 136   2.0000      -0.548822       -14.9342
 137   2.0000      -0.542454       -14.7609
 138   2.0000      -0.537980       -14.6392
 139   2.0000      -0.531430       -14.4610
 140   2.0000      -0.530472       -14.4349
 141   2.0000      -0.523067       -14.2334
 142   2.0000      -0.523038       -14.2326
 143   2.0000      -0.517412       -14.0795
 144   2.0000      -0.515318       -14.0225
 145   2.0000      -0.513378       -13.9697
 146   2.0000      -0.512311       -13.9407
 147   2.0000      -0.511280       -13.9126
 148   2.0000      -0.507087       -13.7986
 149   2.0000      -0.506354       -13.7786
 150   2.0000      -0.501911       -13.6577
 151   2.0000      -0.499871       -13.6022
 152   2.0000      -0.497788       -13.5455
 153   2.0000      -0.496487       -13.5101
 154   2.0000      -0.478291       -13.0149
 155   2.0000      -0.476751       -12.9731
 156   2.0000      -0.475815       -12.9476
 157   2.0000      -0.473526       -12.8853
 158   2.0000      -0.469775       -12.7832
 159   2.0000      -0.467864       -12.7312
 160   2.0000      -0.466957       -12.7066
 161   2.0000      -0.464969       -12.6525
 162   2.0000      -0.463300       -12.6070
 163   2.0000      -0.457683       -12.4542
 164   2.0000      -0.452512       -12.3135
 165   2.0000      -0.449528       -12.2323
 166   2.0000      -0.446643       -12.1538
 167   2.0000      -0.439864       -11.9693
 168   2.0000      -0.437251       -11.8982
 169   2.0000      -0.433007       -11.7827
 170   2.0000      -0.430097       -11.7035
 171   2.0000      -0.430054       -11.7024
 172   2.0000      -0.422911       -11.5080
 173   2.0000      -0.418577       -11.3901
 174   2.0000      -0.415071       -11.2947
 175   2.0000      -0.414043       -11.2667
 176   2.0000      -0.412172       -11.2158
 177   2.0000      -0.403980       -10.9929
 178   2.0000      -0.399370       -10.8674
 179   2.0000      -0.399085       -10.8596
 180   2.0000      -0.398462       -10.8427
 181   2.0000      -0.398419       -10.8415
 182   2.0000      -0.395479       -10.7615
 183   2.0000      -0.375725       -10.2240
 184   2.0000      -0.375694       -10.2231
 185   2.0000      -0.368958       -10.0399
 186   2.0000      -0.368689       -10.0325
 187   2.0000      -0.366136        -9.9631
 188   2.0000      -0.364589        -9.9210
 189   2.0000      -0.347429        -9.4540
 190   2.0000      -0.338775        -9.2185
 191   2.0000      -0.336404        -9.1540
 192   2.0000      -0.320878        -8.7315
 193   2.0000      -0.319217        -8.6863
 194   2.0000      -0.319199        -8.6859
 195   2.0000      -0.314014        -8.5448
 196   2.0000      -0.314005        -8.5445
 197   2.0000      -0.310575        -8.4512
 198   2.0000      -0.310325        -8.4444
 199   2.0000      -0.287509        -7.8235
 200   2.0000      -0.250085        -6.8052
 201   2.0000      -0.212724        -5.7885
 202   0.0000      -0.105520        -2.8714
 203   0.0000      -0.036194        -0.9849
 204   0.0000      -0.034995        -0.9523
 205   0.0000      -0.018349        -0.4993
 206   0.0000       0.000076         0.0021

MULLIKEN ATOMIC CHARGES
-----------------------
   0 C :    0.100638
   1 C :   -0.099292
   2 C :    0.107637
   3 C :    0.025087
   4 C :   -0.051510
   5 C :   -0.049693
   6 C :   -0.014124
   7 C :   -0.023966
   8 N :   -0.044445
   9 C :    0.011418
  10 C :    0.038706
  11 N :   -0.058248
  12 S :    0.141176
  13 C :   -0.087389
  14 C :   -0.050554
  15 S :    0.160543
  16 C :   -0.192203
  17 C :    0.187277
  18 C :   -0.014009
  19 N :   -0.295016
  20 S :    0.529832
  21 N :   -0.292859
  22 C :   -0.020161
  23 C :    0.184541
  24 C :   -0.188859
  25 C :   -0.062329
  26 C :    0.029979
  27 C :   -0.052029
  28 S :    0.160672
  29 C :   -0.087924
  30 S :    0.140817
  31 C :   -0.047310
  32 C :   -0.015934
  33 C :   -0.023352
  34 N :   -0.044301
  35 C :    0.013589
  36 C :    0.037099
  37 N :   -0.057985
  38 C :   -0.056484
  39 C :    0.028191
  40 C :   -0.099782
  41 C :    0.107145
  42 C :    0.104988
  43 C :   -0.061531
  44 N :   -0.038383
  45 C :    0.145045
  46 F :   -0.141224
  47 C :    0.142286
  48 F :   -0.141106
  49 N :   -0.036141
  50 C :   -0.068016
  51 C :   -0.061380
  52 C :    0.028960
  53 H :    0.011052
  54 H :    0.010886
  55 H :    0.020427
  56 H :    0.009921
  57 H :    0.019942
  58 H :    0.010105
  59 H :   -0.013390
  60 H :    0.005829
  61 H :    0.009680
  62 H :    0.006839
  63 H :   -0.014293
  64 H :    0.006399
  65 H :    0.008379
  66 H :    0.007281
  67 H :   -0.012241
  68 H :    0.020114
  69 H :    0.009560
  70 H :    0.010350
  71 H :    0.019392
  72 H :    0.010234
  73 H :    0.009918
  74 H :   -0.014474
Sum of atomic charges:   -0.0000000

LOEWDIN ATOMIC CHARGES
----------------------
   0 C :   -0.024982
   1 C :   -0.035084
   2 C :   -0.024130
   3 C :   -0.036658
   4 C :   -0.028231
   5 C :   -0.185166
   6 C :   -0.020541
   7 C :   -0.008953
   8 N :   -0.039768
   9 C :   -0.014485
  10 C :    0.003428
  11 N :   -0.057032
  12 S :    0.440323
  13 C :   -0.189490
  14 C :   -0.194734
  15 S :    0.467769
  16 C :   -0.168719
  17 C :   -0.048627
  18 C :   -0.037803
  19 N :   -0.279876
  20 S :    0.653258
  21 N :   -0.279704
  22 C :   -0.038049
  23 C :   -0.048649
  24 C :   -0.168681
  25 C :   -0.039487
  26 C :   -0.041938
  27 C :   -0.194605
  28 S :    0.467702
  29 C :   -0.189435
  30 S :    0.440144
  31 C :   -0.185083
  32 C :   -0.020492
  33 C :   -0.008767
  34 N :   -0.039867
  35 C :   -0.014318
  36 C :    0.003494
  37 N :   -0.057117
  38 C :   -0.028498
  39 C :   -0.036663
  40 C :   -0.035040
  41 C :   -0.024149
  42 C :   -0.024553
  43 C :   -0.019891
  44 N :   -0.051967
  45 C :    0.058951
  46 F :   -0.030405
  47 C :    0.058945
  48 F :   -0.030273
  49 N :   -0.051804
  50 C :   -0.020057
  51 C :   -0.039540
  52 C :   -0.042055
  53 H :    0.023464
  54 H :    0.023690
  55 H :    0.029802
  56 H :    0.023288
  57 H :    0.029675
  58 H :    0.023524
  59 H :    0.034168
  60 H :    0.017639
  61 H :    0.024007
  62 H :    0.024974
  63 H :    0.026677
  64 H :    0.017744
  65 H :    0.023827
  66 H :    0.025038
  67 H :    0.034288
  68 H :    0.029766
  69 H :    0.023407
  70 H :    0.023341
  71 H :    0.029592
  72 H :    0.023332
  73 H :    0.023519
  74 H :    0.026593

  Mayer bond orders larger than 0.100000
B(  0-C ,  1-C ) :   1.0348 B(  0-C , 53-H ) :   0.9649 B(  0-C , 54-H ) :   0.9650
B(  0-C , 55-H ) :   0.9649 B(  1-C ,  2-C ) :   1.0335 B(  1-C ,  3-C ) :   0.9398
B(  1-C , 52-C ) :   0.9379 B(  2-C , 56-H ) :   0.9647 B(  2-C , 57-H ) :   0.9637
B(  2-C , 58-H ) :   0.9648 B(  3-C ,  4-C ) :   1.2727 B(  3-C , 13-C ) :   1.5148
B(  4-C ,  5-C ) :   1.4691 B(  4-C , 59-H ) :   1.0173 B(  5-C ,  6-C ) :   1.0651
B(  5-C , 12-S ) :   1.1133 B(  6-C ,  7-C ) :   1.3102 B(  6-C , 11-N ) :   1.5700
B(  7-C ,  8-N ) :   1.6052 B(  7-C , 60-H ) :   0.9751 B(  8-N ,  9-C ) :   1.5277
B(  9-C , 10-C ) :   1.3546 B(  9-C , 61-H ) :   0.9789 B( 10-C , 11-N ) :   1.5505
B( 10-C , 62-H ) :   0.9761 B( 12-S , 13-C ) :   1.0878 B( 13-C , 14-C ) :   1.1804
B( 14-C , 15-S ) :   1.0514 B( 14-C , 52-C ) :   1.4909 B( 15-S , 16-C ) :   1.0918
B( 16-C , 17-C ) :   1.2025 B( 16-C , 51-C ) :   1.4104 B( 17-C , 18-C ) :   1.1874
B( 17-C , 23-C ) :   0.1235 B( 17-C , 50-C ) :   1.2850 B( 18-C , 19-N ) :   1.5166
B( 18-C , 22-C ) :   1.0990 B( 19-N , 20-S ) :   1.2676 B( 19-N , 21-N ) :   0.1507
B( 20-S , 21-N ) :   1.2677 B( 21-N , 22-C ) :   1.5181 B( 22-C , 23-C ) :   1.1884
B( 23-C , 24-C ) :   1.2014 B( 23-C , 43-C ) :   1.2858 B( 24-C , 25-C ) :   1.4128
B( 24-C , 28-S ) :   1.0906 B( 25-C , 26-C ) :   1.3082 B( 25-C , 63-H ) :   0.9914
B( 26-C , 27-C ) :   1.4903 B( 26-C , 40-C ) :   0.9374 B( 27-C , 28-S ) :   1.0510
B( 27-C , 29-C ) :   1.1827 B( 29-C , 30-S ) :   1.0876 B( 29-C , 39-C ) :   1.5134
B( 30-S , 31-C ) :   1.1127 B( 31-C , 32-C ) :   1.0658 B( 31-C , 38-C ) :   1.4672
B( 32-C , 33-C ) :   1.3089 B( 32-C , 37-N ) :   1.5708 B( 33-C , 34-N ) :   1.6043
B( 33-C , 64-H ) :   0.9755 B( 34-N , 35-C ) :   1.5287 B( 35-C , 36-C ) :   1.3545
B( 35-C , 65-H ) :   0.9788 B( 36-C , 37-N ) :   1.5495 B( 36-C , 66-H ) :   0.9763
B( 38-C , 39-C ) :   1.2717 B( 38-C , 67-H ) :   1.0188 B( 39-C , 40-C ) :   0.9384
B( 40-C , 41-C ) :   1.0333 B( 40-C , 42-C ) :   1.0373 B( 41-C , 68-H ) :   0.9638
B( 41-C , 69-H ) :   0.9649 B( 41-C , 70-H ) :   0.9646 B( 42-C , 71-H ) :   0.9644
B( 42-C , 72-H ) :   0.9643 B( 42-C , 73-H ) :   0.9645 B( 43-C , 44-N ) :   1.3873
B( 43-C , 50-C ) :   1.1126 B( 44-N , 45-C ) :   1.6574 B( 45-C , 46-F ) :   1.1801
B( 45-C , 47-C ) :   1.1123 B( 47-C , 48-F ) :   1.1802 B( 47-C , 49-N ) :   1.6556
B( 49-N , 50-C ) :   1.3892 B( 51-C , 52-C ) :   1.3061 B( 51-C , 74-H ) :   0.9925

-----------------------------------------------------------------------------
         ABSORPTION SPECTRUM VIA TRANSITION ELECTRIC DIPOLE MOMENTS
-----------------------------------------------------------------------------
State   Energy  Wavelength   fosc         T2         TX        TY        TZ
        (cm-1)    (nm)                  (au**2)     (au)      (au)      (au)
-----------------------------------------------------------------------------
   0    8412.0   1188.8   0.659474313  25.80912  -1.56871  -2.72378   3.99115
   1   17315.1    577.5   0.004217027   0.08018  -0.22461  -0.08756  -0.14854
   2   23534.0    424.9   2.043284751  28.58304  -1.72711  -2.76986   4.23415
   3   23817.5    419.9   0.013629879   0.18840  -0.14272  -0.22146   0.34494
   4   25243.9    396.1   0.052243392   0.68132   0.63161   0.28881   0.44606
   5   25478.8    392.5   0.062466590   0.80713   0.30419   0.44628  -0.71794
   6   26728.4    374.1   0.010943363   0.13479   0.09429   0.21531  -0.28203
   7   26843.8    372.5   0.001019170   0.01250  -0.07966  -0.05126  -0.05937
   8   30043.1    332.9   0.029691134   0.32536  -0.41844  -0.22407  -0.31631
   9   30181.9    331.3   0.000763297   0.00833   0.04787  -0.00205  -0.07765
  10   32325.0    309.4   0.009936575   0.10120   0.25394   0.13402  -0.13695
  11   32333.4    309.3   0.013473858   0.13719  -0.20108  -0.09082  -0.29750
  12   32952.6    303.5   0.024798848   0.24775  -0.36837  -0.18373  -0.27982
  13   33016.6    302.9   0.064496883   0.64311   0.60533   0.31043   0.42463
  14   33139.2    301.8   0.013147612   0.13061   0.13781   0.13119  -0.30726
  15   33335.2    300.0   0.037465776   0.37000   0.45072   0.22758   0.33921
  16   33922.2    294.8   0.000588674   0.00571  -0.05067  -0.03879  -0.04050
  17   33932.5    294.7   0.001687044   0.01637   0.06740  -0.10456  -0.02987
  18   33986.6    294.2   0.033813486   0.32754  -0.42976  -0.21014  -0.31413
  19   34320.4    291.4   0.032277458   0.30962  -0.40895  -0.21561  -0.30966
  20   34784.4    287.5   0.129040634   1.22129  -0.41991  -0.49239   0.89583
  21   35263.7    283.6   0.120029739   1.12056  -0.32888  -0.57104   0.82844
  22   35467.9    281.9   0.793658703   7.36672   2.00282   1.04413   1.50507
  23   35757.4    279.7   0.009057012   0.08339   0.20983   0.10441   0.16869
  24   36402.6    274.7   0.001380853   0.01249  -0.05348   0.09811  -0.00128
  25   39314.6    254.4   0.026487462   0.22180  -0.34988  -0.18099  -0.25812

FINAL SINGLE POINT ENERGY     -4086.708988858237

DIPOLE MOMENT
-------------
                                X             Y             Z
Electronic contribution:     28.98120      15.82758      22.20059
Nuclear contribution   :    -30.49998     -16.63479     -23.34545
                        -----------------------------------------
Total Dipole Moment    :     -1.51877      -0.80721      -1.14486
                        -----------------------------------------
Magnitude (a.u.)       :      2.06615
Magnitude (Debye)      :      5.25173

Rotational constants in cm-1:     0.004770     0.000436     0.000402
Rotational constants in MHz :   143.014924    13.060592    12.038247

                             ****ORCA TERMINATED NORMALLY****
TOTAL RUN TIME: 0 days 0 hours 5 minutes 37 seconds 425 msec
