                         Program Version 4.2.0 -  RELEASE  -
|  1> # ORCA input file
|  2> # SCF done       -163.973092520554          0.000735293828
|  3> ! CAM-B3LYP def2-SVP def2/J RIJCOSX Grid4 TightSCF
|  4> %maxcore 5000
|  5> %tddft
|  6>     Mode sTDDFT
|  7>     Ethresh 5.0
|  8>     maxcore 5000
|  9> end
| 10>
| 11> %pal
| 12>   nprocs 6
| 13>   end
| 14> * xyz 0 1
| 15>    C       -0.19309         2.51848        -1.39751
| 16>    C       -1.40832         2.23603        -0.77477
| 17>    C       -1.94415         3.16110         0.15519
| 18>    C       -1.28665         4.34031         0.45927
| 19>    C       -0.08464         4.59588        -0.17100
| 20>    C        0.45436         3.69399        -1.08864
| 21>    S       -3.45027         2.56409         0.77525
| 22>    C       -3.23465         1.13032        -0.25983
| 23>    N       -2.16193         1.12637        -0.96983
| 24>    C       -4.19939         0.08630        -0.26625
| 25>    C       -4.14481        -1.07398        -1.01622
| 26>    C       -5.25136        -1.89039        -0.78331
| 27>    C       -6.14524        -1.33831         0.15425
| 28>    S       -5.62669         0.17717         0.74227
| 29>    C       -7.22631        -2.23175         0.33008
| 30>    C       -7.02610        -3.35510        -0.49758
| 31>    C       -5.76067        -3.18736        -1.20191
| 32>    C       -5.14976        -4.08265        -2.02720
| 33>    C       -5.66223        -5.37617        -2.27387
| 34>    N       -6.02584        -6.44803        -2.45214
| 35>    C       -3.91783        -3.80225        -2.65817
| 36>    N       -2.92044        -3.58598        -3.18038
| 37>    C       -8.06074        -4.28050        -0.42165
| 38>    C       -9.04089        -3.87873         0.47865
| 39>    S       -8.67224        -2.33008         1.22953
| 40>    C      -10.21727        -4.57382         0.81484
| 41>    C      -10.73213        -5.72565         0.20346
| 42>    C      -11.95374        -6.18766         0.80904
| 43>    N      -12.60113        -7.25206         0.32867
| 44>    C      -12.07852        -7.84715        -0.72039
| 45>    C      -12.82034        -9.00738        -1.27962
| 46>    O      -13.93657        -9.30605        -0.91715
| 47>    C      -12.10051        -9.75178        -2.32964
| 48>    C      -10.96404        -9.32533        -2.88901
| 49>    C      -10.29986        -8.06119        -2.52068
| 50>    O       -9.38057        -7.59754        -3.15818
| 51>    C      -10.86331        -7.38962        -1.32040
| 52>    N      -10.20869        -6.34925        -0.85470
| 53>    C      -12.37064        -5.38907         1.88339
| 54>    S      -11.26206        -4.07250         2.10703
| 55>    C      -13.50528        -5.57014         2.69591
| 56>    C      -14.35562        -6.66988         2.70943
| 57>    C      -15.36741        -6.52125         3.65095
| 58>    C      -15.30523        -5.29533         4.34377
| 59>    S      -13.97867        -4.33844         3.86096
| 60>    C      -16.39172        -5.22405         5.24720
| 61>    C      -17.14536        -6.40806         5.13215
| 62>    C      -16.51286        -7.27274         4.14952
| 63>    C      -16.87789        -8.54300         3.81767
| 64>    C      -18.01751        -9.16064         4.37745
| 65>    N      -18.94356        -9.66637         4.82580
| 66>    C      -16.12445        -9.35871         2.94426
| 67>    N      -15.50792       -10.05999         2.27995
| 68>    C      -18.24253        -6.43088         5.99401
| 69>    C      -18.32019        -5.27798         6.74945
| 70>    S      -17.02996        -4.14485         6.40691
| 71>    C      -19.28414        -4.93097         7.73185
| 72>    N      -19.27290        -3.83031         8.39843
| 73>    C      -20.30145        -3.74816         9.27791
| 74>    C      -20.55679        -2.68290        10.14025
| 75>    C      -21.64735        -2.75388        10.97800
| 76>    C      -22.48966        -3.86584        10.97356
| 77>    C      -22.25843        -4.93353        10.12872
| 78>    C      -21.16426        -4.87138         9.28317
| 79>    S      -20.61723        -6.04161         8.12275
| 80>    H        0.21123         1.81220        -2.10423
| 81>    H       -1.70601         5.03560         1.16959
| 82>    H        0.44574         5.50924         0.05159
| 83>    H        1.39610         3.92483        -1.56302
| 84>    H       -3.33104        -1.28053        -1.68621
| 85>    H       -8.14024        -5.19966        -0.97423
| 86>    H      -12.57997       -10.66612        -2.65208
| 87>    H      -10.48323        -9.87957        -3.68370
| 88>    H      -14.21282        -7.50630         2.04872
| 89>    H      -18.95471        -7.23215         6.07775
| 90>    H      -19.89710        -1.83035        10.13261
| 91>    H      -21.85691        -1.93655        11.65134
| 92>    H      -23.33691        -3.89342        11.64167
| 93>    H      -22.90792        -5.79470        10.12320
| 94> *
| 95>
| 96>                          ****END OF INPUT****

CARTESIAN COORDINATES (ANGSTROEM)
---------------------------------
  C     -0.193090    2.518480   -1.397510
  C     -1.408320    2.236030   -0.774770
  C     -1.944150    3.161100    0.155190
  C     -1.286650    4.340310    0.459270
  C     -0.084640    4.595880   -0.171000
  C      0.454360    3.693990   -1.088640
  S     -3.450270    2.564090    0.775250
  C     -3.234650    1.130320   -0.259830
  N     -2.161930    1.126370   -0.969830
  C     -4.199390    0.086300   -0.266250
  C     -4.144810   -1.073980   -1.016220
  C     -5.251360   -1.890390   -0.783310
  C     -6.145240   -1.338310    0.154250
  S     -5.626690    0.177170    0.742270
  C     -7.226310   -2.231750    0.330080
  C     -7.026100   -3.355100   -0.497580
  C     -5.760670   -3.187360   -1.201910
  C     -5.149760   -4.082650   -2.027200
  C     -5.662230   -5.376170   -2.273870
  N     -6.025840   -6.448030   -2.452140
  C     -3.917830   -3.802250   -2.658170
  N     -2.920440   -3.585980   -3.180380
  C     -8.060740   -4.280500   -0.421650
  C     -9.040890   -3.878730    0.478650
  S     -8.672240   -2.330080    1.229530
  C    -10.217270   -4.573820    0.814840
  C    -10.732130   -5.725650    0.203460
  C    -11.953740   -6.187660    0.809040
  N    -12.601130   -7.252060    0.328670
  C    -12.078520   -7.847150   -0.720390
  C    -12.820340   -9.007380   -1.279620
  O    -13.936570   -9.306050   -0.917150
  C    -12.100510   -9.751780   -2.329640
  C    -10.964040   -9.325330   -2.889010
  C    -10.299860   -8.061190   -2.520680
  O     -9.380570   -7.597540   -3.158180
  C    -10.863310   -7.389620   -1.320400
  N    -10.208690   -6.349250   -0.854700
  C    -12.370640   -5.389070    1.883390
  S    -11.262060   -4.072500    2.107030
  C    -13.505280   -5.570140    2.695910
  C    -14.355620   -6.669880    2.709430
  C    -15.367410   -6.521250    3.650950
  C    -15.305230   -5.295330    4.343770
  S    -13.978670   -4.338440    3.860960
  C    -16.391720   -5.224050    5.247200
  C    -17.145360   -6.408060    5.132150
  C    -16.512860   -7.272740    4.149520
  C    -16.877890   -8.543000    3.817670
  C    -18.017510   -9.160640    4.377450
  N    -18.943560   -9.666370    4.825800
  C    -16.124450   -9.358710    2.944260
  N    -15.507920  -10.059990    2.279950
  C    -18.242530   -6.430880    5.994010
  C    -18.320190   -5.277980    6.749450
  S    -17.029960   -4.144850    6.406910
  C    -19.284140   -4.930970    7.731850
  N    -19.272900   -3.830310    8.398430
  C    -20.301450   -3.748160    9.277910
  C    -20.556790   -2.682900   10.140250
  C    -21.647350   -2.753880   10.978000
  C    -22.489660   -3.865840   10.973560
  C    -22.258430   -4.933530   10.128720
  C    -21.164260   -4.871380    9.283170
  S    -20.617230   -6.041610    8.122750
  H      0.211230    1.812200   -2.104230
  H     -1.706010    5.035600    1.169590
  H      0.445740    5.509240    0.051590
  H      1.396100    3.924830   -1.563020
  H     -3.331040   -1.280530   -1.686210
  H     -8.140240   -5.199660   -0.974230
  H    -12.579970  -10.666120   -2.652080
  H    -10.483230   -9.879570   -3.683700
  H    -14.212820   -7.506300    2.048720
  H    -18.954710   -7.232150    6.077750
  H    -19.897100   -1.830350   10.132610
  H    -21.856910   -1.936550   11.651340
  H    -23.336910   -3.893420   11.641670
  H    -22.907920   -5.794700   10.123200

 Total Charge           Charge          ....    0
 Multiplicity           Mult            ....    1
 Number of Electrons    NEL             ....  486
 Basis Dimension        Dim             .... 1008

ORBITAL ENERGIES
----------------

  NO   OCC          E(Eh)            E(eV)
   0   2.0000     -89.003180     -2421.8997
   1   2.0000     -88.994500     -2421.6635
   2   2.0000     -88.994287     -2421.6577
   3   2.0000     -88.993737     -2421.6427
   4   2.0000     -88.989897     -2421.5382
   5   2.0000     -88.960903     -2420.7492
   6   2.0000     -88.960578     -2420.7404
   7   2.0000     -19.224839      -523.1345
   8   2.0000     -19.224756      -523.1322
   9   2.0000     -14.450580      -393.2203
  10   2.0000     -14.450452      -393.2168
  11   2.0000     -14.429478      -392.6461
  12   2.0000     -14.427463      -392.5912
  13   2.0000     -14.424759      -392.5176
  14   2.0000     -14.424616      -392.5138
  15   2.0000     -14.412112      -392.1735
  16   2.0000     -14.409833      -392.1115
  17   2.0000     -10.373752      -282.2841
  18   2.0000     -10.373566      -282.2791
  19   2.0000     -10.364492      -282.0322
  20   2.0000     -10.364363      -282.0287
  21   2.0000     -10.350895      -281.6622
  22   2.0000     -10.350718      -281.6573
  23   2.0000     -10.350412      -281.6490
  24   2.0000     -10.350078      -281.6399
  25   2.0000     -10.341972      -281.4194
  26   2.0000     -10.341703      -281.4120
  27   2.0000     -10.340042      -281.3669
  28   2.0000     -10.339950      -281.3643
  29   2.0000     -10.337231      -281.2904
  30   2.0000     -10.336969      -281.2832
  31   2.0000     -10.335716      -281.2491
  32   2.0000     -10.335485      -281.2428
  33   2.0000     -10.335035      -281.2306
  34   2.0000     -10.333860      -281.1986
  35   2.0000     -10.333543      -281.1900
  36   2.0000     -10.333469      -281.1880
  37   2.0000     -10.329504      -281.0801
  38   2.0000     -10.327025      -281.0126
  39   2.0000     -10.323964      -280.9293
  40   2.0000     -10.323814      -280.9253
  41   2.0000     -10.323734      -280.9231
  42   2.0000     -10.323401      -280.9140
  43   2.0000     -10.306507      -280.4543
  44   2.0000     -10.306028      -280.4413
  45   2.0000     -10.305886      -280.4374
  46   2.0000     -10.305825      -280.4358
  47   2.0000     -10.305804      -280.4352
  48   2.0000     -10.305634      -280.4306
  49   2.0000     -10.304830      -280.4087
  50   2.0000     -10.304750      -280.4065
  51   2.0000     -10.304256      -280.3931
  52   2.0000     -10.304136      -280.3898
  53   2.0000     -10.303997      -280.3860
  54   2.0000     -10.301843      -280.3274
  55   2.0000     -10.300500      -280.2909
  56   2.0000     -10.300454      -280.2896
  57   2.0000     -10.281637      -279.7776
  58   2.0000     -10.281602      -279.7766
  59   2.0000     -10.275332      -279.6060
  60   2.0000     -10.274864      -279.5933
  61   2.0000     -10.273828      -279.5651
  62   2.0000     -10.272781      -279.5366
  63   2.0000     -10.272482      -279.5284
  64   2.0000     -10.271876      -279.5120
  65   2.0000      -8.098001      -220.3578
  66   2.0000      -8.089351      -220.1224
  67   2.0000      -8.089173      -220.1176
  68   2.0000      -8.088419      -220.0971
  69   2.0000      -8.084110      -219.9798
  70   2.0000      -8.057238      -219.2486
  71   2.0000      -8.056608      -219.2315
  72   2.0000      -6.067110      -165.0945
  73   2.0000      -6.062947      -164.9812
  74   2.0000      -6.060627      -164.9180
  75   2.0000      -6.058663      -164.8646
  76   2.0000      -6.058461      -164.8591
  77   2.0000      -6.057652      -164.8371
  78   2.0000      -6.054505      -164.7515
  79   2.0000      -6.054319      -164.7464
  80   2.0000      -6.053499      -164.7241
  81   2.0000      -6.053405      -164.7215
  82   2.0000      -6.051554      -164.6712
  83   2.0000      -6.051393      -164.6668
  84   2.0000      -6.050817      -164.6511
  85   2.0000      -6.049100      -164.6044
  86   2.0000      -6.046496      -164.5335
  87   2.0000      -6.026608      -163.9923
  88   2.0000      -6.025975      -163.9751
  89   2.0000      -6.022821      -163.8893
  90   2.0000      -6.022231      -163.8732
  91   2.0000      -6.018666      -163.7762
  92   2.0000      -6.017995      -163.7580
  93   2.0000      -1.142606       -31.0919
  94   2.0000      -1.137795       -30.9610
  95   2.0000      -1.101925       -29.9849
  96   2.0000      -1.070621       -29.1331
  97   2.0000      -1.068774       -29.0828
  98   2.0000      -1.045662       -28.4539
  99   2.0000      -1.045149       -28.4399
 100   2.0000      -1.028995       -28.0004
 101   2.0000      -1.021055       -27.7843
 102   2.0000      -1.018988       -27.7281
 103   2.0000      -1.015177       -27.6244
 104   2.0000      -1.003971       -27.3194
 105   2.0000      -1.002912       -27.2906
 106   2.0000      -0.999363       -27.1941
 107   2.0000      -0.990536       -26.9539
 108   2.0000      -0.961054       -26.1516
 109   2.0000      -0.957089       -26.0437
 110   2.0000      -0.945293       -25.7227
 111   2.0000      -0.945276       -25.7223
 112   2.0000      -0.937961       -25.5232
 113   2.0000      -0.919748       -25.0276
 114   2.0000      -0.911647       -24.8072
 115   2.0000      -0.898309       -24.4442
 116   2.0000      -0.896728       -24.4012
 117   2.0000      -0.881122       -23.9766
 118   2.0000      -0.877879       -23.8883
 119   2.0000      -0.870156       -23.6782
 120   2.0000      -0.868202       -23.6250
 121   2.0000      -0.857376       -23.3304
 122   2.0000      -0.855634       -23.2830
 123   2.0000      -0.848772       -23.0963
 124   2.0000      -0.837769       -22.7968
 125   2.0000      -0.826490       -22.4899
 126   2.0000      -0.824653       -22.4399
 127   2.0000      -0.804897       -21.9024
 128   2.0000      -0.800962       -21.7953
 129   2.0000      -0.793538       -21.5933
 130   2.0000      -0.781484       -21.2653
 131   2.0000      -0.777180       -21.1482
 132   2.0000      -0.776021       -21.1166
 133   2.0000      -0.758599       -20.6425
 134   2.0000      -0.750111       -20.4116
 135   2.0000      -0.723886       -19.6979
 136   2.0000      -0.710588       -19.3361
 137   2.0000      -0.697961       -18.9925
 138   2.0000      -0.695638       -18.9293
 139   2.0000      -0.691730       -18.8229
 140   2.0000      -0.687745       -18.7145
 141   2.0000      -0.685021       -18.6404
 142   2.0000      -0.682491       -18.5715
 143   2.0000      -0.679243       -18.4832
 144   2.0000      -0.677573       -18.4377
 145   2.0000      -0.673754       -18.3338
 146   2.0000      -0.666424       -18.1343
 147   2.0000      -0.659706       -17.9515
 148   2.0000      -0.638937       -17.3864
 149   2.0000      -0.631862       -17.1938
 150   2.0000      -0.630229       -17.1494
 151   2.0000      -0.623767       -16.9736
 152   2.0000      -0.622316       -16.9341
 153   2.0000      -0.615162       -16.7394
 154   2.0000      -0.612535       -16.6679
 155   2.0000      -0.610687       -16.6177
 156   2.0000      -0.597922       -16.2703
 157   2.0000      -0.582925       -15.8622
 158   2.0000      -0.577707       -15.7202
 159   2.0000      -0.576581       -15.6896
 160   2.0000      -0.574840       -15.6422
 161   2.0000      -0.572153       -15.5691
 162   2.0000      -0.570430       -15.5222
 163   2.0000      -0.568096       -15.4587
 164   2.0000      -0.558892       -15.2082
 165   2.0000      -0.555374       -15.1125
 166   2.0000      -0.552753       -15.0412
 167   2.0000      -0.548728       -14.9317
 168   2.0000      -0.548437       -14.9237
 169   2.0000      -0.541645       -14.7389
 170   2.0000      -0.530006       -14.4222
 171   2.0000      -0.526351       -14.3227
 172   2.0000      -0.525345       -14.2954
 173   2.0000      -0.524087       -14.2611
 174   2.0000      -0.521533       -14.1916
 175   2.0000      -0.520957       -14.1760
 176   2.0000      -0.520215       -14.1558
 177   2.0000      -0.516874       -14.0649
 178   2.0000      -0.511692       -13.9238
 179   2.0000      -0.505976       -13.7683
 180   2.0000      -0.504391       -13.7252
 181   2.0000      -0.503517       -13.7014
 182   2.0000      -0.499906       -13.6031
 183   2.0000      -0.497192       -13.5293
 184   2.0000      -0.495577       -13.4853
 185   2.0000      -0.495176       -13.4744
 186   2.0000      -0.492984       -13.4148
 187   2.0000      -0.489850       -13.3295
 188   2.0000      -0.486847       -13.2478
 189   2.0000      -0.482664       -13.1339
 190   2.0000      -0.481581       -13.1045
 191   2.0000      -0.480057       -13.0630
 192   2.0000      -0.478555       -13.0221
 193   2.0000      -0.477606       -12.9963
 194   2.0000      -0.472323       -12.8526
 195   2.0000      -0.468600       -12.7513
 196   2.0000      -0.459129       -12.4935
 197   2.0000      -0.458072       -12.4648
 198   2.0000      -0.456956       -12.4344
 199   2.0000      -0.455106       -12.3841
 200   2.0000      -0.453520       -12.3409
 201   2.0000      -0.452805       -12.3215
 202   2.0000      -0.449234       -12.2243
 203   2.0000      -0.448064       -12.1924
 204   2.0000      -0.444752       -12.1023
 205   2.0000      -0.443137       -12.0584
 206   2.0000      -0.441612       -12.0169
 207   2.0000      -0.437589       -11.9074
 208   2.0000      -0.436989       -11.8911
 209   2.0000      -0.436008       -11.8644
 210   2.0000      -0.435708       -11.8562
 211   2.0000      -0.434540       -11.8244
 212   2.0000      -0.432847       -11.7784
 213   2.0000      -0.432061       -11.7570
 214   2.0000      -0.423015       -11.5108
 215   2.0000      -0.421907       -11.4807
 216   2.0000      -0.415164       -11.2972
 217   2.0000      -0.414516       -11.2796
 218   2.0000      -0.409781       -11.1507
 219   2.0000      -0.408443       -11.1143
 220   2.0000      -0.406533       -11.0623
 221   2.0000      -0.388062       -10.5597
 222   2.0000      -0.381299       -10.3757
 223   2.0000      -0.380982       -10.3670
 224   2.0000      -0.374223       -10.1831
 225   2.0000      -0.371157       -10.0997
 226   2.0000      -0.362724        -9.8702
 227   2.0000      -0.355225        -9.6662
 228   2.0000      -0.354094        -9.6354
 229   2.0000      -0.351782        -9.5725
 230   2.0000      -0.351415        -9.5625
 231   2.0000      -0.348000        -9.4696
 232   2.0000      -0.344085        -9.3630
 233   2.0000      -0.342115        -9.3094
 234   2.0000      -0.336384        -9.1535
 235   2.0000      -0.323229        -8.7955
 236   2.0000      -0.322677        -8.7805
 237   2.0000      -0.318816        -8.6754
 238   2.0000      -0.301635        -8.2079
 239   2.0000      -0.301370        -8.2007
 240   2.0000      -0.293197        -7.9783
 241   2.0000      -0.269707        -7.3391
 242   2.0000      -0.236011        -6.4222
 243   0.0000      -0.116800        -3.1783
 244   0.0000      -0.103010        -2.8030
 245   0.0000      -0.090371        -2.4591
 246   0.0000      -0.084047        -2.2870
 247   0.0000      -0.044918        -1.2223

MULLIKEN ATOMIC CHARGES
-----------------------
   0 C :   -0.025060
   1 C :    0.069014
   2 C :   -0.011025
   3 C :   -0.049429
   4 C :    0.033466
   5 C :    0.022721
   6 S :    0.084190
   7 C :   -0.112232
   8 N :   -0.024127
   9 C :   -0.026435
  10 C :   -0.039532
  11 C :    0.013266
  12 C :   -0.094859
  13 S :    0.196319
  14 C :   -0.094340
  15 C :    0.030736
  16 C :    0.297978
  17 C :   -0.292898
  18 C :   -0.196442
  19 N :    0.198840
  20 C :   -0.194019
  21 N :    0.183194
  22 C :   -0.058103
  23 C :   -0.089862
  24 S :    0.174005
  25 C :   -0.113491
  26 C :    0.023512
  27 C :    0.028886
  28 N :    0.065054
  29 C :   -0.111847
  30 C :    0.133920
  31 O :   -0.095229
  32 C :   -0.010782
  33 C :   -0.018445
  34 C :    0.139700
  35 O :   -0.095887
  36 C :   -0.114327
  37 N :    0.064186
  38 C :   -0.119357
  39 S :    0.194477
  40 C :   -0.091734
  41 C :   -0.056469
  42 C :    0.027667
  43 C :   -0.098038
  44 S :    0.176576
  45 C :   -0.100985
  46 C :    0.007487
  47 C :    0.299141
  48 C :   -0.293642
  49 C :   -0.192936
  50 N :    0.176386
  51 C :   -0.196122
  52 N :    0.198888
  53 C :   -0.044446
  54 C :   -0.046882
  55 S :    0.246159
  56 C :   -0.102877
  57 N :   -0.049545
  58 C :    0.066874
  59 C :   -0.022363
  60 C :    0.020108
  61 C :    0.031190
  62 C :   -0.047857
  63 C :   -0.010328
  64 S :    0.102567
  65 H :   -0.017096
  66 H :   -0.018437
  67 H :   -0.009784
  68 H :   -0.010151
  69 H :    0.023114
  70 H :    0.029817
  71 H :    0.021897
  72 H :    0.022624
  73 H :    0.030732
  74 H :    0.018499
  75 H :   -0.021892
  76 H :   -0.010162
  77 H :   -0.008118
  78 H :   -0.015596
Sum of atomic charges:   -0.0000000

LOEWDIN ATOMIC CHARGES
----------------------
   0 C :   -0.015811
   1 C :   -0.031930
   2 C :   -0.168033
   3 C :   -0.041374
   4 C :   -0.022705
   5 C :   -0.024955
   6 S :    0.360341
   7 C :   -0.127821
   8 N :   -0.090999
   9 C :   -0.199190
  10 C :    0.002704
  11 C :   -0.067085
  12 C :   -0.177844
  13 S :    0.476478
  14 C :   -0.179989
  15 C :   -0.062928
  16 C :    0.075303
  17 C :   -0.089734
  18 C :   -0.023644
  19 N :   -0.012761
  20 C :   -0.017585
  21 N :   -0.025038
  22 C :   -0.007610
  23 C :   -0.183351
  24 S :    0.458470
  25 C :   -0.191654
  26 C :   -0.043789
  27 C :   -0.043738
  28 N :    0.007640
  29 C :   -0.037981
  30 C :    0.054848
  31 O :   -0.090806
  32 C :   -0.012226
  33 C :   -0.012431
  34 C :    0.055054
  35 O :   -0.090525
  36 C :   -0.038000
  37 N :    0.007689
  38 C :   -0.191913
  39 S :    0.486065
  40 C :   -0.183396
  41 C :   -0.007852
  42 C :   -0.063126
  43 C :   -0.179804
  44 S :    0.460735
  45 C :   -0.176856
  46 C :   -0.070691
  47 C :    0.077104
  48 C :   -0.093739
  49 C :   -0.015670
  50 N :   -0.031274
  51 C :   -0.023925
  52 N :   -0.013933
  53 C :   -0.021500
  54 C :   -0.196376
  55 S :    0.512464
  56 C :   -0.128794
  57 N :   -0.107738
  58 C :   -0.033117
  59 C :   -0.018333
  60 C :   -0.026021
  61 C :   -0.022682
  62 C :   -0.039864
  63 C :   -0.167519
  64 S :    0.384444
  65 H :    0.036712
  66 H :    0.030599
  67 H :    0.030031
  68 H :    0.030350
  69 H :    0.048880
  70 H :    0.045138
  71 H :    0.046581
  72 H :    0.046728
  73 H :    0.045162
  74 H :    0.039343
  75 H :    0.034630
  76 H :    0.030105
  77 H :    0.030445
  78 H :    0.031614

  Mayer bond orders larger than 0.100000
B(  0-C ,  1-C ) :   1.3290 B(  0-C ,  5-C ) :   1.4029 B(  0-C , 65-H ) :   1.0068
B(  1-C ,  2-C ) :   1.3030 B(  1-C ,  8-N ) :   1.2844 B(  2-C ,  3-C ) :   1.3547
B(  2-C ,  6-S ) :   1.0502 B(  3-C ,  4-C ) :   1.4228 B(  3-C , 66-H ) :   1.0025
B(  4-C ,  5-C ) :   1.3407 B(  4-C , 67-H ) :   0.9900 B(  5-C , 68-H ) :   0.9883
B(  6-S ,  7-C ) :   1.0601 B(  6-S ,  8-N ) :   0.1076 B(  7-C ,  8-N ) :   1.8134
B(  7-C ,  9-C ) :   1.0641 B(  9-C , 10-C ) :   1.4783 B(  9-C , 13-S ) :   1.1019
B( 10-C , 11-C ) :   1.2666 B( 10-C , 69-H ) :   1.0114 B( 11-C , 12-C ) :   1.4248
B( 11-C , 16-C ) :   0.9912 B( 12-C , 13-S ) :   1.1329 B( 12-C , 14-C ) :   1.2045
B( 14-C , 15-C ) :   1.4260 B( 14-C , 24-S ) :   1.1200 B( 15-C , 16-C ) :   0.9876
B( 15-C , 22-C ) :   1.2712 B( 16-C , 17-C ) :   1.7235 B( 17-C , 18-C ) :   1.1324
B( 17-C , 20-C ) :   1.1354 B( 18-C , 19-N ) :   3.0036 B( 20-C , 21-N ) :   2.9988
B( 22-C , 23-C ) :   1.4563 B( 22-C , 70-H ) :   0.9891 B( 23-C , 24-S ) :   1.0803
B( 23-C , 25-C ) :   1.1865 B( 25-C , 26-C ) :   1.3714 B( 25-C , 38-C ) :   0.1529
B( 25-C , 39-S ) :   1.1499 B( 26-C , 27-C ) :   1.1866 B( 26-C , 37-N ) :   1.4402
B( 27-C , 28-N ) :   1.4395 B( 27-C , 38-C ) :   1.3702 B( 28-N , 29-C ) :   1.7152
B( 29-C , 30-C ) :   0.8897 B( 29-C , 36-C ) :   1.0899 B( 30-C , 31-O ) :   2.2457
B( 30-C , 32-C ) :   1.0233 B( 32-C , 33-C ) :   1.6943 B( 32-C , 71-H ) :   0.9940
B( 33-C , 34-C ) :   1.0214 B( 33-C , 72-H ) :   0.9949 B( 34-C , 35-O ) :   2.2440
B( 34-C , 36-C ) :   0.8893 B( 36-C , 37-N ) :   1.7152 B( 38-C , 39-S ) :   1.1514
B( 38-C , 40-C ) :   1.1870 B( 40-C , 41-C ) :   1.4564 B( 40-C , 44-S ) :   1.0821
B( 41-C , 42-C ) :   1.2738 B( 41-C , 73-H ) :   0.9884 B( 42-C , 43-C ) :   1.4271
B( 42-C , 47-C ) :   0.9868 B( 43-C , 44-S ) :   1.1217 B( 43-C , 45-C ) :   1.2024
B( 45-C , 46-C ) :   1.4280 B( 45-C , 55-S ) :   1.1266 B( 46-C , 47-C ) :   1.0009
B( 46-C , 53-C ) :   1.3064 B( 47-C , 48-C ) :   1.7179 B( 48-C , 49-C ) :   1.1361
B( 48-C , 51-C ) :   1.1323 B( 49-C , 50-N ) :   2.9941 B( 51-C , 52-N ) :   3.0049
B( 53-C , 54-C ) :   1.4770 B( 53-C , 74-H ) :   0.9840 B( 54-C , 55-S ) :   1.1040
B( 54-C , 56-C ) :   1.1010 B( 56-C , 57-N ) :   1.8004 B( 56-C , 64-S ) :   1.0767
B( 57-N , 58-C ) :   1.2851 B( 57-N , 64-S ) :   0.1048 B( 58-C , 59-C ) :   1.3332
B( 58-C , 63-C ) :   1.3068 B( 59-C , 60-C ) :   1.4030 B( 59-C , 75-H ) :   1.0055
B( 60-C , 61-C ) :   1.3407 B( 60-C , 76-H ) :   0.9880 B( 61-C , 62-C ) :   1.4249
B( 61-C , 77-H ) :   0.9899 B( 62-C , 63-C ) :   1.3564 B( 62-C , 78-H ) :   1.0015
B( 63-C , 64-S ) :   1.0480

-----------------------------------------------------------------------------
         ABSORPTION SPECTRUM VIA TRANSITION ELECTRIC DIPOLE MOMENTS
-----------------------------------------------------------------------------
State   Energy  Wavelength   fosc         T2         TX        TY        TZ
        (cm-1)    (nm)                  (au**2)     (au)      (au)      (au)
-----------------------------------------------------------------------------
   0   10477.2    954.5   0.713455258  22.41794   4.01418   1.53787  -1.98475
   1   12410.4    805.8   0.049566000   1.31484  -0.05416  -0.89019  -0.72074
   2   14467.5    691.2   0.166189137   3.78168  -1.65045  -0.60397   0.83241
   3   18084.1    553.0   0.150565028   2.74096   0.11398   1.20329   1.13140
   4   19589.2    510.5   0.069627930   1.17015   0.05305   0.84511   0.67314
   5   21897.5    456.7   0.042332691   0.63644   0.67841   0.21537  -0.36029
   6   24766.1    403.8   0.003702383   0.04922  -0.09008   0.04194  -0.19835
   7   25047.5    399.2   0.142313294   1.87049  -0.00857   1.00999   0.92214
   8   25405.6    393.6   1.374268223  17.80809  -3.57952  -1.36102   1.77278
   9   25933.9    385.6   0.011219117   0.14242   0.31845   0.12320  -0.16071
  10   26702.4    374.5   0.002098671   0.02587   0.08600  -0.13019   0.03909
  11   27257.5    366.9   0.304260889   3.67482  -1.62545  -0.54532   0.85752
  12   27956.8    357.7   0.061810717   0.72787   0.69539   0.08835  -0.48630
  13   28172.6    355.0   0.003434759   0.04014  -0.14479   0.06384   0.12287
  14   28558.4    350.2   0.008849719   0.10202   0.12830   0.27935   0.08670
  15   28570.6    350.0   0.597855438   6.88895  -0.06726  -2.20729  -1.41856
  16   29061.4    344.1   0.101254592   1.14703   0.10587   0.88753   0.59001
  17   29942.1    334.0   0.092472595   1.01673  -0.51148  -0.86779  -0.04544
  18   30061.2    332.7   0.133167437   1.45837  -0.58763   0.80442   0.68262
  19   30690.3    325.8   0.001551285   0.01664  -0.10804  -0.04952   0.05016
  20   31170.9    320.8   0.208070614   2.19754   1.24650   0.54274  -0.59094
  21   31551.5    316.9   0.160740656   1.67719  -0.13824   1.13516   0.60786
  22   31702.5    315.4   0.092421125   0.95974   0.07577  -0.81793  -0.53384
  23   32132.1    311.2   0.001839051   0.01884  -0.11744  -0.06861   0.01850
  24   32811.9    304.8   0.065644060   0.65863  -0.53242   0.25091   0.55875
  25   33161.7    301.6   0.766245576   7.60689   0.04269  -2.26855  -1.56803
  26   33526.7    298.3   0.181087013   1.77816   0.22811  -1.23923  -0.43638
  27   33773.0    296.1   0.001157420   0.01128   0.09059   0.03105  -0.04595
  28   34046.4    293.7   0.033953131   0.32831  -0.49238  -0.15551   0.24837
  29   34173.3    292.6   0.025571673   0.24635   0.05114   0.43219   0.23863
  30   34377.1    290.9   0.001513129   0.01449  -0.08246  -0.08535   0.02013
  31   34473.4    290.1   0.009473072   0.09047  -0.14930  -0.24506   0.09010
  32   34531.6    289.6   0.011101983   0.10584  -0.15119   0.23885   0.16105
  33   35306.3    283.2   0.007344093   0.06848  -0.14093  -0.03322   0.21798
  34   35385.6    282.6   0.238162299   2.21576   1.26872   0.47415  -0.61748
  35   35404.5    282.4   0.007568255   0.07037  -0.01893   0.24932   0.08863
  36   35499.4    281.7   0.005197236   0.04820  -0.21157  -0.03964   0.04317
  37   35904.6    278.5   0.020146896   0.18473   0.36180   0.14755  -0.17904
  38   36181.4    276.4   0.002257127   0.02054   0.13262   0.05423   0.00290
  39   36993.6    270.3   0.100483332   0.89422  -0.30940   0.53938   0.71243
  40   37091.1    269.6   0.122045696   1.08325   0.77294   0.00109  -0.69700
  41   37129.5    269.3   0.179330612   1.59005  -0.49859  -1.03667  -0.51650
  42   37225.3    268.6   0.177326028   1.56823  -1.02248  -0.66535   0.28296
  43   37513.2    266.6   0.090852525   0.79731  -0.69375   0.03478   0.56108
  44   37662.1    265.5   0.149434304   1.30624  -0.16955   0.85051   0.74440
  45   37961.3    263.4   0.008383139   0.07270   0.14315   0.22507   0.03940
  46   38147.5    262.1   0.014327554   0.12365   0.31301  -0.00201  -0.16021
  47   38304.6    261.1   0.004291723   0.03689   0.12525  -0.05800  -0.13354
  48   38369.3    260.6   0.001162990   0.00998  -0.02386  -0.09327  -0.02666
  49   38407.2    260.4   0.004666567   0.04000   0.01325  -0.17609  -0.09390
  50   38582.2    259.2   0.011110028   0.09480  -0.16814   0.18092   0.18383
  51   38776.6    257.9   0.016381497   0.13908   0.23557   0.28607  -0.04177
  52   39203.6    255.1   0.002328620   0.01955   0.11216   0.02406  -0.07997
  53   39631.4    252.3   0.028950913   0.24049   0.10664   0.39677   0.26775
  54   39738.7    251.6   0.003636649   0.03013   0.10928  -0.04707  -0.12637
  55   39932.4    250.4   0.050143377   0.41339   0.35619   0.51509   0.14561
  56   39955.1    250.3   0.001931590   0.01592   0.06828  -0.08904  -0.05767
  57   40005.7    250.0   0.033818260   0.27829   0.19866  -0.22682  -0.43288
  58   40183.9    248.9   0.033750951   0.27651  -0.11255   0.42103   0.29424
  59   40240.1    248.5   0.103395527   0.84590   0.18596  -0.67630  -0.59492

FINAL SINGLE POINT ENERGY     -5209.342658118047

DIPOLE MOMENT
-------------
                                X             Y             Z
Electronic contribution:     -2.70966     -13.35941      -7.49119
Nuclear contribution   :      2.19072      16.19009       9.45633
                        -----------------------------------------
Total Dipole Moment    :     -0.51894       2.83067       1.96515
                        -----------------------------------------
Magnitude (a.u.)       :      3.48480
Magnitude (Debye)      :      8.85766

Rotational constants in cm-1:     0.001441     0.000313     0.000258
Rotational constants in MHz :    43.193175     9.381146     7.732505

                             ****ORCA TERMINATED NORMALLY****
TOTAL RUN TIME: 0 days 0 hours 6 minutes 52 seconds 662 msec
