                         Program Version 4.2.0 -  RELEASE  -
|  1> # ORCA input file
|  2> # SCF done       -158.543930685069          0.000274536152
|  3> ! CAM-B3LYP def2-SVP def2/J RIJCOSX Grid4 TightSCF
|  4> %maxcore 5000
|  5> %tddft
|  6>     Mode sTDDFT
|  7>     Ethresh 5.0
|  8>     maxcore 5000
|  9> end
| 10>
| 11> %pal
| 12>   nprocs 6
| 13>   end
| 14> * xyz 0 1
| 15>    C       -2.24430         2.20616         1.54093
| 16>    C       -3.39303         1.58953         1.04416
| 17>    C       -4.10966         2.19744        -0.01890
| 18>    C       -3.69034         3.39547        -0.57314
| 19>    C       -2.55093         3.98490        -0.06327
| 20>    C       -1.83652         3.39554         0.98176
| 21>    S       -5.47982         1.22381        -0.43644
| 22>    C       -4.97993         0.08284         0.84723
| 23>    N       -3.91874         0.42521         1.48400
| 24>    C       -5.73568        -1.09441         1.08650
| 25>    C       -6.94321        -1.49664         0.36897
| 26>    N       -7.44408        -2.63352         0.76214
| 27>    C       -6.62412        -3.06739         1.75937
| 28>    C       -5.53667        -2.10869         1.99713
| 29>    C       -4.66284        -2.59601         3.03676
| 30>    S       -3.28577        -1.87285         3.57042
| 31>    C       -5.24285        -3.85567         3.43489
| 32>    C       -6.44075        -4.12236         2.61788
| 33>    N       -6.98028        -5.33381         2.92777
| 34>    C       -6.19380        -5.84132         3.83264
| 35>    C       -5.07049        -4.98151         4.21534
| 36>    C       -4.09356        -5.32163         5.21045
| 37>    C       -3.81133        -6.64813         5.48138
| 38>    C       -2.82916        -6.96948         6.43048
| 39>    C       -2.35111        -8.20790         6.85812
| 40>    C       -2.82009        -9.53539         6.38453
| 41>    C       -1.66766       -10.47801         5.98528
| 42>    N       -2.09697       -11.30005         4.87081
| 43>    C       -3.73560       -10.19315         7.44104
| 44>    N       -4.94883        -9.41542         7.58028
| 45>    C       -1.36733        -7.93889         7.88266
| 46>    C       -0.62800        -8.75807         8.65466
| 47>    C        0.30443        -8.23383         9.68808
| 48>    C        0.39474        -6.73886         9.74975
| 49>    C       -0.35855        -5.93264         8.97880
| 50>    C       -1.25905        -6.48068         8.03611
| 51>    C       -2.14740        -5.90347         7.14723
| 52>    C       -2.47079        -4.55844         6.86180
| 53>    C       -3.40856        -4.28339         5.91864
| 54>    C       -0.07953        -8.70766        11.07087
| 55>    C       -1.31698        -9.10138        11.38661
| 56>    C       -1.74192        -9.55744        12.67342
| 57>    C       -1.01604        -9.56322        13.94286
| 58>    N       -1.68235       -10.07314        14.94280
| 59>    C       -2.88746       -10.44791        14.42675
| 60>    C       -2.95334       -10.12322        12.99525
| 61>    C       -4.21636       -10.53702        12.44461
| 62>    S       -4.70698       -10.37581        10.88356
| 63>    C       -4.91571       -11.12209        13.55991
| 64>    C       -4.07304       -11.04828        14.77119
| 65>    N       -4.70933       -11.60786        15.83690
| 66>    C       -5.85655       -12.02272        15.38290
| 67>    C       -6.06774       -11.76152        13.95585
| 68>    C       -7.24202       -12.14776        13.25843
| 69>    N       -8.21860       -12.78295        13.81434
| 70>    C       -9.22240       -13.04967        12.95009
| 71>    C      -10.40677       -13.72483        13.25315
| 72>    C      -11.33290       -13.91847        12.25500
| 73>    C      -11.10608       -13.45286        10.95731
| 74>    C       -9.94459       -12.78360        10.63152
| 75>    C       -9.00324       -12.58299        11.62858
| 76>    S       -7.46722       -11.79231        11.52987
| 77>    H       -1.70609         1.73560         2.34766
| 78>    H       -4.24248         3.84960        -1.38109
| 79>    H       -2.20595         4.91841        -0.48152
| 80>    H       -0.94918         3.88494         1.35408
| 81>    H       -7.40860        -0.92913        -0.41824
| 82>    H       -6.41775        -6.79991         4.26747
| 83>    H       -4.31573        -7.43833         4.94780
| 84>    H       -3.42634        -9.38547         5.48734
| 85>    H       -1.34676       -11.06670         6.86118
| 86>    H       -0.81436        -9.88462         5.64407
| 87>    H       -2.86469       -11.90303         5.14535
| 88>    H       -1.34020       -11.88489         4.53635
| 89>    H       -3.17537       -10.30764         8.38333
| 90>    H       -4.02212       -11.18982         7.09462
| 91>    H       -4.74079        -8.51182         7.99359
| 92>    H       -5.60207        -9.88909         8.19378
| 93>    H       -0.69054        -9.83367         8.57600
| 94>    H        1.30583        -8.63863         9.47234
| 95>    H        1.08228        -6.33558        10.47729
| 96>    H       -0.27962        -4.85875         9.06390
| 97>    H       -1.97286        -3.76212         7.39400
| 98>    H       -3.66555        -3.26201         5.69018
| 99>    H        0.70266        -8.67029        11.81503
|100>    H       -2.08648        -9.12068        10.62498
|101>    H       -0.02187        -9.18277        14.09865
|102>    H       -6.57318       -12.51089        16.01785
|103>    H      -10.56812       -14.07850        14.25866
|104>    H      -12.25301       -14.43917        12.47339
|105>    H      -11.85294       -13.62044        10.19611
|106>    H       -9.76676       -12.42298         9.63040
|107> *
|108>
|109>                          ****END OF INPUT****

CARTESIAN COORDINATES (ANGSTROEM)
---------------------------------
  C     -2.244300    2.206160    1.540930
  C     -3.393030    1.589530    1.044160
  C     -4.109660    2.197440   -0.018900
  C     -3.690340    3.395470   -0.573140
  C     -2.550930    3.984900   -0.063270
  C     -1.836520    3.395540    0.981760
  S     -5.479820    1.223810   -0.436440
  C     -4.979930    0.082840    0.847230
  N     -3.918740    0.425210    1.484000
  C     -5.735680   -1.094410    1.086500
  C     -6.943210   -1.496640    0.368970
  N     -7.444080   -2.633520    0.762140
  C     -6.624120   -3.067390    1.759370
  C     -5.536670   -2.108690    1.997130
  C     -4.662840   -2.596010    3.036760
  S     -3.285770   -1.872850    3.570420
  C     -5.242850   -3.855670    3.434890
  C     -6.440750   -4.122360    2.617880
  N     -6.980280   -5.333810    2.927770
  C     -6.193800   -5.841320    3.832640
  C     -5.070490   -4.981510    4.215340
  C     -4.093560   -5.321630    5.210450
  C     -3.811330   -6.648130    5.481380
  C     -2.829160   -6.969480    6.430480
  C     -2.351110   -8.207900    6.858120
  C     -2.820090   -9.535390    6.384530
  C     -1.667660  -10.478010    5.985280
  N     -2.096970  -11.300050    4.870810
  C     -3.735600  -10.193150    7.441040
  N     -4.948830   -9.415420    7.580280
  C     -1.367330   -7.938890    7.882660
  C     -0.628000   -8.758070    8.654660
  C      0.304430   -8.233830    9.688080
  C      0.394740   -6.738860    9.749750
  C     -0.358550   -5.932640    8.978800
  C     -1.259050   -6.480680    8.036110
  C     -2.147400   -5.903470    7.147230
  C     -2.470790   -4.558440    6.861800
  C     -3.408560   -4.283390    5.918640
  C     -0.079530   -8.707660   11.070870
  C     -1.316980   -9.101380   11.386610
  C     -1.741920   -9.557440   12.673420
  C     -1.016040   -9.563220   13.942860
  N     -1.682350  -10.073140   14.942800
  C     -2.887460  -10.447910   14.426750
  C     -2.953340  -10.123220   12.995250
  C     -4.216360  -10.537020   12.444610
  S     -4.706980  -10.375810   10.883560
  C     -4.915710  -11.122090   13.559910
  C     -4.073040  -11.048280   14.771190
  N     -4.709330  -11.607860   15.836900
  C     -5.856550  -12.022720   15.382900
  C     -6.067740  -11.761520   13.955850
  C     -7.242020  -12.147760   13.258430
  N     -8.218600  -12.782950   13.814340
  C     -9.222400  -13.049670   12.950090
  C    -10.406770  -13.724830   13.253150
  C    -11.332900  -13.918470   12.255000
  C    -11.106080  -13.452860   10.957310
  C     -9.944590  -12.783600   10.631520
  C     -9.003240  -12.582990   11.628580
  S     -7.467220  -11.792310   11.529870
  H     -1.706090    1.735600    2.347660
  H     -4.242480    3.849600   -1.381090
  H     -2.205950    4.918410   -0.481520
  H     -0.949180    3.884940    1.354080
  H     -7.408600   -0.929130   -0.418240
  H     -6.417750   -6.799910    4.267470
  H     -4.315730   -7.438330    4.947800
  H     -3.426340   -9.385470    5.487340
  H     -1.346760  -11.066700    6.861180
  H     -0.814360   -9.884620    5.644070
  H     -2.864690  -11.903030    5.145350
  H     -1.340200  -11.884890    4.536350
  H     -3.175370  -10.307640    8.383330
  H     -4.022120  -11.189820    7.094620
  H     -4.740790   -8.511820    7.993590
  H     -5.602070   -9.889090    8.193780
  H     -0.690540   -9.833670    8.576000
  H      1.305830   -8.638630    9.472340
  H      1.082280   -6.335580   10.477290
  H     -0.279620   -4.858750    9.063900
  H     -1.972860   -3.762120    7.394000
  H     -3.665550   -3.262010    5.690180
  H      0.702660   -8.670290   11.815030
  H     -2.086480   -9.120680   10.624980
  H     -0.021870   -9.182770   14.098650
  H     -6.573180  -12.510890   16.017850
  H    -10.568120  -14.078500   14.258660
  H    -12.253010  -14.439170   12.473390
  H    -11.852940  -13.620440   10.196110
  H     -9.766760  -12.422980    9.630400

 Total Charge           Charge          ....    0
 Multiplicity           Mult            ....    1
 Number of Electrons    NEL             ....  450
 Basis Dimension        Dim             .... 1034

ORBITAL ENERGIES
----------------

  NO   OCC          E(Eh)            E(eV)
   0   2.0000     -88.958710     -2420.6896
   1   2.0000     -88.952215     -2420.5128
   2   2.0000     -88.910659     -2419.3820
   3   2.0000     -88.883879     -2418.6533
   4   2.0000     -14.422794      -392.4642
   5   2.0000     -14.420668      -392.4063
   6   2.0000     -14.416245      -392.2860
   7   2.0000     -14.406938      -392.0327
   8   2.0000     -14.406184      -392.0122
   9   2.0000     -14.399834      -391.8394
  10   2.0000     -14.377670      -391.2363
  11   2.0000     -14.374098      -391.1391
  12   2.0000     -10.351877      -281.6889
  13   2.0000     -10.349087      -281.6130
  14   2.0000     -10.342223      -281.4262
  15   2.0000     -10.338581      -281.3271
  16   2.0000     -10.338316      -281.3199
  17   2.0000     -10.337999      -281.3112
  18   2.0000     -10.336645      -281.2744
  19   2.0000     -10.329382      -281.0768
  20   2.0000     -10.327417      -281.0233
  21   2.0000     -10.326253      -280.9916
  22   2.0000     -10.324517      -280.9444
  23   2.0000     -10.318676      -280.7854
  24   2.0000     -10.316022      -280.7132
  25   2.0000     -10.310593      -280.5655
  26   2.0000     -10.308197      -280.5003
  27   2.0000     -10.305886      -280.4374
  28   2.0000     -10.304979      -280.4127
  29   2.0000     -10.303834      -280.3816
  30   2.0000     -10.302474      -280.3446
  31   2.0000     -10.301760      -280.3251
  32   2.0000     -10.298159      -280.2271
  33   2.0000     -10.297975      -280.2222
  34   2.0000     -10.297268      -280.2029
  35   2.0000     -10.297192      -280.2008
  36   2.0000     -10.296211      -280.1741
  37   2.0000     -10.291332      -280.0414
  38   2.0000     -10.289166      -279.9825
  39   2.0000     -10.283305      -279.8230
  40   2.0000     -10.283166      -279.8192
  41   2.0000     -10.282222      -279.7935
  42   2.0000     -10.281690      -279.7790
  43   2.0000     -10.280138      -279.7368
  44   2.0000     -10.278035      -279.6795
  45   2.0000     -10.278023      -279.6792
  46   2.0000     -10.275997      -279.6241
  47   2.0000     -10.275939      -279.6225
  48   2.0000     -10.275255      -279.6039
  49   2.0000     -10.274335      -279.5789
  50   2.0000     -10.273842      -279.5654
  51   2.0000     -10.272993      -279.5423
  52   2.0000     -10.270778      -279.4821
  53   2.0000     -10.267308      -279.3877
  54   2.0000     -10.266828      -279.3746
  55   2.0000     -10.266062      -279.3538
  56   2.0000     -10.265374      -279.3350
  57   2.0000     -10.263108      -279.2734
  58   2.0000     -10.262477      -279.2562
  59   2.0000     -10.261518      -279.2301
  60   2.0000     -10.260133      -279.1924
  61   2.0000     -10.258422      -279.1459
  62   2.0000      -8.054071      -219.1624
  63   2.0000      -8.048300      -219.0054
  64   2.0000      -8.005977      -217.8537
  65   2.0000      -7.979685      -217.1383
  66   2.0000      -6.023362      -163.9040
  67   2.0000      -6.019393      -163.7960
  68   2.0000      -6.017542      -163.7456
  69   2.0000      -6.015733      -163.6964
  70   2.0000      -6.013864      -163.6456
  71   2.0000      -6.009917      -163.5382
  72   2.0000      -5.974639      -162.5782
  73   2.0000      -5.974344      -162.5702
  74   2.0000      -5.965576      -162.3316
  75   2.0000      -5.948892      -161.8776
  76   2.0000      -5.948409      -161.8644
  77   2.0000      -5.938289      -161.5891
  78   2.0000      -1.090833       -29.6831
  79   2.0000      -1.076016       -29.2799
  80   2.0000      -1.074005       -29.2252
  81   2.0000      -1.066074       -29.0094
  82   2.0000      -1.061083       -28.8735
  83   2.0000      -1.053685       -28.6722
  84   2.0000      -0.985961       -26.8294
  85   2.0000      -0.971311       -26.4307
  86   2.0000      -0.965339       -26.2682
  87   2.0000      -0.953372       -25.9426
  88   2.0000      -0.951181       -25.8830
  89   2.0000      -0.949253       -25.8305
  90   2.0000      -0.948852       -25.8196
  91   2.0000      -0.940537       -25.5933
  92   2.0000      -0.923586       -25.1321
  93   2.0000      -0.904387       -24.6096
  94   2.0000      -0.902384       -24.5551
  95   2.0000      -0.894156       -24.3312
  96   2.0000      -0.887911       -24.1613
  97   2.0000      -0.876653       -23.8549
  98   2.0000      -0.875177       -23.8148
  99   2.0000      -0.867520       -23.6064
 100   2.0000      -0.858561       -23.3626
 101   2.0000      -0.841779       -22.9060
 102   2.0000      -0.837227       -22.7821
 103   2.0000      -0.834394       -22.7050
 104   2.0000      -0.830744       -22.6057
 105   2.0000      -0.825588       -22.4654
 106   2.0000      -0.822802       -22.3896
 107   2.0000      -0.816581       -22.2203
 108   2.0000      -0.807681       -21.9781
 109   2.0000      -0.798260       -21.7218
 110   2.0000      -0.780407       -21.2360
 111   2.0000      -0.770598       -20.9690
 112   2.0000      -0.756497       -20.5853
 113   2.0000      -0.752338       -20.4722
 114   2.0000      -0.742065       -20.1926
 115   2.0000      -0.727413       -19.7939
 116   2.0000      -0.723622       -19.6908
 117   2.0000      -0.720186       -19.5972
 118   2.0000      -0.706869       -19.2349
 119   2.0000      -0.705610       -19.2006
 120   2.0000      -0.699137       -19.0245
 121   2.0000      -0.690129       -18.7794
 122   2.0000      -0.685854       -18.6630
 123   2.0000      -0.678099       -18.4520
 124   2.0000      -0.676977       -18.4215
 125   2.0000      -0.675515       -18.3817
 126   2.0000      -0.670757       -18.2522
 127   2.0000      -0.665251       -18.1024
 128   2.0000      -0.660068       -17.9614
 129   2.0000      -0.654510       -17.8101
 130   2.0000      -0.636194       -17.3117
 131   2.0000      -0.628299       -17.0969
 132   2.0000      -0.621326       -16.9071
 133   2.0000      -0.612285       -16.6611
 134   2.0000      -0.606460       -16.5026
 135   2.0000      -0.599848       -16.3227
 136   2.0000      -0.593461       -16.1489
 137   2.0000      -0.588948       -16.0261
 138   2.0000      -0.581080       -15.8120
 139   2.0000      -0.579742       -15.7756
 140   2.0000      -0.573943       -15.6178
 141   2.0000      -0.573168       -15.5967
 142   2.0000      -0.568678       -15.4745
 143   2.0000      -0.564800       -15.3690
 144   2.0000      -0.562570       -15.3083
 145   2.0000      -0.561884       -15.2896
 146   2.0000      -0.555881       -15.1263
 147   2.0000      -0.552665       -15.0388
 148   2.0000      -0.552409       -15.0318
 149   2.0000      -0.549484       -14.9522
 150   2.0000      -0.542409       -14.7597
 151   2.0000      -0.537711       -14.6319
 152   2.0000      -0.534844       -14.5538
 153   2.0000      -0.529692       -14.4137
 154   2.0000      -0.525919       -14.3110
 155   2.0000      -0.522680       -14.2228
 156   2.0000      -0.522120       -14.2076
 157   2.0000      -0.519153       -14.1269
 158   2.0000      -0.515929       -14.0391
 159   2.0000      -0.513996       -13.9865
 160   2.0000      -0.513532       -13.9739
 161   2.0000      -0.511922       -13.9301
 162   2.0000      -0.511179       -13.9099
 163   2.0000      -0.506943       -13.7946
 164   2.0000      -0.502464       -13.6727
 165   2.0000      -0.498651       -13.5690
 166   2.0000      -0.498152       -13.5554
 167   2.0000      -0.493181       -13.4201
 168   2.0000      -0.491827       -13.3833
 169   2.0000      -0.491265       -13.3680
 170   2.0000      -0.487031       -13.2528
 171   2.0000      -0.484216       -13.1762
 172   2.0000      -0.481837       -13.1115
 173   2.0000      -0.477496       -12.9933
 174   2.0000      -0.475933       -12.9508
 175   2.0000      -0.473109       -12.8740
 176   2.0000      -0.471407       -12.8276
 177   2.0000      -0.467274       -12.7152
 178   2.0000      -0.465047       -12.6546
 179   2.0000      -0.462671       -12.5899
 180   2.0000      -0.452647       -12.3171
 181   2.0000      -0.446523       -12.1505
 182   2.0000      -0.441622       -12.0172
 183   2.0000      -0.439881       -11.9698
 184   2.0000      -0.438939       -11.9441
 185   2.0000      -0.437266       -11.8986
 186   2.0000      -0.434968       -11.8361
 187   2.0000      -0.432916       -11.7802
 188   2.0000      -0.428673       -11.6648
 189   2.0000      -0.426913       -11.6169
 190   2.0000      -0.416412       -11.3312
 191   2.0000      -0.415816       -11.3149
 192   2.0000      -0.414828       -11.2881
 193   2.0000      -0.411991       -11.2108
 194   2.0000      -0.408730       -11.1221
 195   2.0000      -0.408433       -11.1140
 196   2.0000      -0.399436       -10.8692
 197   2.0000      -0.392409       -10.6780
 198   2.0000      -0.387028       -10.5316
 199   2.0000      -0.380631       -10.3575
 200   2.0000      -0.373800       -10.1716
 201   2.0000      -0.366620        -9.9762
 202   2.0000      -0.363238        -9.8842
 203   2.0000      -0.359967        -9.7952
 204   2.0000      -0.357556        -9.7296
 205   2.0000      -0.351858        -9.5745
 206   2.0000      -0.349672        -9.5151
 207   2.0000      -0.348345        -9.4790
 208   2.0000      -0.346660        -9.4331
 209   2.0000      -0.342892        -9.3306
 210   2.0000      -0.340282        -9.2595
 211   2.0000      -0.328682        -8.9439
 212   2.0000      -0.324393        -8.8272
 213   2.0000      -0.305844        -8.3225
 214   2.0000      -0.304622        -8.2892
 215   2.0000      -0.303015        -8.2454
 216   2.0000      -0.299705        -8.1554
 217   2.0000      -0.297077        -8.0839
 218   2.0000      -0.295026        -8.0281
 219   2.0000      -0.293164        -7.9774
 220   2.0000      -0.287255        -7.8166
 221   2.0000      -0.285161        -7.7596
 222   2.0000      -0.274796        -7.4776
 223   2.0000      -0.259713        -7.0671
 224   2.0000      -0.220783        -6.0078
 225   0.0000      -0.117948        -3.2095
 226   0.0000      -0.106116        -2.8876
 227   0.0000      -0.090119        -2.4523
 228   0.0000      -0.078040        -2.1236
 229   0.0000      -0.057842        -1.5740

MULLIKEN ATOMIC CHARGES
-----------------------
   0 C :   -0.017032
   1 C :    0.056337
   2 C :   -0.001043
   3 C :   -0.052107
   4 C :    0.034238
   5 C :    0.021111
   6 S :    0.073589
   7 C :   -0.176777
   8 N :    0.029305
   9 C :    0.066255
  10 C :    0.049111
  11 N :   -0.028791
  12 C :    0.004694
  13 C :   -0.003433
  14 C :   -0.033046
  15 S :   -0.084413
  16 C :   -0.015396
  17 C :    0.003484
  18 N :   -0.028810
  19 C :    0.057043
  20 C :    0.000542
  21 C :    0.078251
  22 C :   -0.095458
  23 C :    0.046833
  24 C :   -0.073334
  25 C :   -0.013922
  26 C :    0.125822
  27 N :   -0.210417
  28 C :    0.150736
  29 N :   -0.225853
  30 C :    0.108814
  31 C :   -0.166012
  32 C :    0.177676
  33 C :   -0.036709
  34 C :    0.023303
  35 C :    0.007819
  36 C :    0.047798
  37 C :   -0.013540
  38 C :    0.025237
  39 C :   -0.091008
  40 C :    0.009109
  41 C :    0.021686
  42 C :    0.055155
  43 N :   -0.025659
  44 C :    0.020636
  45 C :   -0.006655
  46 C :    0.007554
  47 S :   -0.141820
  48 C :   -0.005794
  49 C :   -0.011093
  50 N :   -0.017160
  51 C :    0.073139
  52 C :    0.045981
  53 C :   -0.163938
  54 N :   -0.030402
  55 C :    0.062062
  56 C :   -0.017833
  57 C :    0.021685
  58 C :    0.033721
  59 C :   -0.047640
  60 C :   -0.003816
  61 S :    0.137912
  62 H :   -0.016095
  63 H :   -0.018966
  64 H :   -0.010676
  65 H :   -0.011742
  66 H :    0.011467
  67 H :    0.018562
  68 H :   -0.026202
  69 H :   -0.014170
  70 H :   -0.019119
  71 H :    0.001648
  72 H :    0.087945
  73 H :    0.090528
  74 H :   -0.022326
  75 H :   -0.020676
  76 H :    0.101056
  77 H :    0.094922
  78 H :   -0.001833
  79 H :    0.033605
  80 H :   -0.015605
  81 H :   -0.031962
  82 H :   -0.037335
  83 H :   -0.030827
  84 H :    0.003356
  85 H :    0.020068
  86 H :    0.008724
  87 H :    0.021521
  88 H :   -0.021865
  89 H :   -0.009443
  90 H :   -0.005838
  91 H :   -0.016445
Sum of atomic charges:    0.0000000

LOEWDIN ATOMIC CHARGES
----------------------
   0 C :   -0.011746
   1 C :   -0.033622
   2 C :   -0.167177
   3 C :   -0.042493
   4 C :   -0.021121
   5 C :   -0.027725
   6 S :    0.366335
   7 C :   -0.112246
   8 N :   -0.065163
   9 C :   -0.075694
  10 C :    0.073237
  11 N :   -0.083110
  12 C :    0.023477
  13 C :   -0.004966
  14 C :   -0.146687
  15 S :    0.101340
  16 C :   -0.049164
  17 C :    0.049666
  18 N :   -0.083789
  19 C :    0.096681
  20 C :   -0.020882
  21 C :   -0.030171
  22 C :    0.009756
  23 C :   -0.023232
  24 C :   -0.021802
  25 C :   -0.039849
  26 C :    0.026162
  27 N :   -0.114241
  28 C :    0.024956
  29 N :   -0.115422
  30 C :   -0.016200
  31 C :    0.064416
  32 C :   -0.030608
  33 C :   -0.035965
  34 C :   -0.013115
  35 C :   -0.042295
  36 C :   -0.024366
  37 C :   -0.012786
  38 C :   -0.012411
  39 C :    0.019754
  40 C :   -0.032254
  41 C :   -0.030054
  42 C :    0.091131
  43 N :   -0.078007
  44 C :    0.038763
  45 C :   -0.041803
  46 C :   -0.140438
  47 S :    0.062673
  48 C :   -0.032229
  49 C :    0.038637
  50 N :   -0.077061
  51 C :    0.108535
  52 C :   -0.058650
  53 C :   -0.120851
  54 N :   -0.086509
  55 C :   -0.037547
  56 C :   -0.013599
  57 C :   -0.026447
  58 C :   -0.016899
  59 C :   -0.040487
  60 C :   -0.171918
  61 S :    0.412390
  62 H :    0.037297
  63 H :    0.030191
  64 H :    0.029515
  65 H :    0.029397
  66 H :    0.021346
  67 H :    0.028300
  68 H :    0.028078
  69 H :    0.030607
  70 H :   -0.005001
  71 H :    0.019850
  72 H :    0.049594
  73 H :    0.054452
  74 H :   -0.013185
  75 H :    0.010526
  76 H :    0.053472
  77 H :    0.047014
  78 H :    0.028149
  79 H :    0.058177
  80 H :    0.022778
  81 H :    0.031927
  82 H :    0.027803
  83 H :    0.013610
  84 H :    0.024832
  85 H :    0.031101
  86 H :    0.024858
  87 H :    0.032157
  88 H :    0.034874
  89 H :    0.030550
  90 H :    0.031348
  91 H :    0.031272

  Mayer bond orders larger than 0.100000
B(  0-C ,  1-C ) :   1.3228 B(  0-C ,  5-C ) :   1.4068 B(  0-C , 62-H ) :   1.0068
B(  1-C ,  2-C ) :   1.2897 B(  1-C ,  8-N ) :   1.2938 B(  2-C ,  3-C ) :   1.3477
B(  2-C ,  6-S ) :   1.0593 B(  3-C ,  4-C ) :   1.4303 B(  3-C , 63-H ) :   1.0023
B(  4-C ,  5-C ) :   1.3333 B(  4-C , 64-H ) :   0.9893 B(  5-C , 65-H ) :   0.9882
B(  6-S ,  7-C ) :   1.0504 B(  6-S ,  8-N ) :   0.1122 B(  7-C ,  8-N ) :   1.8302
B(  7-C ,  9-C ) :   1.0310 B(  9-C , 10-C ) :   1.0513 B(  9-C , 13-C ) :   1.5411
B( 10-C , 11-N ) :   1.7209 B( 10-C , 66-H ) :   0.9846 B( 11-N , 12-C ) :   1.2742
B( 12-C , 13-C ) :   1.0675 B( 12-C , 17-C ) :   1.5008 B( 13-C , 14-C ) :   1.0313
B( 14-C , 15-S ) :   1.7451 B( 14-C , 16-C ) :   1.0140 B( 16-C , 17-C ) :   1.0680
B( 16-C , 20-C ) :   1.5342 B( 17-C , 18-N ) :   1.2631 B( 18-N , 19-C ) :   1.7216
B( 19-C , 20-C ) :   1.0328 B( 19-C , 67-H ) :   0.9855 B( 20-C , 21-C ) :   1.0206
B( 21-C , 22-C ) :   1.4827 B( 21-C , 38-C ) :   1.1392 B( 22-C , 23-C ) :   1.1564
B( 22-C , 68-H ) :   0.9932 B( 23-C , 24-C ) :   1.4807 B( 23-C , 36-C ) :   1.1098
B( 24-C , 25-C ) :   1.0561 B( 24-C , 30-C ) :   1.0712 B( 25-C , 26-C ) :   1.0261
B( 25-C , 28-C ) :   1.0279 B( 25-C , 69-H ) :   0.8676 B( 26-C , 27-N ) :   1.1071
B( 26-C , 70-H ) :   0.9238 B( 26-C , 71-H ) :   0.9474 B( 27-N , 72-H ) :   0.9702
B( 27-N , 73-H ) :   0.9675 B( 28-C , 29-N ) :   1.1034 B( 28-C , 74-H ) :   0.9177
B( 28-C , 75-H ) :   0.9329 B( 29-N , 76-H ) :   0.9675 B( 29-N , 77-H ) :   0.9698
B( 30-C , 31-C ) :   1.6529 B( 30-C , 35-C ) :   1.0563 B( 31-C , 32-C ) :   0.9681
B( 31-C , 78-H ) :   0.9715 B( 32-C , 33-C ) :   0.9815 B( 32-C , 39-C ) :   0.9561
B( 32-C , 79-H ) :   0.8587 B( 33-C , 34-C ) :   1.7333 B( 33-C , 80-H ) :   0.9658
B( 34-C , 35-C ) :   1.1348 B( 34-C , 81-H ) :   0.9876 B( 35-C , 36-C ) :   1.4395
B( 36-C , 37-C ) :   1.1342 B( 37-C , 38-C ) :   1.6134 B( 37-C , 82-H ) :   0.9943
B( 38-C , 83-H ) :   0.9672 B( 39-C , 40-C ) :   1.8002 B( 39-C , 84-H ) :   0.9705
B( 40-C , 41-C ) :   1.0759 B( 40-C , 85-H ) :   0.9510 B( 41-C , 42-C ) :   1.0157
B( 41-C , 45-C ) :   1.5333 B( 42-C , 43-N ) :   1.7208 B( 42-C , 86-H ) :   0.9910
B( 43-N , 44-C ) :   1.2672 B( 44-C , 45-C ) :   1.0654 B( 44-C , 49-C ) :   1.5170
B( 45-C , 46-C ) :   1.0328 B( 46-C , 47-S ) :   1.6995 B( 46-C , 48-C ) :   1.0231
B( 48-C , 49-C ) :   1.0732 B( 48-C , 52-C ) :   1.5417 B( 49-C , 50-N ) :   1.2779
B( 50-N , 51-C ) :   1.7047 B( 51-C , 52-C ) :   1.0313 B( 51-C , 87-H ) :   0.9932
B( 52-C , 53-C ) :   1.0588 B( 53-C , 54-N ) :   1.7801 B( 53-C , 61-S ) :   1.0856
B( 54-N , 55-C ) :   1.3061 B( 54-N , 61-S ) :   0.1145 B( 55-C , 56-C ) :   1.3114
B( 55-C , 60-C ) :   1.2916 B( 56-C , 57-C ) :   1.4230 B( 56-C , 88-H ) :   1.0057
B( 57-C , 58-C ) :   1.3229 B( 57-C , 89-H ) :   0.9874 B( 58-C , 59-C ) :   1.4391
B( 58-C , 90-H ) :   0.9896 B( 59-C , 60-C ) :   1.3399 B( 59-C , 91-H ) :   1.0012
B( 60-C , 61-S ) :   1.0475

-----------------------------------------------------------------------------
         ABSORPTION SPECTRUM VIA TRANSITION ELECTRIC DIPOLE MOMENTS
-----------------------------------------------------------------------------
State   Energy  Wavelength   fosc         T2         TX        TY        TZ
        (cm-1)    (nm)                  (au**2)     (au)      (au)      (au)
-----------------------------------------------------------------------------
   0    9619.0   1039.6   0.091991523   3.14842   0.04965  -1.25407   1.25430
   1   10041.9    995.8   0.043544329   1.42756   0.57759  -0.91513   0.50644
   2   12231.2    817.6   0.028563268   0.76880  -0.21126   0.73117  -0.43538
   3   13468.1    742.5   0.043137895   1.05445  -0.51232  -0.09687  -0.88465
   4   14093.0    709.6   0.031172797   0.72820   0.19641   0.43074  -0.70999
   5   15352.9    651.3   0.006262071   0.13428   0.18514   0.14491   0.28107
   6   16591.2    602.7   0.000199059   0.00395   0.06114   0.01143  -0.00903
   7   18029.8    554.6   0.068194487   1.24518   0.14975   1.00631  -0.45837
   8   18413.2    543.1   0.130939792   2.34109   0.88723   0.99546  -0.75031
   9   18639.5    536.5   0.001588436   0.02805  -0.15755  -0.01730  -0.05417
  10   18714.6    534.3   0.138809678   2.44182  -1.06632   0.47892  -1.03703
  11   20341.8    491.6   0.047256410   0.76480  -0.75922  -0.29224  -0.32090
  12   20565.1    486.3   0.012075807   0.19331  -0.36884  -0.23925  -0.00579
  13   22728.3    440.0   0.001179534   0.01709   0.12755   0.02042  -0.02001
  14   23696.4    422.0   0.009546634   0.13263  -0.30467  -0.15300  -0.12806
  15   24385.4    410.1   0.305292119   4.12156   0.09526  -1.71935   1.07532
  16   24438.8    409.2   0.002277274   0.03068   0.09512  -0.12486   0.07771
  17   25061.4    399.0   0.074106915   0.97348   0.85313   0.49182  -0.06142
  18   25193.2    396.9   0.026512952   0.34646   0.46392   0.34983   0.09409
  19   25575.0    391.0   0.225938311   2.90837  -1.29999  -1.03689   0.37849
  20   25627.8    390.2   0.125787754   1.61585   0.82509   0.93204  -0.25763
  21   25633.6    390.1   0.018669033   0.23977   0.17844   0.42843  -0.15611
  22   25662.7    389.7   0.010007084   0.12838  -0.16982  -0.15976   0.27205
  23   25896.6    386.2   0.306330371   3.89424   0.94185  -1.24854   1.20346
  24   25998.4    384.6   0.001089188   0.01379  -0.10876  -0.03100   0.03167
  25   26037.5    384.1   0.022737840   0.28749   0.14303  -0.40702   0.31838
  26   26625.2    375.6   0.537420370   6.64504  -0.74077  -2.19810   1.12457
  27   26753.0    373.8   0.063772285   0.78476   0.69550  -0.20582   0.50860
  28   26955.8    371.0   0.127421202   1.55620   0.05305   1.00969  -0.73069
  29   27377.9    365.3   0.235122215   2.82729   0.48307  -1.07879   1.19589
  30   27987.4    357.3   0.115699722   1.36096  -1.13934   0.04962  -0.24577
  31   28339.5    352.9   0.000362447   0.00421  -0.03178   0.05286   0.02015
  32   28440.8    351.6   0.003530657   0.04087   0.19828   0.02615  -0.02948
  33   28602.7    349.6   0.280086258   3.22375   1.71886   0.47672  -0.20494
  34   28831.7    346.8   0.008579565   0.09797   0.12118   0.04533  -0.28500
  35   29338.5    340.8   0.048776914   0.54733  -0.47670  -0.26121   0.50186
  36   29608.8    337.7   0.022291982   0.24786  -0.43443  -0.02330  -0.24205
  37   29878.2    334.7   0.002887626   0.03182   0.08609  -0.11772   0.10270
  38   30003.8    333.3   0.001938779   0.02127   0.10938   0.00243   0.09645
  39   30360.2    329.4   0.012837076   0.13920   0.28555   0.00184   0.24012
  40   30864.4    324.0   0.000176235   0.00188   0.02040  -0.03814   0.00305
  41   30943.5    323.2   0.016526812   0.17583   0.00364  -0.22266   0.35530
  42   31051.6    322.0   0.001589765   0.01685  -0.03133  -0.09090  -0.08724
  43   31893.3    313.5   0.000676981   0.00699   0.05345  -0.00815  -0.06375
  44   32188.4    310.7   0.017014572   0.17402  -0.30017  -0.00363  -0.28966
  45   32233.9    310.2   0.002007813   0.02051  -0.05748   0.09680  -0.08850
  46   32335.3    309.3   0.008164133   0.08312   0.06193  -0.16545   0.22784
  47   32392.5    308.7   0.000849484   0.00863  -0.09130  -0.00813   0.01520
  48   32771.8    305.1   0.114693581   1.15217  -0.19290   0.65749  -0.82624
  49   32875.7    304.2   0.003012494   0.03017  -0.02367   0.12024  -0.12308
  50   33041.0    302.7   0.041255103   0.41106   0.40180  -0.30130   0.39853
  51   33235.7    300.9   0.014806109   0.14666   0.31574  -0.05639   0.20925
  52   33271.1    300.6   0.002172165   0.02149  -0.03230   0.05073   0.13370
  53   33615.4    297.5   0.001556919   0.01525  -0.05659  -0.04461  -0.10028
  54   33728.2    296.5   0.001003975   0.00980  -0.01926   0.07608  -0.06033
  55   34004.4    294.1   0.003372285   0.03265   0.09937   0.10118   0.11196
  56   34443.1    290.3   0.024837952   0.23740  -0.15616   0.14741  -0.43737
  57   34852.5    286.9   0.085397033   0.80665  -0.50769  -0.62058   0.40471
  58   34964.4    286.0   0.185743138   1.74889  -1.19522  -0.53309   0.19011
  59   35126.2    284.7   0.031646857   0.29660   0.24038  -0.30141   0.38467
  60   35167.9    284.4   0.086382708   0.80864  -0.81657   0.07922  -0.36820
  61   35407.7    282.4   0.005776091   0.05370  -0.00602  -0.22735  -0.04449
  62   35657.0    280.4   0.013667431   0.12619   0.24990   0.23052   0.10295
  63   35950.9    278.2   0.246999006   2.26184  -0.82089   0.93804  -0.84147
  64   36208.5    276.2   0.074600629   0.67828   0.70153  -0.08401   0.42318
  65   36444.5    274.4   0.010931994   0.09875  -0.17003   0.13975  -0.22430
  66   36671.5    272.7   0.022285645   0.20007   0.38092   0.17849   0.15200
  67   36732.4    272.2   0.002974847   0.02666   0.08686  -0.02622   0.13576
  68   37221.3    268.7   0.055795169   0.49349   0.11903   0.38910  -0.57265
  69   37259.6    268.4   0.226515885   2.00141   0.14471   0.82195  -1.14231
  70   37339.8    267.8   0.087539754   0.77181   0.04277  -0.54448   0.68812
  71   37502.6    266.6   0.138553473   1.21627   0.22419   0.06100   1.07810
  72   37868.7    264.1   0.060664953   0.52739  -0.07196  -0.65708   0.30076
  73   38298.1    261.1   0.001788970   0.01538  -0.08841  -0.02085  -0.08442
  74   38315.3    261.0   0.004778729   0.04106   0.14403   0.02861   0.13963
  75   38331.5    260.9   0.006364789   0.05466  -0.04916   0.13178  -0.18677
  76   38503.3    259.7   0.006141432   0.05251   0.16765  -0.06294   0.14298
  77   38534.9    259.5   0.018732207   0.16003  -0.30430   0.14393  -0.21615
  78   38894.8    257.1   0.066185815   0.56021  -0.50750   0.13505  -0.53330
  79   39118.1    255.6   0.204030185   1.71709   1.00733  -0.01950   0.83785
  80   39207.8    255.1   0.004427675   0.03718  -0.16636   0.00985  -0.09698
  81   39491.2    253.2   0.003140756   0.02618  -0.12338   0.08651  -0.05896
  82   39842.2    251.0   0.003026977   0.02501   0.00436   0.15693  -0.01908
  83   40003.8    250.0   0.041524179   0.34172   0.19701  -0.06042   0.54705
  84   40290.3    248.2   0.000688048   0.00562  -0.02507  -0.03870   0.05913

FINAL SINGLE POINT ENERGY     -3950.459616682891

DIPOLE MOMENT
-------------
                                X             Y             Z
Electronic contribution:    -19.70957      21.84416       1.32890
Nuclear contribution   :     20.98132     -22.71757      -0.75458
                        -----------------------------------------
Total Dipole Moment    :      1.27176      -0.87341       0.57431
                        -----------------------------------------
Magnitude (a.u.)       :      1.64622
Magnitude (Debye)      :      4.18437

Rotational constants in cm-1:     0.001930     0.000387     0.000348
Rotational constants in MHz :    57.865560    11.612353    10.428131

                             ****ORCA TERMINATED NORMALLY****
TOTAL RUN TIME: 0 days 0 hours 8 minutes 27 seconds 508 msec
