                         Program Version 4.2.0 -  RELEASE  -
|  1> # ORCA input file
|  2> # SCF done       -146.730657601240          0.000839049815
|  3> ! CAM-B3LYP def2-SVP def2/J RIJCOSX Grid4 TightSCF
|  4> %maxcore 5000
|  5> %tddft
|  6>     Mode sTDDFT
|  7>     Ethresh 5.0
|  8>     maxcore 5000
|  9> end
| 10>
| 11> %pal
| 12>   nprocs 6
| 13>   end
| 14> * xyz 0 1
| 15>    C       -4.36160        -1.14620         5.60771
| 16>    C       -5.51598        -1.49504         4.97564
| 17>    C       -5.32673        -2.50708         4.02163
| 18>    C       -4.01921        -2.92472         3.93408
| 19>    S       -3.01208        -2.04698         5.05282
| 20>    C       -3.47140        -3.92502         3.08536
| 21>    C       -2.15723        -4.34787         3.01719
| 22>    C       -1.98202        -5.35700         2.07005
| 23>    C       -3.17609        -5.70223         1.41022
| 24>    S       -4.50932        -4.78471         1.95869
| 25>    C       -2.90802        -6.73101         0.47888
| 26>    C       -1.53301        -7.04299         0.55119
| 27>    C       -0.90824        -6.18697         1.54769
| 28>    C        0.40608        -6.16484         1.91130
| 29>    C        0.89830        -5.27954         2.89340
| 30>    N        1.30304        -4.56092         3.69021
| 31>    C        1.36393        -7.02237         1.32957
| 32>    N        2.15256        -7.71248         0.86429
| 33>    C       -1.16496        -8.05459        -0.32335
| 34>    C       -2.24457        -8.51696        -1.06873
| 35>    S       -3.73934        -7.67667        -0.67755
| 36>    C       -2.23322        -9.54288        -2.04510
| 37>    C       -3.40761        -9.88547        -2.75195
| 38>    C       -3.43280       -10.92548        -3.74932
| 39>    N       -4.57452       -11.19822        -4.38740
| 40>    C       -5.66453       -10.52325        -4.10527
| 41>    C       -5.64022        -9.49251        -3.11267
| 42>    N       -4.52728        -9.21048        -2.47621
| 43>    C       -6.81456        -8.76371        -2.80532
| 44>    N       -7.77915        -8.18915        -2.57757
| 45>    C       -6.86302       -10.82842        -4.79444
| 46>    N       -7.84633       -11.05194        -5.33767
| 47>    C       -2.28721       -11.68208        -4.08331
| 48>    C       -1.10698       -11.34146        -3.37814
| 49>    C       -1.07984       -10.29242        -2.38296
| 50>    N        0.13578       -10.15204        -1.85581
| 51>    S        1.13747       -11.21027        -2.52683
| 52>    N        0.09053       -11.90757        -3.52237
| 53>    C       -2.35092       -12.70640        -5.05925
| 54>    C       -1.31752       -13.54329        -5.46762
| 55>    C       -1.72934       -14.43884        -6.44329
| 56>    C       -3.08958       -14.28416        -6.78835
| 57>    S       -3.85790       -13.04007        -5.90255
| 58>    C       -3.40279       -15.23680        -7.78425
| 59>    C       -2.25321       -15.99570        -8.07208
| 60>    C       -1.16322       -15.51969        -7.23534
| 61>    C        0.11628       -15.99055        -7.19684
| 62>    C        1.09371       -15.44889        -6.33517
| 63>    N        1.89759       -15.01855        -5.64001
| 64>    C        0.54847       -17.05555        -8.01502
| 65>    N        0.90385       -17.92126        -8.67776
| 66>    C       -2.47340       -16.96487        -9.05100
| 67>    C       -3.77703       -16.94947        -9.51012
| 68>    S       -4.74939       -15.71829        -8.71979
| 69>    C       -4.35942       -17.78776       -10.49951
| 70>    C       -5.65267       -17.77885       -10.96771
| 71>    C       -5.88583       -18.75192       -11.95206
| 72>    C       -4.77871       -19.49437       -12.22964
| 73>    S       -3.42114       -19.02286       -11.29416
| 74>    H       -4.22042        -0.40859         6.37238
| 75>    H       -6.46844        -1.04338         5.18606
| 76>    H       -6.11341        -2.92187         3.41676
| 77>    H       -1.38166        -3.93175         3.63483
| 78>    H       -0.17776        -8.46198        -0.44178
| 79>    H       -0.33032       -13.47109        -5.04958
| 80>    H       -1.73622       -17.65374        -9.42263
| 81>    H       -6.39844       -17.09200       -10.60863
| 82>    H       -6.83499       -18.89675       -12.43540
| 83>    H       -4.67692       -20.29689       -12.93271
| 84> *
| 85>
| 86>                          ****END OF INPUT****

CARTESIAN COORDINATES (ANGSTROEM)
---------------------------------
  C     -4.361600   -1.146200    5.607710
  C     -5.515980   -1.495040    4.975640
  C     -5.326730   -2.507080    4.021630
  C     -4.019210   -2.924720    3.934080
  S     -3.012080   -2.046980    5.052820
  C     -3.471400   -3.925020    3.085360
  C     -2.157230   -4.347870    3.017190
  C     -1.982020   -5.357000    2.070050
  C     -3.176090   -5.702230    1.410220
  S     -4.509320   -4.784710    1.958690
  C     -2.908020   -6.731010    0.478880
  C     -1.533010   -7.042990    0.551190
  C     -0.908240   -6.186970    1.547690
  C      0.406080   -6.164840    1.911300
  C      0.898300   -5.279540    2.893400
  N      1.303040   -4.560920    3.690210
  C      1.363930   -7.022370    1.329570
  N      2.152560   -7.712480    0.864290
  C     -1.164960   -8.054590   -0.323350
  C     -2.244570   -8.516960   -1.068730
  S     -3.739340   -7.676670   -0.677550
  C     -2.233220   -9.542880   -2.045100
  C     -3.407610   -9.885470   -2.751950
  C     -3.432800  -10.925480   -3.749320
  N     -4.574520  -11.198220   -4.387400
  C     -5.664530  -10.523250   -4.105270
  C     -5.640220   -9.492510   -3.112670
  N     -4.527280   -9.210480   -2.476210
  C     -6.814560   -8.763710   -2.805320
  N     -7.779150   -8.189150   -2.577570
  C     -6.863020  -10.828420   -4.794440
  N     -7.846330  -11.051940   -5.337670
  C     -2.287210  -11.682080   -4.083310
  C     -1.106980  -11.341460   -3.378140
  C     -1.079840  -10.292420   -2.382960
  N      0.135780  -10.152040   -1.855810
  S      1.137470  -11.210270   -2.526830
  N      0.090530  -11.907570   -3.522370
  C     -2.350920  -12.706400   -5.059250
  C     -1.317520  -13.543290   -5.467620
  C     -1.729340  -14.438840   -6.443290
  C     -3.089580  -14.284160   -6.788350
  S     -3.857900  -13.040070   -5.902550
  C     -3.402790  -15.236800   -7.784250
  C     -2.253210  -15.995700   -8.072080
  C     -1.163220  -15.519690   -7.235340
  C      0.116280  -15.990550   -7.196840
  C      1.093710  -15.448890   -6.335170
  N      1.897590  -15.018550   -5.640010
  C      0.548470  -17.055550   -8.015020
  N      0.903850  -17.921260   -8.677760
  C     -2.473400  -16.964870   -9.051000
  C     -3.777030  -16.949470   -9.510120
  S     -4.749390  -15.718290   -8.719790
  C     -4.359420  -17.787760  -10.499510
  C     -5.652670  -17.778850  -10.967710
  C     -5.885830  -18.751920  -11.952060
  C     -4.778710  -19.494370  -12.229640
  S     -3.421140  -19.022860  -11.294160
  H     -4.220420   -0.408590    6.372380
  H     -6.468440   -1.043380    5.186060
  H     -6.113410   -2.921870    3.416760
  H     -1.381660   -3.931750    3.634830
  H     -0.177760   -8.461980   -0.441780
  H     -0.330320  -13.471090   -5.049580
  H     -1.736220  -17.653740   -9.422630
  H     -6.398440  -17.092000  -10.608630
  H     -6.834990  -18.896750  -12.435400
  H     -4.676920  -20.296890  -12.932710

 Total Charge           Charge          ....    0
 Multiplicity           Mult            ....    1
 Number of Electrons    NEL             ....  444
 Basis Dimension        Dim             ....  904

ORBITAL ENERGIES
----------------

  NO   OCC          E(Eh)            E(eV)
   0   2.0000     -89.050215     -2423.1795
   1   2.0000     -88.987563     -2421.4747
   2   2.0000     -88.987450     -2421.4716
   3   2.0000     -88.983158     -2421.3548
   4   2.0000     -88.983074     -2421.3525
   5   2.0000     -88.963599     -2420.8226
   6   2.0000     -88.963459     -2420.8188
   7   2.0000     -14.476111      -393.9150
   8   2.0000     -14.475963      -393.9110
   9   2.0000     -14.459476      -393.4623
  10   2.0000     -14.459408      -393.4605
  11   2.0000     -14.438796      -392.8996
  12   2.0000     -14.438715      -392.8974
  13   2.0000     -14.427775      -392.5997
  14   2.0000     -14.427758      -392.5993
  15   2.0000     -14.427419      -392.5900
  16   2.0000     -14.427373      -392.5888
  17   2.0000     -10.393096      -282.8105
  18   2.0000     -10.392866      -282.8043
  19   2.0000     -10.361645      -281.9547
  20   2.0000     -10.361578      -281.9529
  21   2.0000     -10.355602      -281.7903
  22   2.0000     -10.355360      -281.7837
  23   2.0000     -10.351335      -281.6742
  24   2.0000     -10.351094      -281.6676
  25   2.0000     -10.349208      -281.6163
  26   2.0000     -10.349135      -281.6143
  27   2.0000     -10.332424      -281.1596
  28   2.0000     -10.332352      -281.1576
  29   2.0000     -10.328445      -281.0513
  30   2.0000     -10.328436      -281.0510
  31   2.0000     -10.328218      -281.0451
  32   2.0000     -10.328192      -281.0444
  33   2.0000     -10.327817      -281.0342
  34   2.0000     -10.327769      -281.0329
  35   2.0000     -10.327649      -281.0296
  36   2.0000     -10.327645      -281.0295
  37   2.0000     -10.327197      -281.0173
  38   2.0000     -10.327037      -281.0130
  39   2.0000     -10.325010      -280.9578
  40   2.0000     -10.324992      -280.9573
  41   2.0000     -10.322317      -280.8845
  42   2.0000     -10.322187      -280.8810
  43   2.0000     -10.313744      -280.6512
  44   2.0000     -10.313743      -280.6512
  45   2.0000     -10.303811      -280.3810
  46   2.0000     -10.303745      -280.3792
  47   2.0000     -10.300303      -280.2855
  48   2.0000     -10.300246      -280.2840
  49   2.0000     -10.298174      -280.2276
  50   2.0000     -10.298168      -280.2274
  51   2.0000     -10.297306      -280.2039
  52   2.0000     -10.297263      -280.2028
  53   2.0000     -10.296638      -280.1858
  54   2.0000     -10.296614      -280.1851
  55   2.0000     -10.282946      -279.8132
  56   2.0000     -10.282907      -279.8121
  57   2.0000     -10.279637      -279.7232
  58   2.0000     -10.279579      -279.7216
  59   2.0000      -8.141294      -221.5359
  60   2.0000      -8.082170      -219.9270
  61   2.0000      -8.082111      -219.9254
  62   2.0000      -8.075764      -219.7527
  63   2.0000      -8.075714      -219.7514
  64   2.0000      -8.059382      -219.3069
  65   2.0000      -8.059308      -219.3049
  66   2.0000      -6.112427      -166.3276
  67   2.0000      -6.104443      -166.1103
  68   2.0000      -6.104143      -166.1022
  69   2.0000      -6.051429      -164.6678
  70   2.0000      -6.051370      -164.6661
  71   2.0000      -6.047261      -164.5543
  72   2.0000      -6.047211      -164.5530
  73   2.0000      -6.045328      -164.5017
  74   2.0000      -6.045294      -164.5008
  75   2.0000      -6.044486      -164.4788
  76   2.0000      -6.044399      -164.4765
  77   2.0000      -6.040530      -164.3712
  78   2.0000      -6.040470      -164.3695
  79   2.0000      -6.038181      -164.3073
  80   2.0000      -6.038104      -164.3052
  81   2.0000      -6.028719      -164.0498
  82   2.0000      -6.028650      -164.0479
  83   2.0000      -6.024363      -163.9313
  84   2.0000      -6.024294      -163.9294
  85   2.0000      -6.021615      -163.8565
  86   2.0000      -6.021503      -163.8534
  87   2.0000      -1.148537       -31.2533
  88   2.0000      -1.134707       -30.8769
  89   2.0000      -1.063673       -28.9440
  90   2.0000      -1.041191       -28.3322
  91   2.0000      -1.040684       -28.3185
  92   2.0000      -1.023989       -27.8641
  93   2.0000      -1.019289       -27.7363
  94   2.0000      -1.019114       -27.7315
  95   2.0000      -1.014001       -27.5924
  96   2.0000      -1.006278       -27.3822
  97   2.0000      -1.005365       -27.3574
  98   2.0000      -1.004670       -27.3385
  99   2.0000      -1.002797       -27.2875
 100   2.0000      -0.997132       -27.1333
 101   2.0000      -0.989992       -26.9391
 102   2.0000      -0.980793       -26.6887
 103   2.0000      -0.974718       -26.5234
 104   2.0000      -0.954695       -25.9786
 105   2.0000      -0.951409       -25.8892
 106   2.0000      -0.919381       -25.0176
 107   2.0000      -0.918592       -24.9962
 108   2.0000      -0.907871       -24.7044
 109   2.0000      -0.889384       -24.2014
 110   2.0000      -0.867896       -23.6167
 111   2.0000      -0.867804       -23.6142
 112   2.0000      -0.854909       -23.2633
 113   2.0000      -0.853027       -23.2120
 114   2.0000      -0.848508       -23.0891
 115   2.0000      -0.840425       -22.8691
 116   2.0000      -0.839700       -22.8494
 117   2.0000      -0.833976       -22.6936
 118   2.0000      -0.833724       -22.6868
 119   2.0000      -0.812882       -22.1196
 120   2.0000      -0.802637       -21.8409
 121   2.0000      -0.775027       -21.0896
 122   2.0000      -0.774254       -21.0685
 123   2.0000      -0.767786       -20.8925
 124   2.0000      -0.751484       -20.4489
 125   2.0000      -0.737915       -20.0797
 126   2.0000      -0.717140       -19.5144
 127   2.0000      -0.711677       -19.3657
 128   2.0000      -0.711009       -19.3475
 129   2.0000      -0.698422       -19.0050
 130   2.0000      -0.697830       -18.9889
 131   2.0000      -0.684157       -18.6169
 132   2.0000      -0.678813       -18.4714
 133   2.0000      -0.674880       -18.3644
 134   2.0000      -0.664283       -18.0761
 135   2.0000      -0.660119       -17.9628
 136   2.0000      -0.650419       -17.6988
 137   2.0000      -0.649156       -17.6644
 138   2.0000      -0.634270       -17.2594
 139   2.0000      -0.632013       -17.1979
 140   2.0000      -0.624021       -16.9805
 141   2.0000      -0.621212       -16.9040
 142   2.0000      -0.620749       -16.8914
 143   2.0000      -0.617347       -16.7989
 144   2.0000      -0.614031       -16.7086
 145   2.0000      -0.613622       -16.6975
 146   2.0000      -0.599335       -16.3087
 147   2.0000      -0.595417       -16.2021
 148   2.0000      -0.591456       -16.0943
 149   2.0000      -0.583968       -15.8906
 150   2.0000      -0.565051       -15.3758
 151   2.0000      -0.562106       -15.2957
 152   2.0000      -0.554174       -15.0798
 153   2.0000      -0.548094       -14.9144
 154   2.0000      -0.544642       -14.8205
 155   2.0000      -0.543582       -14.7916
 156   2.0000      -0.530352       -14.4316
 157   2.0000      -0.526810       -14.3352
 158   2.0000      -0.516587       -14.0570
 159   2.0000      -0.511920       -13.9300
 160   2.0000      -0.508928       -13.8486
 161   2.0000      -0.504518       -13.7286
 162   2.0000      -0.503772       -13.7083
 163   2.0000      -0.500317       -13.6143
 164   2.0000      -0.496215       -13.5027
 165   2.0000      -0.495017       -13.4701
 166   2.0000      -0.494876       -13.4663
 167   2.0000      -0.493251       -13.4220
 168   2.0000      -0.488381       -13.2895
 169   2.0000      -0.487784       -13.2733
 170   2.0000      -0.487319       -13.2606
 171   2.0000      -0.484648       -13.1879
 172   2.0000      -0.484013       -13.1707
 173   2.0000      -0.480693       -13.0803
 174   2.0000      -0.478749       -13.0274
 175   2.0000      -0.470667       -12.8075
 176   2.0000      -0.470166       -12.7939
 177   2.0000      -0.469334       -12.7712
 178   2.0000      -0.463943       -12.6245
 179   2.0000      -0.463628       -12.6160
 180   2.0000      -0.462398       -12.5825
 181   2.0000      -0.461522       -12.5587
 182   2.0000      -0.459085       -12.4923
 183   2.0000      -0.459003       -12.4901
 184   2.0000      -0.457502       -12.4493
 185   2.0000      -0.453930       -12.3521
 186   2.0000      -0.453045       -12.3280
 187   2.0000      -0.451335       -12.2814
 188   2.0000      -0.445830       -12.1317
 189   2.0000      -0.443168       -12.0592
 190   2.0000      -0.441931       -12.0256
 191   2.0000      -0.437867       -11.9150
 192   2.0000      -0.437646       -11.9090
 193   2.0000      -0.436793       -11.8857
 194   2.0000      -0.436424       -11.8757
 195   2.0000      -0.435937       -11.8624
 196   2.0000      -0.428934       -11.6719
 197   2.0000      -0.426705       -11.6112
 198   2.0000      -0.426172       -11.5967
 199   2.0000      -0.425527       -11.5792
 200   2.0000      -0.420571       -11.4443
 201   2.0000      -0.420490       -11.4421
 202   2.0000      -0.414720       -11.2851
 203   2.0000      -0.407699       -11.0940
 204   2.0000      -0.406247       -11.0545
 205   2.0000      -0.392174       -10.6716
 206   2.0000      -0.384858       -10.4725
 207   2.0000      -0.383513       -10.4359
 208   2.0000      -0.378754       -10.3064
 209   2.0000      -0.357954        -9.7404
 210   2.0000      -0.357778        -9.7356
 211   2.0000      -0.349535        -9.5113
 212   2.0000      -0.345635        -9.4052
 213   2.0000      -0.344315        -9.3693
 214   2.0000      -0.330568        -8.9952
 215   2.0000      -0.329842        -8.9755
 216   2.0000      -0.325768        -8.8646
 217   2.0000      -0.319252        -8.6873
 218   2.0000      -0.318182        -8.6582
 219   2.0000      -0.292670        -7.9640
 220   2.0000      -0.263076        -7.1587
 221   2.0000      -0.232222        -6.3191
 222   0.0000      -0.135454        -3.6859
 223   0.0000      -0.101169        -2.7530
 224   0.0000      -0.097264        -2.6467
 225   0.0000      -0.062017        -1.6876
 226   0.0000      -0.048138        -1.3099

MULLIKEN ATOMIC CHARGES
-----------------------
   0 C :   -0.064358
   1 C :    0.050724
   2 C :   -0.011237
   3 C :   -0.103915
   4 S :    0.134510
   5 C :   -0.012258
   6 C :   -0.068713
   7 C :    0.016509
   8 C :   -0.110591
   9 S :    0.191380
  10 C :   -0.057852
  11 C :    0.031427
  12 C :    0.305590
  13 C :   -0.300329
  14 C :   -0.192400
  15 N :    0.171407
  16 C :   -0.186797
  17 N :    0.173111
  18 C :   -0.062958
  19 C :   -0.180660
  20 S :    0.198776
  21 C :    0.187122
  22 C :   -0.057343
  23 C :   -0.057638
  24 N :   -0.008183
  25 C :   -0.097683
  26 C :   -0.098635
  27 N :   -0.008042
  28 C :   -0.244103
  29 N :    0.246940
  30 C :   -0.244493
  31 N :    0.247346
  32 C :    0.187526
  33 C :   -0.011315
  34 C :   -0.012213
  35 N :   -0.281744
  36 S :    0.579828
  37 N :   -0.281833
  38 C :   -0.180675
  39 C :   -0.062649
  40 C :    0.032065
  41 C :   -0.057998
  42 S :    0.198806
  43 C :   -0.110778
  44 C :    0.017195
  45 C :    0.304605
  46 C :   -0.299506
  47 C :   -0.187326
  48 N :    0.172299
  49 C :   -0.192978
  50 N :    0.172521
  51 C :   -0.069915
  52 C :   -0.011349
  53 S :    0.191689
  54 C :   -0.103627
  55 C :   -0.011962
  56 C :    0.050050
  57 C :   -0.063660
  58 S :    0.134606
  59 H :    0.035040
  60 H :   -0.005329
  61 H :   -0.006321
  62 H :    0.012810
  63 H :    0.019474
  64 H :    0.019212
  65 H :    0.012934
  66 H :   -0.005994
  67 H :   -0.005248
  68 H :    0.035103
Sum of atomic charges:    0.0000000

LOEWDIN ATOMIC CHARGES
----------------------
   0 C :   -0.176724
   1 C :   -0.060016
   2 C :   -0.061735
   3 C :   -0.195101
   4 S :    0.448406
   5 C :   -0.163310
   6 C :   -0.041357
   7 C :   -0.059081
   8 C :   -0.187293
   9 S :    0.480792
  10 C :   -0.170932
  11 C :   -0.079356
  12 C :    0.082075
  13 C :   -0.103300
  14 C :   -0.017095
  15 N :   -0.034104
  16 C :   -0.016479
  17 N :   -0.033781
  18 C :   -0.005539
  19 C :   -0.171179
  20 S :    0.505413
  21 C :   -0.040594
  22 C :   -0.016788
  23 C :   -0.016847
  24 N :   -0.017513
  25 C :   -0.025147
  26 C :   -0.025143
  27 N :   -0.017496
  28 C :   -0.039108
  29 N :   -0.002954
  30 C :   -0.039211
  31 N :   -0.002888
  32 C :   -0.040502
  33 C :   -0.037633
  34 C :   -0.037602
  35 N :   -0.270915
  36 S :    0.698432
  37 N :   -0.270836
  38 C :   -0.171151
  39 C :   -0.005396
  40 C :   -0.079430
  41 C :   -0.170844
  42 S :    0.505345
  43 C :   -0.187289
  44 C :   -0.058935
  45 C :    0.082042
  46 C :   -0.103245
  47 C :   -0.016500
  48 N :   -0.033740
  49 C :   -0.017145
  50 N :   -0.034049
  51 C :   -0.041462
  52 C :   -0.163223
  53 S :    0.480666
  54 C :   -0.194969
  55 C :   -0.061749
  56 C :   -0.060045
  57 C :   -0.176643
  58 S :    0.448240
  59 H :    0.026650
  60 H :    0.032967
  61 H :    0.026198
  62 H :    0.037006
  63 H :    0.038071
  64 H :    0.038067
  65 H :    0.037033
  66 H :    0.026319
  67 H :    0.033013
  68 H :    0.026641

  Mayer bond orders larger than 0.100000
B(  0-C ,  1-C ) :   1.5694 B(  0-C ,  4-S ) :   1.1642 B(  0-C , 59-H ) :   0.9734
B(  1-C ,  2-C ) :   1.2652 B(  1-C , 60-H ) :   0.9945 B(  2-C ,  3-C ) :   1.5149
B(  2-C , 61-H ) :   0.9912 B(  3-C ,  4-S ) :   1.1453 B(  3-C ,  5-C ) :   1.1560
B(  5-C ,  6-C ) :   1.4601 B(  5-C ,  9-S ) :   1.1154 B(  6-C ,  7-C ) :   1.2973
B(  6-C , 62-H ) :   0.9911 B(  7-C ,  8-C ) :   1.4318 B(  7-C , 12-C ) :   0.9935
B(  8-C ,  9-S ) :   1.1103 B(  8-C , 10-C ) :   1.2087 B( 10-C , 11-C ) :   1.3939
B( 10-C , 20-S ) :   1.0907 B( 11-C , 12-C ) :   0.9907 B( 11-C , 18-C ) :   1.2869
B( 12-C , 13-C ) :   1.7100 B( 13-C , 14-C ) :   1.1311 B( 13-C , 16-C ) :   1.1392
B( 14-C , 15-N ) :   2.9939 B( 16-C , 17-N ) :   2.9872 B( 18-C , 19-C ) :   1.4029
B( 18-C , 63-H ) :   0.9830 B( 19-C , 20-S ) :   1.0753 B( 19-C , 21-C ) :   1.2238
B( 21-C , 22-C ) :   1.2482 B( 21-C , 32-C ) :   0.1186 B( 21-C , 34-C ) :   1.1863
B( 22-C , 23-C ) :   1.1038 B( 22-C , 27-N ) :   1.4062 B( 23-C , 24-N ) :   1.4063
B( 23-C , 32-C ) :   1.2481 B( 24-N , 25-C ) :   1.6842 B( 25-C , 26-C ) :   1.2240
B( 25-C , 30-C ) :   1.1678 B( 26-C , 27-N ) :   1.6848 B( 26-C , 28-C ) :   1.1681
B( 28-C , 29-N ) :   3.0373 B( 30-C , 31-N ) :   3.0376 B( 32-C , 33-C ) :   1.1858
B( 32-C , 38-C ) :   1.2242 B( 33-C , 34-C ) :   1.1013 B( 33-C , 37-N ) :   1.5242
B( 34-C , 35-N ) :   1.5245 B( 35-N , 36-S ) :   1.2795 B( 35-N , 37-N ) :   0.1449
B( 36-S , 37-N ) :   1.2798 B( 38-C , 39-C ) :   1.4034 B( 38-C , 42-S ) :   1.0752
B( 39-C , 40-C ) :   1.2861 B( 39-C , 64-H ) :   0.9829 B( 40-C , 41-C ) :   1.3938
B( 40-C , 45-C ) :   0.9899 B( 41-C , 42-S ) :   1.0905 B( 41-C , 43-C ) :   1.2082
B( 43-C , 44-C ) :   1.4328 B( 43-C , 53-S ) :   1.1103 B( 44-C , 45-C ) :   0.9935
B( 44-C , 51-C ) :   1.2968 B( 45-C , 46-C ) :   1.7100 B( 46-C , 47-C ) :   1.1393
B( 46-C , 49-C ) :   1.1312 B( 47-C , 48-N ) :   2.9869 B( 49-C , 50-N ) :   2.9943
B( 51-C , 52-C ) :   1.4599 B( 51-C , 65-H ) :   0.9911 B( 52-C , 53-S ) :   1.1152
B( 52-C , 54-C ) :   1.1564 B( 54-C , 55-C ) :   1.5152 B( 54-C , 58-S ) :   1.1453
B( 55-C , 56-C ) :   1.2647 B( 55-C , 66-H ) :   0.9911 B( 56-C , 57-C ) :   1.5709
B( 56-C , 67-H ) :   0.9941 B( 57-C , 58-S ) :   1.1639 B( 57-C , 68-H ) :   0.9731

-----------------------------------------------------------------------------
         ABSORPTION SPECTRUM VIA TRANSITION ELECTRIC DIPOLE MOMENTS
-----------------------------------------------------------------------------
State   Energy  Wavelength   fosc         T2         TX        TY        TZ
        (cm-1)    (nm)                  (au**2)     (au)      (au)      (au)
-----------------------------------------------------------------------------
   0    6188.9   1615.8   0.482102472  25.64472   0.08941   3.65262   3.50644
   1   11738.4    851.9   0.001553916   0.04358   0.20787  -0.01623   0.01026
   2   12300.0    813.0   0.017617985   0.47155  -0.00819  -0.48465  -0.48641
   3   14779.7    676.6   0.000735781   0.01639   0.12770   0.00636  -0.00650
   4   20281.4    493.1   0.188446173   3.05890   0.02933   1.24934   1.22360
   5   21204.9    471.6   0.046843424   0.72726  -0.82482   0.16062  -0.14536
   6   22060.1    453.3   0.280449663   4.18526  -0.03737  -1.47784  -1.41417
   7   22621.6    442.1   0.001747896   0.02544   0.15401  -0.02719   0.03127
   8   22895.9    436.8   0.144742867   2.08121   0.02512   1.03788   1.00170
   9   24142.5    414.2   0.017649969   0.24068  -0.47840   0.08624  -0.06615
  10   24395.6    409.9   0.008251541   0.11135  -0.00618  -0.20114  -0.26619
  11   25260.1    395.9   0.001041786   0.01358   0.01029   0.10683  -0.04538
  12   27595.9    362.4   0.061293156   0.73121   0.83399  -0.15035   0.11433
  13   27756.4    360.3   1.706798879  20.24394   0.08076   3.23433   3.12674
  14   28795.9    347.3   0.089247574   1.02033   0.01282   0.72620   0.70199
  15   28972.1    345.2   0.007297638   0.08292  -0.27900   0.04743  -0.05324
  16   29638.1    337.4   0.068432324   0.76013  -0.84675   0.14467  -0.14905
  17   29794.6    335.6   0.101062005   1.11667  -0.00176  -0.73383  -0.76037
  18   30371.7    329.3   0.145340628   1.57541  -1.23431   0.17152  -0.14992
  19   30453.3    328.4   0.031203795   0.33733   0.00517  -0.41097  -0.41037
  20   31201.1    320.5   0.001118267   0.01180  -0.10534   0.02563  -0.00679
  21   31525.9    317.2   0.420037705   4.38628  -2.04346   0.35000  -0.29676
  22   31544.8    317.0   0.003669171   0.03829  -0.15907  -0.06620  -0.09277
  23   31732.3    315.1   0.067534585   0.70065   0.02490   0.65160   0.52483
  24   31881.7    313.7   0.052471554   0.54182  -0.71560   0.11715  -0.12654
  25   32057.1    311.9   0.066833107   0.68635   0.03255   0.67295   0.48210
  26   32343.8    309.2   0.844594358   8.59672  -2.85162   0.50538  -0.45780
  27   32629.5    306.5   0.222422240   2.24411  -1.45797   0.25569  -0.23032
  28   33379.5    299.6   0.210726691   2.07834  -1.40749   0.24630  -0.19141
  29   33587.4    297.7   0.012781470   0.12528  -0.22062  -0.15254  -0.23095
  30   33635.0    297.3   0.149669154   1.46493   0.02112  -0.83725  -0.87378
  31   34773.3    287.6   0.075361411   0.71347  -0.00907  -0.58952  -0.60486
  32   35634.7    280.6   0.126844548   1.17186   0.00697   0.77302   0.75779
  33   35738.3    279.8   0.059112967   0.54453  -0.72197   0.10188  -0.11364
  34   36300.2    275.5   0.052837596   0.47919   0.00610  -0.47850  -0.50019
  35   36419.6    274.6   0.281241526   2.54226   1.55711  -0.25208   0.23263
  36   36652.6    272.8   0.161541058   1.45095   1.17594  -0.19528   0.17315
  37   37883.5    264.0   0.260879473   2.26707   1.46126  -0.27026   0.24237
  38   38175.8    261.9   0.010410564   0.08978  -0.07917  -0.19108  -0.21679
  39   38308.5    261.0   0.077220428   0.66361   0.79390  -0.15172   0.10156
  40   38484.9    259.8   0.051659411   0.44191  -0.00830  -0.45862  -0.48115
  41   38542.0    259.5   0.000368799   0.00315  -0.01382  -0.03533  -0.04136
  42   38738.8    258.1   0.000163617   0.00139  -0.03716   0.00008   0.00313
  43   39105.4    255.7   0.001318099   0.01110  -0.00316  -0.08362  -0.06399
  44   39472.4    253.3   0.005963430   0.04974  -0.03660  -0.16649   0.14380
  45   39892.6    250.7   0.122537343   1.01123   0.01332   0.71258   0.70942

FINAL SINGLE POINT ENERGY     -4937.586383128119

DIPOLE MOMENT
-------------
                                X             Y             Z
Electronic contribution:      8.56200      -1.10236       0.93256
Nuclear contribution   :    -10.35319       1.36644      -1.16922
                        -----------------------------------------
Total Dipole Moment    :     -1.79118       0.26407      -0.23666
                        -----------------------------------------
Magnitude (a.u.)       :      1.82595
Magnitude (Debye)      :      4.64119

Rotational constants in cm-1:     0.003040     0.000391     0.000346
Rotational constants in MHz :    91.131725    11.713947    10.382889

                             ****ORCA TERMINATED NORMALLY****
TOTAL RUN TIME: 0 days 0 hours 6 minutes 14 seconds 288 msec
