                         Program Version 4.2.0 -  RELEASE  -
|  1> # ORCA input file
|  2> # SCF done       -138.781194437763          0.000913453611
|  3> ! CAM-B3LYP def2-SVP def2/J RIJCOSX Grid4 TightSCF
|  4> %maxcore 5000
|  5> %tddft
|  6>     Mode sTDDFT
|  7>     Ethresh 5.0
|  8>     maxcore 5000
|  9> end
| 10>
| 11> %pal
| 12>   nprocs 6
| 13>   end
| 14> * xyz 0 1
| 15>    C       -6.60541       -12.26983        -3.13132
| 16>    C       -7.23260       -11.14488        -3.57948
| 17>    C       -6.33859       -10.11173        -3.89150
| 18>    C       -5.02173       -10.45410        -3.67863
| 19>    S       -4.90472       -12.09302        -3.07700
| 20>    C       -3.84841        -9.68253        -3.87795
| 21>    C       -2.49711       -10.16268        -3.56263
| 22>    N       -1.54864        -9.31337        -3.81967
| 23>    C       -2.17889        -8.21035        -4.31738
| 24>    C       -3.63628        -8.40716        -4.35941
| 25>    C       -4.26292        -7.23266        -4.91508
| 26>    S       -5.86863        -7.00553        -5.21737
| 27>    C       -3.17459        -6.32578        -5.19247
| 28>    C       -1.90407        -6.96699        -4.81938
| 29>    N       -0.84527        -6.15556        -5.10325
| 30>    C       -1.36386        -5.09506        -5.64778
| 31>    C       -2.82658        -5.11096        -5.75224
| 32>    C       -3.60550        -4.02807        -6.28563
| 33>    C       -4.92566        -3.86150        -5.91143
| 34>    C       -5.66959        -2.76577        -6.38424
| 35>    C       -6.97726        -2.34427        -6.13745
| 36>    C       -8.08420        -2.93241        -5.33405
| 37>    C       -8.97074        -3.81769        -6.24865
| 38>    N       -8.21604        -4.94949        -6.72951
| 39>    C       -7.66000        -3.74079        -4.10203
| 40>    N       -6.80665        -2.94330        -3.23614
| 41>    C       -7.17923        -1.15074        -6.93367
| 42>    C       -8.26571        -0.37330        -7.09787
| 43>    C       -8.26343         0.77859        -8.03762
| 44>    C       -6.93086         1.07636        -8.65765
| 45>    C       -5.85601         0.28369        -8.48686
| 46>    C       -5.93521        -0.85317        -7.64917
| 47>    C       -5.02569        -1.83361        -7.30398
| 48>    C       -3.68271        -2.04099        -7.68984
| 49>    C       -2.99474        -3.09741        -7.18815
| 50>    C       -9.19685         0.53682        -9.20376
| 51>    C       -9.52164        -0.68448        -9.64092
| 52>    C      -10.37178        -0.96191       -10.75588
| 53>    C      -10.96061        -0.02616       -11.71530
| 54>    N      -11.71449        -0.58425       -12.62062
| 55>    C      -11.69317        -1.91999       -12.33965
| 56>    C      -10.84404        -2.18521       -11.17180
| 57>    C      -10.83586        -3.59348       -10.87194
| 58>    S      -10.00359        -4.31408        -9.64767
| 59>    C      -11.69862        -4.17909       -11.86498
| 60>    C      -12.20612        -3.11944       -12.75925
| 61>    N      -13.03361        -3.64038       -13.70971
| 62>    C      -13.07858        -4.91622       -13.46668
| 63>    C      -12.27221        -5.34847       -12.31926
| 64>    C      -12.18819        -6.68995       -11.86826
| 65>    C      -11.46539        -7.20673       -10.81544
| 66>    C      -11.63255        -8.58902       -10.66071
| 67>    C      -12.47677        -9.12606       -11.58802
| 68>    S      -13.08786        -7.95454       -12.67441
| 69>    H       -7.04595       -13.19870        -2.82755
| 70>    H       -8.29947       -11.06284        -3.68337
| 71>    H       -6.63614        -9.14716        -4.26093
| 72>    H       -2.27638       -11.13112        -3.14747
| 73>    H       -0.72764        -4.27783        -5.93952
| 74>    H       -5.37538        -4.57926        -5.24847
| 75>    H       -8.70658        -2.10317        -4.98102
| 76>    H       -9.38005        -3.18624        -7.05465
| 77>    H       -9.80803        -4.19764        -5.65746
| 78>    H       -7.49409        -4.65419        -7.37693
| 79>    H       -8.81569        -5.61056        -7.20595
| 80>    H       -7.22324        -4.69368        -4.43139
| 81>    H       -8.56343        -3.98081        -3.53337
| 82>    H       -5.93682        -2.71728        -3.70748
| 83>    H       -6.57860        -3.46383        -2.39641
| 84>    H       -9.19743        -0.57078        -6.58567
| 85>    H       -8.62534         1.66716        -7.50072
| 86>    H       -6.88974         1.94448        -9.29756
| 87>    H       -4.91987         0.51412        -8.97436
| 88>    H       -3.21806        -1.35635        -8.38406
| 89>    H       -1.97374        -3.26753        -7.49238
| 90>    H       -9.54756         1.42240        -9.71313
| 91>    H       -9.14729        -1.55859        -9.12307
| 92>    H      -10.81058         1.03910       -11.72431
| 93>    H      -13.67032        -5.57592       -14.07780
| 94>    H      -10.84081        -6.59924       -10.18606
| 95>    H      -11.14852        -9.16741        -9.89447
| 96>    H      -12.77683       -10.14969       -11.69726
| 97> *
| 98>
| 99>                          ****END OF INPUT****

CARTESIAN COORDINATES (ANGSTROEM)
---------------------------------
  C     -6.605410  -12.269830   -3.131320
  C     -7.232600  -11.144880   -3.579480
  C     -6.338590  -10.111730   -3.891500
  C     -5.021730  -10.454100   -3.678630
  S     -4.904720  -12.093020   -3.077000
  C     -3.848410   -9.682530   -3.877950
  C     -2.497110  -10.162680   -3.562630
  N     -1.548640   -9.313370   -3.819670
  C     -2.178890   -8.210350   -4.317380
  C     -3.636280   -8.407160   -4.359410
  C     -4.262920   -7.232660   -4.915080
  S     -5.868630   -7.005530   -5.217370
  C     -3.174590   -6.325780   -5.192470
  C     -1.904070   -6.966990   -4.819380
  N     -0.845270   -6.155560   -5.103250
  C     -1.363860   -5.095060   -5.647780
  C     -2.826580   -5.110960   -5.752240
  C     -3.605500   -4.028070   -6.285630
  C     -4.925660   -3.861500   -5.911430
  C     -5.669590   -2.765770   -6.384240
  C     -6.977260   -2.344270   -6.137450
  C     -8.084200   -2.932410   -5.334050
  C     -8.970740   -3.817690   -6.248650
  N     -8.216040   -4.949490   -6.729510
  C     -7.660000   -3.740790   -4.102030
  N     -6.806650   -2.943300   -3.236140
  C     -7.179230   -1.150740   -6.933670
  C     -8.265710   -0.373300   -7.097870
  C     -8.263430    0.778590   -8.037620
  C     -6.930860    1.076360   -8.657650
  C     -5.856010    0.283690   -8.486860
  C     -5.935210   -0.853170   -7.649170
  C     -5.025690   -1.833610   -7.303980
  C     -3.682710   -2.040990   -7.689840
  C     -2.994740   -3.097410   -7.188150
  C     -9.196850    0.536820   -9.203760
  C     -9.521640   -0.684480   -9.640920
  C    -10.371780   -0.961910  -10.755880
  C    -10.960610   -0.026160  -11.715300
  N    -11.714490   -0.584250  -12.620620
  C    -11.693170   -1.919990  -12.339650
  C    -10.844040   -2.185210  -11.171800
  C    -10.835860   -3.593480  -10.871940
  S    -10.003590   -4.314080   -9.647670
  C    -11.698620   -4.179090  -11.864980
  C    -12.206120   -3.119440  -12.759250
  N    -13.033610   -3.640380  -13.709710
  C    -13.078580   -4.916220  -13.466680
  C    -12.272210   -5.348470  -12.319260
  C    -12.188190   -6.689950  -11.868260
  C    -11.465390   -7.206730  -10.815440
  C    -11.632550   -8.589020  -10.660710
  C    -12.476770   -9.126060  -11.588020
  S    -13.087860   -7.954540  -12.674410
  H     -7.045950  -13.198700   -2.827550
  H     -8.299470  -11.062840   -3.683370
  H     -6.636140   -9.147160   -4.260930
  H     -2.276380  -11.131120   -3.147470
  H     -0.727640   -4.277830   -5.939520
  H     -5.375380   -4.579260   -5.248470
  H     -8.706580   -2.103170   -4.981020
  H     -9.380050   -3.186240   -7.054650
  H     -9.808030   -4.197640   -5.657460
  H     -7.494090   -4.654190   -7.376930
  H     -8.815690   -5.610560   -7.205950
  H     -7.223240   -4.693680   -4.431390
  H     -8.563430   -3.980810   -3.533370
  H     -5.936820   -2.717280   -3.707480
  H     -6.578600   -3.463830   -2.396410
  H     -9.197430   -0.570780   -6.585670
  H     -8.625340    1.667160   -7.500720
  H     -6.889740    1.944480   -9.297560
  H     -4.919870    0.514120   -8.974360
  H     -3.218060   -1.356350   -8.384060
  H     -1.973740   -3.267530   -7.492380
  H     -9.547560    1.422400   -9.713130
  H     -9.147290   -1.558590   -9.123070
  H    -10.810580    1.039100  -11.724310
  H    -13.670320   -5.575920  -14.077800
  H    -10.840810   -6.599240  -10.186060
  H    -11.148520   -9.167410   -9.894470
  H    -12.776830  -10.149690  -11.697260

 Total Charge           Charge          ....    0
 Multiplicity           Mult            ....    1
 Number of Electrons    NEL             ....  398
 Basis Dimension        Dim             ....  912

ORBITAL ENERGIES
----------------

  NO   OCC          E(Eh)            E(eV)
   0   2.0000     -88.965042     -2420.8619
   1   2.0000     -88.956680     -2420.6343
   2   2.0000     -88.901746     -2419.1395
   3   2.0000     -88.887030     -2418.7391
   4   2.0000     -14.418752      -392.3542
   5   2.0000     -14.415735      -392.2721
   6   2.0000     -14.407589      -392.0504
   7   2.0000     -14.404665      -391.9709
   8   2.0000     -14.366133      -390.9223
   9   2.0000     -14.359885      -390.7523
  10   2.0000     -10.343330      -281.4563
  11   2.0000     -10.337118      -281.2873
  12   2.0000     -10.333967      -281.2015
  13   2.0000     -10.330525      -281.1079
  14   2.0000     -10.330392      -281.1043
  15   2.0000     -10.326864      -281.0083
  16   2.0000     -10.325565      -280.9729
  17   2.0000     -10.321935      -280.8741
  18   2.0000     -10.316982      -280.7393
  19   2.0000     -10.316132      -280.7162
  20   2.0000     -10.313843      -280.6539
  21   2.0000     -10.310081      -280.5516
  22   2.0000     -10.304980      -280.4128
  23   2.0000     -10.304007      -280.3863
  24   2.0000     -10.303385      -280.3693
  25   2.0000     -10.302365      -280.3416
  26   2.0000     -10.301287      -280.3123
  27   2.0000     -10.300382      -280.2877
  28   2.0000     -10.300153      -280.2814
  29   2.0000     -10.296886      -280.1925
  30   2.0000     -10.295022      -280.1418
  31   2.0000     -10.293456      -280.0992
  32   2.0000     -10.290316      -280.0137
  33   2.0000     -10.284353      -279.8515
  34   2.0000     -10.281689      -279.7790
  35   2.0000     -10.280410      -279.7442
  36   2.0000     -10.279790      -279.7273
  37   2.0000     -10.278720      -279.6982
  38   2.0000     -10.276522      -279.6384
  39   2.0000     -10.274264      -279.5769
  40   2.0000     -10.273690      -279.5613
  41   2.0000     -10.272685      -279.5340
  42   2.0000     -10.272125      -279.5187
  43   2.0000     -10.271028      -279.4889
  44   2.0000     -10.269395      -279.4445
  45   2.0000     -10.268809      -279.4285
  46   2.0000     -10.267813      -279.4014
  47   2.0000     -10.266709      -279.3714
  48   2.0000     -10.266447      -279.3642
  49   2.0000     -10.266028      -279.3528
  50   2.0000     -10.262977      -279.2698
  51   2.0000     -10.261307      -279.2244
  52   2.0000     -10.260519      -279.2029
  53   2.0000     -10.256222      -279.0860
  54   2.0000      -8.060935      -219.3492
  55   2.0000      -8.052585      -219.1220
  56   2.0000      -7.997001      -217.6095
  57   2.0000      -7.982120      -217.2045
  58   2.0000      -6.030146      -164.0886
  59   2.0000      -6.025880      -163.9725
  60   2.0000      -6.023342      -163.9035
  61   2.0000      -6.021800      -163.8615
  62   2.0000      -6.017548      -163.7458
  63   2.0000      -6.014986      -163.6761
  64   2.0000      -5.965804      -162.3378
  65   2.0000      -5.965103      -162.3187
  66   2.0000      -5.956781      -162.0923
  67   2.0000      -5.950935      -161.9332
  68   2.0000      -5.950499      -161.9213
  69   2.0000      -5.941570      -161.6783
  70   2.0000      -1.084024       -29.4978
  71   2.0000      -1.073230       -29.2041
  72   2.0000      -1.065070       -28.9820
  73   2.0000      -1.054620       -28.6977
  74   2.0000      -0.988729       -26.9047
  75   2.0000      -0.984662       -26.7940
  76   2.0000      -0.980091       -26.6696
  77   2.0000      -0.962586       -26.1933
  78   2.0000      -0.956353       -26.0237
  79   2.0000      -0.951049       -25.8794
  80   2.0000      -0.948117       -25.7996
  81   2.0000      -0.935641       -25.4601
  82   2.0000      -0.921404       -25.0727
  83   2.0000      -0.898278       -24.4434
  84   2.0000      -0.891930       -24.2706
  85   2.0000      -0.881399       -23.9841
  86   2.0000      -0.873140       -23.7593
  87   2.0000      -0.863061       -23.4851
  88   2.0000      -0.852171       -23.1887
  89   2.0000      -0.840749       -22.8779
  90   2.0000      -0.836383       -22.7591
  91   2.0000      -0.835023       -22.7221
  92   2.0000      -0.829306       -22.5666
  93   2.0000      -0.825977       -22.4760
  94   2.0000      -0.822311       -22.3762
  95   2.0000      -0.809357       -22.0237
  96   2.0000      -0.801260       -21.8034
  97   2.0000      -0.794174       -21.6106
  98   2.0000      -0.772646       -21.0248
  99   2.0000      -0.767066       -20.8729
 100   2.0000      -0.756349       -20.5813
 101   2.0000      -0.743159       -20.2224
 102   2.0000      -0.734172       -19.9778
 103   2.0000      -0.722058       -19.6482
 104   2.0000      -0.706430       -19.2229
 105   2.0000      -0.705441       -19.1960
 106   2.0000      -0.694552       -18.8997
 107   2.0000      -0.685073       -18.6418
 108   2.0000      -0.679822       -18.4989
 109   2.0000      -0.675797       -18.3894
 110   2.0000      -0.671496       -18.2723
 111   2.0000      -0.669138       -18.2082
 112   2.0000      -0.658518       -17.9192
 113   2.0000      -0.655052       -17.8249
 114   2.0000      -0.645038       -17.5524
 115   2.0000      -0.636738       -17.3265
 116   2.0000      -0.630362       -17.1530
 117   2.0000      -0.623441       -16.9647
 118   2.0000      -0.613392       -16.6912
 119   2.0000      -0.611092       -16.6287
 120   2.0000      -0.603773       -16.4295
 121   2.0000      -0.598085       -16.2747
 122   2.0000      -0.590843       -16.0777
 123   2.0000      -0.578656       -15.7460
 124   2.0000      -0.573814       -15.6143
 125   2.0000      -0.572032       -15.5658
 126   2.0000      -0.565115       -15.3776
 127   2.0000      -0.563583       -15.3359
 128   2.0000      -0.559177       -15.2160
 129   2.0000      -0.556244       -15.1362
 130   2.0000      -0.549860       -14.9625
 131   2.0000      -0.544474       -14.8159
 132   2.0000      -0.542279       -14.7562
 133   2.0000      -0.536071       -14.5872
 134   2.0000      -0.535027       -14.5588
 135   2.0000      -0.532811       -14.4985
 136   2.0000      -0.525928       -14.3112
 137   2.0000      -0.522788       -14.2258
 138   2.0000      -0.519442       -14.1347
 139   2.0000      -0.513733       -13.9794
 140   2.0000      -0.511292       -13.9130
 141   2.0000      -0.503168       -13.6919
 142   2.0000      -0.502190       -13.6653
 143   2.0000      -0.499855       -13.6017
 144   2.0000      -0.498474       -13.5642
 145   2.0000      -0.496242       -13.5034
 146   2.0000      -0.492461       -13.4005
 147   2.0000      -0.488639       -13.2965
 148   2.0000      -0.487658       -13.2698
 149   2.0000      -0.483949       -13.1689
 150   2.0000      -0.482776       -13.1370
 151   2.0000      -0.480364       -13.0714
 152   2.0000      -0.478336       -13.0162
 153   2.0000      -0.475264       -12.9326
 154   2.0000      -0.470745       -12.8096
 155   2.0000      -0.469987       -12.7890
 156   2.0000      -0.467458       -12.7202
 157   2.0000      -0.461504       -12.5582
 158   2.0000      -0.459691       -12.5088
 159   2.0000      -0.459429       -12.5017
 160   2.0000      -0.451935       -12.2978
 161   2.0000      -0.447639       -12.1809
 162   2.0000      -0.442613       -12.0441
 163   2.0000      -0.437743       -11.9116
 164   2.0000      -0.431389       -11.7387
 165   2.0000      -0.430483       -11.7141
 166   2.0000      -0.427913       -11.6441
 167   2.0000      -0.425944       -11.5905
 168   2.0000      -0.423337       -11.5196
 169   2.0000      -0.421500       -11.4696
 170   2.0000      -0.416889       -11.3441
 171   2.0000      -0.415503       -11.3064
 172   2.0000      -0.410733       -11.1766
 173   2.0000      -0.406515       -11.0618
 174   2.0000      -0.395208       -10.7541
 175   2.0000      -0.386851       -10.5268
 176   2.0000      -0.382648       -10.4124
 177   2.0000      -0.369916       -10.0659
 178   2.0000      -0.363339        -9.8869
 179   2.0000      -0.360607        -9.8126
 180   2.0000      -0.357236        -9.7209
 181   2.0000      -0.353159        -9.6099
 182   2.0000      -0.348798        -9.4913
 183   2.0000      -0.346701        -9.4342
 184   2.0000      -0.342279        -9.3139
 185   2.0000      -0.330046        -8.9810
 186   2.0000      -0.328308        -8.9337
 187   2.0000      -0.321676        -8.7532
 188   2.0000      -0.318842        -8.6761
 189   2.0000      -0.307610        -8.3705
 190   2.0000      -0.302283        -8.2255
 191   2.0000      -0.294737        -8.0202
 192   2.0000      -0.289581        -7.8799
 193   2.0000      -0.284891        -7.7523
 194   2.0000      -0.278156        -7.5690
 195   2.0000      -0.273725        -7.4484
 196   2.0000      -0.269529        -7.3342
 197   2.0000      -0.267642        -7.2829
 198   2.0000      -0.220901        -6.0110
 199   0.0000      -0.110075        -2.9953
 200   0.0000      -0.102409        -2.7867
 201   0.0000      -0.080902        -2.2015
 202   0.0000      -0.074692        -2.0325
 203   0.0000      -0.057802        -1.5729

MULLIKEN ATOMIC CHARGES
-----------------------
   0 C :   -0.054346
   1 C :    0.043195
   2 C :    0.035127
   3 C :   -0.144243
   4 S :    0.104933
   5 C :    0.065162
   6 C :    0.037602
   7 N :   -0.022029
   8 C :    0.009474
   9 C :   -0.035648
  10 C :   -0.018723
  11 S :   -0.107545
  12 C :   -0.013053
  13 C :   -0.008248
  14 N :   -0.029626
  15 C :    0.041502
  16 C :    0.002300
  17 C :    0.091706
  18 C :   -0.057764
  19 C :    0.021714
  20 C :   -0.070425
  21 C :   -0.000435
  22 C :    0.151867
  23 N :   -0.225923
  24 C :    0.112609
  25 N :   -0.214598
  26 C :    0.099046
  27 C :   -0.147612
  28 C :    0.168560
  29 C :   -0.029734
  30 C :    0.022892
  31 C :    0.016015
  32 C :    0.040796
  33 C :   -0.009650
  34 C :   -0.027299
  35 C :   -0.086454
  36 C :    0.016332
  37 C :    0.014995
  38 C :    0.049223
  39 N :   -0.026739
  40 C :    0.013535
  41 C :   -0.006735
  42 C :    0.009137
  43 S :   -0.142382
  44 C :   -0.036083
  45 C :   -0.006479
  46 N :   -0.019499
  47 C :    0.039831
  48 C :    0.073083
  49 C :   -0.150479
  50 C :    0.038978
  51 C :    0.044164
  52 C :   -0.051287
  53 S :    0.112388
  54 H :    0.030376
  55 H :   -0.007708
  56 H :   -0.022101
  57 H :    0.012390
  58 H :    0.006840
  59 H :   -0.045992
  60 H :   -0.016077
  61 H :   -0.023827
  62 H :   -0.012169
  63 H :    0.100934
  64 H :    0.094369
  65 H :    0.020311
  66 H :   -0.022189
  67 H :    0.091022
  68 H :    0.089673
  69 H :    0.007228
  70 H :    0.029675
  71 H :   -0.013425
  72 H :   -0.036599
  73 H :   -0.036731
  74 H :   -0.029653
  75 H :    0.002417
  76 H :    0.017698
  77 H :    0.006067
  78 H :    0.017030
  79 H :   -0.023972
  80 H :   -0.003666
  81 H :    0.034948
Sum of atomic charges:   -0.0000000

LOEWDIN ATOMIC CHARGES
----------------------
   0 C :   -0.172579
   1 C :   -0.063382
   2 C :   -0.030079
   3 C :   -0.180159
   4 S :    0.431272
   5 C :   -0.041956
   6 C :    0.072428
   7 N :   -0.075856
   8 C :    0.031963
   9 C :   -0.050268
  10 C :   -0.138271
  11 S :    0.100871
  12 C :   -0.049817
  13 C :    0.032995
  14 N :   -0.080125
  15 C :    0.077682
  16 C :   -0.020617
  17 C :   -0.040997
  18 C :    0.017965
  19 C :   -0.034250
  20 C :   -0.012964
  21 C :   -0.039621
  22 C :    0.027480
  23 N :   -0.107383
  24 C :    0.019785
  25 N :   -0.122396
  26 C :   -0.014881
  27 C :    0.072713
  28 C :   -0.030130
  29 C :   -0.029654
  30 C :   -0.015872
  31 C :   -0.039394
  32 C :   -0.026467
  33 C :   -0.010564
  34 C :   -0.029607
  35 C :    0.018445
  36 C :   -0.029001
  37 C :   -0.030289
  38 C :    0.083648
  39 N :   -0.078980
  40 C :    0.031549
  41 C :   -0.041768
  42 C :   -0.132211
  43 S :    0.066686
  44 C :   -0.051105
  45 C :    0.038804
  46 N :   -0.072638
  47 C :    0.078180
  48 C :   -0.037528
  49 C :   -0.182609
  50 C :   -0.026964
  51 C :   -0.061030
  52 C :   -0.167525
  53 S :    0.435853
  54 H :    0.024822
  55 H :    0.032041
  56 H :    0.008989
  57 H :    0.019598
  58 H :    0.023323
  59 H :    0.015027
  60 H :    0.027232
  61 H :   -0.014487
  62 H :    0.015086
  63 H :    0.052513
  64 H :    0.048666
  65 H :   -0.005627
  66 H :    0.016545
  67 H :    0.047170
  68 H :    0.053755
  69 H :    0.032877
  70 H :    0.055444
  71 H :    0.023577
  72 H :    0.030119
  73 H :    0.027595
  74 H :    0.024444
  75 H :    0.024257
  76 H :    0.031913
  77 H :    0.023035
  78 H :    0.021990
  79 H :    0.009852
  80 H :    0.034001
  81 H :    0.026859

  Mayer bond orders larger than 0.100000
B(  0-C ,  1-C ) :   1.5419 B(  0-C ,  4-S ) :   1.1765 B(  0-C , 54-H ) :   0.9728
B(  1-C ,  2-C ) :   1.2672 B(  1-C , 55-H ) :   0.9950 B(  2-C ,  3-C ) :   1.5063
B(  2-C , 56-H ) :   0.9659 B(  3-C ,  4-S ) :   1.1136 B(  3-C ,  5-C ) :   1.1334
B(  5-C ,  6-C ) :   1.0224 B(  5-C ,  9-C ) :   1.5291 B(  6-C ,  7-N ) :   1.7407
B(  6-C , 57-H ) :   0.9838 B(  7-N ,  8-C ) :   1.2573 B(  8-C ,  9-C ) :   1.0743
B(  8-C , 13-C ) :   1.5232 B(  9-C , 10-C ) :   1.0469 B( 10-C , 11-S ) :   1.6648
B( 10-C , 12-C ) :   1.0427 B( 11-S , 56-H ) :   0.1143 B( 12-C , 13-C ) :   1.0758
B( 12-C , 16-C ) :   1.5152 B( 13-C , 14-N ) :   1.2574 B( 14-N , 15-C ) :   1.7316
B( 15-C , 16-C ) :   1.0325 B( 15-C , 58-H ) :   0.9868 B( 16-C , 17-C ) :   1.0331
B( 17-C , 18-C ) :   1.4995 B( 17-C , 34-C ) :   1.1047 B( 18-C , 19-C ) :   1.1373
B( 18-C , 59-H ) :   0.9824 B( 19-C , 20-C ) :   1.4513 B( 19-C , 32-C ) :   1.1125
B( 20-C , 21-C ) :   1.0577 B( 20-C , 26-C ) :   1.1002 B( 21-C , 22-C ) :   1.0446
B( 21-C , 24-C ) :   1.0323 B( 21-C , 60-H ) :   0.8706 B( 22-C , 23-N ) :   1.0935
B( 22-C , 61-H ) :   0.9223 B( 22-C , 62-H ) :   0.9341 B( 23-N , 63-H ) :   0.9649
B( 23-N , 64-H ) :   0.9703 B( 24-C , 25-N ) :   1.1078 B( 24-C , 65-H ) :   0.9245
B( 24-C , 66-H ) :   0.9274 B( 25-N , 67-H ) :   0.9742 B( 25-N , 68-H ) :   0.9688
B( 26-C , 27-C ) :   1.6634 B( 26-C , 31-C ) :   1.0541 B( 27-C , 28-C ) :   0.9727
B( 27-C , 69-H ) :   0.9721 B( 28-C , 29-C ) :   0.9822 B( 28-C , 35-C ) :   0.9571
B( 28-C , 70-H ) :   0.8668 B( 29-C , 30-C ) :   1.7362 B( 29-C , 71-H ) :   0.9636
B( 30-C , 31-C ) :   1.1303 B( 30-C , 72-H ) :   0.9865 B( 31-C , 32-C ) :   1.4435
B( 32-C , 33-C ) :   1.1392 B( 33-C , 34-C ) :   1.6107 B( 33-C , 73-H ) :   0.9907
B( 34-C , 74-H ) :   0.9847 B( 35-C , 36-C ) :   1.7894 B( 35-C , 75-H ) :   0.9696
B( 36-C , 37-C ) :   1.0868 B( 36-C , 76-H ) :   0.9548 B( 37-C , 38-C ) :   1.0130
B( 37-C , 41-C ) :   1.5307 B( 38-C , 39-N ) :   1.7320 B( 38-C , 77-H ) :   0.9907
B( 39-N , 40-C ) :   1.2595 B( 40-C , 41-C ) :   1.0698 B( 40-C , 45-C ) :   1.5283
B( 41-C , 42-C ) :   1.0319 B( 42-C , 43-S ) :   1.6761 B( 42-C , 44-C ) :   1.0525
B( 43-S , 79-H ) :   0.1097 B( 44-C , 45-C ) :   1.0763 B( 44-C , 48-C ) :   1.5233
B( 45-C , 46-N ) :   1.2579 B( 46-N , 47-C ) :   1.7353 B( 47-C , 48-C ) :   1.0212
B( 47-C , 78-H ) :   0.9851 B( 48-C , 49-C ) :   1.1383 B( 49-C , 50-C ) :   1.4989
B( 49-C , 53-S ) :   1.1144 B( 50-C , 51-C ) :   1.2716 B( 50-C , 79-H ) :   0.9681
B( 51-C , 52-C ) :   1.5398 B( 51-C , 80-H ) :   0.9947 B( 52-C , 53-S ) :   1.1798
B( 52-C , 81-H ) :   0.9723

-----------------------------------------------------------------------------
         ABSORPTION SPECTRUM VIA TRANSITION ELECTRIC DIPOLE MOMENTS
-----------------------------------------------------------------------------
State   Energy  Wavelength   fosc         T2         TX        TY        TZ
        (cm-1)    (nm)                  (au**2)     (au)      (au)      (au)
-----------------------------------------------------------------------------
   0   10377.3    963.6   0.063269000   2.00717   0.95267  -0.93812   0.46853
   1   11155.2    896.4   0.028438867   0.83929   0.55584   0.40954   0.60217
   2   14267.1    700.9   0.039207247   0.90470  -0.11418  -0.67556   0.65976
   3   15325.4    652.5   0.000654382   0.01406   0.00120  -0.10030   0.06320
   4   15770.7    634.1   0.031101671   0.64924   0.56011  -0.12747   0.56504
   5   17241.1    580.0   0.039461447   0.75350  -0.34898  -0.73506   0.30232
   6   17325.8    577.2   0.025336600   0.48143   0.36987   0.42549   0.40445
   7   17501.1    571.4   0.030756026   0.57855   0.29498  -0.38546   0.58563
   8   17666.2    566.1   0.157614052   2.93716  -0.24241  -1.66331   0.33436
   9   18674.8    535.5   0.122302693   2.15603  -0.19907   1.32508  -0.60047
  10   19450.0    514.1   0.000173128   0.00293   0.01589   0.01028   0.05072
  11   19833.5    504.2   0.014800367   0.24567  -0.32044  -0.36389  -0.10284
  12   19877.2    503.1   0.007106257   0.11770   0.22848   0.09221   0.23873
  13   21008.0    476.0   0.033551668   0.52578   0.34841  -0.61156   0.17433
  14   22272.8    449.0   0.000618383   0.00914   0.00107   0.08126   0.05035
  15   24185.1    413.5   0.105903334   1.44157   0.62925   0.97862   0.29651
  16   24254.8    412.3   0.034326842   0.46592  -0.30927   0.60255  -0.08490
  17   24480.4    408.5   0.001143962   0.01538   0.03195   0.11738  -0.02420
  18   25099.0    398.4   0.026196483   0.34361  -0.15670  -0.53991   0.16599
  19   25187.3    397.0   0.005122215   0.06695  -0.21090   0.02947  -0.14698
  20   25484.1    392.4   0.020625034   0.26644   0.37120   0.18710  -0.30602
  21   25540.5    391.5   0.000786691   0.01014   0.01240  -0.09638  -0.02639
  22   25681.0    389.4   0.291012103   3.73056   0.20630  -1.71881   0.85657
  23   25976.5    385.0   0.056382705   0.71456   0.13845   0.82911   0.08932
  24   26608.8    375.8   0.158543553   1.96154  -0.56476  -1.25297  -0.26952
  25   26704.7    374.5   0.047255035   0.58255  -0.18128  -0.74016   0.04312
  26   26756.3    373.7   0.007286263   0.08965  -0.03916   0.28146   0.09432
  27   26988.0    370.5   0.300786901   3.66913   0.72410  -1.58048   0.80430
  28   27269.3    366.7   0.207131564   2.50062   0.77210   1.30273  -0.45540
  29   27460.2    364.2   0.000164634   0.00197   0.00326  -0.03913   0.02079
  30   27822.9    359.4   0.025696267   0.30405  -0.46617  -0.22685  -0.18781
  31   28191.5    354.7   0.033614807   0.39254  -0.61694   0.07511  -0.07926
  32   28460.9    351.4   0.002847199   0.03293  -0.05436   0.05054  -0.16560
  33   28702.7    348.4   0.023913026   0.27428   0.30522   0.26577   0.33239
  34   28887.6    346.2   0.728877532   8.30652  -0.91013  -2.68763  -0.50479
  35   29116.0    343.5   0.084657839   0.95722  -0.26244  -0.93121  -0.14556
  36   29569.8    338.2   0.063052082   0.70198  -0.29713  -0.76155  -0.18370
  37   29852.1    335.0   0.042857286   0.47264   0.01630  -0.68085   0.09391
  38   30273.1    330.3   0.009675449   0.10522   0.14529   0.27197   0.10071
  39   30431.7    328.6   0.001172854   0.01269   0.11087   0.00570  -0.01906
  40   30589.0    326.9   0.025026472   0.26935   0.11680   0.48336  -0.14856
  41   30795.2    324.7   0.030422564   0.32523   0.13608   0.43428  -0.34367
  42   31066.4    321.9   0.002819434   0.02988  -0.11020  -0.10162   0.08606
  43   32210.0    310.5   0.108528375   1.10925  -0.26738  -0.93779   0.39788
  44   32408.5    308.6   0.003895015   0.03957   0.03507  -0.18254   0.07081
  45   32471.3    308.0   0.009830434   0.09967  -0.30063  -0.08023   0.05342
  46   32966.2    303.3   0.000183400   0.00183  -0.01238  -0.04089  -0.00251
  47   33317.7    300.1   0.014638111   0.14464   0.00036  -0.37895   0.03215
  48   33445.6    299.0   0.020010038   0.19696   0.24893   0.27172  -0.24732
  49   33574.4    297.8   0.000195071   0.00191  -0.03284   0.02643   0.01166
  50   33810.9    295.8   0.084412483   0.82191  -0.56879   0.61046  -0.35457
  51   34350.8    291.1   0.036436405   0.34920  -0.36478   0.46115   0.05900
  52   34589.1    289.1   0.003148421   0.02997  -0.16049   0.03855  -0.05218
  53   34684.4    288.3   0.000348524   0.00331  -0.02838  -0.01731   0.04693
  54   35168.2    284.3   0.036172073   0.33861   0.31104  -0.44107   0.21755
  55   35980.2    277.9   0.009766417   0.08936   0.25858  -0.05048   0.14124
  56   36081.1    277.2   0.285043314   2.60080  -1.60106  -0.13574  -0.13781
  57   36282.4    275.6   0.003247254   0.02946  -0.07860   0.12056  -0.09356
  58   36661.1    272.8   0.034344730   0.30841  -0.11159  -0.48975   0.23687
  59   36818.1    271.6   0.015518906   0.13876   0.00046  -0.34725   0.13485
  60   36834.6    271.5   0.002066730   0.01847  -0.03876   0.10167  -0.08144
  61   36898.6    271.0   0.065188197   0.58161  -0.10192   0.75448  -0.04453
  62   36964.1    270.5   0.001857325   0.01654   0.04023   0.11361  -0.04490
  63   37042.9    270.0   0.006216730   0.05525  -0.03710   0.23190   0.00976
  64   37064.0    269.8   0.002389385   0.02122  -0.14194  -0.01565  -0.02885
  65   37240.0    268.5   0.003594206   0.03177   0.15113  -0.09393  -0.01042
  66   37533.0    266.4   0.001424203   0.01249  -0.01720   0.04114   0.10249
  67   38168.3    262.0   0.174063538   1.50134   0.65852  -0.94004   0.42896
  68   38207.0    261.7   0.010469383   0.09021   0.20917  -0.09282   0.19453
  69   38213.2    261.7   0.044344758   0.38204   0.11587  -0.60623   0.03312
  70   38505.6    259.7   0.285678354   2.44247   0.97484   0.02747   1.22123
  71   38808.2    257.7   0.282234732   2.39421  -0.43870   1.18013  -0.89946
  72   39070.2    255.9   0.128295548   1.08104  -0.92756  -0.32382  -0.34032
  73   39268.5    254.7   0.100642276   0.84375  -0.89052   0.10626  -0.19859
  74   39338.6    254.2   0.090462111   0.75705   0.28595  -0.79297   0.21557
  75   39724.0    251.7   0.006211246   0.05148  -0.17411  -0.06494  -0.13017
  76   40091.2    249.4   0.200039365   1.64264  -0.62486   1.05521  -0.37244

FINAL SINGLE POINT ENERGY     -3611.497002827082

DIPOLE MOMENT
-------------
                                X             Y             Z
Electronic contribution:      4.09567     -21.86788     -16.64136
Nuclear contribution   :     -5.63131      21.75590      16.30618
                        -----------------------------------------
Total Dipole Moment    :     -1.53564      -0.11198      -0.33518
                        -----------------------------------------
Magnitude (a.u.)       :      1.57578
Magnitude (Debye)      :      4.00532

Rotational constants in cm-1:     0.001801     0.000832     0.000621
Rotational constants in MHz :    54.006405    24.955532    18.626060

                             ****ORCA TERMINATED NORMALLY****
TOTAL RUN TIME: 0 days 0 hours 7 minutes 6 seconds 798 msec
