                         Program Version 4.2.0 -  RELEASE  -
|  1> # ORCA input file
|  2> # SCF done       -159.021580326150          0.000584535170
|  3> ! CAM-B3LYP def2-SVP def2/J RIJCOSX Grid4 TightSCF
|  4> %maxcore 5000
|  5> %tddft
|  6>     Mode sTDDFT
|  7>     Ethresh 5.0
|  8>     maxcore 5000
|  9> end
| 10>
| 11> %pal
| 12>   nprocs 6
| 13>   end
| 14> * xyz 0 1
| 15>    C       -6.36231        -3.90417         5.13032
| 16>    N       -6.65179        -3.71805         3.87181
| 17>    N       -5.94015        -4.23545         2.90449
| 18>    C       -4.87373        -4.98726         3.11756
| 19>    C       -4.46142        -5.26009         4.45335
| 20>    C       -5.24896        -4.68670         5.50481
| 21>    N       -4.77674        -5.00222         6.71071
| 22>    S       -3.47617        -5.92529         6.52719
| 23>    N       -3.44167        -5.97435         4.91978
| 24>    C       -4.18407        -5.48702         1.97238
| 25>    C       -3.05542        -6.28147         1.92675
| 26>    C       -2.67796        -6.55335         0.61339
| 27>    C       -3.53610        -5.95453        -0.33550
| 28>    S       -4.79884        -5.06468         0.38771
| 29>    C       -3.06827        -6.27712        -1.63290
| 30>    C       -1.91532        -7.07885        -1.50333
| 31>    C       -1.63606        -7.27911        -0.08903
| 32>    C       -0.60913        -7.99480         0.45455
| 33>    C        0.34969        -8.65893        -0.33923
| 34>    N        1.13645        -9.20376        -0.97126
| 35>    C       -0.43272        -8.11987         1.84874
| 36>    N       -0.27910        -8.22848         2.97995
| 37>    C       -1.36696        -7.44076        -2.72503
| 38>    C       -2.08797        -6.92314        -3.79507
| 39>    S       -3.47300        -5.97650        -3.26473
| 40>    C       -1.81829        -7.06007        -5.18335
| 41>    C       -0.71604        -7.78078        -5.71662
| 42>    C       -0.48116        -7.83430        -7.12981
| 43>    N        0.57914        -8.50964        -7.60834
| 44>    C        1.38168        -9.11627        -6.78004
| 45>    C        1.14492        -9.07297        -5.39163
| 46>    N        0.13116        -8.42457        -4.89040
| 47>    C       -1.31376        -7.19904        -8.08345
| 48>    C       -2.42505        -6.50788        -7.55730
| 49>    C       -2.65882        -6.44536        -6.13575
| 50>    N       -3.75269        -5.73641        -5.84797
| 51>    S       -4.41694        -5.20860        -7.21123
| 52>    N       -3.36218        -5.84123        -8.23522
| 53>    C       -1.00973        -7.25934        -9.46637
| 54>    C       -1.73611        -6.68728       -10.50474
| 55>    C       -1.14310        -6.91665       -11.73781
| 56>    C        0.04640        -7.66854       -11.64127
| 57>    S        0.42422        -8.09973       -10.02652
| 58>    C        0.57499        -7.83010       -12.94540
| 59>    C       -0.28108        -7.18327       -13.86417
| 60>    C       -1.38790        -6.59183       -13.13508
| 61>    C       -2.43339        -5.87941       -13.64644
| 62>    C       -2.56716        -5.62470       -15.02762
| 63>    N       -2.68613        -5.41277       -16.14824
| 64>    C       -3.45243        -5.34498       -12.83012
| 65>    N       -4.28815        -4.90651       -12.17868
| 66>    C        0.16845        -7.28011       -15.17901
| 67>    C        1.35139        -7.98921       -15.25593
| 68>    S        1.92458        -8.55087       -13.69943
| 69>    C        2.13044        -8.29374       -16.41220
| 70>    N        3.24839        -8.97576       -16.23021
| 71>    N        4.04705        -9.30910       -17.21043
| 72>    C        3.80127        -8.99239       -18.45206
| 73>    C        2.64081        -8.26502       -18.79329
| 74>    C        1.75720        -7.89385       -17.72745
| 75>    N        0.70032        -7.21472       -18.16265
| 76>    S        0.81335        -7.06139       -19.75984
| 77>    N        2.19873        -7.84292       -19.97785
| 78>    H       -7.00608        -3.43719         5.85901
| 79>    H       -2.55616        -6.62641         2.81430
| 80>    H       -0.49093        -8.04392        -2.87333
| 81>    H        2.22050        -9.64654        -7.20737
| 82>    H        1.79140        -9.57512        -4.68569
| 83>    H       -2.64263        -6.13748       -10.33012
| 84>    H       -0.31443        -6.86746       -16.04649
| 85>    H        4.51802        -9.30925       -19.19325
| 86> *
| 87>
| 88>                          ****END OF INPUT****

CARTESIAN COORDINATES (ANGSTROEM)
---------------------------------
  C     -6.362310   -3.904170    5.130320
  N     -6.651790   -3.718050    3.871810
  N     -5.940150   -4.235450    2.904490
  C     -4.873730   -4.987260    3.117560
  C     -4.461420   -5.260090    4.453350
  C     -5.248960   -4.686700    5.504810
  N     -4.776740   -5.002220    6.710710
  S     -3.476170   -5.925290    6.527190
  N     -3.441670   -5.974350    4.919780
  C     -4.184070   -5.487020    1.972380
  C     -3.055420   -6.281470    1.926750
  C     -2.677960   -6.553350    0.613390
  C     -3.536100   -5.954530   -0.335500
  S     -4.798840   -5.064680    0.387710
  C     -3.068270   -6.277120   -1.632900
  C     -1.915320   -7.078850   -1.503330
  C     -1.636060   -7.279110   -0.089030
  C     -0.609130   -7.994800    0.454550
  C      0.349690   -8.658930   -0.339230
  N      1.136450   -9.203760   -0.971260
  C     -0.432720   -8.119870    1.848740
  N     -0.279100   -8.228480    2.979950
  C     -1.366960   -7.440760   -2.725030
  C     -2.087970   -6.923140   -3.795070
  S     -3.473000   -5.976500   -3.264730
  C     -1.818290   -7.060070   -5.183350
  C     -0.716040   -7.780780   -5.716620
  C     -0.481160   -7.834300   -7.129810
  N      0.579140   -8.509640   -7.608340
  C      1.381680   -9.116270   -6.780040
  C      1.144920   -9.072970   -5.391630
  N      0.131160   -8.424570   -4.890400
  C     -1.313760   -7.199040   -8.083450
  C     -2.425050   -6.507880   -7.557300
  C     -2.658820   -6.445360   -6.135750
  N     -3.752690   -5.736410   -5.847970
  S     -4.416940   -5.208600   -7.211230
  N     -3.362180   -5.841230   -8.235220
  C     -1.009730   -7.259340   -9.466370
  C     -1.736110   -6.687280  -10.504740
  C     -1.143100   -6.916650  -11.737810
  C      0.046400   -7.668540  -11.641270
  S      0.424220   -8.099730  -10.026520
  C      0.574990   -7.830100  -12.945400
  C     -0.281080   -7.183270  -13.864170
  C     -1.387900   -6.591830  -13.135080
  C     -2.433390   -5.879410  -13.646440
  C     -2.567160   -5.624700  -15.027620
  N     -2.686130   -5.412770  -16.148240
  C     -3.452430   -5.344980  -12.830120
  N     -4.288150   -4.906510  -12.178680
  C      0.168450   -7.280110  -15.179010
  C      1.351390   -7.989210  -15.255930
  S      1.924580   -8.550870  -13.699430
  C      2.130440   -8.293740  -16.412200
  N      3.248390   -8.975760  -16.230210
  N      4.047050   -9.309100  -17.210430
  C      3.801270   -8.992390  -18.452060
  C      2.640810   -8.265020  -18.793290
  C      1.757200   -7.893850  -17.727450
  N      0.700320   -7.214720  -18.162650
  S      0.813350   -7.061390  -19.759840
  N      2.198730   -7.842920  -19.977850
  H     -7.006080   -3.437190    5.859010
  H     -2.556160   -6.626410    2.814300
  H     -0.490930   -8.043920   -2.873330
  H      2.220500   -9.646540   -7.207370
  H      1.791400   -9.575120   -4.685690
  H     -2.642630   -6.137480  -10.330120
  H     -0.314430   -6.867460  -16.046490
  H      4.518020   -9.309250  -19.193250

 Total Charge           Charge          ....    0
 Multiplicity           Mult            ....    1
 Number of Electrons    NEL             ....  472
 Basis Dimension        Dim             ....  950

ORBITAL ENERGIES
----------------

  NO   OCC          E(Eh)            E(eV)
   0   2.0000     -89.048455     -2423.1316
   1   2.0000     -89.046231     -2423.0711
   2   2.0000     -89.045869     -2423.0613
   3   2.0000     -88.983362     -2421.3604
   4   2.0000     -88.982566     -2421.3387
   5   2.0000     -88.980120     -2421.2722
   6   2.0000     -88.978822     -2421.2369
   7   2.0000     -14.461621      -393.5207
   8   2.0000     -14.461265      -393.5110
   9   2.0000     -14.459125      -393.4528
  10   2.0000     -14.458820      -393.4445
  11   2.0000     -14.456414      -393.3790
  12   2.0000     -14.456290      -393.3757
  13   2.0000     -14.449929      -393.2026
  14   2.0000     -14.444236      -393.0476
  15   2.0000     -14.443997      -393.0412
  16   2.0000     -14.443390      -393.0246
  17   2.0000     -14.442215      -392.9926
  18   2.0000     -14.441866      -392.9831
  19   2.0000     -14.425417      -392.5355
  20   2.0000     -14.424404      -392.5080
  21   2.0000     -14.423435      -392.4816
  22   2.0000     -14.423327      -392.4787
  23   2.0000     -10.357423      -281.8398
  24   2.0000     -10.356342      -281.8104
  25   2.0000     -10.345999      -281.5290
  26   2.0000     -10.345318      -281.5104
  27   2.0000     -10.344988      -281.5014
  28   2.0000     -10.344703      -281.4937
  29   2.0000     -10.344029      -281.4753
  30   2.0000     -10.343917      -281.4723
  31   2.0000     -10.343681      -281.4659
  32   2.0000     -10.343353      -281.4570
  33   2.0000     -10.342662      -281.4381
  34   2.0000     -10.341486      -281.4061
  35   2.0000     -10.341065      -281.3947
  36   2.0000     -10.340802      -281.3875
  37   2.0000     -10.339350      -281.3480
  38   2.0000     -10.338792      -281.3328
  39   2.0000     -10.329462      -281.0789
  40   2.0000     -10.327962      -281.0381
  41   2.0000     -10.326377      -280.9950
  42   2.0000     -10.325050      -280.9589
  43   2.0000     -10.324132      -280.9339
  44   2.0000     -10.324062      -280.9320
  45   2.0000     -10.323245      -280.9098
  46   2.0000     -10.322953      -280.9018
  47   2.0000     -10.320680      -280.8400
  48   2.0000     -10.320189      -280.8266
  49   2.0000     -10.318645      -280.7846
  50   2.0000     -10.317753      -280.7603
  51   2.0000     -10.317585      -280.7558
  52   2.0000     -10.315534      -280.6999
  53   2.0000     -10.315450      -280.6977
  54   2.0000     -10.315042      -280.6866
  55   2.0000     -10.298166      -280.2273
  56   2.0000     -10.297503      -280.2093
  57   2.0000     -10.297003      -280.1957
  58   2.0000     -10.296299      -280.1765
  59   2.0000     -10.295015      -280.1416
  60   2.0000     -10.294075      -280.1160
  61   2.0000     -10.291010      -280.0326
  62   2.0000     -10.288680      -279.9692
  63   2.0000      -8.139342      -221.4828
  64   2.0000      -8.137924      -221.4442
  65   2.0000      -8.137584      -221.4349
  66   2.0000      -8.077170      -219.7910
  67   2.0000      -8.076406      -219.7702
  68   2.0000      -8.073183      -219.6825
  69   2.0000      -8.070771      -219.6168
  70   2.0000      -6.110426      -166.2731
  71   2.0000      -6.108993      -166.2342
  72   2.0000      -6.108671      -166.2254
  73   2.0000      -6.102620      -166.0607
  74   2.0000      -6.102191      -166.0491
  75   2.0000      -6.101149      -166.0207
  76   2.0000      -6.100794      -166.0110
  77   2.0000      -6.100648      -166.0071
  78   2.0000      -6.100291      -165.9974
  79   2.0000      -6.046419      -164.5314
  80   2.0000      -6.045628      -164.5099
  81   2.0000      -6.042581      -164.4270
  82   2.0000      -6.042051      -164.4126
  83   2.0000      -6.041282      -164.3916
  84   2.0000      -6.040389      -164.3673
  85   2.0000      -6.039777      -164.3507
  86   2.0000      -6.039042      -164.3307
  87   2.0000      -6.038016      -164.3028
  88   2.0000      -6.035675      -164.2391
  89   2.0000      -6.035494      -164.2341
  90   2.0000      -6.033325      -164.1751
  91   2.0000      -1.148750       -31.2591
  92   2.0000      -1.148440       -31.2506
  93   2.0000      -1.144996       -31.1569
  94   2.0000      -1.119311       -30.4580
  95   2.0000      -1.119021       -30.4501
  96   2.0000      -1.104599       -30.0577
  97   2.0000      -1.038570       -28.2609
  98   2.0000      -1.036922       -28.2161
  99   2.0000      -1.029178       -28.0053
 100   2.0000      -1.016558       -27.6620
 101   2.0000      -1.014950       -27.6182
 102   2.0000      -1.004820       -27.3426
 103   2.0000      -1.002522       -27.2800
 104   2.0000      -1.002138       -27.2696
 105   2.0000      -1.000755       -27.2319
 106   2.0000      -0.999817       -27.2064
 107   2.0000      -0.992126       -26.9971
 108   2.0000      -0.984989       -26.8029
 109   2.0000      -0.972210       -26.4552
 110   2.0000      -0.955013       -25.9872
 111   2.0000      -0.949390       -25.8342
 112   2.0000      -0.933496       -25.4017
 113   2.0000      -0.932777       -25.3821
 114   2.0000      -0.917510       -24.9667
 115   2.0000      -0.917204       -24.9584
 116   2.0000      -0.907052       -24.6822
 117   2.0000      -0.895744       -24.3744
 118   2.0000      -0.887833       -24.1592
 119   2.0000      -0.875529       -23.8244
 120   2.0000      -0.861346       -23.4384
 121   2.0000      -0.857074       -23.3222
 122   2.0000      -0.846686       -23.0395
 123   2.0000      -0.845637       -23.0109
 124   2.0000      -0.823945       -22.4207
 125   2.0000      -0.808339       -21.9960
 126   2.0000      -0.804932       -21.9033
 127   2.0000      -0.789828       -21.4923
 128   2.0000      -0.776885       -21.1401
 129   2.0000      -0.771887       -21.0041
 130   2.0000      -0.770090       -20.9552
 131   2.0000      -0.759637       -20.6708
 132   2.0000      -0.754021       -20.5179
 133   2.0000      -0.742926       -20.2161
 134   2.0000      -0.738358       -20.0917
 135   2.0000      -0.725823       -19.7506
 136   2.0000      -0.719699       -19.5840
 137   2.0000      -0.708221       -19.2717
 138   2.0000      -0.697365       -18.9763
 139   2.0000      -0.687792       -18.7158
 140   2.0000      -0.683618       -18.6022
 141   2.0000      -0.679267       -18.4838
 142   2.0000      -0.674313       -18.3490
 143   2.0000      -0.663303       -18.0494
 144   2.0000      -0.657624       -17.8949
 145   2.0000      -0.655346       -17.8329
 146   2.0000      -0.643384       -17.5074
 147   2.0000      -0.639812       -17.4102
 148   2.0000      -0.638189       -17.3660
 149   2.0000      -0.634196       -17.2573
 150   2.0000      -0.619398       -16.8547
 151   2.0000      -0.610852       -16.6221
 152   2.0000      -0.610288       -16.6068
 153   2.0000      -0.609719       -16.5913
 154   2.0000      -0.607041       -16.5184
 155   2.0000      -0.605072       -16.4648
 156   2.0000      -0.599154       -16.3038
 157   2.0000      -0.578224       -15.7343
 158   2.0000      -0.574395       -15.6301
 159   2.0000      -0.573672       -15.6104
 160   2.0000      -0.573300       -15.6003
 161   2.0000      -0.571442       -15.5497
 162   2.0000      -0.561438       -15.2775
 163   2.0000      -0.560893       -15.2627
 164   2.0000      -0.559320       -15.2199
 165   2.0000      -0.555491       -15.1157
 166   2.0000      -0.544763       -14.8237
 167   2.0000      -0.543226       -14.7819
 168   2.0000      -0.540691       -14.7129
 169   2.0000      -0.538321       -14.6484
 170   2.0000      -0.536515       -14.5993
 171   2.0000      -0.519656       -14.1406
 172   2.0000      -0.515481       -14.0270
 173   2.0000      -0.512964       -13.9585
 174   2.0000      -0.512443       -13.9443
 175   2.0000      -0.502935       -13.6856
 176   2.0000      -0.499693       -13.5973
 177   2.0000      -0.496280       -13.5045
 178   2.0000      -0.496214       -13.5027
 179   2.0000      -0.494571       -13.4580
 180   2.0000      -0.491375       -13.3710
 181   2.0000      -0.490143       -13.3375
 182   2.0000      -0.488089       -13.2816
 183   2.0000      -0.487340       -13.2612
 184   2.0000      -0.486018       -13.2252
 185   2.0000      -0.483441       -13.1551
 186   2.0000      -0.477119       -12.9831
 187   2.0000      -0.471678       -12.8350
 188   2.0000      -0.469057       -12.7637
 189   2.0000      -0.459146       -12.4940
 190   2.0000      -0.457466       -12.4483
 191   2.0000      -0.455508       -12.3950
 192   2.0000      -0.455310       -12.3896
 193   2.0000      -0.453183       -12.3317
 194   2.0000      -0.451210       -12.2780
 195   2.0000      -0.447671       -12.1818
 196   2.0000      -0.447496       -12.1770
 197   2.0000      -0.441755       -12.0208
 198   2.0000      -0.441398       -12.0111
 199   2.0000      -0.436061       -11.8658
 200   2.0000      -0.435896       -11.8613
 201   2.0000      -0.435014       -11.8373
 202   2.0000      -0.434753       -11.8302
 203   2.0000      -0.433474       -11.7954
 204   2.0000      -0.431733       -11.7480
 205   2.0000      -0.430630       -11.7180
 206   2.0000      -0.430042       -11.7020
 207   2.0000      -0.422829       -11.5058
 208   2.0000      -0.422341       -11.4925
 209   2.0000      -0.420789       -11.4502
 210   2.0000      -0.406998       -11.0750
 211   2.0000      -0.401734       -10.9317
 212   2.0000      -0.401280       -10.9194
 213   2.0000      -0.391585       -10.6556
 214   2.0000      -0.391440       -10.6516
 215   2.0000      -0.388068       -10.5599
 216   2.0000      -0.387681       -10.5493
 217   2.0000      -0.383930       -10.4473
 218   2.0000      -0.380778       -10.3615
 219   2.0000      -0.377522       -10.2729
 220   2.0000      -0.373700       -10.1689
 221   2.0000      -0.371932       -10.1208
 222   2.0000      -0.370563       -10.0835
 223   2.0000      -0.353276        -9.6131
 224   2.0000      -0.352220        -9.5844
 225   2.0000      -0.340699        -9.2709
 226   2.0000      -0.339790        -9.2462
 227   2.0000      -0.337558        -9.1854
 228   2.0000      -0.335006        -9.1160
 229   2.0000      -0.315926        -8.5968
 230   2.0000      -0.313717        -8.5367
 231   2.0000      -0.306879        -8.3506
 232   2.0000      -0.306608        -8.3432
 233   2.0000      -0.303636        -8.2624
 234   2.0000      -0.273048        -7.4300
 235   2.0000      -0.235198        -6.4001
 236   0.0000      -0.124212        -3.3800
 237   0.0000      -0.098268        -2.6740
 238   0.0000      -0.091440        -2.4882
 239   0.0000      -0.083267        -2.2658
 240   0.0000      -0.082721        -2.2510

MULLIKEN ATOMIC CHARGES
-----------------------
   0 C :   -0.023377
   1 N :   -0.034642
   2 N :   -0.079608
   3 C :    0.028956
   4 C :    0.004147
   5 C :    0.049020
   6 N :   -0.252864
   7 S :    0.545321
   8 N :   -0.253959
   9 C :   -0.132202
  10 C :   -0.043548
  11 C :    0.004760
  12 C :   -0.086445
  13 S :    0.245127
  14 C :   -0.080436
  15 C :    0.049223
  16 C :    0.313647
  17 C :   -0.312662
  18 C :   -0.187182
  19 N :    0.167604
  20 C :   -0.192018
  21 N :    0.169972
  22 C :   -0.070284
  23 C :   -0.186495
  24 S :    0.209676
  25 C :    0.196214
  26 C :   -0.068884
  27 C :   -0.045693
  28 N :   -0.092259
  29 C :    0.052546
  30 C :    0.038209
  31 N :   -0.018305
  32 C :    0.168067
  33 C :    0.000537
  34 C :   -0.024201
  35 N :   -0.341199
  36 S :    0.570479
  37 N :   -0.280359
  38 C :   -0.171931
  39 C :   -0.070622
  40 C :    0.040807
  41 C :   -0.072705
  42 S :    0.203499
  43 C :   -0.091171
  44 C :    0.004466
  45 C :    0.312651
  46 C :   -0.309721
  47 C :   -0.190832
  48 N :    0.169773
  49 C :   -0.189871
  50 N :    0.169227
  51 C :   -0.043631
  52 C :   -0.134557
  53 S :    0.242981
  54 C :    0.031782
  55 N :   -0.081532
  56 N :   -0.035556
  57 C :   -0.024052
  58 C :    0.049133
  59 C :    0.006564
  60 N :   -0.254419
  61 S :    0.545550
  62 N :   -0.252551
  63 H :    0.004798
  64 H :    0.017604
  65 H :    0.020740
  66 H :    0.022586
  67 H :    0.033985
  68 H :    0.018914
  69 H :    0.016863
  70 H :    0.004345
Sum of atomic charges:   -0.0000000

LOEWDIN ATOMIC CHARGES
----------------------
   0 C :   -0.000508
   1 N :   -0.033148
   2 N :   -0.080392
   3 C :   -0.015938
   4 C :   -0.060145
   5 C :   -0.067983
   6 N :   -0.269912
   7 S :    0.679647
   8 N :   -0.267620
   9 C :   -0.186148
  10 C :   -0.006967
  11 C :   -0.077436
  12 C :   -0.165647
  13 S :    0.520016
  14 C :   -0.188195
  15 C :   -0.070020
  16 C :    0.083159
  17 C :   -0.108700
  18 C :   -0.013802
  19 N :   -0.042266
  20 C :   -0.017568
  21 N :   -0.037001
  22 C :   -0.014549
  23 C :   -0.159816
  24 S :    0.513151
  25 C :   -0.045960
  26 C :   -0.006705
  27 C :   -0.016103
  28 N :   -0.050199
  29 C :    0.023775
  30 C :    0.021673
  31 N :   -0.017606
  32 C :   -0.041396
  33 C :   -0.039938
  34 C :   -0.047769
  35 N :   -0.307838
  36 S :    0.689709
  37 N :   -0.271666
  38 C :   -0.162868
  39 C :   -0.013893
  40 C :   -0.070532
  41 C :   -0.188681
  42 S :    0.510476
  43 C :   -0.166625
  44 C :   -0.076494
  45 C :    0.082282
  46 C :   -0.108118
  47 C :   -0.017448
  48 N :   -0.037333
  49 C :   -0.016521
  50 N :   -0.038128
  51 C :   -0.007164
  52 C :   -0.186050
  53 S :    0.518715
  54 C :   -0.015714
  55 N :   -0.080719
  56 N :   -0.033519
  57 C :   -0.000785
  58 C :   -0.067964
  59 C :   -0.059981
  60 N :   -0.267457
  61 S :    0.679739
  62 N :   -0.270188
  63 H :    0.034975
  64 H :    0.041112
  65 H :    0.035995
  66 H :    0.031800
  67 H :    0.035591
  68 H :    0.037474
  69 H :    0.040935
  70 H :    0.034899

  Mayer bond orders larger than 0.100000
B(  0-C ,  1-N ) :   1.7385 B(  0-C ,  3-C ) :   0.1028 B(  0-C ,  5-C ) :   1.1251
B(  0-C , 63-H ) :   1.0156 B(  1-N ,  2-N ) :   1.2007 B(  2-N ,  3-C ) :   1.7397
B(  3-C ,  4-C ) :   1.1151 B(  3-C ,  9-C ) :   1.1520 B(  4-C ,  5-C ) :   1.2005
B(  4-C ,  8-N ) :   1.5525 B(  5-C ,  6-N ) :   1.5025 B(  6-N ,  7-S ) :   1.2966
B(  6-N ,  8-N ) :   0.1461 B(  7-S ,  8-N ) :   1.2702 B(  9-C , 10-C ) :   1.4837
B(  9-C , 13-S ) :   1.0815 B( 10-C , 11-C ) :   1.2679 B( 10-C , 64-H ) :   0.9830
B( 11-C , 12-C ) :   1.4143 B( 11-C , 16-C ) :   0.9984 B( 12-C , 13-S ) :   1.1314
B( 12-C , 14-C ) :   1.1975 B( 14-C , 15-C ) :   1.4048 B( 14-C , 24-S ) :   1.0976
B( 15-C , 16-C ) :   0.9910 B( 15-C , 22-C ) :   1.2621 B( 16-C , 17-C ) :   1.7034
B( 17-C , 18-C ) :   1.1412 B( 17-C , 20-C ) :   1.1363 B( 18-C , 19-N ) :   2.9893
B( 20-C , 21-N ) :   2.9919 B( 22-C , 23-C ) :   1.4102 B( 22-C , 65-H ) :   0.9811
B( 23-C , 24-S ) :   1.1024 B( 23-C , 25-C ) :   1.1904 B( 25-C , 26-C ) :   1.2721
B( 25-C , 32-C ) :   0.1336 B( 25-C , 34-C ) :   1.1973 B( 26-C , 27-C ) :   1.1262
B( 26-C , 31-N ) :   1.4694 B( 27-C , 28-N ) :   1.3910 B( 27-C , 32-C ) :   1.2680
B( 28-N , 29-C ) :   1.6529 B( 29-C , 30-C ) :   1.1919 B( 29-C , 66-H ) :   0.9734
B( 30-C , 31-N ) :   1.6695 B( 30-C , 67-H ) :   0.9754 B( 32-C , 33-C ) :   1.2093
B( 32-C , 38-C ) :   1.2010 B( 33-C , 34-C ) :   1.1087 B( 33-C , 37-N ) :   1.5049
B( 34-C , 35-N ) :   1.4610 B( 35-N , 36-S ) :   1.2731 B( 35-N , 37-N ) :   0.1539
B( 36-S , 37-N ) :   1.2919 B( 38-C , 39-C ) :   1.4153 B( 38-C , 42-S ) :   1.0925
B( 39-C , 40-C ) :   1.2791 B( 39-C , 68-H ) :   0.9834 B( 40-C , 41-C ) :   1.4098
B( 40-C , 45-C ) :   0.9865 B( 41-C , 42-S ) :   1.0716 B( 41-C , 43-C ) :   1.2013
B( 43-C , 44-C ) :   1.4141 B( 43-C , 53-S ) :   1.1301 B( 44-C , 45-C ) :   0.9960
B( 44-C , 51-C ) :   1.2695 B( 45-C , 46-C ) :   1.7053 B( 46-C , 47-C ) :   1.1349
B( 46-C , 49-C ) :   1.1399 B( 47-C , 48-N ) :   2.9921 B( 49-C , 50-N ) :   2.9871
B( 51-C , 52-C ) :   1.4797 B( 51-C , 69-H ) :   0.9834 B( 52-C , 53-S ) :   1.0830
B( 52-C , 54-C ) :   1.1530 B( 54-C , 55-N ) :   1.7380 B( 54-C , 57-C ) :   0.1035
B( 54-C , 59-C ) :   1.1141 B( 55-N , 56-N ) :   1.2010 B( 56-N , 57-C ) :   1.7369
B( 57-C , 58-C ) :   1.1263 B( 57-C , 70-H ) :   1.0154 B( 58-C , 59-C ) :   1.2005
B( 58-C , 62-N ) :   1.5035 B( 59-C , 60-N ) :   1.5517 B( 60-N , 61-S ) :   1.2703
B( 60-N , 62-N ) :   0.1460 B( 61-S , 62-N ) :   1.2957

-----------------------------------------------------------------------------
         ABSORPTION SPECTRUM VIA TRANSITION ELECTRIC DIPOLE MOMENTS
-----------------------------------------------------------------------------
State   Energy  Wavelength   fosc         T2         TX        TY        TZ
        (cm-1)    (nm)                  (au**2)     (au)      (au)      (au)
-----------------------------------------------------------------------------
   0    9268.2   1079.0   0.900563062  31.98850  -1.34561   0.52011   5.46876
   1   13153.1    760.3   0.000887101   0.02220  -0.01300   0.13642   0.05851
   2   14040.1    712.2   0.004696988   0.11014   0.07740  -0.05577   0.31786
   3   18214.7    549.0   0.001853412   0.03350  -0.05720  -0.15562   0.07751
   4   20220.1    494.6   0.870721690  14.17660  -1.45303   0.73906   3.39398
   5   20436.2    489.3   0.004374573   0.07047   0.10030   0.23193  -0.08135
   6   20894.3    478.6   0.000005151   0.00008  -0.00006  -0.00776  -0.00458
   7   20904.4    478.4   0.000011360   0.00018   0.00928   0.00960  -0.00077
   8   23259.8    429.9   0.015429866   0.21839  -0.33623   0.20575   0.25102
   9   23520.8    425.2   0.001632329   0.02285   0.11755   0.08821   0.03533
  10   24755.5    403.9   0.002119536   0.02819   0.08788  -0.08076  -0.11808
  11   25600.2    390.6   0.095940323   1.23377  -0.09847   0.14982  -1.09619
  12   26171.6    382.1   0.026715365   0.33605   0.02140  -0.04646   0.57744
  13   26509.8    377.2   0.063047366   0.78295  -0.65831   0.40523   0.43054
  14   27112.8    368.8   0.002925765   0.03553  -0.15253   0.09115   0.06285
  15   28553.2    350.2   0.000122917   0.00142   0.02753   0.02430  -0.00828
  16   28587.5    349.8   0.000325158   0.00374  -0.00799  -0.05701  -0.02075
  17   29203.7    342.4   0.065083436   0.73368  -0.68888   0.49822  -0.10440
  18   29373.1    340.4   0.008829420   0.09896  -0.29881   0.09736  -0.01393
  19   30010.0    333.2   0.135539463   1.48688  -0.70946   0.47886  -0.86847
  20   30555.8    327.3   0.219583532   2.36582  -0.62168   0.46615  -1.32742
  21   30952.8    323.1   0.310335485   3.30071   0.02463  -0.20722   1.80476
  22   31291.3    319.6   0.930816623   9.79302  -1.06475   0.54302   2.89214
  23   31337.6    319.1   0.203978617   2.14286   0.68017  -0.34726  -1.24886
  24   31464.1    317.8   0.002250228   0.02354  -0.06677   0.00615   0.13801
  25   32178.0    310.8   0.006791382   0.06948  -0.20280   0.16449  -0.03603
  26   32320.4    309.4   0.465033116   4.73678  -1.77406   1.17577  -0.45504
  27   32856.8    304.4   0.013070705   0.13096   0.17143  -0.09311   0.30480
  28   32912.3    303.8   0.000011738   0.00012  -0.00563   0.00743  -0.00552
  29   32994.8    303.1   0.000133111   0.00133   0.00955  -0.01829   0.03004
  30   33342.7    299.9   0.004575822   0.04518   0.12190  -0.15373   0.08177
  31   34079.2    293.4   0.061783236   0.59684  -0.06432   0.19604  -0.74449
  32   34145.0    292.9   0.002895851   0.02792  -0.11715  -0.11567  -0.02861
  33   34257.5    291.9   0.072787250   0.69948  -0.73199   0.39427   0.09065
  34   34301.3    291.5   0.003969966   0.03810   0.04057  -0.03204   0.18823
  35   34486.3    290.0   0.470175841   4.48837  -1.68826   1.27414  -0.12131
  36   35388.0    282.6   0.091426218   0.85053   0.66044  -0.57883   0.28162
  37   35858.6    278.9   0.001305464   0.01199   0.07914   0.02248  -0.07222
  38   35974.7    278.0   0.015224543   0.13932   0.29675  -0.11647  -0.19415
  39   36138.1    276.7   0.124625898   1.13532  -0.45207   0.28945   0.92042
  40   36519.0    273.8   0.473967560   4.27273  -1.73069   1.05955  -0.39341
  41   37670.6    265.5   0.013179659   0.11518  -0.28338   0.15531  -0.10371
  42   37906.7    263.8   0.002235810   0.01942   0.04969  -0.07234  -0.10823
  43   37923.7    263.7   0.008704887   0.07557   0.23263  -0.14200   0.03582
  44   38137.4    262.2   0.166412287   1.43651   0.88396  -0.52028  -0.62003
  45   38299.4    261.1   0.040274217   0.34619  -0.18859   0.09335   0.54946
  46   38425.6    260.2   0.079461707   0.68079  -0.68554   0.44789  -0.10111
  47   38589.9    259.1   0.000160807   0.00137   0.02049   0.03078   0.00208
  48   38662.5    258.6   0.003634477   0.03095   0.14121  -0.10440   0.01041
  49   38722.5    258.2   0.002100543   0.01786   0.10200  -0.08308  -0.02353
  50   38810.5    257.7   0.000289307   0.00245  -0.01323  -0.04752   0.00461
  51   39322.2    254.3   0.015031150   0.12584   0.09423  -0.11744   0.32121
  52   39438.4    253.6   0.020732511   0.17306   0.12125  -0.07893  -0.39004
  53   39618.3    252.4   0.000077173   0.00064   0.01146   0.02230  -0.00358
  54   39715.9    251.8   0.000815246   0.00676   0.04853   0.06635  -0.00010
  55   40220.3    248.6   0.001499578   0.01227  -0.06404  -0.09041   0.00031

FINAL SINGLE POINT ENERGY     -5188.343786140936

DIPOLE MOMENT
-------------
                                X             Y             Z
Electronic contribution:     -6.66424       4.43818      -1.22318
Nuclear contribution   :      7.00284      -4.66758       1.34574
                        -----------------------------------------
Total Dipole Moment    :      0.33860      -0.22940       0.12256
                        -----------------------------------------
Magnitude (a.u.)       :      0.42696
Magnitude (Debye)      :      1.08526

Rotational constants in cm-1:     0.003694     0.000273     0.000255
Rotational constants in MHz :   110.738527     8.180052     7.631515

                             ****ORCA TERMINATED NORMALLY****
TOTAL RUN TIME: 0 days 0 hours 7 minutes 44 seconds 7 msec
