                         Program Version 4.2.0 -  RELEASE  -
|  1> # ORCA input file
|  2> # SCF done       -143.466314933327          0.000852022187
|  3> ! CAM-B3LYP def2-SVP def2/J RIJCOSX Grid4 TightSCF
|  4> %maxcore 5000
|  5> %tddft
|  6>     Mode sTDDFT
|  7>     Ethresh 5.0
|  8>     maxcore 5000
|  9> end
| 10>
| 11> %pal
| 12>   nprocs 6
| 13>   end
| 14> * xyz 0 1
| 15>    C       -0.42878        -0.75710        -3.49505
| 16>    N        0.10165        -1.57226        -2.60969
| 17>    C        1.22129        -2.18750        -3.00795
| 18>    N        1.78602        -2.00903        -4.20909
| 19>    C        1.15884        -1.16975        -5.00340
| 20>    N        0.04823        -0.51246        -4.70660
| 21>    C        1.86149        -3.09428        -2.10637
| 22>    C        1.46661        -3.44269        -0.82977
| 23>    C        2.34339        -4.36419        -0.26166
| 24>    C        3.40684        -4.70650        -1.12567
| 25>    S        3.32409        -3.89872        -2.62378
| 26>    C        4.24061        -5.64746        -0.47192
| 27>    C        3.70171        -5.90145         0.80496
| 28>    C        2.49784        -5.10209         0.98023
| 29>    C        1.69331        -5.05626         2.08061
| 30>    C        1.95239        -5.82510         3.23539
| 31>    N        2.15342        -6.44286         4.18028
| 32>    C        0.54704        -4.23559         2.14445
| 33>    N       -0.38668        -3.57362         2.20896
| 34>    C        4.44637        -6.82278         1.52951
| 35>    C        5.55157        -7.27095         0.81657
| 36>    S        5.67152        -6.53893        -0.77291
| 37>    C        6.52209        -8.21235         1.24764
| 38>    C        7.61492        -8.55456         0.41726
| 39>    C        8.61490        -9.49593         0.81730
| 40>    N        9.63311        -9.77560        -0.01442
| 41>    C        9.69075        -9.18398        -1.17496
| 42>    C        8.70357        -8.25855        -1.57048
| 43>    N        7.70380        -7.96401        -0.78696
| 44>    C        8.57618       -10.15583         2.06791
| 45>    C        7.48644        -9.82161         2.90167
| 46>    C        6.47805        -8.86461         2.49942
| 47>    N        5.54979        -8.70886         3.44645
| 48>    S        5.89670        -9.64855         4.69524
| 49>    N        7.23649       -10.30889         4.11938
| 50>    C        9.58431       -11.08791         2.42676
| 51>    C        9.66610       -11.81945         3.60525
| 52>    C       10.78618       -12.63991         3.62864
| 53>    C       11.56629       -12.53191         2.46025
| 54>    S       10.91306       -11.42199         1.33152
| 55>    C       12.67750       -13.40197         2.58731
| 56>    C       12.59876       -14.06056         3.83417
| 57>    C       11.40644       -13.60305         4.52678
| 58>    C       10.95689       -13.99172         5.75442
| 59>    C       11.63980       -14.94254         6.54248
| 60>    N       12.18425       -15.71479         7.19140
| 61>    C        9.77457       -13.47135         6.32282
| 62>    N        8.81504       -13.05743         6.79474
| 63>    C       13.65907       -14.93942         4.04402
| 64>    C       14.52786       -14.94413         2.97060
| 65>    S       14.04717       -13.86300         1.68448
| 66>    C       15.72623       -15.70827         2.81266
| 67>    N       16.41703       -15.54583         1.67693
| 68>    C       17.51064       -16.26904         1.57857
| 69>    N       17.95843       -17.11612         2.49262
| 70>    C       17.20372       -17.20404         3.57796
| 71>    N       16.09166       -16.53716         3.79762
| 72>    H       -1.33666        -0.24167        -3.20699
| 73>    H        1.58860        -1.00219        -5.98339
| 74>    H        0.58609        -3.03190        -0.37063
| 75>    H        4.22916        -7.17359         2.52155
| 76>    H       10.52570        -9.43654        -1.81246
| 77>    H        8.73716        -7.76176        -2.52934
| 78>    H        8.92878       -11.73102         4.38175
| 79>    H       13.81874       -15.55174         4.91260
| 80>    H       18.09431       -16.16128         0.67256
| 81>    H       17.52974       -17.88571         4.35379
| 82> *
| 83>
| 84>                          ****END OF INPUT****

CARTESIAN COORDINATES (ANGSTROEM)
---------------------------------
  C     -0.428780   -0.757100   -3.495050
  N      0.101650   -1.572260   -2.609690
  C      1.221290   -2.187500   -3.007950
  N      1.786020   -2.009030   -4.209090
  C      1.158840   -1.169750   -5.003400
  N      0.048230   -0.512460   -4.706600
  C      1.861490   -3.094280   -2.106370
  C      1.466610   -3.442690   -0.829770
  C      2.343390   -4.364190   -0.261660
  C      3.406840   -4.706500   -1.125670
  S      3.324090   -3.898720   -2.623780
  C      4.240610   -5.647460   -0.471920
  C      3.701710   -5.901450    0.804960
  C      2.497840   -5.102090    0.980230
  C      1.693310   -5.056260    2.080610
  C      1.952390   -5.825100    3.235390
  N      2.153420   -6.442860    4.180280
  C      0.547040   -4.235590    2.144450
  N     -0.386680   -3.573620    2.208960
  C      4.446370   -6.822780    1.529510
  C      5.551570   -7.270950    0.816570
  S      5.671520   -6.538930   -0.772910
  C      6.522090   -8.212350    1.247640
  C      7.614920   -8.554560    0.417260
  C      8.614900   -9.495930    0.817300
  N      9.633110   -9.775600   -0.014420
  C      9.690750   -9.183980   -1.174960
  C      8.703570   -8.258550   -1.570480
  N      7.703800   -7.964010   -0.786960
  C      8.576180  -10.155830    2.067910
  C      7.486440   -9.821610    2.901670
  C      6.478050   -8.864610    2.499420
  N      5.549790   -8.708860    3.446450
  S      5.896700   -9.648550    4.695240
  N      7.236490  -10.308890    4.119380
  C      9.584310  -11.087910    2.426760
  C      9.666100  -11.819450    3.605250
  C     10.786180  -12.639910    3.628640
  C     11.566290  -12.531910    2.460250
  S     10.913060  -11.421990    1.331520
  C     12.677500  -13.401970    2.587310
  C     12.598760  -14.060560    3.834170
  C     11.406440  -13.603050    4.526780
  C     10.956890  -13.991720    5.754420
  C     11.639800  -14.942540    6.542480
  N     12.184250  -15.714790    7.191400
  C      9.774570  -13.471350    6.322820
  N      8.815040  -13.057430    6.794740
  C     13.659070  -14.939420    4.044020
  C     14.527860  -14.944130    2.970600
  S     14.047170  -13.863000    1.684480
  C     15.726230  -15.708270    2.812660
  N     16.417030  -15.545830    1.676930
  C     17.510640  -16.269040    1.578570
  N     17.958430  -17.116120    2.492620
  C     17.203720  -17.204040    3.577960
  N     16.091660  -16.537160    3.797620
  H     -1.336660   -0.241670   -3.206990
  H      1.588600   -1.002190   -5.983390
  H      0.586090   -3.031900   -0.370630
  H      4.229160   -7.173590    2.521550
  H     10.525700   -9.436540   -1.812460
  H      8.737160   -7.761760   -2.529340
  H      8.928780  -11.731020    4.381750
  H     13.818740  -15.551740    4.912600
  H     18.094310  -16.161280    0.672560
  H     17.529740  -17.885710    4.353790

 Total Charge           Charge          ....    0
 Multiplicity           Mult            ....    1
 Number of Electrons    NEL             ....  416
 Basis Dimension        Dim             ....  868

ORBITAL ENERGIES
----------------

  NO   OCC          E(Eh)            E(eV)
   0   2.0000     -89.046971     -2423.0913
   1   2.0000     -88.987247     -2421.4661
   2   2.0000     -88.987213     -2421.4652
   3   2.0000     -88.981433     -2421.3079
   4   2.0000     -88.981426     -2421.3077
   5   2.0000     -14.456844      -393.3907
   6   2.0000     -14.456701      -393.3868
   7   2.0000     -14.454470      -393.3261
   8   2.0000     -14.454383      -393.3238
   9   2.0000     -14.425372      -392.5343
  10   2.0000     -14.425342      -392.5335
  11   2.0000     -14.424798      -392.5187
  12   2.0000     -14.424737      -392.5171
  13   2.0000     -14.424436      -392.5089
  14   2.0000     -14.424346      -392.5064
  15   2.0000     -14.423204      -392.4753
  16   2.0000     -14.423173      -392.4745
  17   2.0000     -14.417179      -392.3114
  18   2.0000     -14.417137      -392.3102
  19   2.0000     -10.371434      -282.2211
  20   2.0000     -10.371375      -282.2195
  21   2.0000     -10.358818      -281.8778
  22   2.0000     -10.358777      -281.8767
  23   2.0000     -10.356744      -281.8213
  24   2.0000     -10.356703      -281.8202
  25   2.0000     -10.355311      -281.7823
  26   2.0000     -10.355243      -281.7805
  27   2.0000     -10.350711      -281.6572
  28   2.0000     -10.350437      -281.6497
  29   2.0000     -10.346682      -281.5475
  30   2.0000     -10.346680      -281.5475
  31   2.0000     -10.345279      -281.5094
  32   2.0000     -10.345023      -281.5024
  33   2.0000     -10.344067      -281.4764
  34   2.0000     -10.343789      -281.4688
  35   2.0000     -10.332086      -281.1503
  36   2.0000     -10.332024      -281.1487
  37   2.0000     -10.325289      -280.9654
  38   2.0000     -10.325225      -280.9637
  39   2.0000     -10.324682      -280.9489
  40   2.0000     -10.324605      -280.9468
  41   2.0000     -10.321834      -280.8714
  42   2.0000     -10.321667      -280.8668
  43   2.0000     -10.320728      -280.8413
  44   2.0000     -10.320603      -280.8379
  45   2.0000     -10.318665      -280.7852
  46   2.0000     -10.318580      -280.7828
  47   2.0000     -10.312982      -280.6305
  48   2.0000     -10.312924      -280.6289
  49   2.0000     -10.302464      -280.3443
  50   2.0000     -10.302448      -280.3439
  51   2.0000     -10.300068      -280.2791
  52   2.0000     -10.300021      -280.2778
  53   2.0000     -10.296829      -280.1910
  54   2.0000     -10.296807      -280.1904
  55   2.0000     -10.293109      -280.0897
  56   2.0000     -10.293078      -280.0889
  57   2.0000      -8.137979      -221.4457
  58   2.0000      -8.081418      -219.9066
  59   2.0000      -8.081407      -219.9063
  60   2.0000      -8.073715      -219.6970
  61   2.0000      -8.073698      -219.6965
  62   2.0000      -6.109025      -166.2350
  63   2.0000      -6.101108      -166.0196
  64   2.0000      -6.100967      -166.0158
  65   2.0000      -6.050543      -164.6436
  66   2.0000      -6.050524      -164.6431
  67   2.0000      -6.046305      -164.5283
  68   2.0000      -6.046298      -164.5281
  69   2.0000      -6.044095      -164.4682
  70   2.0000      -6.044081      -164.4678
  71   2.0000      -6.043315      -164.4470
  72   2.0000      -6.043307      -164.4467
  73   2.0000      -6.038437      -164.3142
  74   2.0000      -6.038415      -164.3136
  75   2.0000      -6.036220      -164.2539
  76   2.0000      -6.036209      -164.2536
  77   2.0000      -1.143897       -31.1270
  78   2.0000      -1.126875       -30.6638
  79   2.0000      -1.126760       -30.6607
  80   2.0000      -1.113736       -30.3063
  81   2.0000      -1.043821       -28.4038
  82   2.0000      -1.039394       -28.2834
  83   2.0000      -1.036594       -28.2072
  84   2.0000      -1.016896       -27.6712
  85   2.0000      -1.016786       -27.6682
  86   2.0000      -1.005761       -27.3681
  87   2.0000      -1.005362       -27.3573
  88   2.0000      -1.001968       -27.2649
  89   2.0000      -1.001954       -27.2646
  90   2.0000      -0.997907       -27.1544
  91   2.0000      -0.996831       -27.1252
  92   2.0000      -0.996771       -27.1235
  93   2.0000      -0.990520       -26.9534
  94   2.0000      -0.981354       -26.7040
  95   2.0000      -0.970365       -26.4050
  96   2.0000      -0.951587       -25.8940
  97   2.0000      -0.948051       -25.7978
  98   2.0000      -0.913590       -24.8601
  99   2.0000      -0.903601       -24.5882
 100   2.0000      -0.891804       -24.2672
 101   2.0000      -0.880429       -23.9577
 102   2.0000      -0.864344       -23.5200
 103   2.0000      -0.862645       -23.4738
 104   2.0000      -0.849675       -23.1208
 105   2.0000      -0.849362       -23.1123
 106   2.0000      -0.833112       -22.6701
 107   2.0000      -0.818809       -22.2809
 108   2.0000      -0.810497       -22.0547
 109   2.0000      -0.790047       -21.4983
 110   2.0000      -0.779819       -21.2200
 111   2.0000      -0.775177       -21.0936
 112   2.0000      -0.774441       -21.0736
 113   2.0000      -0.766047       -20.8452
 114   2.0000      -0.765999       -20.8439
 115   2.0000      -0.748492       -20.3675
 116   2.0000      -0.731890       -19.9157
 117   2.0000      -0.717356       -19.5203
 118   2.0000      -0.701198       -19.0806
 119   2.0000      -0.697427       -18.9779
 120   2.0000      -0.696449       -18.9513
 121   2.0000      -0.681908       -18.5557
 122   2.0000      -0.675378       -18.3780
 123   2.0000      -0.671860       -18.2822
 124   2.0000      -0.670797       -18.2533
 125   2.0000      -0.654916       -17.8212
 126   2.0000      -0.647512       -17.6197
 127   2.0000      -0.646146       -17.5825
 128   2.0000      -0.641859       -17.4659
 129   2.0000      -0.639305       -17.3964
 130   2.0000      -0.621995       -16.9253
 131   2.0000      -0.619075       -16.8459
 132   2.0000      -0.617584       -16.8053
 133   2.0000      -0.611944       -16.6518
 134   2.0000      -0.602251       -16.3881
 135   2.0000      -0.600721       -16.3465
 136   2.0000      -0.596350       -16.2275
 137   2.0000      -0.576909       -15.6985
 138   2.0000      -0.576392       -15.6844
 139   2.0000      -0.572427       -15.5765
 140   2.0000      -0.562173       -15.2975
 141   2.0000      -0.554498       -15.0887
 142   2.0000      -0.554405       -15.0861
 143   2.0000      -0.549724       -14.9587
 144   2.0000      -0.547914       -14.9095
 145   2.0000      -0.539851       -14.6901
 146   2.0000      -0.538455       -14.6521
 147   2.0000      -0.537007       -14.6127
 148   2.0000      -0.529601       -14.4112
 149   2.0000      -0.522775       -14.2254
 150   2.0000      -0.521309       -14.1855
 151   2.0000      -0.510952       -13.9037
 152   2.0000      -0.510337       -13.8870
 153   2.0000      -0.508250       -13.8302
 154   2.0000      -0.501834       -13.6556
 155   2.0000      -0.498542       -13.5660
 156   2.0000      -0.492255       -13.3949
 157   2.0000      -0.491041       -13.3619
 158   2.0000      -0.490034       -13.3345
 159   2.0000      -0.488499       -13.2927
 160   2.0000      -0.486515       -13.2387
 161   2.0000      -0.483437       -13.1550
 162   2.0000      -0.480464       -13.0741
 163   2.0000      -0.471672       -12.8349
 164   2.0000      -0.471366       -12.8265
 165   2.0000      -0.459737       -12.5101
 166   2.0000      -0.457639       -12.4530
 167   2.0000      -0.457090       -12.4380
 168   2.0000      -0.456923       -12.4335
 169   2.0000      -0.455162       -12.3856
 170   2.0000      -0.454864       -12.3775
 171   2.0000      -0.454124       -12.3573
 172   2.0000      -0.450508       -12.2589
 173   2.0000      -0.449509       -12.2318
 174   2.0000      -0.447770       -12.1844
 175   2.0000      -0.439057       -11.9474
 176   2.0000      -0.437231       -11.8977
 177   2.0000      -0.435046       -11.8382
 178   2.0000      -0.435030       -11.8378
 179   2.0000      -0.433193       -11.7878
 180   2.0000      -0.433169       -11.7871
 181   2.0000      -0.429721       -11.6933
 182   2.0000      -0.422247       -11.4899
 183   2.0000      -0.421878       -11.4799
 184   2.0000      -0.418297       -11.3824
 185   2.0000      -0.416557       -11.3351
 186   2.0000      -0.410762       -11.1774
 187   2.0000      -0.408930       -11.1275
 188   2.0000      -0.408907       -11.1269
 189   2.0000      -0.397820       -10.8252
 190   2.0000      -0.397621       -10.8198
 191   2.0000      -0.382305       -10.4031
 192   2.0000      -0.380016       -10.3408
 193   2.0000      -0.369439       -10.0530
 194   2.0000      -0.357147        -9.7185
 195   2.0000      -0.354739        -9.6530
 196   2.0000      -0.347768        -9.4632
 197   2.0000      -0.347636        -9.4597
 198   2.0000      -0.345484        -9.4011
 199   2.0000      -0.345450        -9.4002
 200   2.0000      -0.342739        -9.3264
 201   2.0000      -0.342607        -9.3228
 202   2.0000      -0.339984        -9.2514
 203   2.0000      -0.319500        -8.6940
 204   2.0000      -0.316406        -8.6098
 205   2.0000      -0.312846        -8.5130
 206   2.0000      -0.281049        -7.6477
 207   2.0000      -0.240247        -6.5375
 208   0.0000      -0.125967        -3.4277
 209   0.0000      -0.098220        -2.6727
 210   0.0000      -0.092677        -2.5219
 211   0.0000      -0.047742        -1.2991
 212   0.0000      -0.045962        -1.2507

MULLIKEN ATOMIC CHARGES
-----------------------
   0 C :    0.105690
   1 N :   -0.073222
   2 C :   -0.075959
   3 N :   -0.100553
   4 C :    0.106586
   5 N :   -0.129985
   6 C :   -0.041301
   7 C :   -0.034588
   8 C :    0.003399
   9 C :   -0.099828
  10 S :    0.238504
  11 C :   -0.069858
  12 C :    0.041856
  13 C :    0.306931
  14 C :   -0.304268
  15 C :   -0.187625
  16 N :    0.170077
  17 C :   -0.195522
  18 N :    0.179924
  19 C :   -0.067867
  20 C :   -0.174830
  21 S :    0.196401
  22 C :    0.177851
  23 C :   -0.049160
  24 C :   -0.053306
  25 N :   -0.076663
  26 C :    0.045989
  27 C :    0.046885
  28 N :   -0.079623
  29 C :    0.179229
  30 C :   -0.009036
  31 C :   -0.011546
  32 N :   -0.285241
  33 S :    0.580426
  34 N :   -0.285429
  35 C :   -0.175135
  36 C :   -0.067657
  37 C :    0.039162
  38 C :   -0.070848
  39 S :    0.195921
  40 C :   -0.098085
  41 C :    0.005143
  42 C :    0.306822
  43 C :   -0.305055
  44 C :   -0.195974
  45 N :    0.178479
  46 C :   -0.189571
  47 N :    0.175749
  48 C :   -0.034979
  49 C :   -0.041159
  50 S :    0.238244
  51 C :   -0.077457
  52 N :   -0.099710
  53 C :    0.106366
  54 N :   -0.130667
  55 C :    0.106094
  56 N :   -0.074419
  57 H :    0.026804
  58 H :    0.023756
  59 H :    0.022586
  60 H :    0.020101
  61 H :    0.022671
  62 H :    0.022104
  63 H :    0.020893
  64 H :    0.023568
  65 H :    0.024418
  66 H :    0.027493
Sum of atomic charges:   -0.0000000

LOEWDIN ATOMIC CHARGES
----------------------
   0 C :    0.077504
   1 N :   -0.099628
   2 C :    0.033315
   3 N :   -0.120065
   4 C :    0.075751
   5 N :   -0.113612
   6 C :   -0.200454
   7 C :    0.009884
   8 C :   -0.075010
   9 C :   -0.166794
  10 S :    0.514248
  11 C :   -0.189905
  12 C :   -0.069390
  13 C :    0.080346
  14 C :   -0.104058
  15 C :   -0.016369
  16 N :   -0.034828
  17 C :   -0.019163
  18 N :   -0.031600
  19 C :   -0.013212
  20 C :   -0.162041
  21 S :    0.506267
  22 C :   -0.041685
  23 C :   -0.017386
  24 C :   -0.017545
  25 N :   -0.045628
  26 C :    0.021241
  27 C :    0.021186
  28 N :   -0.045717
  29 C :   -0.041694
  30 C :   -0.038820
  31 C :   -0.038945
  32 N :   -0.275825
  33 S :    0.701242
  34 N :   -0.275714
  35 C :   -0.161917
  36 C :   -0.013360
  37 C :   -0.069321
  38 C :   -0.190071
  39 S :    0.506170
  40 C :   -0.166599
  41 C :   -0.075051
  42 C :    0.080330
  43 C :   -0.104095
  44 C :   -0.019077
  45 N :   -0.031682
  46 C :   -0.016627
  47 N :   -0.034592
  48 C :    0.009723
  49 C :   -0.200498
  50 S :    0.514247
  51 C :    0.033277
  52 N :   -0.120110
  53 C :    0.075797
  54 N :   -0.113631
  55 C :    0.077436
  56 N :   -0.099739
  57 H :    0.025158
  58 H :    0.023824
  59 H :    0.047927
  60 H :    0.037889
  61 H :    0.031763
  62 H :    0.031663
  63 H :    0.037940
  64 H :    0.048102
  65 H :    0.023916
  66 H :    0.025312

  Mayer bond orders larger than 0.100000
B(  0-C ,  1-N ) :   1.5139 B(  0-C ,  5-N ) :   1.4990 B(  0-C , 57-H ) :   0.9772
B(  1-N ,  2-C ) :   1.5859 B(  2-C ,  3-N ) :   1.5777 B(  2-C ,  6-C ) :   1.0536
B(  3-N ,  4-C ) :   1.5145 B(  4-C ,  5-N ) :   1.5088 B(  4-C , 58-H ) :   0.9769
B(  6-C ,  7-C ) :   1.4637 B(  6-C , 10-S ) :   1.0982 B(  7-C ,  8-C ) :   1.2743
B(  7-C , 59-H ) :   1.0070 B(  8-C ,  9-C ) :   1.4111 B(  8-C , 13-C ) :   0.9936
B(  9-C , 10-S ) :   1.1414 B(  9-C , 11-C ) :   1.2017 B( 11-C , 12-C ) :   1.4126
B( 11-C , 21-S ) :   1.0729 B( 12-C , 13-C ) :   0.9903 B( 12-C , 19-C ) :   1.2720
B( 13-C , 14-C ) :   1.7127 B( 14-C , 15-C ) :   1.1399 B( 14-C , 17-C ) :   1.1309
B( 15-C , 16-N ) :   2.9854 B( 17-C , 18-N ) :   3.0029 B( 19-C , 20-C ) :   1.4226
B( 19-C , 60-H ) :   0.9826 B( 20-C , 21-S ) :   1.0945 B( 20-C , 22-C ) :   1.1917
B( 22-C , 23-C ) :   1.2738 B( 22-C , 29-C ) :   0.1353 B( 22-C , 31-C ) :   1.2058
B( 23-C , 24-C ) :   1.1334 B( 23-C , 28-N ) :   1.3957 B( 24-C , 25-N ) :   1.3982
B( 24-C , 29-C ) :   1.2738 B( 25-N , 26-C ) :   1.6558 B( 26-C , 27-C ) :   1.2008
B( 26-C , 61-H ) :   0.9741 B( 27-C , 28-N ) :   1.6575 B( 27-C , 62-H ) :   0.9739
B( 29-C , 30-C ) :   1.2061 B( 29-C , 35-C ) :   1.1908 B( 30-C , 31-C ) :   1.0982
B( 30-C , 34-N ) :   1.5048 B( 31-C , 32-N ) :   1.5061 B( 32-N , 33-S ) :   1.2879
B( 32-N , 34-N ) :   0.1519 B( 33-S , 34-N ) :   1.2884 B( 35-C , 36-C ) :   1.4219
B( 35-C , 39-S ) :   1.0953 B( 36-C , 37-C ) :   1.2724 B( 36-C , 63-H ) :   0.9826
B( 37-C , 38-C ) :   1.4133 B( 37-C , 42-C ) :   0.9905 B( 38-C , 39-S ) :   1.0715
B( 38-C , 40-C ) :   1.2032 B( 40-C , 41-C ) :   1.4094 B( 40-C , 50-S ) :   1.1417
B( 41-C , 42-C ) :   0.9947 B( 41-C , 48-C ) :   1.2757 B( 42-C , 43-C ) :   1.7119
B( 43-C , 44-C ) :   1.1323 B( 43-C , 46-C ) :   1.1407 B( 44-C , 45-N ) :   3.0022
B( 46-C , 47-N ) :   2.9880 B( 48-C , 49-C ) :   1.4658 B( 48-C , 64-H ) :   1.0056
B( 49-C , 50-S ) :   1.0970 B( 49-C , 51-C ) :   1.0531 B( 51-C , 52-N ) :   1.5797
B( 51-C , 56-N ) :   1.5858 B( 52-N , 53-C ) :   1.5121 B( 53-C , 54-N ) :   1.5102
B( 53-C , 65-H ) :   0.9769 B( 54-N , 55-C ) :   1.4978 B( 55-C , 56-N ) :   1.5145
B( 55-C , 66-H ) :   0.9771

-----------------------------------------------------------------------------
         ABSORPTION SPECTRUM VIA TRANSITION ELECTRIC DIPOLE MOMENTS
-----------------------------------------------------------------------------
State   Energy  Wavelength   fosc         T2         TX        TY        TZ
        (cm-1)    (nm)                  (au**2)     (au)      (au)      (au)
-----------------------------------------------------------------------------
   0    9661.5   1035.0   0.774341307  26.38541   3.59309  -3.37740   1.43817
   1   13918.5    718.5   0.003473498   0.08216  -0.13067  -0.03438   0.25279
   2   14698.9    680.3   0.000484212   0.01084  -0.06923   0.07370  -0.02491
   3   18972.7    527.1   0.003166998   0.05495  -0.10581  -0.02606   0.20755
   4   23905.9    418.3   0.001285183   0.01770   0.00413   0.12880   0.03305
   5   24123.0    414.5   0.102121647   1.39368  -0.82435   0.77868  -0.32830
   6   25401.7    393.7   0.000238094   0.00309  -0.02519  -0.00098   0.04950
   7   25748.1    388.4   0.204635522   2.61644  -1.12012   1.07498  -0.45408
   8   26113.2    382.9   0.073241669   0.92337  -0.46078  -0.11347   0.83556
   9   26283.2    380.5   0.818695430  10.25461   2.25534  -2.08433   0.90754
  10   27311.2    366.2   0.151913866   1.83119   0.95191  -0.88251   0.38240
  11   28069.8    356.3   0.575285853   6.74715  -1.82430   1.69845  -0.73101
  12   28675.9    348.7   0.100785772   1.15707  -0.49595  -0.13096   0.94549
  13   30348.8    329.5   0.019605453   0.21267  -0.22285  -0.06409   0.39862
  14   31418.3    318.3   0.217294402   2.27689   0.75356   0.14840  -1.29885
  15   31527.1    317.2   0.118766008   1.24018   0.77798  -0.68659   0.40437
  16   31687.3    315.6   0.007831407   0.08136  -0.10204  -0.06074   0.25935
  17   32189.6    310.7   0.398398697   4.07454  -1.36994   1.38507  -0.52858
  18   32247.7    310.1   0.725272562   7.40419   1.27777   0.35106  -2.37661
  19   33516.4    298.4   0.005328567   0.05234  -0.09446  -0.04193   0.20410
  20   33644.6    297.2   0.000121783   0.00119   0.01950   0.02705   0.00892
  21   33685.1    296.9   0.192632136   1.88264   0.65172   0.17735  -1.19434
  22   33781.9    296.0   0.013480019   0.13137   0.18977   0.03021  -0.30731
  23   33872.5    295.2   0.029439651   0.28613   0.36423  -0.35414   0.16747
  24   34615.3    288.9   0.159418060   1.51616   0.88286  -0.77954   0.35920
  25   34683.6    288.3   0.000658494   0.00625  -0.05017  -0.01661   0.05880
  26   35473.8    281.9   0.006059801   0.05624  -0.14041  -0.15516  -0.11158
  27   35486.8    281.8   0.000017377   0.00016  -0.00083  -0.00004  -0.01267
  28   35901.2    278.5   0.571704970   5.24251   1.06090   0.31378  -2.00463
  29   35937.8    278.3   0.138487824   1.26863   0.82751  -0.69130   0.32552
  30   36191.0    276.3   0.446256020   4.05938  -0.96647  -0.23854   1.75169
  31   36428.8    274.5   0.008180605   0.07393  -0.01851   0.27101  -0.01190
  32   36468.7    274.2   0.010461987   0.09444  -0.12666  -0.07812   0.26888
  33   37260.6    268.4   0.000554308   0.00490   0.03982  -0.04996   0.02857
  34   37272.3    268.3   0.000254330   0.00225   0.03380  -0.00613  -0.03266
  35   37397.2    267.4   0.076035937   0.66935   0.37661   0.10088  -0.71926
  36   37757.5    264.8   0.003294338   0.02872  -0.12626   0.09936  -0.05395
  37   38477.2    259.9   0.000174046   0.00149   0.02258  -0.00291  -0.03116
  38   38504.9    259.7   0.005229140   0.04471   0.15189  -0.13209   0.06474
  39   38583.5    259.2   0.353785354   3.01866   1.23123  -1.12164   0.49462
  40   38855.9    257.4   0.010646682   0.09021  -0.14342  -0.04819   0.25945
  41   39992.3    250.0   0.020514309   0.16887   0.19140   0.05242  -0.35984
  42   40266.9    248.3   0.000088749   0.00073   0.02150   0.01127   0.01167
  43   40270.6    248.3   0.000207273   0.00169   0.03245  -0.01220   0.02219
  44   40283.8    248.2   0.001371087   0.01120   0.05521  -0.08877   0.01663

FINAL SINGLE POINT ENERGY     -4208.038858411705

DIPOLE MOMENT
-------------
                                X             Y             Z
Electronic contribution:     -3.88201      -1.02439       7.29481
Nuclear contribution   :      5.67736       1.51800     -10.61905
                        -----------------------------------------
Total Dipole Moment    :      1.79535       0.49362      -3.32425
                        -----------------------------------------
Magnitude (a.u.)       :      3.81019
Magnitude (Debye)      :      9.68473

Rotational constants in cm-1:     0.003692     0.000403     0.000364
Rotational constants in MHz :   110.686400    12.095365    10.905369

                             ****ORCA TERMINATED NORMALLY****
TOTAL RUN TIME: 0 days 0 hours 5 minutes 4 seconds 219 msec
