                         Program Version 4.2.0 -  RELEASE  -
|  1> # ORCA input file
|  2> # SCF done       -165.055545937974          0.000974594289
|  3> ! CAM-B3LYP def2-SVP def2/J RIJCOSX Grid4 TightSCF
|  4> %maxcore 5000
|  5> %tddft
|  6>     Mode sTDDFT
|  7>     Ethresh 5.0
|  8>     maxcore 5000
|  9> end
| 10>
| 11> %pal
| 12>   nprocs 6
| 13>   end
| 14> * xyz 0 1
| 15>    C        3.11958        -1.19537         3.91426
| 16>    O        3.99049        -2.02463         4.00528
| 17>    C        1.85345        -1.05273         4.65554
| 18>    C        1.19271         0.08102         4.17195
| 19>    C       -0.02876         0.46822         4.68174
| 20>    C       -0.58001        -0.31103         5.69570
| 21>    C        0.07538        -1.43456         6.17499
| 22>    C        1.30862        -1.82522         5.66001
| 23>    C        2.01751         0.69551         3.10857
| 24>    O        1.80773         1.67434         2.44841
| 25>    N        3.15703        -0.12871         3.01240
| 26>    C        4.22371         0.04965         2.14659
| 27>    C        4.38749         1.04990         1.22132
| 28>    C        5.59865         0.89710         0.53314
| 29>    C        6.33008        -0.22417         0.95419
| 30>    S        5.54394        -1.10155         2.19603
| 31>    C        7.53506        -0.29122         0.20841
| 32>    C        7.56014         0.79855        -0.68506
| 33>    C        6.34123         1.57648        -0.51380
| 34>    C        5.97948         2.69759        -1.20091
| 35>    C        6.79468         3.25937        -2.20675
| 36>    N        7.44352         3.72558        -3.02942
| 37>    C        4.76722         3.37964        -0.96281
| 38>    N        3.78439         3.94441        -0.78982
| 39>    C        8.70864         0.83084        -1.46275
| 40>    C        9.56076        -0.22927        -1.17533
| 41>    S        8.92278        -1.28229         0.07841
| 42>    C       10.81389        -0.50559        -1.77473
| 43>    C       11.55747        -1.65254        -1.40498
| 44>    C       12.82003        -1.96949        -1.99884
| 45>    N       13.47414        -3.07903        -1.61237
| 46>    C       12.94607        -3.84571        -0.69902
| 47>    C       11.70490        -3.53070        -0.11154
| 48>    N       11.04345        -2.46319        -0.46571
| 49>    C       13.41864        -1.15389        -2.98614
| 50>    C       12.68794        -0.00277        -3.35469
| 51>    C       11.40631         0.31372        -2.76217
| 52>    N       10.90209         1.44224        -3.26566
| 53>    S       11.91185         2.04011        -4.35521
| 54>    N       13.04610         0.91230        -4.25803
| 55>    C       14.67378        -1.50206        -3.55094
| 56>    C       15.39242        -0.78338        -4.49800
| 57>    C       16.58086        -1.41732        -4.83624
| 58>    C       16.76906        -2.63293        -4.14620
| 59>    S       15.48224        -2.98193        -3.06933
| 60>    C       17.99434        -3.20339        -4.56381
| 61>    C       18.58409        -2.34032        -5.51909
| 62>    C       17.71488        -1.19165        -5.71647
| 63>    C       17.92054        -0.12917        -6.54739
| 64>    C       19.07106        -0.02539        -7.35656
| 65>    N       20.00829         0.06564        -8.01140
| 66>    C       17.00173         0.93597        -6.65481
| 67>    N       16.26401         1.80849        -6.75260
| 68>    C       19.79108        -2.82401        -5.98774
| 69>    C       20.13728        -4.05132        -5.41303
| 70>    S       18.92210        -4.59866        -4.25996
| 71>    C       21.32535        -4.72187        -5.75400
| 72>    C       21.84264        -5.92281        -5.34511
| 73>    C       21.22216        -6.84536        -4.39336
| 74>    O       20.17186        -6.65656        -3.81191
| 75>    O       21.95184        -7.95237        -4.22790
| 76>    C       21.43281        -8.91674        -3.32660
| 77>    C       23.08142        -6.32846        -5.88620
| 78>    N       24.09057        -6.63792        -6.33541
| 79>    H       -0.53190         1.34378         4.30304
| 80>    H       -1.53516        -0.03430         6.11553
| 81>    H       -0.37773        -2.01798         6.96206
| 82>    H        1.82454        -2.69796         6.02803
| 83>    H        3.66974         1.83387         1.06519
| 84>    H        8.94975         1.56701        -2.20725
| 85>    H       13.50446        -4.72706        -0.41784
| 86>    H       11.25634        -4.15485         0.64780
| 87>    H       15.03524         0.14800        -4.89709
| 88>    H       20.41346        -2.33407        -6.71550
| 89>    H       21.93013        -4.18118        -6.47622
| 90>    H       22.15047        -9.73246        -3.31462
| 91>    H       20.45622        -9.26810        -3.66700
| 92>    H       21.32314        -8.48510        -2.32931
| 93> *
| 94>
| 95>                          ****END OF INPUT****

CARTESIAN COORDINATES (ANGSTROEM)
---------------------------------
  C      3.119580   -1.195370    3.914260
  O      3.990490   -2.024630    4.005280
  C      1.853450   -1.052730    4.655540
  C      1.192710    0.081020    4.171950
  C     -0.028760    0.468220    4.681740
  C     -0.580010   -0.311030    5.695700
  C      0.075380   -1.434560    6.174990
  C      1.308620   -1.825220    5.660010
  C      2.017510    0.695510    3.108570
  O      1.807730    1.674340    2.448410
  N      3.157030   -0.128710    3.012400
  C      4.223710    0.049650    2.146590
  C      4.387490    1.049900    1.221320
  C      5.598650    0.897100    0.533140
  C      6.330080   -0.224170    0.954190
  S      5.543940   -1.101550    2.196030
  C      7.535060   -0.291220    0.208410
  C      7.560140    0.798550   -0.685060
  C      6.341230    1.576480   -0.513800
  C      5.979480    2.697590   -1.200910
  C      6.794680    3.259370   -2.206750
  N      7.443520    3.725580   -3.029420
  C      4.767220    3.379640   -0.962810
  N      3.784390    3.944410   -0.789820
  C      8.708640    0.830840   -1.462750
  C      9.560760   -0.229270   -1.175330
  S      8.922780   -1.282290    0.078410
  C     10.813890   -0.505590   -1.774730
  C     11.557470   -1.652540   -1.404980
  C     12.820030   -1.969490   -1.998840
  N     13.474140   -3.079030   -1.612370
  C     12.946070   -3.845710   -0.699020
  C     11.704900   -3.530700   -0.111540
  N     11.043450   -2.463190   -0.465710
  C     13.418640   -1.153890   -2.986140
  C     12.687940   -0.002770   -3.354690
  C     11.406310    0.313720   -2.762170
  N     10.902090    1.442240   -3.265660
  S     11.911850    2.040110   -4.355210
  N     13.046100    0.912300   -4.258030
  C     14.673780   -1.502060   -3.550940
  C     15.392420   -0.783380   -4.498000
  C     16.580860   -1.417320   -4.836240
  C     16.769060   -2.632930   -4.146200
  S     15.482240   -2.981930   -3.069330
  C     17.994340   -3.203390   -4.563810
  C     18.584090   -2.340320   -5.519090
  C     17.714880   -1.191650   -5.716470
  C     17.920540   -0.129170   -6.547390
  C     19.071060   -0.025390   -7.356560
  N     20.008290    0.065640   -8.011400
  C     17.001730    0.935970   -6.654810
  N     16.264010    1.808490   -6.752600
  C     19.791080   -2.824010   -5.987740
  C     20.137280   -4.051320   -5.413030
  S     18.922100   -4.598660   -4.259960
  C     21.325350   -4.721870   -5.754000
  C     21.842640   -5.922810   -5.345110
  C     21.222160   -6.845360   -4.393360
  O     20.171860   -6.656560   -3.811910
  O     21.951840   -7.952370   -4.227900
  C     21.432810   -8.916740   -3.326600
  C     23.081420   -6.328460   -5.886200
  N     24.090570   -6.637920   -6.335410
  H     -0.531900    1.343780    4.303040
  H     -1.535160   -0.034300    6.115530
  H     -0.377730   -2.017980    6.962060
  H      1.824540   -2.697960    6.028030
  H      3.669740    1.833870    1.065190
  H      8.949750    1.567010   -2.207250
  H     13.504460   -4.727060   -0.417840
  H     11.256340   -4.154850    0.647800
  H     15.035240    0.148000   -4.897090
  H     20.413460   -2.334070   -6.715500
  H     21.930130   -4.181180   -6.476220
  H     22.150470   -9.732460   -3.314620
  H     20.456220   -9.268100   -3.667000
  H     21.323140   -8.485100   -2.329310

 Total Charge           Charge          ....    0
 Multiplicity           Mult            ....    1
 Number of Electrons    NEL             ....  466
 Basis Dimension        Dim             ....  986

ORBITAL ENERGIES
----------------

  NO   OCC          E(Eh)            E(eV)
   0   2.0000     -89.041267     -2422.9361
   1   2.0000     -88.984099     -2421.3804
   2   2.0000     -88.981129     -2421.2996
   3   2.0000     -88.976006     -2421.1602
   4   2.0000     -88.975660     -2421.1508
   5   2.0000     -19.266279      -524.2621
   6   2.0000     -19.244491      -523.6692
   7   2.0000     -19.239580      -523.5356
   8   2.0000     -19.215826      -522.8892
   9   2.0000     -14.496352      -394.4658
  10   2.0000     -14.451906      -393.2564
  11   2.0000     -14.450525      -393.2188
  12   2.0000     -14.450487      -393.2177
  13   2.0000     -14.447949      -393.1487
  14   2.0000     -14.423146      -392.4738
  15   2.0000     -14.421325      -392.4242
  16   2.0000     -14.420451      -392.4004
  17   2.0000     -14.419696      -392.3799
  18   2.0000     -14.388723      -391.5371
  19   2.0000     -10.421026      -283.5705
  20   2.0000     -10.419681      -283.5339
  21   2.0000     -10.412842      -283.3478
  22   2.0000     -10.357600      -281.8446
  23   2.0000     -10.355098      -281.7765
  24   2.0000     -10.353824      -281.7419
  25   2.0000     -10.345990      -281.5287
  26   2.0000     -10.344112      -281.4776
  27   2.0000     -10.343746      -281.4676
  28   2.0000     -10.341512      -281.4068
  29   2.0000     -10.339891      -281.3628
  30   2.0000     -10.339615      -281.3552
  31   2.0000     -10.338932      -281.3366
  32   2.0000     -10.337783      -281.3054
  33   2.0000     -10.326099      -280.9874
  34   2.0000     -10.325749      -280.9779
  35   2.0000     -10.324728      -280.9501
  36   2.0000     -10.323864      -280.9266
  37   2.0000     -10.321897      -280.8731
  38   2.0000     -10.321073      -280.8507
  39   2.0000     -10.319999      -280.8215
  40   2.0000     -10.318633      -280.7843
  41   2.0000     -10.318330      -280.7760
  42   2.0000     -10.318212      -280.7728
  43   2.0000     -10.316579      -280.7284
  44   2.0000     -10.315535      -280.7000
  45   2.0000     -10.315010      -280.6857
  46   2.0000     -10.314741      -280.6784
  47   2.0000     -10.314287      -280.6660
  48   2.0000     -10.313419      -280.6424
  49   2.0000     -10.313082      -280.6332
  50   2.0000     -10.311721      -280.5962
  51   2.0000     -10.310719      -280.5689
  52   2.0000     -10.310655      -280.5672
  53   2.0000     -10.310325      -280.5582
  54   2.0000     -10.309923      -280.5473
  55   2.0000     -10.305450      -280.4256
  56   2.0000     -10.295657      -280.1591
  57   2.0000     -10.295401      -280.1521
  58   2.0000     -10.293932      -280.1121
  59   2.0000     -10.291550      -280.0473
  60   2.0000     -10.290046      -280.0064
  61   2.0000     -10.289386      -279.9884
  62   2.0000     -10.288140      -279.9545
  63   2.0000     -10.286678      -279.9147
  64   2.0000      -8.132299      -221.2911
  65   2.0000      -8.077447      -219.7985
  66   2.0000      -8.073712      -219.6969
  67   2.0000      -8.068294      -219.5494
  68   2.0000      -8.068000      -219.5414
  69   2.0000      -6.103363      -166.0810
  70   2.0000      -6.095452      -165.8657
  71   2.0000      -6.095258      -165.8604
  72   2.0000      -6.047033      -164.5481
  73   2.0000      -6.043076      -164.4404
  74   2.0000      -6.042394      -164.4219
  75   2.0000      -6.039558      -164.3447
  76   2.0000      -6.038389      -164.3129
  77   2.0000      -6.037869      -164.2988
  78   2.0000      -6.037584      -164.2910
  79   2.0000      -6.036301      -164.2561
  80   2.0000      -6.033009      -164.1665
  81   2.0000      -6.032738      -164.1591
  82   2.0000      -6.030830      -164.1072
  83   2.0000      -6.030507      -164.0984
  84   2.0000      -1.201423       -32.6924
  85   2.0000      -1.191321       -32.4175
  86   2.0000      -1.165646       -31.7189
  87   2.0000      -1.138369       -30.9766
  88   2.0000      -1.108108       -30.1532
  89   2.0000      -1.107347       -30.1324
  90   2.0000      -1.084444       -29.5092
  91   2.0000      -1.038238       -28.2519
  92   2.0000      -1.033935       -28.1348
  93   2.0000      -1.030627       -28.0448
  94   2.0000      -1.013571       -27.5807
  95   2.0000      -1.011845       -27.5337
  96   2.0000      -1.000062       -27.2131
  97   2.0000      -0.999890       -27.2084
  98   2.0000      -0.997307       -27.1381
  99   2.0000      -0.994767       -27.0690
 100   2.0000      -0.989383       -26.9225
 101   2.0000      -0.980720       -26.6868
 102   2.0000      -0.976792       -26.5799
 103   2.0000      -0.967384       -26.3238
 104   2.0000      -0.949860       -25.8470
 105   2.0000      -0.944522       -25.7017
 106   2.0000      -0.922825       -25.1114
 107   2.0000      -0.914139       -24.8750
 108   2.0000      -0.901818       -24.5397
 109   2.0000      -0.889830       -24.2135
 110   2.0000      -0.886145       -24.1132
 111   2.0000      -0.878456       -23.9040
 112   2.0000      -0.872813       -23.7504
 113   2.0000      -0.861955       -23.4550
 114   2.0000      -0.855978       -23.2924
 115   2.0000      -0.845171       -22.9983
 116   2.0000      -0.844226       -22.9725
 117   2.0000      -0.836672       -22.7670
 118   2.0000      -0.816511       -22.2184
 119   2.0000      -0.802629       -21.8406
 120   2.0000      -0.796763       -21.6810
 121   2.0000      -0.783308       -21.3149
 122   2.0000      -0.777183       -21.1482
 123   2.0000      -0.771142       -20.9838
 124   2.0000      -0.765358       -20.8265
 125   2.0000      -0.762245       -20.7417
 126   2.0000      -0.740132       -20.1400
 127   2.0000      -0.725764       -19.7490
 128   2.0000      -0.722022       -19.6472
 129   2.0000      -0.711854       -19.3705
 130   2.0000      -0.700645       -19.0655
 131   2.0000      -0.694400       -18.8956
 132   2.0000      -0.692241       -18.8368
 133   2.0000      -0.678764       -18.4701
 134   2.0000      -0.676463       -18.4075
 135   2.0000      -0.673867       -18.3368
 136   2.0000      -0.668488       -18.1905
 137   2.0000      -0.658980       -17.9318
 138   2.0000      -0.651718       -17.7342
 139   2.0000      -0.647154       -17.6100
 140   2.0000      -0.640103       -17.4181
 141   2.0000      -0.639917       -17.4130
 142   2.0000      -0.626970       -17.0607
 143   2.0000      -0.625016       -17.0076
 144   2.0000      -0.617235       -16.7958
 145   2.0000      -0.610534       -16.6135
 146   2.0000      -0.609704       -16.5909
 147   2.0000      -0.608673       -16.5628
 148   2.0000      -0.599826       -16.3221
 149   2.0000      -0.597794       -16.2668
 150   2.0000      -0.592001       -16.1092
 151   2.0000      -0.585395       -15.9294
 152   2.0000      -0.579296       -15.7635
 153   2.0000      -0.578326       -15.7370
 154   2.0000      -0.572431       -15.5766
 155   2.0000      -0.570989       -15.5374
 156   2.0000      -0.568138       -15.4598
 157   2.0000      -0.561645       -15.2831
 158   2.0000      -0.558125       -15.1874
 159   2.0000      -0.551480       -15.0065
 160   2.0000      -0.545239       -14.8367
 161   2.0000      -0.543538       -14.7904
 162   2.0000      -0.542589       -14.7646
 163   2.0000      -0.540436       -14.7060
 164   2.0000      -0.538346       -14.6491
 165   2.0000      -0.537962       -14.6387
 166   2.0000      -0.535186       -14.5631
 167   2.0000      -0.529448       -14.4070
 168   2.0000      -0.516796       -14.0627
 169   2.0000      -0.511569       -13.9205
 170   2.0000      -0.508767       -13.8443
 171   2.0000      -0.505129       -13.7453
 172   2.0000      -0.502785       -13.6815
 173   2.0000      -0.502157       -13.6644
 174   2.0000      -0.497783       -13.5454
 175   2.0000      -0.496483       -13.5100
 176   2.0000      -0.490746       -13.3539
 177   2.0000      -0.489257       -13.3134
 178   2.0000      -0.486509       -13.2386
 179   2.0000      -0.484214       -13.1761
 180   2.0000      -0.483149       -13.1472
 181   2.0000      -0.481682       -13.1072
 182   2.0000      -0.481264       -13.0959
 183   2.0000      -0.477565       -12.9952
 184   2.0000      -0.472869       -12.8674
 185   2.0000      -0.472414       -12.8550
 186   2.0000      -0.467535       -12.7223
 187   2.0000      -0.465859       -12.6767
 188   2.0000      -0.455170       -12.3858
 189   2.0000      -0.453532       -12.3412
 190   2.0000      -0.453421       -12.3382
 191   2.0000      -0.452406       -12.3106
 192   2.0000      -0.450663       -12.2632
 193   2.0000      -0.450080       -12.2473
 194   2.0000      -0.447649       -12.1812
 195   2.0000      -0.444752       -12.1023
 196   2.0000      -0.443812       -12.0767
 197   2.0000      -0.441283       -12.0079
 198   2.0000      -0.437044       -11.8926
 199   2.0000      -0.432593       -11.7714
 200   2.0000      -0.431318       -11.7368
 201   2.0000      -0.430582       -11.7167
 202   2.0000      -0.429253       -11.6806
 203   2.0000      -0.428253       -11.6533
 204   2.0000      -0.423863       -11.5339
 205   2.0000      -0.420491       -11.4421
 206   2.0000      -0.417645       -11.3647
 207   2.0000      -0.417088       -11.3495
 208   2.0000      -0.413981       -11.2650
 209   2.0000      -0.405561       -11.0359
 210   2.0000      -0.404352       -11.0030
 211   2.0000      -0.401012       -10.9121
 212   2.0000      -0.393990       -10.7210
 213   2.0000      -0.386524       -10.5179
 214   2.0000      -0.385851       -10.4995
 215   2.0000      -0.383463       -10.4346
 216   2.0000      -0.376771       -10.2525
 217   2.0000      -0.374882       -10.2011
 218   2.0000      -0.366309        -9.9678
 219   2.0000      -0.365972        -9.9586
 220   2.0000      -0.361380        -9.8336
 221   2.0000      -0.355801        -9.6818
 222   2.0000      -0.355539        -9.6747
 223   2.0000      -0.350250        -9.5308
 224   2.0000      -0.339115        -9.2278
 225   2.0000      -0.337521        -9.1844
 226   2.0000      -0.337023        -9.1709
 227   2.0000      -0.334374        -9.0988
 228   2.0000      -0.313245        -8.5238
 229   2.0000      -0.311794        -8.4844
 230   2.0000      -0.301715        -8.2101
 231   2.0000      -0.269663        -7.3379
 232   2.0000      -0.231667        -6.3040
 233   0.0000      -0.120238        -3.2718
 234   0.0000      -0.093460        -2.5432
 235   0.0000      -0.087814        -2.3895
 236   0.0000      -0.069287        -1.8854
 237   0.0000      -0.058053        -1.5797

MULLIKEN ATOMIC CHARGES
-----------------------
   0 C :    0.223166
   1 O :   -0.163672
   2 C :   -0.001027
   3 C :   -0.007831
   4 C :   -0.024725
   5 C :    0.042550
   6 C :    0.037671
   7 C :   -0.024260
   8 C :    0.219113
   9 O :   -0.125169
  10 N :   -0.228051
  11 C :   -0.004734
  12 C :   -0.053449
  13 C :    0.006444
  14 C :   -0.100252
  15 S :    0.207180
  16 C :   -0.061227
  17 C :    0.034529
  18 C :    0.310064
  19 C :   -0.308719
  20 C :   -0.187539
  21 N :    0.167213
  22 C :   -0.196048
  23 N :    0.178893
  24 C :   -0.066591
  25 C :   -0.182132
  26 S :    0.191887
  27 C :    0.188188
  28 C :   -0.059631
  29 C :   -0.047479
  30 N :   -0.079169
  31 C :    0.048982
  32 C :    0.040469
  33 N :   -0.075809
  34 C :    0.166947
  35 C :   -0.008289
  36 C :   -0.015721
  37 N :   -0.283330
  38 S :    0.573770
  39 N :   -0.287681
  40 C :   -0.165657
  41 C :   -0.070643
  42 C :    0.041515
  43 C :   -0.077089
  44 S :    0.197026
  45 C :   -0.073607
  46 C :    0.033431
  47 C :    0.309417
  48 C :   -0.308083
  49 C :   -0.194479
  50 N :    0.169923
  51 C :   -0.186118
  52 N :    0.172287
  53 C :   -0.049358
  54 C :   -0.060351
  55 S :    0.233943
  56 C :    0.048581
  57 C :   -0.226730
  58 C :    0.237845
  59 O :   -0.249449
  60 O :   -0.279467
  61 C :    0.189537
  62 C :   -0.121699
  63 N :    0.096280
  64 H :    0.009303
  65 H :    0.008234
  66 H :    0.008192
  67 H :    0.005273
  68 H :    0.025433
  69 H :    0.019051
  70 H :    0.021285
  71 H :    0.021110
  72 H :    0.018665
  73 H :    0.013495
  74 H :    0.028252
  75 H :    0.044704
  76 H :    0.032165
  77 H :    0.033256
Sum of atomic charges:    0.0000000

LOEWDIN ATOMIC CHARGES
----------------------
   0 C :    0.096633
   1 O :   -0.151429
   2 C :   -0.052524
   3 C :   -0.049214
   4 C :    0.017385
   5 C :    0.002801
   6 C :    0.000730
   7 C :    0.015910
   8 C :    0.106974
   9 O :   -0.117716
  10 N :   -0.028881
  11 C :   -0.121414
  12 C :   -0.053836
  13 C :   -0.062239
  14 C :   -0.198380
  15 S :    0.497042
  16 C :   -0.172506
  17 C :   -0.081820
  18 C :    0.082201
  19 C :   -0.105495
  20 C :   -0.015974
  21 N :   -0.037002
  22 C :   -0.019895
  23 N :   -0.031899
  24 C :   -0.005382
  25 C :   -0.173547
  26 S :    0.502490
  27 C :   -0.030155
  28 C :   -0.023141
  29 C :   -0.012900
  30 N :   -0.049064
  31 C :    0.023958
  32 C :    0.014222
  33 N :   -0.043125
  34 C :   -0.057549
  35 C :   -0.035868
  36 C :   -0.042703
  37 N :   -0.272744
  38 S :    0.695328
  39 N :   -0.279158
  40 C :   -0.152929
  41 C :   -0.021371
  42 C :   -0.063849
  43 C :   -0.198162
  44 S :    0.506872
  45 C :   -0.163898
  46 C :   -0.081143
  47 C :    0.081886
  48 C :   -0.108624
  49 C :   -0.016964
  50 N :   -0.038509
  51 C :   -0.017048
  52 N :   -0.035434
  53 C :    0.004976
  54 C :   -0.194041
  55 S :    0.539957
  56 C :    0.058791
  57 C :   -0.152813
  58 C :    0.098726
  59 O :   -0.206285
  60 O :   -0.071282
  61 C :    0.084305
  62 C :   -0.038626
  63 N :   -0.067448
  64 H :    0.043924
  65 H :    0.037711
  66 H :    0.037477
  67 H :    0.042469
  68 H :    0.043280
  69 H :    0.037737
  70 H :    0.031361
  71 H :    0.030674
  72 H :    0.037275
  73 H :    0.042878
  74 H :    0.059727
  75 H :    0.030514
  76 H :    0.023796
  77 H :    0.023978

  Mayer bond orders larger than 0.100000
B(  0-C ,  1-O ) :   2.1665 B(  0-C ,  2-C ) :   0.9045 B(  0-C , 10-N ) :   1.0276
B(  2-C ,  3-C ) :   1.3762 B(  2-C ,  7-C ) :   1.4155 B(  3-C ,  4-C ) :   1.4184
B(  3-C ,  8-C ) :   0.8996 B(  4-C ,  5-C ) :   1.3433 B(  4-C , 64-H ) :   1.0073
B(  5-C ,  6-C ) :   1.4052 B(  5-C , 65-H ) :   0.9894 B(  6-C ,  7-C ) :   1.3430
B(  6-C , 66-H ) :   0.9894 B(  7-C , 67-H ) :   1.0076 B(  8-C ,  9-O ) :   2.2246
B(  8-C , 10-N ) :   0.9903 B( 10-N , 11-C ) :   1.0110 B( 11-C , 12-C ) :   1.4872
B( 11-C , 15-S ) :   1.1374 B( 12-C , 13-C ) :   1.2183 B( 12-C , 68-H ) :   1.0029
B( 13-C , 14-C ) :   1.4571 B( 13-C , 18-C ) :   1.0105 B( 14-C , 15-S ) :   1.0549
B( 14-C , 16-C ) :   1.2019 B( 16-C , 17-C ) :   1.4067 B( 16-C , 26-S ) :   1.0885
B( 17-C , 18-C ) :   0.9880 B( 17-C , 24-C ) :   1.2785 B( 18-C , 19-C ) :   1.7065
B( 19-C , 20-C ) :   1.1403 B( 19-C , 22-C ) :   1.1317 B( 20-C , 21-N ) :   2.9855
B( 22-C , 23-N ) :   2.9986 B( 24-C , 25-C ) :   1.4060 B( 24-C , 69-H ) :   0.9838
B( 25-C , 26-S ) :   1.0756 B( 25-C , 27-C ) :   1.2179 B( 27-C , 28-C ) :   1.2588
B( 27-C , 34-C ) :   0.1315 B( 27-C , 36-C ) :   1.1998 B( 28-C , 29-C ) :   1.1320
B( 28-C , 33-N ) :   1.4085 B( 29-C , 30-N ) :   1.3944 B( 29-C , 34-C ) :   1.2817
B( 30-N , 31-C ) :   1.6578 B( 31-C , 32-C ) :   1.2018 B( 31-C , 70-H ) :   0.9747
B( 32-C , 33-N ) :   1.6496 B( 32-C , 71-H ) :   0.9748 B( 34-C , 35-C ) :   1.2065
B( 34-C , 40-C ) :   1.1825 B( 35-C , 36-C ) :   1.0990 B( 35-C , 39-N ) :   1.5081
B( 36-C , 37-N ) :   1.5086 B( 37-N , 38-S ) :   1.2897 B( 37-N , 39-N ) :   0.1511
B( 38-S , 39-N ) :   1.2804 B( 40-C , 41-C ) :   1.4242 B( 40-C , 44-S ) :   1.1039
B( 41-C , 42-C ) :   1.2668 B( 41-C , 72-H ) :   0.9838 B( 42-C , 43-C ) :   1.4084
B( 42-C , 47-C ) :   0.9938 B( 43-C , 44-S ) :   1.0609 B( 43-C , 45-C ) :   1.2093
B( 45-C , 46-C ) :   1.3571 B( 45-C , 55-S ) :   1.1246 B( 46-C , 47-C ) :   0.9851
B( 46-C , 53-C ) :   1.3367 B( 47-C , 48-C ) :   1.7086 B( 48-C , 49-C ) :   1.1361
B( 48-C , 51-C ) :   1.1381 B( 49-C , 50-N ) :   2.9920 B( 51-C , 52-N ) :   2.9883
B( 53-C , 54-C ) :   1.3427 B( 53-C , 73-H ) :   1.0047 B( 54-C , 55-S ) :   1.0746
B( 54-C , 56-C ) :   1.2338 B( 56-C , 57-C ) :   1.6285 B( 56-C , 74-H ) :   0.9588
B( 57-C , 58-C ) :   0.9933 B( 57-C , 62-C ) :   1.0656 B( 58-C , 59-O ) :   1.9642
B( 58-C , 60-O ) :   1.2741 B( 60-O , 61-C ) :   0.9174 B( 61-C , 75-H ) :   0.9812
B( 61-C , 76-H ) :   0.9766 B( 61-C , 77-H ) :   0.9760 B( 62-C , 63-N ) :   3.0347

-----------------------------------------------------------------------------
         ABSORPTION SPECTRUM VIA TRANSITION ELECTRIC DIPOLE MOMENTS
-----------------------------------------------------------------------------
State   Energy  Wavelength   fosc         T2         TX        TY        TZ
        (cm-1)    (nm)                  (au**2)     (au)      (au)      (au)
-----------------------------------------------------------------------------
   0    9134.7   1094.7   0.774745786  27.92158  -4.66482   1.34535   2.08591
   1   13165.3    759.6   0.008785185   0.21968   0.27165  -0.37435   0.07583
   2   13983.4    715.1   0.002948865   0.06943   0.21542   0.04476  -0.14497
   3   18266.4    547.5   0.011588643   0.20886  -0.23498  -0.25183   0.30037
   4   22152.2    451.4   0.004704206   0.06991  -0.06257   0.21741  -0.13685
   5   22793.2    438.7   0.269910751   3.89844   1.68448  -0.90443  -0.49291
   6   23993.0    416.8   0.018169257   0.24930   0.47370  -0.14902  -0.05207
   7   24096.2    415.0   0.573202489   7.83133  -2.33643   1.39576   0.65135
   8   24945.8    400.9   0.285066250   3.76205   1.65077  -0.90934  -0.45837
   9   25563.8    391.2   0.005445754   0.07013   0.21288   0.06436  -0.14377
  10   26299.7    380.2   0.081554178   1.02087   0.46355   0.55385  -0.70657
  11   26584.6    376.2   0.027155885   0.33629   0.49950  -0.16555  -0.24368
  12   26804.4    373.1   0.003176282   0.03901  -0.17844   0.04485   0.07184
  13   29910.6    334.3   0.202999500   2.23432  -1.09115  -0.34965   0.95992
  14   30743.2    325.3   0.516927314   5.53549   2.05854  -0.21398  -1.11897
  15   31174.5    320.8   0.064629057   0.68250  -0.61992   0.54146   0.07091
  16   31477.1    317.7   0.276749091   2.89446  -0.41331  -1.24672   1.08136
  17   31684.5    315.6   0.390485166   4.05726  -1.11227  -0.85264   1.44676
  18   31737.3    315.1   0.025446382   0.26396   0.09508   0.39081  -0.31966
  19   32158.7    311.0   0.095247432   0.97506   0.39642   0.67603  -0.60074
  20   32257.0    310.0   0.001216882   0.01242   0.04203  -0.05651  -0.08637
  21   32421.6    308.4   0.813033776   8.25563  -1.53702   2.31217  -0.73964
  22   33003.8    303.0   0.049923268   0.49798   0.43662   0.19716  -0.51814
  23   33347.1    299.9   0.072548820   0.71622   0.55688  -0.63716  -0.01176
  24   33589.6    297.7   0.000649764   0.00637   0.02638   0.03259  -0.06790
  25   33672.6    297.0   0.181757354   1.77701   0.79661  -1.04048   0.24460
  26   34261.4    291.9   0.147222407   1.41463  -1.03360   0.42358   0.40852
  27   34928.9    286.3   0.056210046   0.52979  -0.37687  -0.31614   0.53648
  28   35089.5    285.0   0.053285935   0.49993   0.23091   0.46704  -0.47800
  29   35129.0    284.7   0.089204073   0.83598  -0.12687  -0.62177   0.65824
  30   35739.0    279.8   0.703962090   6.48458  -0.01573   2.09376  -1.44931
  31   35797.7    279.3   0.001867498   0.01717   0.04714   0.10049   0.06968
  32   36082.8    277.1   0.019803244   0.18068  -0.07459   0.18523  -0.37524
  33   36533.2    273.7   0.074800058   0.67405  -0.67942   0.44316   0.12665
  34   36869.6    271.2   0.001724602   0.01540  -0.02960   0.11702  -0.02881
  35   36914.4    270.9   0.002817981   0.02513   0.08980   0.03175   0.12672
  36   37460.2    266.9   0.019071941   0.16761  -0.07742   0.36631  -0.16562
  37   37770.9    264.8   0.117670157   1.02561   0.07421   0.79295  -0.62557
  38   37995.6    263.2   0.013250096   0.11481  -0.00340  -0.28642   0.18099
  39   38525.9    259.6   0.013524856   0.11557  -0.19538  -0.13851   0.24127
  40   38977.7    256.6   0.002200266   0.01858  -0.08279  -0.04914   0.09651
  41   39484.0    253.3   0.002101416   0.01752  -0.08144  -0.03601   0.09794
  42   40110.4    249.3   0.006614877   0.05429  -0.01976  -0.17582   0.15162
  43   40216.0    248.7   0.019546467   0.16001   0.00891  -0.32301   0.23579
  44   40258.6    248.4   0.000837061   0.00685  -0.03642  -0.04669  -0.05778

FINAL SINGLE POINT ENERGY     -4558.675163791673

DIPOLE MOMENT
-------------
                                X             Y             Z
Electronic contribution:     -0.26096      20.13684     -13.41249
Nuclear contribution   :     -4.10595     -22.93612      18.43477
                        -----------------------------------------
Total Dipole Moment    :     -4.36690      -2.79928       5.02228
                        -----------------------------------------
Magnitude (a.u.)       :      7.22005
Magnitude (Debye)      :     18.35191

Rotational constants in cm-1:     0.002573     0.000306     0.000274
Rotational constants in MHz :    77.137521     9.182142     8.209921

                             ****ORCA TERMINATED NORMALLY****
TOTAL RUN TIME: 0 days 0 hours 7 minutes 4 seconds 967 msec
