                         Program Version 4.2.0 -  RELEASE  -
|  1> # ORCA input file
|  2> # SCF done       -174.074973810826          0.000370525965
|  3> ! CAM-B3LYP def2-SVP def2/J RIJCOSX Grid4 TightSCF
|  4> %maxcore 5000
|  5> %tddft
|  6>     Mode sTDDFT
|  7>     Ethresh 5.0
|  8>     maxcore 5000
|  9> end
| 10>
| 11> %pal
| 12>   nprocs 6
| 13>   end
| 14> * xyz 0 1
| 15>    C        2.42115        -2.54517         2.91411
| 16>    O        3.39304        -3.12894         3.32329
| 17>    C        1.00051        -2.66872         3.28302
| 18>    C        0.26891        -1.76477         2.50528
| 19>    C       -1.10105        -1.66257         2.62827
| 20>    C       -1.72860        -2.49229         3.55393
| 21>    C       -1.00294        -3.38765         4.32451
| 22>    C        0.38006        -3.49043         4.20104
| 23>    C        1.20006        -1.03576         1.61752
| 24>    O        0.97575        -0.18443         0.80403
| 25>    N        2.47431        -1.56085         1.92132
| 26>    C        3.66970        -1.21120         1.31975
| 27>    C        3.85972        -0.28625         0.32129
| 28>    C        5.20762        -0.23039        -0.05239
| 29>    C        6.01534        -1.11769         0.67933
| 30>    S        5.13288        -2.02555         1.83225
| 31>    C        7.34606        -1.01786         0.20549
| 32>    C        7.37617        -0.06102        -0.83286
| 33>    C        6.03366         0.47105        -1.01930
| 34>    C        5.64570         1.42004        -1.91827
| 35>    C        6.55663         2.02207        -2.81289
| 36>    N        7.28713         2.51345        -3.54751
| 37>    C        4.31250         1.87163        -2.02263
| 38>    N        3.23579         2.25209        -2.12266
| 39>    C        8.63333         0.08220        -1.39647
| 40>    C        9.57029        -0.75690        -0.79898
| 41>    S        8.87378        -1.72155         0.49776
| 42>    C       10.92543        -0.91896        -1.17077
| 43>    C       11.76998        -1.82189        -0.48152
| 44>    C       13.12077        -2.08770        -0.90508
| 45>    N       13.86588        -2.96304        -0.21977
| 46>    C       13.36732        -3.56786         0.83095
| 47>    C       12.02382        -3.30359         1.25111
| 48>    N       11.27740        -2.45179         0.58772
| 49>    C       11.48754        -3.95510         2.38831
| 50>    N       11.08240        -4.49684         3.31263
| 51>    C       14.17562        -4.48422         1.54840
| 52>    N       14.80652        -5.22892         2.14749
| 53>    C       13.69348        -1.47259        -2.03898
| 54>    C       12.87684        -0.51778        -2.69068
| 55>    C       11.52264        -0.24451        -2.26364
| 56>    N       10.94670         0.67895        -3.03344
| 57>    S       11.97865         1.15857        -4.16128
| 58>    N       13.21250         0.22223        -3.74746
| 59>    C       14.98341        -1.84416        -2.49890
| 60>    C       15.63118        -1.36994        -3.63405
| 61>    C       16.84865        -2.00314        -3.83842
| 62>    C       17.13973        -2.96205        -2.84502
| 63>    S       15.90964        -3.07711        -1.66014
| 64>    C       18.37295        -3.57299        -3.16795
| 65>    C       18.85859        -3.01149        -4.37001
| 66>    C       17.92672        -1.98964        -4.81549
| 67>    C       18.04094        -1.18441        -5.90997
| 68>    C       19.15875        -1.22858        -6.77115
| 69>    N       20.06900        -1.23353        -7.46810
| 70>    C       17.05558        -0.23127        -6.24602
| 71>    N       16.25722         0.54163        -6.52873
| 72>    C       20.03749        -3.59857        -4.81105
| 73>    C       20.47438        -4.60057        -3.95848
| 74>    S       19.39777        -4.79124        -2.56986
| 75>    C       21.61301        -5.44192        -4.00625
| 76>    C       22.45740        -5.69421        -5.04488
| 77>    C       22.27740        -5.28405        -6.46210
| 78>    O       21.22125        -5.02775        -6.98516
| 79>    O       23.44565        -5.28968        -7.10810
| 80>    C       23.39533        -4.96753        -8.49055
| 81>    C       23.58437        -6.50855        -4.80428
| 82>    N       24.49389        -7.17626        -4.59727
| 83>    H       -1.65843        -0.96413         2.02435
| 84>    H       -2.80006        -2.43730         3.67224
| 85>    H       -1.51872        -4.01800         5.03280
| 86>    H        0.95146        -4.18516         4.79610
| 87>    H        3.06314         0.29691        -0.10270
| 88>    H        8.89534         0.74022        -2.20446
| 89>    H       15.19920        -0.61106        -4.26001
| 90>    H       20.55367        -3.32373        -5.71065
| 91>    H       21.83853        -5.94901        -3.07340
| 92>    H       22.93446        -3.98800        -8.63520
| 93>    H       22.81015        -5.71459        -9.03078
| 94>    H       24.42515        -4.96456        -8.83659
| 95> *
| 96>
| 97>                          ****END OF INPUT****

CARTESIAN COORDINATES (ANGSTROEM)
---------------------------------
  C      2.421150   -2.545170    2.914110
  O      3.393040   -3.128940    3.323290
  C      1.000510   -2.668720    3.283020
  C      0.268910   -1.764770    2.505280
  C     -1.101050   -1.662570    2.628270
  C     -1.728600   -2.492290    3.553930
  C     -1.002940   -3.387650    4.324510
  C      0.380060   -3.490430    4.201040
  C      1.200060   -1.035760    1.617520
  O      0.975750   -0.184430    0.804030
  N      2.474310   -1.560850    1.921320
  C      3.669700   -1.211200    1.319750
  C      3.859720   -0.286250    0.321290
  C      5.207620   -0.230390   -0.052390
  C      6.015340   -1.117690    0.679330
  S      5.132880   -2.025550    1.832250
  C      7.346060   -1.017860    0.205490
  C      7.376170   -0.061020   -0.832860
  C      6.033660    0.471050   -1.019300
  C      5.645700    1.420040   -1.918270
  C      6.556630    2.022070   -2.812890
  N      7.287130    2.513450   -3.547510
  C      4.312500    1.871630   -2.022630
  N      3.235790    2.252090   -2.122660
  C      8.633330    0.082200   -1.396470
  C      9.570290   -0.756900   -0.798980
  S      8.873780   -1.721550    0.497760
  C     10.925430   -0.918960   -1.170770
  C     11.769980   -1.821890   -0.481520
  C     13.120770   -2.087700   -0.905080
  N     13.865880   -2.963040   -0.219770
  C     13.367320   -3.567860    0.830950
  C     12.023820   -3.303590    1.251110
  N     11.277400   -2.451790    0.587720
  C     11.487540   -3.955100    2.388310
  N     11.082400   -4.496840    3.312630
  C     14.175620   -4.484220    1.548400
  N     14.806520   -5.228920    2.147490
  C     13.693480   -1.472590   -2.038980
  C     12.876840   -0.517780   -2.690680
  C     11.522640   -0.244510   -2.263640
  N     10.946700    0.678950   -3.033440
  S     11.978650    1.158570   -4.161280
  N     13.212500    0.222230   -3.747460
  C     14.983410   -1.844160   -2.498900
  C     15.631180   -1.369940   -3.634050
  C     16.848650   -2.003140   -3.838420
  C     17.139730   -2.962050   -2.845020
  S     15.909640   -3.077110   -1.660140
  C     18.372950   -3.572990   -3.167950
  C     18.858590   -3.011490   -4.370010
  C     17.926720   -1.989640   -4.815490
  C     18.040940   -1.184410   -5.909970
  C     19.158750   -1.228580   -6.771150
  N     20.069000   -1.233530   -7.468100
  C     17.055580   -0.231270   -6.246020
  N     16.257220    0.541630   -6.528730
  C     20.037490   -3.598570   -4.811050
  C     20.474380   -4.600570   -3.958480
  S     19.397770   -4.791240   -2.569860
  C     21.613010   -5.441920   -4.006250
  C     22.457400   -5.694210   -5.044880
  C     22.277400   -5.284050   -6.462100
  O     21.221250   -5.027750   -6.985160
  O     23.445650   -5.289680   -7.108100
  C     23.395330   -4.967530   -8.490550
  C     23.584370   -6.508550   -4.804280
  N     24.493890   -7.176260   -4.597270
  H     -1.658430   -0.964130    2.024350
  H     -2.800060   -2.437300    3.672240
  H     -1.518720   -4.018000    5.032800
  H      0.951460   -4.185160    4.796100
  H      3.063140    0.296910   -0.102700
  H      8.895340    0.740220   -2.204460
  H     15.199200   -0.611060   -4.260010
  H     20.553670   -3.323730   -5.710650
  H     21.838530   -5.949010   -3.073400
  H     22.934460   -3.988000   -8.635200
  H     22.810150   -5.714590   -9.030780
  H     24.425150   -4.964560   -8.836590

 Total Charge           Charge          ....    0
 Multiplicity           Mult            ....    1
 Number of Electrons    NEL             ....  490
 Basis Dimension        Dim             .... 1032

ORBITAL ENERGIES
----------------

  NO   OCC          E(Eh)            E(eV)
   0   2.0000     -89.053806     -2423.2773
   1   2.0000     -88.993338     -2421.6319
   2   2.0000     -88.992125     -2421.5988
   3   2.0000     -88.987321     -2421.4681
   4   2.0000     -88.987022     -2421.4600
   5   2.0000     -19.265283      -524.2350
   6   2.0000     -19.249703      -523.8111
   7   2.0000     -19.245012      -523.6834
   8   2.0000     -19.211273      -522.7653
   9   2.0000     -14.501995      -394.6193
  10   2.0000     -14.480106      -394.0237
  11   2.0000     -14.478547      -393.9813
  12   2.0000     -14.464039      -393.5865
  13   2.0000     -14.461374      -393.5140
  14   2.0000     -14.442330      -392.9958
  15   2.0000     -14.439749      -392.9255
  16   2.0000     -14.429229      -392.6393
  17   2.0000     -14.429156      -392.6373
  18   2.0000     -14.428322      -392.6146
  19   2.0000     -14.427581      -392.5944
  20   2.0000     -14.394624      -391.6976
  21   2.0000     -10.426000      -283.7059
  22   2.0000     -10.425045      -283.6799
  23   2.0000     -10.411339      -283.3070
  24   2.0000     -10.398177      -282.9488
  25   2.0000     -10.394608      -282.8517
  26   2.0000     -10.367112      -282.1035
  27   2.0000     -10.363893      -282.0159
  28   2.0000     -10.363431      -282.0033
  29   2.0000     -10.359645      -281.9003
  30   2.0000     -10.359353      -281.8923
  31   2.0000     -10.354921      -281.7717
  32   2.0000     -10.354682      -281.7652
  33   2.0000     -10.351157      -281.6693
  34   2.0000     -10.350812      -281.6599
  35   2.0000     -10.339626      -281.3555
  36   2.0000     -10.335732      -281.2496
  37   2.0000     -10.335441      -281.2416
  38   2.0000     -10.333451      -281.1875
  39   2.0000     -10.331638      -281.1382
  40   2.0000     -10.329650      -281.0841
  41   2.0000     -10.329465      -281.0790
  42   2.0000     -10.328585      -281.0551
  43   2.0000     -10.328455      -281.0516
  44   2.0000     -10.328299      -281.0473
  45   2.0000     -10.327558      -281.0271
  46   2.0000     -10.327031      -281.0128
  47   2.0000     -10.326254      -280.9916
  48   2.0000     -10.325656      -280.9754
  49   2.0000     -10.325553      -280.9726
  50   2.0000     -10.323219      -280.9091
  51   2.0000     -10.321221      -280.8547
  52   2.0000     -10.319487      -280.8075
  53   2.0000     -10.318824      -280.7895
  54   2.0000     -10.318523      -280.7813
  55   2.0000     -10.317734      -280.7598
  56   2.0000     -10.316840      -280.7355
  57   2.0000     -10.313617      -280.6478
  58   2.0000     -10.313216      -280.6369
  59   2.0000     -10.306318      -280.4492
  60   2.0000     -10.305654      -280.4311
  61   2.0000     -10.305019      -280.4138
  62   2.0000     -10.303025      -280.3596
  63   2.0000     -10.302984      -280.3585
  64   2.0000     -10.300130      -280.2808
  65   2.0000     -10.298178      -280.2277
  66   2.0000     -10.298170      -280.2274
  67   2.0000     -10.296652      -280.1861
  68   2.0000      -8.144964      -221.6357
  69   2.0000      -8.088125      -220.0891
  70   2.0000      -8.085380      -220.0144
  71   2.0000      -8.080108      -219.8709
  72   2.0000      -8.079569      -219.8562
  73   2.0000      -6.116055      -166.4263
  74   2.0000      -6.108092      -166.2096
  75   2.0000      -6.107826      -166.2024
  76   2.0000      -6.057214      -164.8252
  77   2.0000      -6.054995      -164.7648
  78   2.0000      -6.053110      -164.7135
  79   2.0000      -6.050689      -164.6476
  80   2.0000      -6.050286      -164.6367
  81   2.0000      -6.049653      -164.6194
  82   2.0000      -6.049135      -164.6053
  83   2.0000      -6.047488      -164.5605
  84   2.0000      -6.044863      -164.4891
  85   2.0000      -6.044320      -164.4743
  86   2.0000      -6.042518      -164.4253
  87   2.0000      -6.042028      -164.4119
  88   2.0000      -1.199278       -32.6340
  89   2.0000      -1.197002       -32.5721
  90   2.0000      -1.171245       -31.8712
  91   2.0000      -1.152313       -31.3560
  92   2.0000      -1.138153       -30.9707
  93   2.0000      -1.104598       -30.0576
  94   2.0000      -1.090162       -29.6648
  95   2.0000      -1.067027       -29.0353
  96   2.0000      -1.044863       -28.4322
  97   2.0000      -1.042726       -28.3740
  98   2.0000      -1.026491       -27.9322
  99   2.0000      -1.020688       -27.7743
 100   2.0000      -1.020444       -27.7677
 101   2.0000      -1.016281       -27.6544
 102   2.0000      -1.009511       -27.4702
 103   2.0000      -1.006996       -27.4018
 104   2.0000      -1.005708       -27.3667
 105   2.0000      -1.005318       -27.3561
 106   2.0000      -0.999937       -27.2097
 107   2.0000      -0.990840       -26.9621
 108   2.0000      -0.983250       -26.7556
 109   2.0000      -0.980253       -26.6740
 110   2.0000      -0.959458       -26.1082
 111   2.0000      -0.954904       -25.9843
 112   2.0000      -0.928971       -25.2786
 113   2.0000      -0.923497       -25.1296
 114   2.0000      -0.920716       -25.0540
 115   2.0000      -0.912105       -24.8196
 116   2.0000      -0.898421       -24.4473
 117   2.0000      -0.885779       -24.1033
 118   2.0000      -0.882172       -24.0051
 119   2.0000      -0.868649       -23.6372
 120   2.0000      -0.866230       -23.5713
 121   2.0000      -0.856463       -23.3055
 122   2.0000      -0.855828       -23.2883
 123   2.0000      -0.848274       -23.0827
 124   2.0000      -0.838878       -22.8270
 125   2.0000      -0.822544       -22.3826
 126   2.0000      -0.815254       -22.1842
 127   2.0000      -0.799824       -21.7643
 128   2.0000      -0.790207       -21.5026
 129   2.0000      -0.785567       -21.3764
 130   2.0000      -0.777556       -21.1584
 131   2.0000      -0.772165       -21.0117
 132   2.0000      -0.752249       -20.4697
 133   2.0000      -0.747735       -20.3469
 134   2.0000      -0.731946       -19.9173
 135   2.0000      -0.726504       -19.7692
 136   2.0000      -0.718493       -19.5512
 137   2.0000      -0.710558       -19.3353
 138   2.0000      -0.702133       -19.1060
 139   2.0000      -0.699301       -19.0289
 140   2.0000      -0.695131       -18.9155
 141   2.0000      -0.684188       -18.6177
 142   2.0000      -0.681101       -18.5337
 143   2.0000      -0.678515       -18.4633
 144   2.0000      -0.668822       -18.1996
 145   2.0000      -0.666158       -18.1271
 146   2.0000      -0.657431       -17.8896
 147   2.0000      -0.641989       -17.4694
 148   2.0000      -0.640975       -17.4418
 149   2.0000      -0.638291       -17.3688
 150   2.0000      -0.632939       -17.2232
 151   2.0000      -0.631667       -17.1885
 152   2.0000      -0.626527       -17.0487
 153   2.0000      -0.617566       -16.8048
 154   2.0000      -0.615996       -16.7621
 155   2.0000      -0.613164       -16.6850
 156   2.0000      -0.607826       -16.5398
 157   2.0000      -0.603168       -16.4130
 158   2.0000      -0.595449       -16.2030
 159   2.0000      -0.594665       -16.1817
 160   2.0000      -0.588385       -16.0108
 161   2.0000      -0.576896       -15.6981
 162   2.0000      -0.574874       -15.6431
 163   2.0000      -0.570422       -15.5220
 164   2.0000      -0.568619       -15.4729
 165   2.0000      -0.564732       -15.3671
 166   2.0000      -0.558272       -15.1913
 167   2.0000      -0.554658       -15.0930
 168   2.0000      -0.551318       -15.0021
 169   2.0000      -0.548301       -14.9200
 170   2.0000      -0.547153       -14.8888
 171   2.0000      -0.545512       -14.8441
 172   2.0000      -0.545189       -14.8353
 173   2.0000      -0.541966       -14.7476
 174   2.0000      -0.532277       -14.4840
 175   2.0000      -0.525668       -14.3041
 176   2.0000      -0.522928       -14.2296
 177   2.0000      -0.514095       -13.9892
 178   2.0000      -0.511662       -13.9230
 179   2.0000      -0.505735       -13.7618
 180   2.0000      -0.505054       -13.7432
 181   2.0000      -0.503925       -13.7125
 182   2.0000      -0.502540       -13.6748
 183   2.0000      -0.500673       -13.6240
 184   2.0000      -0.496780       -13.5181
 185   2.0000      -0.494439       -13.4544
 186   2.0000      -0.494071       -13.4444
 187   2.0000      -0.491017       -13.3613
 188   2.0000      -0.488369       -13.2892
 189   2.0000      -0.487813       -13.2741
 190   2.0000      -0.485167       -13.2021
 191   2.0000      -0.481373       -13.0988
 192   2.0000      -0.481023       -13.0893
 193   2.0000      -0.476589       -12.9686
 194   2.0000      -0.472868       -12.8674
 195   2.0000      -0.470791       -12.8109
 196   2.0000      -0.469955       -12.7881
 197   2.0000      -0.467715       -12.7272
 198   2.0000      -0.464320       -12.6348
 199   2.0000      -0.461489       -12.5577
 200   2.0000      -0.460287       -12.5250
 201   2.0000      -0.460205       -12.5228
 202   2.0000      -0.457570       -12.4511
 203   2.0000      -0.456637       -12.4257
 204   2.0000      -0.455012       -12.3815
 205   2.0000      -0.454556       -12.3691
 206   2.0000      -0.451168       -12.2769
 207   2.0000      -0.447681       -12.1820
 208   2.0000      -0.442708       -12.0467
 209   2.0000      -0.438799       -11.9403
 210   2.0000      -0.438664       -11.9367
 211   2.0000      -0.438550       -11.9336
 212   2.0000      -0.437742       -11.9116
 213   2.0000      -0.437663       -11.9094
 214   2.0000      -0.436700       -11.8832
 215   2.0000      -0.433928       -11.8078
 216   2.0000      -0.428834       -11.6692
 217   2.0000      -0.426365       -11.6020
 218   2.0000      -0.425621       -11.5817
 219   2.0000      -0.425054       -11.5663
 220   2.0000      -0.421354       -11.4656
 221   2.0000      -0.418056       -11.3759
 222   2.0000      -0.411254       -11.1908
 223   2.0000      -0.409779       -11.1507
 224   2.0000      -0.402814       -10.9611
 225   2.0000      -0.398677       -10.8486
 226   2.0000      -0.391009       -10.6399
 227   2.0000      -0.389873       -10.6090
 228   2.0000      -0.387771       -10.5518
 229   2.0000      -0.381497       -10.3811
 230   2.0000      -0.373286       -10.1576
 231   2.0000      -0.371435       -10.1073
 232   2.0000      -0.364999        -9.9321
 233   2.0000      -0.363952        -9.9036
 234   2.0000      -0.362453        -9.8628
 235   2.0000      -0.360553        -9.8111
 236   2.0000      -0.358430        -9.7534
 237   2.0000      -0.347915        -9.4672
 238   2.0000      -0.346810        -9.4372
 239   2.0000      -0.346171        -9.4198
 240   2.0000      -0.322357        -8.7718
 241   2.0000      -0.321090        -8.7373
 242   2.0000      -0.311174        -8.4675
 243   2.0000      -0.278648        -7.5824
 244   2.0000      -0.241518        -6.5720
 245   0.0000      -0.139082        -3.7846
 246   0.0000      -0.104014        -2.8304
 247   0.0000      -0.099233        -2.7003
 248   0.0000      -0.073757        -2.0070
 249   0.0000      -0.067252        -1.8300

MULLIKEN ATOMIC CHARGES
-----------------------
   0 C :    0.225204
   1 O :   -0.159038
   2 C :   -0.000467
   3 C :   -0.008591
   4 C :   -0.024195
   5 C :    0.039703
   6 C :    0.040341
   7 C :   -0.023349
   8 C :    0.221173
   9 O :   -0.124498
  10 N :   -0.230973
  11 C :   -0.000792
  12 C :   -0.054358
  13 C :    0.014072
  14 C :   -0.099848
  15 S :    0.222349
  16 C :   -0.054084
  17 C :    0.033170
  18 C :    0.307590
  19 C :   -0.303581
  20 C :   -0.188928
  21 N :    0.170828
  22 C :   -0.194186
  23 N :    0.182943
  24 C :   -0.060797
  25 C :   -0.186562
  26 S :    0.203983
  27 C :    0.201354
  28 C :   -0.069185
  29 C :   -0.058457
  30 N :   -0.007053
  31 C :   -0.097915
  32 C :   -0.106386
  33 N :    0.002087
  34 C :   -0.241346
  35 N :    0.249466
  36 C :   -0.239663
  37 N :    0.251916
  38 C :    0.185934
  39 C :   -0.010004
  40 C :   -0.015282
  41 N :   -0.280754
  42 S :    0.585826
  43 N :   -0.285553
  44 C :   -0.171652
  45 C :   -0.071897
  46 C :    0.042816
  47 C :   -0.066279
  48 S :    0.204696
  49 C :   -0.094526
  50 C :   -0.021899
  51 C :    0.311678
  52 C :   -0.299848
  53 C :   -0.185563
  54 N :    0.177184
  55 C :   -0.188695
  56 N :    0.169558
  57 C :    0.039178
  58 C :   -0.122344
  59 S :    0.202149
  60 C :    0.106843
  61 C :   -0.174375
  62 C :    0.201352
  63 O :   -0.210230
  64 O :   -0.277499
  65 C :    0.184121
  66 C :   -0.132887
  67 N :    0.089251
  68 H :    0.010756
  69 H :    0.011690
  70 H :    0.009804
  71 H :    0.008767
  72 H :    0.027128
  73 H :    0.022617
  74 H :    0.021019
  75 H :    0.023777
  76 H :    0.020183
  77 H :    0.042681
  78 H :    0.035949
  79 H :    0.042400
Sum of atomic charges:   -0.0000000

LOEWDIN ATOMIC CHARGES
----------------------
   0 C :    0.098030
   1 O :   -0.147187
   2 C :   -0.052629
   3 C :   -0.049756
   4 C :    0.018227
   5 C :    0.003782
   6 C :    0.002710
   7 C :    0.017716
   8 C :    0.108273
   9 O :   -0.116553
  10 N :   -0.029923
  11 C :   -0.113833
  12 C :   -0.054114
  13 C :   -0.054571
  14 C :   -0.202684
  15 S :    0.508097
  16 C :   -0.159228
  17 C :   -0.080618
  18 C :    0.079886
  19 C :   -0.101413
  20 C :   -0.015802
  21 N :   -0.034466
  22 C :   -0.020426
  23 N :   -0.026762
  24 C :    0.002085
  25 C :   -0.175401
  26 S :    0.508299
  27 C :   -0.026198
  28 C :   -0.019684
  29 C :   -0.012044
  30 N :   -0.020471
  31 C :   -0.017470
  32 C :   -0.029504
  33 N :   -0.013298
  34 C :   -0.040703
  35 N :   -0.001460
  36 C :   -0.038430
  37 N :    0.002298
  38 C :   -0.052077
  39 C :   -0.033552
  40 C :   -0.040603
  41 N :   -0.267895
  42 S :    0.703618
  43 N :   -0.273884
  44 C :   -0.159889
  45 C :   -0.014510
  46 C :   -0.065707
  47 C :   -0.187870
  48 S :    0.508799
  49 C :   -0.165596
  50 C :   -0.069896
  51 C :    0.079595
  52 C :   -0.099478
  53 C :   -0.017226
  54 N :   -0.029039
  55 C :   -0.015609
  56 N :   -0.033353
  57 C :    0.013675
  58 C :   -0.181924
  59 S :    0.489834
  60 C :    0.040139
  61 C :   -0.121920
  62 C :    0.091547
  63 O :   -0.166633
  64 O :   -0.071526
  65 C :    0.084807
  66 C :   -0.037580
  67 N :   -0.061606
  68 H :    0.044356
  69 H :    0.038739
  70 H :    0.038326
  71 H :    0.043774
  72 H :    0.044100
  73 H :    0.038908
  74 H :    0.038059
  75 H :    0.042363
  76 H :    0.048556
  77 H :    0.027760
  78 H :    0.025819
  79 H :    0.029828

  Mayer bond orders larger than 0.100000
B(  0-C ,  1-O ) :   2.1676 B(  0-C ,  2-C ) :   0.9066 B(  0-C , 10-N ) :   1.0218
B(  2-C ,  3-C ) :   1.3742 B(  2-C ,  7-C ) :   1.4148 B(  3-C ,  4-C ) :   1.4198
B(  3-C ,  8-C ) :   0.9018 B(  4-C ,  5-C ) :   1.3448 B(  4-C , 68-H ) :   1.0066
B(  5-C ,  6-C ) :   1.4039 B(  5-C , 69-H ) :   0.9889 B(  6-C ,  7-C ) :   1.3453
B(  6-C , 70-H ) :   0.9890 B(  7-C , 71-H ) :   1.0075 B(  8-C ,  9-O ) :   2.2255
B(  8-C , 10-N ) :   0.9836 B( 10-N , 11-C ) :   1.0204 B( 11-C , 12-C ) :   1.4741
B( 11-C , 15-S ) :   1.1455 B( 12-C , 13-C ) :   1.2285 B( 12-C , 72-H ) :   1.0031
B( 13-C , 14-C ) :   1.4417 B( 13-C , 18-C ) :   1.0102 B( 14-C , 15-S ) :   1.0521
B( 14-C , 16-C ) :   1.2170 B( 16-C , 17-C ) :   1.3856 B( 16-C , 26-S ) :   1.1059
B( 17-C , 18-C ) :   0.9882 B( 17-C , 24-C ) :   1.2966 B( 18-C , 19-C ) :   1.7102
B( 19-C , 20-C ) :   1.1401 B( 19-C , 22-C ) :   1.1317 B( 20-C , 21-N ) :   2.9853
B( 22-C , 23-N ) :   2.9986 B( 24-C , 25-C ) :   1.3808 B( 24-C , 73-H ) :   0.9838
B( 25-C , 26-S ) :   1.0691 B( 25-C , 27-C ) :   1.2451 B( 27-C , 28-C ) :   1.2310
B( 27-C , 38-C ) :   0.1193 B( 27-C , 40-C ) :   1.1879 B( 28-C , 29-C ) :   1.1038
B( 28-C , 33-N ) :   1.4232 B( 29-C , 30-N ) :   1.3930 B( 29-C , 38-C ) :   1.2690
B( 30-N , 31-C ) :   1.6983 B( 31-C , 32-C ) :   1.2213 B( 31-C , 36-C ) :   1.1650
B( 32-C , 33-N ) :   1.6815 B( 32-C , 34-C ) :   1.1666 B( 34-C , 35-N ) :   3.0395
B( 36-C , 37-N ) :   3.0409 B( 38-C , 39-C ) :   1.1930 B( 38-C , 44-C ) :   1.1946
B( 39-C , 40-C ) :   1.0970 B( 39-C , 43-N ) :   1.5204 B( 40-C , 41-N ) :   1.5211
B( 41-N , 42-S ) :   1.2873 B( 41-N , 43-N ) :   0.1450 B( 42-S , 43-N ) :   1.2770
B( 44-C , 45-C ) :   1.4182 B( 44-C , 48-S ) :   1.0964 B( 45-C , 46-C ) :   1.2751
B( 45-C , 74-H ) :   0.9836 B( 46-C , 47-C ) :   1.4071 B( 46-C , 51-C ) :   0.9911
B( 47-C , 48-S ) :   1.0774 B( 47-C , 49-C ) :   1.2055 B( 49-C , 50-C ) :   1.3886
B( 49-C , 59-S ) :   1.1545 B( 50-C , 51-C ) :   0.9947 B( 50-C , 57-C ) :   1.3416
B( 51-C , 52-C ) :   1.7108 B( 52-C , 53-C ) :   1.1331 B( 52-C , 55-C ) :   1.1416
B( 53-C , 54-N ) :   2.9903 B( 55-C , 56-N ) :   2.9846 B( 57-C , 58-C ) :   1.4259
B( 57-C , 75-H ) :   0.9727 B( 58-C , 59-S ) :   1.0832 B( 58-C , 60-C ) :   1.1460
B( 60-C , 61-C ) :   1.7486 B( 60-C , 76-H ) :   0.9402 B( 61-C , 62-C ) :   0.9227
B( 61-C , 66-C ) :   1.0790 B( 62-C , 63-O ) :   2.0669 B( 62-C , 64-O ) :   1.2555
B( 64-O , 65-C ) :   0.9150 B( 65-C , 77-H ) :   0.9750 B( 65-C , 78-H ) :   0.9769
B( 65-C , 79-H ) :   0.9807 B( 66-C , 67-N ) :   3.0289

-----------------------------------------------------------------------------
         ABSORPTION SPECTRUM VIA TRANSITION ELECTRIC DIPOLE MOMENTS
-----------------------------------------------------------------------------
State   Energy  Wavelength   fosc         T2         TX        TY        TZ
        (cm-1)    (nm)                  (au**2)     (au)      (au)      (au)
-----------------------------------------------------------------------------
   0    7014.1   1425.7   0.504589892  23.68339   4.56194  -0.94669  -1.40566
   1   13225.5    756.1   0.010388336   0.25859   0.23427  -0.37493  -0.25126
   2   13711.9    729.3   0.030719570   0.73755   0.78928  -0.17003  -0.29271
   3   16396.4    609.9   0.017823319   0.35786  -0.50471  -0.25472  -0.19556
   4   21928.7    456.0   0.104840674   1.57396  -0.76351   0.03136   0.99500
   5   22432.7    445.8   0.314910843   4.62149   1.94332  -0.34527  -0.85193
   6   23012.6    434.5   0.529500302   7.57488   2.54495  -0.81528  -0.65834
   7   23363.6    428.0   0.008275667   0.11661  -0.30233   0.15873   0.00341
   8   23479.7    425.9   0.013178407   0.18478   0.06607   0.21308  -0.36744
   9   24076.6    415.3   0.023631762   0.32313  -0.29977   0.39571  -0.27692
  10   24732.0    404.3   0.028093588   0.37396  -0.40534   0.41832  -0.18619
  11   25231.6    396.3   0.084873433   1.10739   0.98943  -0.16812  -0.31648
  12   25315.6    395.0   0.029274476   0.38069  -0.51866   0.27345   0.19211
  13   25819.3    387.3   0.501101784   6.38935   2.13671  -1.18832  -0.64165
  14   29263.5    341.7   0.029462366   0.33145   0.03960   0.36489  -0.44355
  15   29952.1    333.9   0.112003392   1.23106   0.68334  -0.79349   0.36672
  16   30233.7    330.8   0.303835944   3.30844   1.71170  -0.60968  -0.08260
  17   30757.3    325.1   0.417678393   4.47063  -1.97552  -0.22018   0.72074
  18   30900.6    323.6   0.000874119   0.00931   0.05672   0.01987  -0.07551
  19   31330.5    319.2   0.608918881   6.39835  -0.56139  -1.61494   1.86418
  20   31612.0    316.3   0.261712630   2.72551  -0.85589  -0.63566   1.26052
  21   32132.5    311.2   0.051113136   0.52368   0.37577  -0.57183   0.23555
  22   32419.3    308.5   0.015313570   0.15551   0.30795   0.23612  -0.07014
  23   32733.9    305.5   0.264892263   2.66408   0.01832   0.70539  -1.47179
  24   32888.2    304.1   0.797665350   7.98466   0.54524  -1.87305   2.04427
  25   33501.6    298.5   0.034552543   0.33954  -0.39192   0.40300  -0.15340
  26   33670.0    297.0   0.206281137   2.01693   1.12001  -0.87072   0.06588
  27   33796.2    295.9   0.100499272   0.97897  -0.31363   0.80554  -0.48137
  28   33900.7    295.0   0.062314250   0.60514  -0.47921   0.54602  -0.27813
  29   34202.0    292.4   0.008358001   0.08045   0.21645   0.18330   0.00025
  30   34501.1    289.8   0.076459927   0.72959   0.63603   0.44374  -0.35798
  31   34792.9    287.4   0.305716562   2.89270   1.51664  -0.01059  -0.76967
  32   35023.3    285.5   0.043713663   0.41090   0.38233  -0.46146   0.22755
  33   35403.8    282.5   0.031210437   0.29022   0.32656  -0.27077  -0.33206
  34   35932.9    278.3   0.001427821   0.01308   0.01874   0.08727   0.07151
  35   37175.3    269.0   0.104343919   0.92404  -0.23599   0.67461  -0.64284
  36   37642.0    265.7   0.000914144   0.00799  -0.01345   0.04679  -0.07500
  37   37866.4    264.1   0.047636272   0.41415  -0.23669   0.47043  -0.36990
  38   38214.1    261.7   0.017504404   0.15080   0.22943   0.12712  -0.28636
  39   38605.3    259.0   0.006112113   0.05212  -0.04514  -0.20804   0.08249
  40   38615.9    259.0   0.000588460   0.00502   0.04167   0.03568   0.04481
  41   39186.9    255.2   0.058727081   0.49337   0.17959   0.31036  -0.60399
  42   39633.3    252.3   0.010282323   0.08541  -0.03582  -0.06421   0.28285
  43   39877.1    250.8   0.045485545   0.37551   0.07583   0.53729  -0.28475
  44   40021.2    249.9   0.072046605   0.59265   0.17355   0.56416  -0.49422
  45   40036.4    249.8   0.198362484   1.63110   0.05441  -0.73593   1.04238
  46   40228.1    248.6   0.002978844   0.02438  -0.05145  -0.07677   0.12585

FINAL SINGLE POINT ENERGY     -4742.910729756932

DIPOLE MOMENT
-------------
                                X             Y             Z
Electronic contribution:      0.33426       9.62511       9.19007
Nuclear contribution   :     -5.15548      -9.71549      -7.06191
                        -----------------------------------------
Total Dipole Moment    :     -4.82122      -0.09038       2.12815
                        -----------------------------------------
Magnitude (a.u.)       :      5.27081
Magnitude (Debye)      :     13.39732

Rotational constants in cm-1:     0.002490     0.000290     0.000266
Rotational constants in MHz :    74.636861     8.703633     7.975949

                             ****ORCA TERMINATED NORMALLY****
TOTAL RUN TIME: 0 days 0 hours 7 minutes 6 seconds 252 msec
