                         Program Version 4.2.0 -  RELEASE  -
|  1> # ORCA input file
|  2> # SCF done       -199.442636397571          0.000829744055
|  3> ! CAM-B3LYP def2-SVP def2/J RIJCOSX Grid4 TightSCF
|  4> %maxcore 5000
|  5> %tddft
|  6>     Mode sTDDFT
|  7>     Ethresh 5.0
|  8>     maxcore 5000
|  9> end
| 10>
| 11> %pal
| 12>   nprocs 6
| 13>   end
| 14> * xyz 0 1
| 15>    C       -4.52412        -2.12047        -1.79438
| 16>    C       -4.76078        -2.39143        -3.11970
| 17>    C       -4.35627        -3.57437        -3.76940
| 18>    N       -4.06101        -4.52041        -4.34998
| 19>    C       -5.40808        -1.51917        -4.01789
| 20>    N       -5.90214        -0.85780        -4.81706
| 21>    C       -3.77765        -2.96935        -0.87339
| 22>    C       -3.65434        -2.29116         0.36454
| 23>    C       -2.99987        -2.83583         1.44223
| 24>    C       -2.43584        -4.10697         1.29205
| 25>    C       -2.56587        -4.77626         0.05280
| 26>    C       -3.23079        -4.22711        -1.03785
| 27>    S       -1.80050        -6.33362         0.09611
| 28>    C       -1.32084        -6.07918         1.73849
| 29>    C       -1.71232        -4.88683         2.23807
| 30>    C       -4.33594        -0.98455         0.27988
| 31>    O       -4.46764        -0.18963         1.19094
| 32>    C       -4.89303        -0.91385        -1.08759
| 33>    C       -5.78321         0.03364        -1.52263
| 34>    C       -6.10041         1.25894        -0.89908
| 35>    C       -5.18886         2.05859        -0.23685
| 36>    C       -5.74914         3.20118         0.42708
| 37>    O       -4.98998         4.10160         1.08883
| 38>    C       -3.60504         4.01970         0.79990
| 39>    C       -3.15386         2.56458         0.73579
| 40>    O       -3.85698         1.86782        -0.27648
| 41>    C       -7.12392         3.33534         0.34595
| 42>   Si       -7.83580         1.99556        -0.77138
| 43>    C       -8.45507         2.62102        -2.41926
| 44>    C       -8.99703         0.79523         0.06646
| 45>    C       -7.81175         4.35859         0.99575
| 46>    C       -9.19962         4.56596         0.90546
| 47>    C       -9.66471         5.65683         1.71251
| 48>    N      -10.95441         5.96900         1.77080
| 49>    C      -11.77827         5.24287         1.03664
| 50>    C      -13.21643         5.56975         1.11986
| 51>    O      -13.65286         6.42110         1.87526
| 52>    C      -14.08634         4.78569         0.23316
| 53>    C      -13.64197         3.80393        -0.56216
| 54>    C      -12.23340         3.39516        -0.63619
| 55>    O      -11.85527         2.47739        -1.34420
| 56>    C      -11.30821         4.17743         0.20730
| 57>    N      -10.02977         3.84817         0.15974
| 58>    C       -8.63368         6.29844         2.42306
| 59>    S       -7.10176         5.53927         2.06208
| 60>    C       -8.80568         7.33805         3.33655
| 61>    C       -7.74501         7.84677         4.06571
| 62>    C       -8.08584         8.79846         5.07425
| 63>    O       -7.14279         9.36029         5.85688
| 64>    C       -5.82727         9.21096         5.35786
| 65>    C       -5.58237         7.76973         4.92046
| 66>    O       -6.47847         7.40525         3.88607
| 67>    C       -9.43075         9.11827         5.19052
| 68>   Si      -10.40400         8.20473         3.84066
| 69>    C      -11.07229         9.16270         2.38155
| 70>    C      -11.70913         7.13692         4.64678
| 71>    C       -9.88396         9.79458         6.34192
| 72>    C      -11.05606        10.47625         6.52661
| 73>    C      -11.92258        11.11072         5.57187
| 74>    C      -11.50446        11.65368         4.38101
| 75>    C      -12.34725        12.36081         3.50433
| 76>    N      -13.00684        12.93355         2.75842
| 77>    C      -10.15155        11.65641         3.99143
| 78>    N       -9.05209        11.73607         3.66796
| 79>    C      -13.20498        11.34313         6.22544
| 80>    C      -13.05590        11.06309         7.60895
| 81>    C      -11.67849        10.59002         7.86584
| 82>    O      -11.17943        10.30594         8.93323
| 83>    C      -14.08378        11.22727         8.50433
| 84>    C      -15.31437        11.67607         8.01223
| 85>    C      -15.45393        11.93987         6.62930
| 86>    C      -14.41126        11.78405         5.72172
| 87>    S      -17.06113        12.47395         6.25121
| 88>    C      -17.52147        12.34779         7.91396
| 89>    C      -16.52433        11.92387         8.72025
| 90>    H       -2.92406        -2.29736         2.37439
| 91>    H       -3.30956        -4.77970        -1.95916
| 92>    H       -0.76720        -6.85164         2.23577
| 93>    H       -1.50514        -4.55708         3.24018
| 94>    H       -6.39334        -0.20928        -2.38455
| 95>    H       -3.40781         4.51135        -0.16223
| 96>    H       -3.09175         4.55896         1.59734
| 97>    H       -3.33977         2.07023         1.69722
| 98>    H       -2.09591         2.49138         0.48045
| 99>    H       -7.97204         3.54284        -2.73672
|100>    H       -9.52483         2.80990        -2.36681
|101>    H       -8.29871         1.88863        -3.20893
|102>    H       -8.75417         0.63135         1.11494
|103>    H       -8.98017        -0.17725        -0.42200
|104>    H      -10.02114         1.15636         0.01418
|105>    H      -15.13468         5.04968         0.26652
|106>    H      -14.31768         3.24599        -1.19610
|107>    H       -5.68543         9.88610         4.50410
|108>    H       -5.15576         9.49686         6.16840
|109>    H       -5.72253         7.09563         5.77621
|110>    H       -4.57708         7.64316         4.51628
|111>    H      -10.36793         9.88514         1.97407
|112>    H      -11.98990         9.69431         2.62220
|113>    H      -11.32564         8.46439         1.58660
|114>    H      -11.29451         6.27145         5.15963
|115>    H      -12.41260         6.77025         3.90228
|116>    H      -12.28466         7.69712         5.38244
|117>    H       -9.28894         9.65909         7.24160
|118>    H      -13.94416        11.01881         9.55374
|119>    H      -14.55900        11.99302         4.67471
|120>    H      -18.52657        12.60264         8.18812
|121>    H      -16.62551        11.78569         9.78156
|122> *
|123>
|124>                          ****END OF INPUT****

CARTESIAN COORDINATES (ANGSTROEM)
---------------------------------
  C     -4.524120   -2.120470   -1.794380
  C     -4.760780   -2.391430   -3.119700
  C     -4.356270   -3.574370   -3.769400
  N     -4.061010   -4.520410   -4.349980
  C     -5.408080   -1.519170   -4.017890
  N     -5.902140   -0.857800   -4.817060
  C     -3.777650   -2.969350   -0.873390
  C     -3.654340   -2.291160    0.364540
  C     -2.999870   -2.835830    1.442230
  C     -2.435840   -4.106970    1.292050
  C     -2.565870   -4.776260    0.052800
  C     -3.230790   -4.227110   -1.037850
  S     -1.800500   -6.333620    0.096110
  C     -1.320840   -6.079180    1.738490
  C     -1.712320   -4.886830    2.238070
  C     -4.335940   -0.984550    0.279880
  O     -4.467640   -0.189630    1.190940
  C     -4.893030   -0.913850   -1.087590
  C     -5.783210    0.033640   -1.522630
  C     -6.100410    1.258940   -0.899080
  C     -5.188860    2.058590   -0.236850
  C     -5.749140    3.201180    0.427080
  O     -4.989980    4.101600    1.088830
  C     -3.605040    4.019700    0.799900
  C     -3.153860    2.564580    0.735790
  O     -3.856980    1.867820   -0.276480
  C     -7.123920    3.335340    0.345950
  Si    -7.835800    1.995560   -0.771380
  C     -8.455070    2.621020   -2.419260
  C     -8.997030    0.795230    0.066460
  C     -7.811750    4.358590    0.995750
  C     -9.199620    4.565960    0.905460
  C     -9.664710    5.656830    1.712510
  N    -10.954410    5.969000    1.770800
  C    -11.778270    5.242870    1.036640
  C    -13.216430    5.569750    1.119860
  O    -13.652860    6.421100    1.875260
  C    -14.086340    4.785690    0.233160
  C    -13.641970    3.803930   -0.562160
  C    -12.233400    3.395160   -0.636190
  O    -11.855270    2.477390   -1.344200
  C    -11.308210    4.177430    0.207300
  N    -10.029770    3.848170    0.159740
  C     -8.633680    6.298440    2.423060
  S     -7.101760    5.539270    2.062080
  C     -8.805680    7.338050    3.336550
  C     -7.745010    7.846770    4.065710
  C     -8.085840    8.798460    5.074250
  O     -7.142790    9.360290    5.856880
  C     -5.827270    9.210960    5.357860
  C     -5.582370    7.769730    4.920460
  O     -6.478470    7.405250    3.886070
  C     -9.430750    9.118270    5.190520
  Si   -10.404000    8.204730    3.840660
  C    -11.072290    9.162700    2.381550
  C    -11.709130    7.136920    4.646780
  C     -9.883960    9.794580    6.341920
  C    -11.056060   10.476250    6.526610
  C    -11.922580   11.110720    5.571870
  C    -11.504460   11.653680    4.381010
  C    -12.347250   12.360810    3.504330
  N    -13.006840   12.933550    2.758420
  C    -10.151550   11.656410    3.991430
  N     -9.052090   11.736070    3.667960
  C    -13.204980   11.343130    6.225440
  C    -13.055900   11.063090    7.608950
  C    -11.678490   10.590020    7.865840
  O    -11.179430   10.305940    8.933230
  C    -14.083780   11.227270    8.504330
  C    -15.314370   11.676070    8.012230
  C    -15.453930   11.939870    6.629300
  C    -14.411260   11.784050    5.721720
  S    -17.061130   12.473950    6.251210
  C    -17.521470   12.347790    7.913960
  C    -16.524330   11.923870    8.720250
  H     -2.924060   -2.297360    2.374390
  H     -3.309560   -4.779700   -1.959160
  H     -0.767200   -6.851640    2.235770
  H     -1.505140   -4.557080    3.240180
  H     -6.393340   -0.209280   -2.384550
  H     -3.407810    4.511350   -0.162230
  H     -3.091750    4.558960    1.597340
  H     -3.339770    2.070230    1.697220
  H     -2.095910    2.491380    0.480450
  H     -7.972040    3.542840   -2.736720
  H     -9.524830    2.809900   -2.366810
  H     -8.298710    1.888630   -3.208930
  H     -8.754170    0.631350    1.114940
  H     -8.980170   -0.177250   -0.422000
  H    -10.021140    1.156360    0.014180
  H    -15.134680    5.049680    0.266520
  H    -14.317680    3.245990   -1.196100
  H     -5.685430    9.886100    4.504100
  H     -5.155760    9.496860    6.168400
  H     -5.722530    7.095630    5.776210
  H     -4.577080    7.643160    4.516280
  H    -10.367930    9.885140    1.974070
  H    -11.989900    9.694310    2.622200
  H    -11.325640    8.464390    1.586600
  H    -11.294510    6.271450    5.159630
  H    -12.412600    6.770250    3.902280
  H    -12.284660    7.697120    5.382440
  H     -9.288940    9.659090    7.241600
  H    -13.944160   11.018810    9.553740
  H    -14.559000   11.993020    4.674710
  H    -18.526570   12.602640    8.188120
  H    -16.625510   11.785690    9.781560

 Total Charge           Charge          ....    0
 Multiplicity           Mult            ....    1
 Number of Electrons    NEL             ....  550
 Basis Dimension        Dim             .... 1230

ORBITAL ENERGIES
----------------

  NO   OCC          E(Eh)            E(eV)
   0   2.0000     -88.980569     -2421.2844
   1   2.0000     -88.960184     -2420.7297
   2   2.0000     -88.956570     -2420.6313
   3   2.0000     -66.195580     -1801.2733
   4   2.0000     -66.192932     -1801.2012
   5   2.0000     -19.284895      -524.7687
   6   2.0000     -19.283130      -524.7206
   7   2.0000     -19.280314      -524.6440
   8   2.0000     -19.273011      -524.4453
   9   2.0000     -19.230758      -523.2955
  10   2.0000     -19.230393      -523.2856
  11   2.0000     -19.204737      -522.5875
  12   2.0000     -19.196935      -522.3752
  13   2.0000     -14.450731      -393.2244
  14   2.0000     -14.449139      -393.1811
  15   2.0000     -14.403062      -391.9272
  16   2.0000     -14.402747      -391.9187
  17   2.0000     -14.402545      -391.9132
  18   2.0000     -14.400505      -391.8577
  19   2.0000     -10.379421      -282.4384
  20   2.0000     -10.379007      -282.4271
  21   2.0000     -10.363973      -282.0181
  22   2.0000     -10.363274      -281.9990
  23   2.0000     -10.358883      -281.8795
  24   2.0000     -10.357629      -281.8454
  25   2.0000     -10.357597      -281.8446
  26   2.0000     -10.355115      -281.7770
  27   2.0000     -10.355080      -281.7761
  28   2.0000     -10.354553      -281.7617
  29   2.0000     -10.348633      -281.6006
  30   2.0000     -10.347775      -281.5773
  31   2.0000     -10.339073      -281.3405
  32   2.0000     -10.338692      -281.3301
  33   2.0000     -10.327483      -281.0251
  34   2.0000     -10.327397      -281.0227
  35   2.0000     -10.326937      -281.0102
  36   2.0000     -10.326648      -281.0024
  37   2.0000     -10.325435      -280.9694
  38   2.0000     -10.324032      -280.9312
  39   2.0000     -10.319591      -280.8104
  40   2.0000     -10.319473      -280.8071
  41   2.0000     -10.312727      -280.6236
  42   2.0000     -10.312623      -280.6207
  43   2.0000     -10.312042      -280.6049
  44   2.0000     -10.309241      -280.5287
  45   2.0000     -10.308379      -280.5053
  46   2.0000     -10.306658      -280.4584
  47   2.0000     -10.306374      -280.4507
  48   2.0000     -10.305610      -280.4299
  49   2.0000     -10.304279      -280.3937
  50   2.0000     -10.304034      -280.3870
  51   2.0000     -10.303414      -280.3701
  52   2.0000     -10.298663      -280.2409
  53   2.0000     -10.296191      -280.1736
  54   2.0000     -10.294491      -280.1273
  55   2.0000     -10.294311      -280.1224
  56   2.0000     -10.293311      -280.0952
  57   2.0000     -10.291365      -280.0423
  58   2.0000     -10.291023      -280.0330
  59   2.0000     -10.289765      -279.9987
  60   2.0000     -10.286823      -279.9187
  61   2.0000     -10.283737      -279.8347
  62   2.0000     -10.280973      -279.7595
  63   2.0000     -10.279865      -279.7293
  64   2.0000     -10.279489      -279.7191
  65   2.0000     -10.277281      -279.6590
  66   2.0000     -10.276673      -279.6425
  67   2.0000     -10.274678      -279.5882
  68   2.0000     -10.272826      -279.5378
  69   2.0000     -10.262487      -279.2565
  70   2.0000     -10.257438      -279.1191
  71   2.0000     -10.236566      -278.5511
  72   2.0000     -10.235343      -278.5178
  73   2.0000     -10.234265      -278.4885
  74   2.0000     -10.232636      -278.4442
  75   2.0000      -8.073674      -219.6958
  76   2.0000      -8.056488      -219.2282
  77   2.0000      -8.052822      -219.1284
  78   2.0000      -6.042753      -164.4317
  79   2.0000      -6.038246      -164.3090
  80   2.0000      -6.036708      -164.2672
  81   2.0000      -6.025984      -163.9754
  82   2.0000      -6.022310      -163.8754
  83   2.0000      -6.021720      -163.8593
  84   2.0000      -6.018146      -163.7621
  85   2.0000      -6.018069      -163.7600
  86   2.0000      -6.014503      -163.6629
  87   2.0000      -5.360328      -145.8619
  88   2.0000      -5.358194      -145.8039
  89   2.0000      -3.724480      -101.3482
  90   2.0000      -3.722340      -101.2900
  91   2.0000      -3.722302      -101.2890
  92   2.0000      -3.721013      -101.2539
  93   2.0000      -3.720146      -101.2303
  94   2.0000      -3.718853      -101.1951
  95   2.0000      -1.210161       -32.9302
  96   2.0000      -1.206309       -32.8253
  97   2.0000      -1.171653       -31.8823
  98   2.0000      -1.167588       -31.7717
  99   2.0000      -1.145224       -31.1631
 100   2.0000      -1.140696       -31.0399
 101   2.0000      -1.117081       -30.3973
 102   2.0000      -1.111127       -30.2353
 103   2.0000      -1.098886       -29.9022
 104   2.0000      -1.026812       -27.9410
 105   2.0000      -1.009087       -27.4587
 106   2.0000      -1.006580       -27.3904
 107   2.0000      -0.998768       -27.1779
 108   2.0000      -0.995769       -27.0962
 109   2.0000      -0.993073       -27.0229
 110   2.0000      -0.981749       -26.7148
 111   2.0000      -0.980565       -26.6825
 112   2.0000      -0.974162       -26.5083
 113   2.0000      -0.971219       -26.4282
 114   2.0000      -0.949741       -25.8438
 115   2.0000      -0.945344       -25.7241
 116   2.0000      -0.938669       -25.5425
 117   2.0000      -0.920104       -25.0373
 118   2.0000      -0.917304       -24.9611
 119   2.0000      -0.894732       -24.3469
 120   2.0000      -0.888744       -24.1840
 121   2.0000      -0.879785       -23.9402
 122   2.0000      -0.873259       -23.7626
 123   2.0000      -0.871274       -23.7086
 124   2.0000      -0.869471       -23.6595
 125   2.0000      -0.864780       -23.5319
 126   2.0000      -0.863594       -23.4996
 127   2.0000      -0.857063       -23.3219
 128   2.0000      -0.842804       -22.9339
 129   2.0000      -0.825052       -22.4508
 130   2.0000      -0.817611       -22.2483
 131   2.0000      -0.815177       -22.1821
 132   2.0000      -0.811370       -22.0785
 133   2.0000      -0.795280       -21.6407
 134   2.0000      -0.788824       -21.4650
 135   2.0000      -0.784637       -21.3511
 136   2.0000      -0.784184       -21.3387
 137   2.0000      -0.777728       -21.1631
 138   2.0000      -0.775463       -21.1014
 139   2.0000      -0.765098       -20.8194
 140   2.0000      -0.755267       -20.5518
 141   2.0000      -0.753902       -20.5147
 142   2.0000      -0.752068       -20.4648
 143   2.0000      -0.746133       -20.3033
 144   2.0000      -0.743176       -20.2229
 145   2.0000      -0.726989       -19.7824
 146   2.0000      -0.725296       -19.7363
 147   2.0000      -0.699321       -19.0295
 148   2.0000      -0.689168       -18.7532
 149   2.0000      -0.687372       -18.7043
 150   2.0000      -0.685807       -18.6617
 151   2.0000      -0.677777       -18.4433
 152   2.0000      -0.675365       -18.3776
 153   2.0000      -0.673119       -18.3165
 154   2.0000      -0.669364       -18.2143
 155   2.0000      -0.666387       -18.1333
 156   2.0000      -0.658062       -17.9068
 157   2.0000      -0.654366       -17.8062
 158   2.0000      -0.651973       -17.7411
 159   2.0000      -0.649901       -17.6847
 160   2.0000      -0.644780       -17.5454
 161   2.0000      -0.639530       -17.4025
 162   2.0000      -0.632003       -17.1977
 163   2.0000      -0.622709       -16.9448
 164   2.0000      -0.613719       -16.7002
 165   2.0000      -0.610264       -16.6061
 166   2.0000      -0.608408       -16.5556
 167   2.0000      -0.606361       -16.4999
 168   2.0000      -0.599838       -16.3224
 169   2.0000      -0.588518       -16.0144
 170   2.0000      -0.586545       -15.9607
 171   2.0000      -0.583918       -15.8892
 172   2.0000      -0.578438       -15.7401
 173   2.0000      -0.573894       -15.6165
 174   2.0000      -0.567991       -15.4558
 175   2.0000      -0.567070       -15.4308
 176   2.0000      -0.566159       -15.4060
 177   2.0000      -0.560700       -15.2574
 178   2.0000      -0.559841       -15.2341
 179   2.0000      -0.552895       -15.0450
 180   2.0000      -0.551286       -15.0013
 181   2.0000      -0.549932       -14.9644
 182   2.0000      -0.548288       -14.9197
 183   2.0000      -0.541980       -14.7480
 184   2.0000      -0.535675       -14.5765
 185   2.0000      -0.534161       -14.5352
 186   2.0000      -0.531817       -14.4715
 187   2.0000      -0.530360       -14.4318
 188   2.0000      -0.527935       -14.3658
 189   2.0000      -0.526062       -14.3149
 190   2.0000      -0.523010       -14.2318
 191   2.0000      -0.522335       -14.2135
 192   2.0000      -0.518515       -14.1095
 193   2.0000      -0.516963       -14.0673
 194   2.0000      -0.516403       -14.0520
 195   2.0000      -0.515462       -14.0264
 196   2.0000      -0.514084       -13.9889
 197   2.0000      -0.506580       -13.7847
 198   2.0000      -0.505831       -13.7644
 199   2.0000      -0.505228       -13.7479
 200   2.0000      -0.503013       -13.6877
 201   2.0000      -0.502192       -13.6654
 202   2.0000      -0.497245       -13.5307
 203   2.0000      -0.495772       -13.4907
 204   2.0000      -0.494062       -13.4441
 205   2.0000      -0.491519       -13.3749
 206   2.0000      -0.490717       -13.3531
 207   2.0000      -0.489800       -13.3281
 208   2.0000      -0.487785       -13.2733
 209   2.0000      -0.482662       -13.1339
 210   2.0000      -0.480709       -13.0807
 211   2.0000      -0.479858       -13.0576
 212   2.0000      -0.478621       -13.0239
 213   2.0000      -0.476342       -12.9619
 214   2.0000      -0.476088       -12.9550
 215   2.0000      -0.474221       -12.9042
 216   2.0000      -0.470343       -12.7987
 217   2.0000      -0.463752       -12.6193
 218   2.0000      -0.461458       -12.5569
 219   2.0000      -0.459012       -12.4904
 220   2.0000      -0.457071       -12.4375
 221   2.0000      -0.453615       -12.3435
 222   2.0000      -0.452002       -12.2996
 223   2.0000      -0.450883       -12.2691
 224   2.0000      -0.447269       -12.1708
 225   2.0000      -0.444852       -12.1050
 226   2.0000      -0.442298       -12.0355
 227   2.0000      -0.439423       -11.9573
 228   2.0000      -0.437470       -11.9042
 229   2.0000      -0.437374       -11.9016
 230   2.0000      -0.433978       -11.8091
 231   2.0000      -0.432414       -11.7666
 232   2.0000      -0.431460       -11.7406
 233   2.0000      -0.429487       -11.6869
 234   2.0000      -0.425162       -11.5692
 235   2.0000      -0.424837       -11.5604
 236   2.0000      -0.422682       -11.5018
 237   2.0000      -0.418972       -11.4008
 238   2.0000      -0.416523       -11.3342
 239   2.0000      -0.416193       -11.3252
 240   2.0000      -0.413608       -11.2548
 241   2.0000      -0.412867       -11.2347
 242   2.0000      -0.408416       -11.1136
 243   2.0000      -0.406982       -11.0745
 244   2.0000      -0.404713       -11.0128
 245   2.0000      -0.403506       -10.9800
 246   2.0000      -0.399179       -10.8622
 247   2.0000      -0.397433       -10.8147
 248   2.0000      -0.393531       -10.7085
 249   2.0000      -0.389834       -10.6079
 250   2.0000      -0.386958       -10.5297
 251   2.0000      -0.386419       -10.5150
 252   2.0000      -0.385131       -10.4799
 253   2.0000      -0.379426       -10.3247
 254   2.0000      -0.377441       -10.2707
 255   2.0000      -0.375890       -10.2285
 256   2.0000      -0.366715        -9.9788
 257   2.0000      -0.364678        -9.9234
 258   2.0000      -0.364169        -9.9095
 259   2.0000      -0.363793        -9.8993
 260   2.0000      -0.350674        -9.5423
 261   2.0000      -0.347265        -9.4496
 262   2.0000      -0.342997        -9.3334
 263   2.0000      -0.340837        -9.2746
 264   2.0000      -0.337971        -9.1967
 265   2.0000      -0.331001        -9.0070
 266   2.0000      -0.327497        -8.9117
 267   2.0000      -0.318087        -8.6556
 268   2.0000      -0.305834        -8.3222
 269   2.0000      -0.302093        -8.2204
 270   2.0000      -0.298220        -8.1150
 271   2.0000      -0.287081        -7.8119
 272   2.0000      -0.283784        -7.7222
 273   2.0000      -0.268008        -7.2929
 274   2.0000      -0.224045        -6.0966
 275   0.0000      -0.108348        -2.9483
 276   0.0000      -0.097326        -2.6484
 277   0.0000      -0.070338        -1.9140
 278   0.0000      -0.067204        -1.8287
 279   0.0000      -0.050218        -1.3665

MULLIKEN ATOMIC CHARGES
-----------------------
   0 C :    0.301690
   1 C :   -0.354587
   2 C :   -0.184783
   3 N :    0.141116
   4 C :   -0.203818
   5 N :    0.152567
   6 C :    0.013481
   7 C :   -0.009613
   8 C :   -0.080794
   9 C :    0.117493
  10 C :   -0.093051
  11 C :   -0.029133
  12 S :    0.136279
  13 C :   -0.052455
  14 C :    0.022452
  15 C :    0.145436
  16 O :   -0.177838
  17 C :   -0.075629
  18 C :   -0.003954
  19 C :   -0.233707
  20 C :    0.189252
  21 C :    0.095071
  22 O :   -0.300711
  23 C :    0.182179
  24 C :    0.178721
  25 O :   -0.269778
  26 C :   -0.230498
  27 Si:    0.508119
  28 C :   -0.175130
  29 C :   -0.174529
  30 C :   -0.112379
  31 C :    0.043058
  32 C :    0.051815
  33 N :    0.042703
  34 C :   -0.114140
  35 C :    0.148867
  36 O :   -0.121356
  37 C :   -0.009386
  38 C :   -0.007170
  39 C :    0.148810
  40 O :   -0.125657
  41 C :   -0.110917
  42 N :    0.044942
  43 C :   -0.126156
  44 S :    0.228091
  45 C :   -0.224458
  46 C :    0.117250
  47 C :    0.159339
  48 O :   -0.269000
  49 C :    0.172127
  50 C :    0.178116
  51 O :   -0.305261
  52 C :   -0.236913
  53 Si:    0.517043
  54 C :   -0.166382
  55 C :   -0.178643
  56 C :    0.034660
  57 C :   -0.137060
  58 C :    0.274568
  59 C :   -0.379180
  60 C :   -0.182622
  61 N :    0.155381
  62 C :   -0.180066
  63 N :    0.142797
  64 C :    0.008652
  65 C :   -0.005466
  66 C :    0.143555
  67 O :   -0.153378
  68 C :   -0.076723
  69 C :    0.110856
  70 C :   -0.092532
  71 C :   -0.028047
  72 S :    0.132164
  73 C :   -0.052224
  74 C :    0.023605
  75 H :   -0.022878
  76 H :   -0.008579
  77 H :    0.036057
  78 H :   -0.011920
  79 H :    0.027156
  80 H :    0.038844
  81 H :    0.034967
  82 H :    0.047636
  83 H :    0.039515
  84 H :    0.040437
  85 H :    0.056042
  86 H :    0.051249
  87 H :    0.042950
  88 H :    0.039898
  89 H :    0.049675
  90 H :    0.019154
  91 H :    0.018973
  92 H :    0.053739
  93 H :    0.045094
  94 H :    0.041531
  95 H :    0.038116
  96 H :    0.056777
  97 H :    0.055657
  98 H :    0.039773
  99 H :    0.035283
 100 H :    0.057360
 101 H :    0.037597
 102 H :    0.018973
 103 H :   -0.015264
 104 H :   -0.005600
 105 H :    0.034339
 106 H :   -0.009680
Sum of atomic charges:   -0.0000000

LOEWDIN ATOMIC CHARGES
----------------------
   0 C :    0.075993
   1 C :   -0.150101
   2 C :   -0.018449
   3 N :   -0.063392
   4 C :   -0.023412
   5 N :   -0.060828
   6 C :   -0.021916
   7 C :   -0.050652
   8 C :    0.015271
   9 C :   -0.037913
  10 C :   -0.147762
  11 C :   -0.010719
  12 S :    0.425546
  13 C :   -0.153412
  14 C :   -0.060136
  15 C :    0.083641
  16 O :   -0.163655
  17 C :   -0.105615
  18 C :    0.067708
  19 C :   -0.213880
  20 C :    0.068471
  21 C :    0.025726
  22 O :   -0.089921
  23 C :    0.074901
  24 C :    0.074582
  25 O :   -0.062855
  26 C :   -0.195255
  27 Si:    0.684154
  28 C :   -0.239429
  29 C :   -0.241482
  30 C :   -0.176261
  31 C :   -0.044898
  32 C :   -0.043545
  33 N :    0.011626
  34 C :   -0.048070
  35 C :    0.060821
  36 O :   -0.109395
  37 C :   -0.008535
  38 C :   -0.009491
  39 C :    0.060559
  40 O :   -0.112517
  41 C :   -0.049632
  42 N :    0.012306
  43 C :   -0.178106
  44 S :    0.526512
  45 C :   -0.185490
  46 C :    0.016318
  47 C :    0.063743
  48 O :   -0.068481
  49 C :    0.076777
  50 C :    0.074483
  51 O :   -0.092306
  52 C :   -0.211878
  53 Si:    0.684601
  54 C :   -0.238121
  55 C :   -0.244159
  56 C :    0.070014
  57 C :   -0.112640
  58 C :    0.066513
  59 C :   -0.151854
  60 C :   -0.022672
  61 N :   -0.062121
  62 C :   -0.009465
  63 N :   -0.072157
  64 C :   -0.019555
  65 C :   -0.053750
  66 C :    0.080136
  67 O :   -0.155712
  68 C :    0.019700
  69 C :   -0.038969
  70 C :   -0.147181
  71 C :   -0.014254
  72 S :    0.423377
  73 C :   -0.154878
  74 C :   -0.058696
  75 H :    0.035781
  76 H :    0.040074
  77 H :    0.027980
  78 H :    0.033118
  79 H :    0.041236
  80 H :    0.026075
  81 H :    0.034298
  82 H :    0.028114
  83 H :    0.036604
  84 H :    0.037156
  85 H :    0.038586
  86 H :    0.040871
  87 H :    0.037658
  88 H :    0.036845
  89 H :    0.036445
  90 H :    0.046658
  91 H :    0.046571
  92 H :    0.033151
  93 H :    0.038778
  94 H :    0.026686
  95 H :    0.035447
  96 H :    0.039217
  97 H :    0.038560
  98 H :    0.037613
  99 H :    0.035232
 100 H :    0.036635
 101 H :    0.035401
 102 H :    0.041698
 103 H :    0.038755
 104 H :    0.039585
 105 H :    0.027362
 106 H :    0.033906

  Mayer bond orders larger than 0.100000
B(  0-C ,  1-C ) :   1.6209 B(  0-C ,  6-C ) :   0.9958 B(  0-C , 17-C ) :   1.0894
B(  1-C ,  2-C ) :   1.1423 B(  1-C ,  4-C ) :   1.1451 B(  2-C ,  3-N ) :   2.9691
B(  4-C ,  5-N ) :   2.9957 B(  6-C ,  7-C ) :   1.2719 B(  6-C , 11-C ) :   1.4173
B(  7-C ,  8-C ) :   1.4275 B(  7-C , 15-C ) :   0.9448 B(  8-C ,  9-C ) :   1.2403
B(  8-C , 75-H ) :   1.0162 B(  9-C , 10-C ) :   1.3104 B(  9-C , 14-C ) :   1.1688
B( 10-C , 11-C ) :   1.3164 B( 10-C , 12-S ) :   1.0958 B( 11-C , 76-H ) :   0.9831
B( 12-S , 13-C ) :   1.1276 B( 13-C , 14-C ) :   1.6287 B( 13-C , 77-H ) :   0.9686
B( 14-C , 78-H ) :   0.9995 B( 15-C , 16-O ) :   2.1664 B( 15-C , 17-C ) :   0.9728
B( 17-C , 18-C ) :   1.5333 B( 18-C , 19-C ) :   1.2074 B( 18-C , 79-H ) :   0.9352
B( 19-C , 20-C ) :   1.5903 B( 19-C , 27-Si) :   0.8323 B( 20-C , 21-C ) :   1.0658
B( 20-C , 25-O ) :   1.1921 B( 21-C , 22-O ) :   1.1545 B( 21-C , 26-C ) :   1.5439
B( 22-O , 23-C ) :   0.9305 B( 23-C , 24-C ) :   1.0802 B( 23-C , 80-H ) :   0.9452
B( 23-C , 81-H ) :   0.9532 B( 24-C , 25-O ) :   0.9329 B( 24-C , 82-H ) :   0.9375
B( 24-C , 83-H ) :   0.9531 B( 26-C , 27-Si) :   0.8457 B( 26-C , 30-C ) :   1.2999
B( 27-Si, 28-C ) :   1.0843 B( 27-Si, 29-C ) :   1.0785 B( 28-C , 84-H ) :   0.9413
B( 28-C , 85-H ) :   0.9420 B( 28-C , 86-H ) :   0.9477 B( 29-C , 87-H ) :   0.9442
B( 29-C , 88-H ) :   0.9470 B( 29-C , 89-H ) :   0.9478 B( 30-C , 31-C ) :   1.2680
B( 30-C , 43-C ) :   0.1059 B( 30-C , 44-S ) :   1.1180 B( 31-C , 32-C ) :   1.1839
B( 31-C , 42-N ) :   1.4467 B( 32-C , 33-N ) :   1.4393 B( 32-C , 43-C ) :   1.2700
B( 33-N , 34-C ) :   1.6698 B( 34-C , 35-C ) :   0.9134 B( 34-C , 41-C ) :   1.0942
B( 35-C , 36-O ) :   2.1559 B( 35-C , 37-C ) :   1.0340 B( 37-C , 38-C ) :   1.6815
B( 37-C , 90-H ) :   0.9995 B( 38-C , 39-C ) :   1.0386 B( 38-C , 91-H ) :   1.0004
B( 39-C , 40-O ) :   2.1385 B( 39-C , 41-C ) :   0.9147 B( 41-C , 42-N ) :   1.6728
B( 43-C , 44-S ) :   1.1128 B( 43-C , 45-C ) :   1.3062 B( 45-C , 46-C ) :   1.5298
B( 45-C , 53-Si) :   0.8479 B( 46-C , 47-C ) :   1.0714 B( 46-C , 51-O ) :   1.1412
B( 47-C , 48-O ) :   1.2079 B( 47-C , 52-C ) :   1.5598 B( 48-O , 49-C ) :   0.9396
B( 49-C , 50-C ) :   1.0773 B( 49-C , 92-H ) :   0.9445 B( 49-C , 93-H ) :   0.9531
B( 50-C , 51-O ) :   0.9330 B( 50-C , 94-H ) :   0.9452 B( 50-C , 95-H ) :   0.9529
B( 52-C , 53-Si) :   0.8305 B( 52-C , 56-C ) :   1.1941 B( 53-Si, 54-C ) :   1.0838
B( 53-Si, 55-C ) :   1.0830 B( 54-C , 96-H ) :   0.9413 B( 54-C , 97-H ) :   0.9419
B( 54-C , 98-H ) :   0.9365 B( 55-C , 99-H ) :   0.9410 B( 55-C ,100-H ) :   0.9405
B( 55-C ,101-H ) :   0.9445 B( 56-C , 57-C ) :   1.5454 B( 56-C ,102-H ) :   0.9439
B( 57-C , 58-C ) :   1.0896 B( 57-C , 66-C ) :   0.9518 B( 58-C , 59-C ) :   1.6106
B( 58-C , 64-C ) :   1.0043 B( 59-C , 60-C ) :   1.1356 B( 59-C , 62-C ) :   1.1762
B( 60-C , 61-N ) :   2.9925 B( 62-C , 63-N ) :   2.9598 B( 64-C , 65-C ) :   1.2692
B( 64-C , 71-C ) :   1.4270 B( 65-C , 66-C ) :   0.9178 B( 65-C , 68-C ) :   1.4315
B( 66-C , 67-O ) :   2.2667 B( 68-C , 69-C ) :   1.2444 B( 68-C ,103-H ) :   1.0166
B( 69-C , 70-C ) :   1.3137 B( 69-C , 74-C ) :   1.1718 B( 70-C , 71-C ) :   1.3070
B( 70-C , 72-S ) :   1.0942 B( 71-C ,104-H ) :   0.9881 B( 72-S , 73-C ) :   1.1253
B( 73-C , 74-C ) :   1.6312 B( 73-C ,105-H ) :   0.9680 B( 74-C ,106-H ) :   0.9991

-----------------------------------------------------------------------------
         ABSORPTION SPECTRUM VIA TRANSITION ELECTRIC DIPOLE MOMENTS
-----------------------------------------------------------------------------
State   Energy  Wavelength   fosc         T2         TX        TY        TZ
        (cm-1)    (nm)                  (au**2)     (au)      (au)      (au)
-----------------------------------------------------------------------------
   0    9756.1   1025.0   0.908435784  30.65457   2.32940  -4.31657  -2.56820
   1   12861.2    777.5   0.120163460   3.07587   1.64724   0.05523   0.59951
   2   16931.0    590.6   0.557810774  10.84625  -1.59394   2.60453   1.23370
   3   19193.2    521.0   0.030879636   0.52967   0.29785   0.57974   0.32380
   4   19741.9    506.5   0.002117089   0.03530  -0.04917  -0.17021   0.06258
   5   23012.1    434.6   0.011253627   0.16099   0.17543  -0.30679  -0.19000
   6   23130.9    432.3   0.075145923   1.06952   0.59482  -0.84456  -0.04929
   7   23841.5    419.4   0.056039855   0.77382   0.11385   0.16740   0.85606
   8   25295.5    395.3   0.059652887   0.77636  -0.43626   0.05512   0.76354
   9   25571.1    391.1   0.001078632   0.01389   0.05157   0.00133  -0.10595
  10   25793.4    387.7   0.000813825   0.01039  -0.02059  -0.07829   0.06192
  11   26163.5    382.2   0.059698571   0.75118  -0.06961  -0.01930   0.86369
  12   26823.9    372.8   0.081869111   1.00479   0.63098  -0.60493   0.49062
  13   27449.4    364.3   0.001792938   0.02150  -0.10493  -0.02777   0.09860
  14   27589.6    362.5   0.097819305   1.16723   0.93889  -0.39537   0.35972
  15   28152.3    355.2   0.029128193   0.34062   0.35533  -0.43855  -0.14845
  16   28851.5    346.6   0.006917828   0.07894   0.10706   0.25958   0.00970
  17   29029.8    344.5   0.069735766   0.79084   0.75045  -0.10996   0.46429
  18   29270.3    341.6   0.020333095   0.22869  -0.11704  -0.10826  -0.45086
  19   29477.3    339.2   0.061287476   0.68448   0.64860   0.42572   0.28733
  20   29809.2    335.5   0.065420419   0.72250  -0.48647   0.60715  -0.34237
  21   30173.3    331.4   0.023217619   0.25332  -0.46249   0.10366  -0.16934
  22   30576.1    327.1   0.024542165   0.26425   0.22496   0.37371  -0.27199
  23   30798.0    324.7   0.002061428   0.02204   0.02839   0.05872   0.13335
  24   30900.2    323.6   0.000813247   0.00866   0.00707   0.07375   0.05635
  25   32108.1    311.4   0.184069020   1.88730   0.24180   0.70594  -1.15347
  26   32193.4    310.6   0.201418263   2.05972  -1.06468   0.40353   0.87369
  27   32488.1    307.8   0.328242763   3.32619   1.20706  -0.80562   1.10462
  28   32546.5    307.3   0.068115793   0.68900   0.45279   0.19138  -0.66885
  29   32904.0    303.9   0.141473580   1.41547  -1.16501   0.12423   0.20684
  30   33202.1    301.2   0.104612723   1.03728   0.80625   0.55484   0.28177
  31   33214.4    301.1   0.253638932   2.51400  -1.53755  -0.25243   0.29363
  32   33479.0    298.7   0.082678061   0.81301  -0.88000   0.14971  -0.12722
  33   33621.3    297.4   0.045073199   0.44135   0.10715   0.35069  -0.55397
  34   33895.2    295.0   0.253699995   2.46410  -1.28603   0.09509  -0.89509
  35   34236.4    292.1   0.012638094   0.12153   0.25917   0.16709  -0.16260
  36   34552.1    289.4   0.091047222   0.86750  -0.75879   0.43871  -0.31505
  37   34588.7    289.1   0.030564856   0.29091  -0.51128  -0.17074   0.01885
  38   34992.8    285.8   0.014437302   0.13583  -0.29909   0.08857  -0.19629
  39   35188.3    284.2   0.014500527   0.13566   0.05828   0.32205   0.16896
  40   35656.0    280.5   0.043994057   0.40620  -0.62273  -0.00897   0.13537
  41   35990.2    277.9   0.042472348   0.38851   0.05763  -0.04788  -0.61878
  42   36123.7    276.8   0.013102388   0.11941  -0.32688   0.06545   0.09096
  43   36434.6    274.5   0.158084963   1.42841  -0.31069  -0.08694   1.15079
  44   36523.4    273.8   0.259997807   2.34355   0.91109   0.21143  -1.21193
  45   36716.9    272.4   0.026602054   0.23852   0.32488  -0.12256  -0.34344
  46   36800.2    271.7   0.087929117   0.78661   0.76312  -0.06268  -0.44758
  47   37066.0    269.8   0.102079791   0.90665  -0.27491  -0.16109  -0.89729
  48   37656.1    265.6   0.001263914   0.01105  -0.10048  -0.00672   0.03015
  49   37814.3    264.5   0.040425586   0.35195   0.05839  -0.58819   0.05068
  50   37972.4    263.3   0.004154963   0.03602  -0.05465  -0.11511   0.14066
  51   38229.4    261.6   0.014714222   0.12671  -0.27349  -0.15286  -0.16897
  52   38495.6    259.8   0.032737196   0.27997  -0.29526  -0.04219  -0.43705
  53   38658.3    258.7   0.220968797   1.88176  -0.98162  -0.11621  -0.95114
  54   38910.7    257.0   0.016100557   0.13622   0.12252  -0.03305   0.34658
  55   39087.3    255.8   0.003132733   0.02639   0.14857   0.04788  -0.04495
  56   39132.1    255.5   0.005303921   0.04462   0.16642   0.11137  -0.06725
  57   39323.1    254.3   0.040565662   0.33961  -0.22717  -0.53393   0.05415
  58   39735.2    251.7   0.055333283   0.45844  -0.50740   0.33205  -0.30121
  59   39841.9    251.0   0.008599875   0.07106   0.06585  -0.23023   0.11713
  60   40209.5    248.7   0.081420925   0.66663  -0.50442   0.20796  -0.60741
  61   40257.0    248.4   0.087689110   0.71710   0.42867  -0.72599  -0.07923

FINAL SINGLE POINT ENERGY     -4852.642720839061

DIPOLE MOMENT
-------------
                                X             Y             Z
Electronic contribution:      0.67469      -2.84031      -6.32959
Nuclear contribution   :      0.94775       2.43512       9.75870
                        -----------------------------------------
Total Dipole Moment    :      1.62244      -0.40519       3.42912
                        -----------------------------------------
Magnitude (a.u.)       :      3.81515
Magnitude (Debye)      :      9.69733

Rotational constants in cm-1:     0.001892     0.000293     0.000275
Rotational constants in MHz :    56.733792     8.778219     8.255372

                             ****ORCA TERMINATED NORMALLY****
TOTAL RUN TIME: 0 days 0 hours 12 minutes 0 seconds 596 msec
