                         Program Version 4.2.0 -  RELEASE  -
|  1> # ORCA input file
|  2> # SCF done       -192.232845285591          0.000523503100
|  3> ! CAM-B3LYP def2-SVP def2/J RIJCOSX Grid4 TightSCF
|  4> %maxcore 5000
|  5> %tddft
|  6>     Mode sTDDFT
|  7>     Ethresh 5.0
|  8>     maxcore 5000
|  9> end
| 10>
| 11> %pal
| 12>   nprocs 6
| 13>   end
| 14> * xyz 0 1
| 15>    C        2.64702        -1.59527        -9.90303
| 16>    C        2.89774        -0.50318       -10.68542
| 17>    C        3.02445        -0.55034       -12.09108
| 18>    N        3.13885        -0.53376       -13.23231
| 19>    C        3.00986         0.81654       -10.19412
| 20>    N        3.07799         1.91203        -9.86047
| 21>    C        2.41351        -2.95480       -10.36006
| 22>    C        1.99538        -3.74703        -9.25791
| 23>    C        1.69965        -5.08506        -9.37915
| 24>    C        1.82444        -5.66901       -10.64209
| 25>    C        2.24470        -4.87089       -11.73679
| 26>    C        2.54126        -3.51895       -11.61635
| 27>    S        2.33687        -5.80376       -13.19497
| 28>    C        1.82350        -7.22213       -12.34965
| 29>    C        1.59110        -7.01654       -11.03449
| 30>    C        1.96441        -2.92893        -8.03953
| 31>    O        1.63934        -3.27875        -6.92795
| 32>    C        2.47788        -1.58409        -8.45268
| 33>    C        2.90058        -0.63795        -7.58908
| 34>    C        2.70647        -0.66890        -6.16308
| 35>    N        3.71433        -0.47169        -5.34254
| 36>    C        3.19812        -0.56247        -4.09271
| 37>    C        1.74283        -0.78891        -4.14115
| 38>    C        1.18797        -0.82897        -2.77725
| 39>    O        0.02662        -0.88001        -2.43564
| 40>    C        2.39776        -0.77633        -1.93776
| 41>    C        3.59834        -0.57052        -2.78428
| 42>    N        4.71830        -0.53162        -2.01431
| 43>    C        4.30021        -0.72713        -0.79197
| 44>    C        2.85787        -0.89987        -0.67122
| 45>    C        1.41564        -0.88821        -5.46931
| 46>    C        0.16383        -1.07156        -6.12760
| 47>    C       -0.92774        -1.69632        -5.62921
| 48>    C       -1.00628        -2.48860        -4.44889
| 49>    S       -2.49756        -2.53596        -3.55904
| 50>    C       -0.08307        -3.30098        -3.81426
| 51>    S        1.55883        -3.74343        -4.10300
| 52>    C        1.49720        -4.64073        -2.59950
| 53>    N        0.39648        -4.62728        -1.95081
| 54>    C       -0.54861        -3.91733        -2.61359
| 55>    C       -1.88081        -3.61352        -2.32708
| 56>    C       -2.74353        -3.92902        -1.26283
| 57>    C       -2.70325        -4.97056        -0.37480
| 58>    C       -1.92188        -6.13685        -0.44275
| 59>    N       -1.13487        -6.46753        -1.46681
| 60>    C       -0.52932        -7.60430        -1.12093
| 61>    C       -0.98226        -8.07790         0.20715
| 62>    C       -0.29154        -9.32831         0.56664
| 63>    O       -0.42540        -9.99847         1.56937
| 64>    C        0.61263        -9.53753        -0.57398
| 65>    C        0.44213        -8.47074        -1.57340
| 66>    N        1.30194        -8.64022        -2.60557
| 67>    C        1.97454        -9.73421        -2.31489
| 68>    C        1.59857       -10.34069        -1.06446
| 69>    C       -1.88363        -7.15526         0.64857
| 70>    C       -2.71092        -7.10014         1.82478
| 71>    C       -2.38433        -7.45981         3.08056
| 72>    C       -1.10442        -7.90534         3.54808
| 73>    C        0.11882        -7.52384         3.12535
| 74>    C        0.54497        -6.49498         2.19405
| 75>    C        0.05629        -5.22339         2.07083
| 76>    C        0.68920        -4.21953         1.30943
| 77>    N        1.19823        -3.35488         0.75162
| 78>    C       -1.08036        -4.75785         2.76063
| 79>    N       -2.00604        -4.33641         3.29216
| 80>    C        1.72716        -7.01536         1.52869
| 81>    C        2.18417        -8.16498         2.22125
| 82>    C        1.29344        -8.41969         3.37363
| 83>    O        1.44134        -9.19190         4.28466
| 84>    C        3.24199        -8.91312         1.76496
| 85>    C        3.85801        -8.51240         0.57428
| 86>    C        3.39095        -7.35912        -0.10331
| 87>    C        2.32972        -6.59428         0.36084
| 88>    S        4.28639        -7.08191        -1.56302
| 89>    C        5.25609        -8.48168        -1.26478
| 90>    C        4.93311        -9.13051        -0.12517
| 91>    H        1.38603        -5.66034        -8.52193
| 92>    H        2.86522        -2.95471       -12.47511
| 93>    H        1.72698        -8.13864       -12.89868
| 94>    H        1.26753        -7.78165       -10.35253
| 95>    H        3.49154         0.19915        -7.94160
| 96>    H        5.00073        -0.74770         0.02492
| 97>    H        2.32247        -1.10402         0.23421
| 98>    H        0.08411        -0.61944        -7.10901
| 99>    H       -1.86326        -1.58950        -6.16426
|100>    H        2.37657        -5.16668        -2.28232
|101>    H       -3.56945        -3.23562        -1.14757
|102>    H       -3.39508        -4.91926         0.45551
|103>    H        2.73239       -10.09744        -2.98766
|104>    H        2.02502       -11.23031        -0.64505
|105>    H       -3.72307        -6.75617         1.64871
|106>    H       -3.16989        -7.46338         3.82520
|107>    H       -1.11873        -8.68913         4.29798
|108>    H        3.57062        -9.79267         2.29586
|109>    H        1.96046        -5.74477        -0.18870
|110>    H        6.02098        -8.73441        -1.97316
|111>    H        5.42763       -10.01968         0.22184
|112> *
|113>
|114>                          ****END OF INPUT****

CARTESIAN COORDINATES (ANGSTROEM)
---------------------------------
  C      2.647020   -1.595270   -9.903030
  C      2.897740   -0.503180  -10.685420
  C      3.024450   -0.550340  -12.091080
  N      3.138850   -0.533760  -13.232310
  C      3.009860    0.816540  -10.194120
  N      3.077990    1.912030   -9.860470
  C      2.413510   -2.954800  -10.360060
  C      1.995380   -3.747030   -9.257910
  C      1.699650   -5.085060   -9.379150
  C      1.824440   -5.669010  -10.642090
  C      2.244700   -4.870890  -11.736790
  C      2.541260   -3.518950  -11.616350
  S      2.336870   -5.803760  -13.194970
  C      1.823500   -7.222130  -12.349650
  C      1.591100   -7.016540  -11.034490
  C      1.964410   -2.928930   -8.039530
  O      1.639340   -3.278750   -6.927950
  C      2.477880   -1.584090   -8.452680
  C      2.900580   -0.637950   -7.589080
  C      2.706470   -0.668900   -6.163080
  N      3.714330   -0.471690   -5.342540
  C      3.198120   -0.562470   -4.092710
  C      1.742830   -0.788910   -4.141150
  C      1.187970   -0.828970   -2.777250
  O      0.026620   -0.880010   -2.435640
  C      2.397760   -0.776330   -1.937760
  C      3.598340   -0.570520   -2.784280
  N      4.718300   -0.531620   -2.014310
  C      4.300210   -0.727130   -0.791970
  C      2.857870   -0.899870   -0.671220
  C      1.415640   -0.888210   -5.469310
  C      0.163830   -1.071560   -6.127600
  C     -0.927740   -1.696320   -5.629210
  C     -1.006280   -2.488600   -4.448890
  S     -2.497560   -2.535960   -3.559040
  C     -0.083070   -3.300980   -3.814260
  S      1.558830   -3.743430   -4.103000
  C      1.497200   -4.640730   -2.599500
  N      0.396480   -4.627280   -1.950810
  C     -0.548610   -3.917330   -2.613590
  C     -1.880810   -3.613520   -2.327080
  C     -2.743530   -3.929020   -1.262830
  C     -2.703250   -4.970560   -0.374800
  C     -1.921880   -6.136850   -0.442750
  N     -1.134870   -6.467530   -1.466810
  C     -0.529320   -7.604300   -1.120930
  C     -0.982260   -8.077900    0.207150
  C     -0.291540   -9.328310    0.566640
  O     -0.425400   -9.998470    1.569370
  C      0.612630   -9.537530   -0.573980
  C      0.442130   -8.470740   -1.573400
  N      1.301940   -8.640220   -2.605570
  C      1.974540   -9.734210   -2.314890
  C      1.598570  -10.340690   -1.064460
  C     -1.883630   -7.155260    0.648570
  C     -2.710920   -7.100140    1.824780
  C     -2.384330   -7.459810    3.080560
  C     -1.104420   -7.905340    3.548080
  C      0.118820   -7.523840    3.125350
  C      0.544970   -6.494980    2.194050
  C      0.056290   -5.223390    2.070830
  C      0.689200   -4.219530    1.309430
  N      1.198230   -3.354880    0.751620
  C     -1.080360   -4.757850    2.760630
  N     -2.006040   -4.336410    3.292160
  C      1.727160   -7.015360    1.528690
  C      2.184170   -8.164980    2.221250
  C      1.293440   -8.419690    3.373630
  O      1.441340   -9.191900    4.284660
  C      3.241990   -8.913120    1.764960
  C      3.858010   -8.512400    0.574280
  C      3.390950   -7.359120   -0.103310
  C      2.329720   -6.594280    0.360840
  S      4.286390   -7.081910   -1.563020
  C      5.256090   -8.481680   -1.264780
  C      4.933110   -9.130510   -0.125170
  H      1.386030   -5.660340   -8.521930
  H      2.865220   -2.954710  -12.475110
  H      1.726980   -8.138640  -12.898680
  H      1.267530   -7.781650  -10.352530
  H      3.491540    0.199150   -7.941600
  H      5.000730   -0.747700    0.024920
  H      2.322470   -1.104020    0.234210
  H      0.084110   -0.619440   -7.109010
  H     -1.863260   -1.589500   -6.164260
  H      2.376570   -5.166680   -2.282320
  H     -3.569450   -3.235620   -1.147570
  H     -3.395080   -4.919260    0.455510
  H      2.732390  -10.097440   -2.987660
  H      2.025020  -11.230310   -0.645050
  H     -3.723070   -6.756170    1.648710
  H     -3.169890   -7.463380    3.825200
  H     -1.118730   -8.689130    4.297980
  H      3.570620   -9.792670    2.295860
  H      1.960460   -5.744770   -0.188700
  H      6.020980   -8.734410   -1.973160
  H      5.427630  -10.019680    0.221840

 Total Charge           Charge          ....    0
 Multiplicity           Mult            ....    1
 Number of Electrons    NEL             ....  534
 Basis Dimension        Dim             .... 1185

ORBITAL ENERGIES
----------------

  NO   OCC          E(Eh)            E(eV)
   0   2.0000     -88.980323     -2421.2777
   1   2.0000     -88.968082     -2420.9446
   2   2.0000     -88.966216     -2420.8938
   3   2.0000     -88.962286     -2420.7869
   4   2.0000     -19.239558      -523.5350
   5   2.0000     -19.210610      -522.7473
   6   2.0000     -19.206767      -522.6427
   7   2.0000     -19.202196      -522.5183
   8   2.0000     -14.431936      -392.7129
   9   2.0000     -14.430677      -392.6787
  10   2.0000     -14.420947      -392.4139
  11   2.0000     -14.412535      -392.1850
  12   2.0000     -14.411502      -392.1569
  13   2.0000     -14.409824      -392.1112
  14   2.0000     -14.408485      -392.0748
  15   2.0000     -14.394786      -391.7020
  16   2.0000     -14.394467      -391.6934
  17   2.0000     -10.389067      -282.7009
  18   2.0000     -10.369634      -282.1721
  19   2.0000     -10.363412      -282.0028
  20   2.0000     -10.362452      -281.9767
  21   2.0000     -10.359621      -281.8996
  22   2.0000     -10.358662      -281.8735
  23   2.0000     -10.350160      -281.6422
  24   2.0000     -10.337132      -281.2877
  25   2.0000     -10.337044      -281.2853
  26   2.0000     -10.336541      -281.2716
  27   2.0000     -10.336160      -281.2612
  28   2.0000     -10.333421      -281.1867
  29   2.0000     -10.333317      -281.1838
  30   2.0000     -10.333295      -281.1832
  31   2.0000     -10.331949      -281.1466
  32   2.0000     -10.330788      -281.1150
  33   2.0000     -10.329766      -281.0872
  34   2.0000     -10.329307      -281.0747
  35   2.0000     -10.327733      -281.0319
  36   2.0000     -10.327256      -281.0189
  37   2.0000     -10.324044      -280.9315
  38   2.0000     -10.323931      -280.9284
  39   2.0000     -10.323168      -280.9077
  40   2.0000     -10.319436      -280.8061
  41   2.0000     -10.319172      -280.7990
  42   2.0000     -10.317006      -280.7400
  43   2.0000     -10.316104      -280.7155
  44   2.0000     -10.315957      -280.7115
  45   2.0000     -10.315351      -280.6950
  46   2.0000     -10.314856      -280.6815
  47   2.0000     -10.312505      -280.6175
  48   2.0000     -10.312042      -280.6049
  49   2.0000     -10.312025      -280.6045
  50   2.0000     -10.309852      -280.5453
  51   2.0000     -10.308043      -280.4961
  52   2.0000     -10.306417      -280.4519
  53   2.0000     -10.306221      -280.4465
  54   2.0000     -10.306088      -280.4429
  55   2.0000     -10.303839      -280.3817
  56   2.0000     -10.302124      -280.3350
  57   2.0000     -10.301520      -280.3186
  58   2.0000     -10.301418      -280.3158
  59   2.0000     -10.301032      -280.3053
  60   2.0000     -10.300092      -280.2798
  61   2.0000     -10.298201      -280.2283
  62   2.0000     -10.296235      -280.1748
  63   2.0000     -10.295462      -280.1538
  64   2.0000     -10.295055      -280.1427
  65   2.0000     -10.294227      -280.1201
  66   2.0000     -10.290040      -280.0062
  67   2.0000     -10.289930      -280.0032
  68   2.0000     -10.289918      -280.0029
  69   2.0000     -10.288152      -279.9549
  70   2.0000     -10.287666      -279.9416
  71   2.0000     -10.286618      -279.9131
  72   2.0000     -10.285163      -279.8735
  73   2.0000     -10.283631      -279.8318
  74   2.0000     -10.277150      -279.6555
  75   2.0000     -10.275916      -279.6219
  76   2.0000      -8.076564      -219.7745
  77   2.0000      -8.063503      -219.4191
  78   2.0000      -8.061726      -219.3707
  79   2.0000      -8.056992      -219.2419
  80   2.0000      -6.046095      -164.5226
  81   2.0000      -6.041715      -164.4034
  82   2.0000      -6.038258      -164.3094
  83   2.0000      -6.033113      -164.1693
  84   2.0000      -6.030999      -164.1118
  85   2.0000      -6.028761      -164.0509
  86   2.0000      -6.026909      -164.0005
  87   2.0000      -6.026380      -163.9862
  88   2.0000      -6.025199      -163.9540
  89   2.0000      -6.023774      -163.9152
  90   2.0000      -6.022197      -163.8723
  91   2.0000      -6.018833      -163.7808
  92   2.0000      -1.155420       -31.4406
  93   2.0000      -1.125710       -30.6321
  94   2.0000      -1.124042       -30.5867
  95   2.0000      -1.116844       -30.3909
  96   2.0000      -1.083462       -29.4825
  97   2.0000      -1.071941       -29.1690
  98   2.0000      -1.065182       -28.9851
  99   2.0000      -1.063241       -28.9323
 100   2.0000      -1.046206       -28.4687
 101   2.0000      -1.036728       -28.2108
 102   2.0000      -1.023207       -27.8429
 103   2.0000      -1.016968       -27.6731
 104   2.0000      -1.009438       -27.4682
 105   2.0000      -1.005315       -27.3560
 106   2.0000      -1.001821       -27.2609
 107   2.0000      -0.989189       -26.9172
 108   2.0000      -0.984771       -26.7970
 109   2.0000      -0.982613       -26.7383
 110   2.0000      -0.949979       -25.8502
 111   2.0000      -0.940540       -25.5934
 112   2.0000      -0.933840       -25.4111
 113   2.0000      -0.932998       -25.3882
 114   2.0000      -0.924582       -25.1592
 115   2.0000      -0.917875       -24.9766
 116   2.0000      -0.915326       -24.9073
 117   2.0000      -0.903053       -24.5733
 118   2.0000      -0.896691       -24.4002
 119   2.0000      -0.893944       -24.3255
 120   2.0000      -0.886088       -24.1117
 121   2.0000      -0.883722       -24.0473
 122   2.0000      -0.879514       -23.9328
 123   2.0000      -0.864661       -23.5286
 124   2.0000      -0.858688       -23.3661
 125   2.0000      -0.855350       -23.2753
 126   2.0000      -0.845171       -22.9983
 127   2.0000      -0.838230       -22.8094
 128   2.0000      -0.825852       -22.4726
 129   2.0000      -0.823547       -22.4098
 130   2.0000      -0.821750       -22.3610
 131   2.0000      -0.812512       -22.1096
 132   2.0000      -0.809998       -22.0412
 133   2.0000      -0.779951       -21.2235
 134   2.0000      -0.775485       -21.1020
 135   2.0000      -0.773667       -21.0525
 136   2.0000      -0.762186       -20.7401
 137   2.0000      -0.757222       -20.6050
 138   2.0000      -0.751810       -20.4578
 139   2.0000      -0.744428       -20.2569
 140   2.0000      -0.726694       -19.7744
 141   2.0000      -0.723284       -19.6816
 142   2.0000      -0.714969       -19.4553
 143   2.0000      -0.710372       -19.3302
 144   2.0000      -0.706403       -19.2222
 145   2.0000      -0.700441       -19.0600
 146   2.0000      -0.699754       -19.0413
 147   2.0000      -0.689503       -18.7623
 148   2.0000      -0.683204       -18.5909
 149   2.0000      -0.679475       -18.4895
 150   2.0000      -0.676849       -18.4180
 151   2.0000      -0.666763       -18.1435
 152   2.0000      -0.659657       -17.9502
 153   2.0000      -0.657327       -17.8868
 154   2.0000      -0.656198       -17.8561
 155   2.0000      -0.647809       -17.6278
 156   2.0000      -0.637790       -17.3552
 157   2.0000      -0.636967       -17.3328
 158   2.0000      -0.624882       -17.0039
 159   2.0000      -0.623050       -16.9540
 160   2.0000      -0.620092       -16.8736
 161   2.0000      -0.618189       -16.8218
 162   2.0000      -0.609795       -16.5934
 163   2.0000      -0.608903       -16.5691
 164   2.0000      -0.603351       -16.4180
 165   2.0000      -0.599848       -16.3227
 166   2.0000      -0.596368       -16.2280
 167   2.0000      -0.590551       -16.0697
 168   2.0000      -0.585892       -15.9429
 169   2.0000      -0.581783       -15.8311
 170   2.0000      -0.573516       -15.6062
 171   2.0000      -0.571220       -15.5437
 172   2.0000      -0.564071       -15.3491
 173   2.0000      -0.562731       -15.3127
 174   2.0000      -0.559299       -15.2193
 175   2.0000      -0.558088       -15.1864
 176   2.0000      -0.555028       -15.1031
 177   2.0000      -0.553920       -15.0729
 178   2.0000      -0.550617       -14.9831
 179   2.0000      -0.549777       -14.9602
 180   2.0000      -0.545001       -14.8302
 181   2.0000      -0.543985       -14.8026
 182   2.0000      -0.537612       -14.6292
 183   2.0000      -0.537380       -14.6229
 184   2.0000      -0.536113       -14.5884
 185   2.0000      -0.530069       -14.4239
 186   2.0000      -0.529351       -14.4044
 187   2.0000      -0.528388       -14.3782
 188   2.0000      -0.526565       -14.3286
 189   2.0000      -0.522574       -14.2200
 190   2.0000      -0.518497       -14.1090
 191   2.0000      -0.516203       -14.0466
 192   2.0000      -0.514330       -13.9956
 193   2.0000      -0.511301       -13.9132
 194   2.0000      -0.510000       -13.8778
 195   2.0000      -0.508998       -13.8505
 196   2.0000      -0.506185       -13.7740
 197   2.0000      -0.505862       -13.7652
 198   2.0000      -0.502422       -13.6716
 199   2.0000      -0.498743       -13.5715
 200   2.0000      -0.496954       -13.5228
 201   2.0000      -0.493012       -13.4155
 202   2.0000      -0.489934       -13.3318
 203   2.0000      -0.488523       -13.2934
 204   2.0000      -0.488313       -13.2877
 205   2.0000      -0.483723       -13.1628
 206   2.0000      -0.482909       -13.1406
 207   2.0000      -0.475387       -12.9360
 208   2.0000      -0.473403       -12.8819
 209   2.0000      -0.470772       -12.8103
 210   2.0000      -0.469223       -12.7682
 211   2.0000      -0.468145       -12.7389
 212   2.0000      -0.465534       -12.6678
 213   2.0000      -0.462506       -12.5854
 214   2.0000      -0.461279       -12.5521
 215   2.0000      -0.459057       -12.4916
 216   2.0000      -0.457378       -12.4459
 217   2.0000      -0.456933       -12.4338
 218   2.0000      -0.453141       -12.3306
 219   2.0000      -0.451948       -12.2981
 220   2.0000      -0.449263       -12.2251
 221   2.0000      -0.446876       -12.1601
 222   2.0000      -0.445727       -12.1289
 223   2.0000      -0.443588       -12.0706
 224   2.0000      -0.442059       -12.0290
 225   2.0000      -0.440626       -11.9900
 226   2.0000      -0.438203       -11.9241
 227   2.0000      -0.437375       -11.9016
 228   2.0000      -0.435866       -11.8605
 229   2.0000      -0.433149       -11.7866
 230   2.0000      -0.430134       -11.7045
 231   2.0000      -0.427971       -11.6457
 232   2.0000      -0.426266       -11.5993
 233   2.0000      -0.421948       -11.4818
 234   2.0000      -0.419943       -11.4272
 235   2.0000      -0.416935       -11.3454
 236   2.0000      -0.414534       -11.2800
 237   2.0000      -0.413389       -11.2489
 238   2.0000      -0.400147       -10.8886
 239   2.0000      -0.393065       -10.6958
 240   2.0000      -0.389422       -10.5967
 241   2.0000      -0.384005       -10.4493
 242   2.0000      -0.375771       -10.2253
 243   2.0000      -0.371949       -10.1212
 244   2.0000      -0.366434        -9.9712
 245   2.0000      -0.363438        -9.8897
 246   2.0000      -0.359085        -9.7712
 247   2.0000      -0.357166        -9.7190
 248   2.0000      -0.355414        -9.6713
 249   2.0000      -0.345347        -9.3974
 250   2.0000      -0.337153        -9.1744
 251   2.0000      -0.336084        -9.1453
 252   2.0000      -0.332767        -9.0551
 253   2.0000      -0.328897        -8.9497
 254   2.0000      -0.327370        -8.9082
 255   2.0000      -0.325983        -8.8705
 256   2.0000      -0.322517        -8.7761
 257   2.0000      -0.320403        -8.7186
 258   2.0000      -0.317849        -8.6491
 259   2.0000      -0.311294        -8.4707
 260   2.0000      -0.308218        -8.3870
 261   2.0000      -0.307899        -8.3784
 262   2.0000      -0.305105        -8.3023
 263   2.0000      -0.298502        -8.1226
 264   2.0000      -0.290302        -7.8995
 265   2.0000      -0.288127        -7.8403
 266   2.0000      -0.253303        -6.8927
 267   0.0000      -0.124377        -3.3845
 268   0.0000      -0.114050        -3.1034
 269   0.0000      -0.089835        -2.4445
 270   0.0000      -0.079001        -2.1497
 271   0.0000      -0.068007        -1.8506

MULLIKEN ATOMIC CHARGES
-----------------------
   0 C :    0.283142
   1 C :   -0.316348
   2 C :   -0.185941
   3 N :    0.164814
   4 C :   -0.203895
   5 N :    0.180286
   6 C :    0.022263
   7 C :   -0.019176
   8 C :   -0.056659
   9 C :    0.110984
  10 C :   -0.092835
  11 C :   -0.020283
  12 S :    0.151528
  13 C :   -0.046078
  14 C :    0.028594
  15 C :    0.157747
  16 O :   -0.134772
  17 C :   -0.078608
  18 C :   -0.042774
  19 C :    0.009624
  20 N :   -0.025447
  21 C :    0.066657
  22 C :   -0.177703
  23 C :    0.225779
  24 O :   -0.127645
  25 C :   -0.028432
  26 C :   -0.004649
  27 N :   -0.051856
  28 C :    0.089563
  29 C :   -0.063739
  30 C :    0.064532
  31 C :   -0.011354
  32 C :    0.048311
  33 C :   -0.161036
  34 S :    0.167248
  35 C :   -0.060936
  36 S :    0.148941
  37 C :    0.047192
  38 N :   -0.038801
  39 C :    0.171485
  40 C :   -0.170562
  41 C :    0.088055
  42 C :   -0.060575
  43 C :    0.059368
  44 N :   -0.019834
  45 C :    0.054179
  46 C :   -0.131353
  47 C :    0.206395
  48 O :   -0.141860
  49 C :   -0.034624
  50 C :   -0.041247
  51 N :   -0.070111
  52 C :    0.075349
  53 C :   -0.086746
  54 C :   -0.021518
  55 C :   -0.022867
  56 C :    0.029401
  57 C :    0.080405
  58 C :   -0.154620
  59 C :    0.281429
  60 C :   -0.319281
  61 C :   -0.185754
  62 N :    0.170888
  63 C :   -0.210250
  64 N :    0.169661
  65 C :   -0.041298
  66 C :    0.020634
  67 C :    0.153851
  68 O :   -0.131161
  69 C :   -0.077331
  70 C :    0.132731
  71 C :   -0.084785
  72 C :   -0.002506
  73 S :    0.118095
  74 C :   -0.042100
  75 C :    0.019293
  76 H :   -0.001651
  77 H :   -0.002350
  78 H :    0.044141
  79 H :   -0.000088
  80 H :    0.061787
  81 H :    0.016088
  82 H :    0.005833
  83 H :    0.001676
  84 H :    0.002009
  85 H :    0.030581
  86 H :    0.011245
  87 H :   -0.006117
  88 H :   -0.009067
  89 H :   -0.021121
  90 H :    0.018317
  91 H :    0.017106
  92 H :    0.033288
  93 H :   -0.013293
  94 H :   -0.017011
  95 H :    0.037641
  96 H :   -0.008089
Sum of atomic charges:   -0.0000000

LOEWDIN ATOMIC CHARGES
----------------------
   0 C :    0.069929
   1 C :   -0.120606
   2 C :   -0.018225
   3 N :   -0.037502
   4 C :   -0.025665
   5 N :   -0.032535
   6 C :   -0.021973
   7 C :   -0.055862
   8 C :    0.030807
   9 C :   -0.031504
  10 C :   -0.141938
  11 C :   -0.005972
  12 S :    0.438616
  13 C :   -0.143329
  14 C :   -0.055130
  15 C :    0.089881
  16 O :   -0.126258
  17 C :   -0.057912
  18 C :    0.061757
  19 C :    0.054065
  20 N :   -0.077883
  21 C :    0.034879
  22 C :   -0.053528
  23 C :    0.063818
  24 O :   -0.126796
  25 C :   -0.040158
  26 C :    0.041235
  27 N :   -0.097211
  28 C :    0.087425
  29 C :   -0.008667
  30 C :   -0.041652
  31 C :   -0.020003
  32 C :   -0.031182
  33 C :   -0.159648
  34 S :    0.480249
  35 C :   -0.205343
  36 S :    0.453912
  37 C :   -0.089136
  38 N :   -0.062287
  39 C :   -0.020847
  40 C :   -0.172880
  41 C :    0.036485
  42 C :   -0.067372
  43 C :    0.063845
  44 N :   -0.088865
  45 C :    0.049508
  46 C :   -0.043792
  47 C :    0.059556
  48 O :   -0.147252
  49 C :   -0.048249
  50 C :   -0.004604
  51 N :   -0.110817
  52 C :    0.048244
  53 C :   -0.046763
  54 C :   -0.027799
  55 C :   -0.002524
  56 C :   -0.006995
  57 C :    0.067647
  58 C :   -0.074431
  59 C :    0.075596
  60 C :   -0.139342
  61 C :   -0.007012
  62 N :   -0.057439
  63 C :   -0.016514
  64 N :   -0.052973
  65 C :   -0.025600
  66 C :   -0.046180
  67 C :    0.089480
  68 O :   -0.128037
  69 C :    0.023549
  70 C :   -0.029556
  71 C :   -0.143189
  72 C :   -0.005478
  73 S :    0.433880
  74 C :   -0.149818
  75 C :   -0.058112
  76 H :    0.044553
  77 H :    0.042115
  78 H :    0.031921
  79 H :    0.038208
  80 H :    0.060976
  81 H :    0.025916
  82 H :    0.036091
  83 H :    0.034629
  84 H :    0.036427
  85 H :    0.002405
  86 H :    0.041351
  87 H :    0.037563
  88 H :    0.015410
  89 H :    0.028237
  90 H :    0.040905
  91 H :    0.042942
  92 H :    0.050884
  93 H :    0.040540
  94 H :    0.041024
  95 H :    0.028949
  96 H :    0.034941

  Mayer bond orders larger than 0.100000
B(  0-C ,  1-C ) :   1.6827 B(  0-C ,  6-C ) :   1.0242 B(  0-C , 17-C ) :   1.0088
B(  1-C ,  2-C ) :   1.1341 B(  1-C ,  4-C ) :   1.1371 B(  2-C ,  3-N ) :   2.9800
B(  4-C ,  5-N ) :   3.0018 B(  6-C ,  7-C ) :   1.2567 B(  6-C , 11-C ) :   1.4061
B(  7-C ,  8-C ) :   1.4184 B(  7-C , 15-C ) :   0.9609 B(  8-C ,  9-C ) :   1.2538
B(  8-C , 76-H ) :   1.0163 B(  9-C , 10-C ) :   1.2886 B(  9-C , 14-C ) :   1.1740
B( 10-C , 11-C ) :   1.3310 B( 10-C , 12-S ) :   1.1051 B( 11-C , 77-H ) :   0.9827
B( 12-S , 13-C ) :   1.1275 B( 13-C , 14-C ) :   1.6273 B( 13-C , 78-H ) :   0.9684
B( 14-C , 79-H ) :   0.9994 B( 15-C , 16-O ) :   2.1797 B( 15-C , 17-C ) :   0.9212
B( 17-C , 18-C ) :   1.7541 B( 18-C , 19-C ) :   1.0209 B( 18-C , 80-H ) :   0.9384
B( 19-C , 20-N ) :   1.6496 B( 19-C , 21-C ) :   0.1028 B( 19-C , 30-C ) :   1.0430
B( 20-N , 21-C ) :   1.3026 B( 21-C , 22-C ) :   1.0492 B( 21-C , 26-C ) :   1.4623
B( 22-C , 23-C ) :   0.8927 B( 22-C , 30-C ) :   1.5605 B( 23-C , 24-O ) :   2.2441
B( 23-C , 25-C ) :   0.8986 B( 25-C , 26-C ) :   1.0389 B( 25-C , 29-C ) :   1.6507
B( 26-C , 27-N ) :   1.2921 B( 27-N , 28-C ) :   1.6780 B( 28-C , 29-C ) :   1.0385
B( 28-C , 81-H ) :   0.9887 B( 29-C , 82-H ) :   0.9987 B( 30-C , 31-C ) :   1.0858
B( 31-C , 32-C ) :   1.7682 B( 31-C , 83-H ) :   0.9453 B( 32-C , 33-C ) :   1.1123
B( 32-C , 84-H ) :   0.9459 B( 33-C , 34-S ) :   1.1611 B( 33-C , 35-C ) :   1.4764
B( 33-C , 40-C ) :   0.1040 B( 34-S , 40-C ) :   1.1104 B( 35-C , 36-S ) :   1.0886
B( 35-C , 39-C ) :   1.2322 B( 36-S , 37-C ) :   1.0957 B( 37-C , 38-N ) :   1.7085
B( 37-C , 85-H ) :   0.9473 B( 38-N , 39-C ) :   1.3059 B( 39-C , 40-C ) :   1.3850
B( 40-C , 41-C ) :   1.2097 B( 41-C , 42-C ) :   1.5969 B( 41-C , 86-H ) :   0.9350
B( 42-C , 43-C ) :   1.2239 B( 42-C , 87-H ) :   0.9397 B( 43-C , 44-N ) :   1.5013
B( 43-C , 45-C ) :   0.1248 B( 43-C , 54-C ) :   0.9971 B( 44-N , 45-C ) :   1.4051
B( 45-C , 46-C ) :   1.0287 B( 45-C , 50-C ) :   1.3593 B( 46-C , 47-C ) :   0.8919
B( 46-C , 54-C ) :   1.6176 B( 47-C , 48-O ) :   2.2295 B( 47-C , 49-C ) :   0.9096
B( 49-C , 50-C ) :   1.0889 B( 49-C , 53-C ) :   1.5545 B( 50-C , 51-N ) :   1.3341
B( 51-N , 52-C ) :   1.6076 B( 52-C , 53-C ) :   1.1049 B( 52-C , 88-H ) :   0.9909
B( 53-C , 89-H ) :   1.0167 B( 54-C , 55-C ) :   1.0573 B( 55-C , 56-C ) :   1.8017
B( 55-C , 90-H ) :   0.9492 B( 56-C , 57-C ) :   1.0851 B( 56-C , 91-H ) :   0.9425
B( 57-C , 58-C ) :   1.7648 B( 57-C , 92-H ) :   0.9273 B( 58-C , 59-C ) :   1.0223
B( 58-C , 67-C ) :   0.9170 B( 59-C , 60-C ) :   1.6650 B( 59-C , 65-C ) :   1.0085
B( 60-C , 61-C ) :   1.1330 B( 60-C , 63-C ) :   1.1780 B( 61-C , 62-N ) :   2.9896
B( 63-C , 64-N ) :   2.9881 B( 65-C , 66-C ) :   1.2644 B( 65-C , 72-C ) :   1.4409
B( 66-C , 67-C ) :   0.9076 B( 66-C , 69-C ) :   1.4255 B( 67-C , 68-O ) :   2.2882
B( 69-C , 70-C ) :   1.2460 B( 69-C , 93-H ) :   1.0181 B( 70-C , 71-C ) :   1.2998
B( 70-C , 75-C ) :   1.1726 B( 71-C , 72-C ) :   1.3314 B( 71-C , 73-S ) :   1.0939
B( 72-C , 94-H ) :   0.9771 B( 73-S , 74-C ) :   1.1337 B( 74-C , 75-C ) :   1.6192
B( 74-C , 95-H ) :   0.9697 B( 75-C , 96-H ) :   1.0015

-----------------------------------------------------------------------------
         ABSORPTION SPECTRUM VIA TRANSITION ELECTRIC DIPOLE MOMENTS
-----------------------------------------------------------------------------
State   Energy  Wavelength   fosc         T2         TX        TY        TZ
        (cm-1)    (nm)                  (au**2)     (au)      (au)      (au)
-----------------------------------------------------------------------------
   0   12151.8    822.9   0.106439405   2.88362  -0.47167  -1.61374   0.23872
   1   13994.9    714.5   0.293663389   6.90803   0.23497  -2.26862   1.30621
   2   17799.9    561.8   0.061992575   1.14657   0.32020   0.92522  -0.43359
   3   18717.9    534.2   0.025925456   0.45598   0.08343   0.22733  -0.63035
   4   19684.0    508.0   0.045896848   0.76762  -0.09408   0.72679  -0.48015
   5   20056.2    498.6   0.021047746   0.34549   0.25449   0.32033  -0.42203
   6   20742.3    482.1   0.086057764   1.36587   0.28608   0.93663  -0.63777
   7   21293.7    469.6   0.015201549   0.23502   0.12622  -0.32166   0.34004
   8   21882.2    457.0   0.009644611   0.14510   0.00111  -0.14543  -0.35206
   9   22216.5    450.1   0.013774798   0.20412   0.36451  -0.26109  -0.05555
  10   22725.1    440.0   0.013242593   0.19184   0.26454  -0.28734  -0.19825
  11   23292.9    429.3   0.021302359   0.30108  -0.08033  -0.32990   0.43104
  12   23623.5    423.3   0.013891800   0.19359   0.05337  -0.07160   0.43083
  13   24225.1    412.8   0.036447165   0.49531   0.44270   0.35644  -0.41506
  14   24438.8    409.2   0.058556240   0.78880  -0.04522   0.55983   0.68800
  15   24640.5    405.8   0.029661999   0.39630  -0.49741   0.33378  -0.19360
  16   24806.6    403.1   0.114436401   1.51870   0.16559  -0.25651   1.19394
  17   24974.1    400.4   0.033248470   0.43829   0.62449   0.21959   0.00852
  18   25022.3    399.6   0.036717142   0.48308  -0.12467  -0.46605   0.50033
  19   25302.4    395.2   0.081481176   1.06016  -0.03634   0.63621   0.80875
  20   25363.1    394.3   0.029363522   0.38114   0.42274  -0.43969  -0.09537
  21   25483.1    392.4   0.021499595   0.27775  -0.12771  -0.22417  -0.45955
  22   25739.4    388.5   0.074297904   0.95028  -0.94631  -0.07084  -0.22306
  23   26041.8    384.0   0.040424922   0.51104   0.25627   0.05502   0.66508
  24   26265.3    380.7   0.073544479   0.92181   0.45196   0.28616   0.79728
  25   26425.4    378.4   0.006652392   0.08288   0.19925   0.02346  -0.20646
  26   26721.0    374.2   0.010253479   0.12633  -0.17574  -0.10696   0.28983
  27   26997.7    370.4   0.111715103   1.36226   0.27689   0.32885   1.08510
  28   27237.0    367.1   0.009489401   0.11470   0.12125  -0.18666  -0.25526
  29   28029.1    356.8   0.052910220   0.62145   0.24649   0.46925   0.58352
  30   28145.3    355.3   0.078086324   0.91337   0.79943  -0.51387  -0.10106
  31   28299.6    353.4   0.039042213   0.45418  -0.21472   0.63866   0.01375
  32   28541.9    350.4   0.056052884   0.64653   0.32716   0.12558   0.72369
  33   28749.8    347.8   0.003653813   0.04184   0.12215   0.11151  -0.12035
  34   28821.8    347.0   0.114778292   1.31104   0.61447   0.20932   0.94321
  35   29114.7    343.5   0.095522476   1.08011  -0.27454   0.11120   0.99618
  36   29464.7    339.4   0.041748394   0.46646  -0.35373   0.08901   0.57742
  37   29904.8    334.4   0.143828726   1.58336   0.45581  -0.68753  -0.95021
  38   30129.7    331.9   0.063809794   0.69722   0.37286   0.12044   0.73735
  39   30579.3    327.0   0.024758266   0.26654   0.45431   0.21275  -0.12200
  40   30752.9    325.2   0.025878130   0.27703  -0.04087   0.07751  -0.51899
  41   30908.6    323.5   0.183072639   1.94993  -0.13653  -0.19771  -1.37557
  42   31060.4    322.0   0.044501810   0.47168   0.33431  -0.44339  -0.40413
  43   31271.4    319.8   0.114244089   1.20271   0.22249  -1.06156  -0.16215
  44   31508.6    317.4   0.022462543   0.23470   0.08147  -0.02599  -0.47685
  45   31714.3    315.3   0.404344090   4.19732  -0.36706  -1.99289  -0.30165
  46   31945.8    313.0   0.063370614   0.65305  -0.28861  -0.51308  -0.55364
  47   32093.5    311.6   0.039717565   0.40742  -0.22351  -0.15541   0.57733
  48   32297.7    309.6   0.013562573   0.13824   0.10292  -0.20028   0.29587
  49   32542.7    307.3   0.056117378   0.56770  -0.70910   0.11958   0.22489
  50   32592.6    306.8   0.066372545   0.67042  -0.12616  -0.78691  -0.18780
  51   32862.5    304.3   0.045442640   0.45524  -0.26555   0.11108  -0.61023
  52   33112.3    302.0   0.014519168   0.14435  -0.05212   0.07148  -0.36950
  53   33153.4    301.6   0.006543380   0.06498   0.01985   0.23244  -0.10272
  54   33284.2    300.4   0.010044472   0.09935  -0.02511  -0.02398   0.31328
  55   33374.6    299.6   0.022534311   0.22228  -0.01162   0.35505  -0.30998
  56   33417.4    299.2   0.035329775   0.34805  -0.07508  -0.31595  -0.49254
  57   33452.3    298.9   0.039600314   0.38972   0.58352  -0.21917   0.03444
  58   33625.8    297.4   0.046175352   0.45208   0.10477   0.20987   0.63012
  59   33806.1    295.8   0.016084504   0.15663  -0.03482  -0.37059  -0.13448
  60   33855.6    295.4   0.007664007   0.07452   0.16852  -0.14661   0.15695
  61   33982.9    294.3   0.061504389   0.59583   0.15887   0.75470  -0.03181
  62   34113.4    293.1   0.016996510   0.16403  -0.08101   0.02694   0.39590
  63   34301.3    291.5   0.011635101   0.11167  -0.14415  -0.11145   0.28013
  64   34366.7    291.0   0.033049469   0.31659   0.30736  -0.01091  -0.47117
  65   34499.6    289.9   0.030607352   0.29207  -0.41570   0.22983  -0.25776
  66   34775.8    287.6   0.100554657   0.95192   0.31435   0.66695  -0.63897
  67   34968.7    286.0   0.014236159   0.13403   0.27543  -0.24082  -0.01306
  68   35123.7    284.7   0.042220863   0.39573  -0.11431   0.41348  -0.46011
  69   35256.0    283.6   0.022106379   0.20642  -0.32046   0.23277   0.22260
  70   35366.7    282.8   0.023320886   0.21708  -0.44955   0.06601  -0.10309
  71   35502.2    281.7   0.196294044   1.82024  -0.97872   0.89482   0.24827
  72   35693.5    280.2   0.153522160   1.41598   0.02385   0.84129   0.84121
  73   35948.8    278.2   0.018285472   0.16745  -0.36653   0.14909  -0.10430
  74   35976.1    278.0   0.033095107   0.30285   0.19191   0.46691  -0.21912
  75   36148.1    276.6   0.013519877   0.12313   0.18326   0.07641  -0.28932
  76   36316.6    275.4   0.066983760   0.60721   0.42446   0.30926  -0.57568
  77   36385.9    274.8   0.010140141   0.09175  -0.22959   0.19636  -0.02182
  78   36461.8    274.3   0.063054341   0.56931  -0.36563   0.59487  -0.28592
  79   36573.0    273.4   0.047720866   0.42956   0.13042   0.62464   0.14959
  80   36722.6    272.3   0.109893768   0.98518  -0.40002   0.24714   0.87412
  81   36813.7    271.6   0.139977003   1.25176   0.41244  -0.20173  -1.02028
  82   36992.9    270.3   0.029424310   0.26186   0.08661  -0.25744   0.43368
  83   37161.6    269.1   0.108737664   0.96330  -0.78593   0.25528  -0.52958
  84   37231.6    268.6   0.011174499   0.09881  -0.27012  -0.05575  -0.15078
  85   37396.6    267.4   0.211902818   1.86544  -0.72610  -0.57223   1.00537
  86   37540.6    266.4   0.001397940   0.01226   0.05021  -0.01191  -0.09796
  87   37651.2    265.6   0.018467084   0.16147   0.16995  -0.13806  -0.33694
  88   37677.2    265.4   0.010102703   0.08827  -0.15918   0.13855   0.20914
  89   37813.3    264.5   0.025050023   0.21809   0.40086   0.23762   0.03066
  90   37928.3    263.7   0.095294949   0.82715  -0.08938  -0.56606  -0.70621
  91   38014.6    263.1   0.046259747   0.40062   0.47712  -0.35501  -0.21666
  92   38269.3    261.3   0.067728598   0.58264  -0.56354   0.26814   0.43950
  93   38304.3    261.1   0.096668694   0.83083   0.37982  -0.41902  -0.71484
  94   38426.9    260.2   0.030786293   0.26375   0.40947   0.30301  -0.06538
  95   38459.1    260.0   0.049307862   0.42208  -0.57100  -0.24798   0.18586
  96   38623.0    258.9   0.008487107   0.07234  -0.01632   0.08374  -0.25508
  97   38714.5    258.3   0.024139846   0.20528   0.02688   0.13847   0.43056
  98   38749.7    258.1   0.013003566   0.11048  -0.17835   0.09442   0.26411
  99   38848.8    257.4   0.016703934   0.14155  -0.01400   0.37419  -0.03662
 100   38995.5    256.4   0.017706806   0.14949   0.28837   0.13105  -0.22171
 101   39181.8    255.2   0.075983417   0.63843  -0.02894  -0.79830  -0.01734
 102   39192.2    255.2   0.032245290   0.27086   0.15347  -0.20883   0.45133
 103   39296.0    254.5   0.085517694   0.71645   0.52622  -0.41456  -0.51737
 104   39340.8    254.2   0.044069637   0.36878  -0.21092   0.18685   0.53794
 105   39737.1    251.7   0.048735850   0.40376  -0.08396  -0.20865   0.59429
 106   39793.9    251.3   0.015579093   0.12888   0.20270   0.06820  -0.28835
 107   39992.0    250.0   0.118686007   0.97702  -0.29654   0.55250   0.76408
 108   40049.4    249.7   0.023652704   0.19443  -0.31778  -0.27695  -0.12941
 109   40190.1    248.8   0.014901297   0.12206   0.04956  -0.25511   0.23350
 110   40272.1    248.3   0.016611631   0.13579   0.04524  -0.18403  -0.31604

FINAL SINGLE POINT ENERGY     -4642.701171609142

DIPOLE MOMENT
-------------
                                X             Y             Z
Electronic contribution:      1.00867      18.30399     -11.82747
Nuclear contribution   :     -0.85958     -20.90272       9.42043
                        -----------------------------------------
Total Dipole Moment    :      0.14908      -2.59873      -2.40704
                        -----------------------------------------
Magnitude (a.u.)       :      3.54534
Magnitude (Debye)      :      9.01155

Rotational constants in cm-1:     0.001560     0.000529     0.000479
Rotational constants in MHz :    46.773775    15.852509    14.345731

                             ****ORCA TERMINATED NORMALLY****
TOTAL RUN TIME: 0 days 0 hours 12 minutes 58 seconds 480 msec
