                         Program Version 4.2.0 -  RELEASE  -
|  1> # ORCA input file
|  2> # SCF done       -200.734134445697          0.000513662690
|  3> ! CAM-B3LYP def2-SVP def2/J RIJCOSX Grid4 TightSCF
|  4> %maxcore 5000
|  5> %tddft
|  6>     Mode sTDDFT
|  7>     Ethresh 5.0
|  8>     maxcore 5000
|  9> end
| 10>
| 11> %pal
| 12>   nprocs 6
| 13>   end
| 14> * xyz 0 1
| 15>    C       -6.23138        -4.41086        -3.02834
| 16>    C       -4.97674        -4.70579        -3.48721
| 17>    C       -4.27357        -5.87999        -3.14083
| 18>    N       -3.66757        -6.81700        -2.87640
| 19>    C       -4.28915        -3.90624        -4.42573
| 20>    N       -3.72266        -3.29821        -5.21830
| 21>    C       -7.09290        -5.24787        -2.21360
| 22>    C       -8.41777        -4.73614        -2.27658
| 23>    C       -9.46551        -5.33205        -1.61691
| 24>    C       -9.19360        -6.46944        -0.85032
| 25>    C       -7.86654        -6.96739        -0.78923
| 26>    C       -6.80766        -6.37542        -1.46505
| 27>    S       -7.76925        -8.37508         0.21907
| 28>    C       -9.46522        -8.29065         0.54217
| 29>    C      -10.08509        -7.25841        -0.07195
| 30>    C       -8.45109        -3.54466        -3.14885
| 31>    O       -9.41295        -3.00892        -3.63105
| 32>    C       -7.00164        -3.22153        -3.37773
| 33>    C       -6.47035        -2.03157        -3.72107
| 34>    C       -7.17159        -0.81236        -3.99042
| 35>    N       -8.27040        -0.43301        -3.38312
| 36>    C       -8.57384         0.78437        -3.89469
| 37>    C       -7.57529         1.20971        -4.88833
| 38>    C       -7.93493         2.52284        -5.45227
| 39>    O       -7.35464         3.16698        -6.29544
| 40>    C       -9.18631         2.84620        -4.73631
| 41>    C       -9.53276         1.75713        -3.79058
| 42>    N      -10.68409         2.04662        -3.13254
| 43>    C      -11.06499         3.20555        -3.60134
| 44>    C      -10.17604         3.76176        -4.61158
| 45>    C       -6.65538         0.19376        -4.95990
| 46>    C       -5.47402         0.03339        -5.73323
| 47>    C       -4.93913         1.02570        -6.48853
| 48>    C       -3.73819         0.90491        -7.25233
| 49>    C       -3.17657        -0.28074        -7.62370
| 50>    C       -2.01143        -0.35679        -8.42773
| 51>    C       -1.23938         0.73577        -8.67860
| 52>    C       -1.60581         2.05373        -8.02825
| 53>    C       -3.11332         2.19704        -7.75197
| 54>    N       -3.40157         3.25031        -6.80209
| 55>    C       -2.53841         3.51915        -5.92854
| 56>    C       -1.22749         2.83950        -5.87644
| 57>    N       -0.79606         2.14665        -6.83197
| 58>    F       -0.51477         2.94240        -4.76033
| 59>    F       -2.79463         4.45462        -5.02354
| 60>    C       -0.08751         0.76148        -9.51530
| 61>    N        0.28846         1.91128       -10.06493
| 62>    C        1.31666         1.62175       -10.87885
| 63>    C        1.61752         0.18124       -10.86819
| 64>    C        2.74562        -0.11087       -11.77254
| 65>    O        3.20991        -1.18900       -12.08133
| 66>    C        3.13760         1.22496       -12.24307
| 67>    C        2.22502         2.25258       -11.69519
| 68>    N        2.59125         3.48710       -12.11139
| 69>    C        3.65955         3.29750       -12.84908
| 70>    C        4.06310         1.91058       -12.96253
| 71>    C        0.76050        -0.37775        -9.95092
| 72>    C        0.75491        -1.70121        -9.42129
| 73>    C        1.48909        -2.69861        -9.96897
| 74>    C        1.54027        -4.02253        -9.45924
| 75>    C        2.45130        -4.95877        -9.83091
| 76>    C        3.65343        -4.81681       -10.63201
| 77>    C        4.47069        -3.71998       -10.66455
| 78>    C        5.65657        -3.64970       -11.42476
| 79>    N        6.62539        -3.55562       -12.03234
| 80>    C        4.29210        -2.58610        -9.84106
| 81>    N        4.23681        -1.68893        -9.12794
| 82>    C        3.94794        -6.12946       -11.19261
| 83>    C        3.11429        -7.09078       -10.56105
| 84>    C        2.20523        -6.41231        -9.61838
| 85>    O        1.38918        -6.90951        -8.87703
| 86>    C        3.19027        -8.43207       -10.85262
| 87>    C        4.11863        -8.84107       -11.81435
| 88>    C        4.93486        -7.87185       -12.44694
| 89>    C        4.86698        -6.51606       -12.14803
| 90>    S        5.99592        -8.60490       -13.60731
| 91>    C        5.35546       -10.16990       -13.24141
| 92>    C        4.39054       -10.15286       -12.29659
| 93>    H      -10.46347        -4.92851        -1.68688
| 94>    H       -5.81273        -6.78298        -1.38950
| 95>    H       -9.90186        -9.03076         1.18432
| 96>    H      -11.13577        -7.04928         0.01459
| 97>    H       -5.39296        -1.95374        -3.80397
| 98>    H      -11.96440         3.67126        -3.23721
| 99>    H      -10.31495         4.69769        -5.11535
|100>    H       -4.97754        -0.92571        -5.67249
|101>    H       -5.41723         1.99713        -6.50170
|102>    H       -3.65106        -1.21101        -7.35169
|103>    H       -1.77852        -1.31027        -8.87543
|104>    H       -1.25618         2.85290        -8.69634
|105>    H       -3.63453         2.47892        -8.67724
|106>    H        4.15368         4.13369       -13.31263
|107>    H        4.91230         1.54909       -13.50771
|108>    H        0.21062        -1.87531        -8.50383
|109>    H        2.05573        -2.49309       -10.86712
|110>    H        0.75768        -4.34808        -8.78251
|111>    H        2.55117        -9.14384       -10.35340
|112>    H        5.50193        -5.80981       -12.65729
|113>    H        5.74780       -11.01918       -13.76623
|114>    H        3.87856       -11.02926       -11.94251
|115> *
|116>
|117>                          ****END OF INPUT****

CARTESIAN COORDINATES (ANGSTROEM)
---------------------------------
  C     -6.231380   -4.410860   -3.028340
  C     -4.976740   -4.705790   -3.487210
  C     -4.273570   -5.879990   -3.140830
  N     -3.667570   -6.817000   -2.876400
  C     -4.289150   -3.906240   -4.425730
  N     -3.722660   -3.298210   -5.218300
  C     -7.092900   -5.247870   -2.213600
  C     -8.417770   -4.736140   -2.276580
  C     -9.465510   -5.332050   -1.616910
  C     -9.193600   -6.469440   -0.850320
  C     -7.866540   -6.967390   -0.789230
  C     -6.807660   -6.375420   -1.465050
  S     -7.769250   -8.375080    0.219070
  C     -9.465220   -8.290650    0.542170
  C    -10.085090   -7.258410   -0.071950
  C     -8.451090   -3.544660   -3.148850
  O     -9.412950   -3.008920   -3.631050
  C     -7.001640   -3.221530   -3.377730
  C     -6.470350   -2.031570   -3.721070
  C     -7.171590   -0.812360   -3.990420
  N     -8.270400   -0.433010   -3.383120
  C     -8.573840    0.784370   -3.894690
  C     -7.575290    1.209710   -4.888330
  C     -7.934930    2.522840   -5.452270
  O     -7.354640    3.166980   -6.295440
  C     -9.186310    2.846200   -4.736310
  C     -9.532760    1.757130   -3.790580
  N    -10.684090    2.046620   -3.132540
  C    -11.064990    3.205550   -3.601340
  C    -10.176040    3.761760   -4.611580
  C     -6.655380    0.193760   -4.959900
  C     -5.474020    0.033390   -5.733230
  C     -4.939130    1.025700   -6.488530
  C     -3.738190    0.904910   -7.252330
  C     -3.176570   -0.280740   -7.623700
  C     -2.011430   -0.356790   -8.427730
  C     -1.239380    0.735770   -8.678600
  C     -1.605810    2.053730   -8.028250
  C     -3.113320    2.197040   -7.751970
  N     -3.401570    3.250310   -6.802090
  C     -2.538410    3.519150   -5.928540
  C     -1.227490    2.839500   -5.876440
  N     -0.796060    2.146650   -6.831970
  F     -0.514770    2.942400   -4.760330
  F     -2.794630    4.454620   -5.023540
  C     -0.087510    0.761480   -9.515300
  N      0.288460    1.911280  -10.064930
  C      1.316660    1.621750  -10.878850
  C      1.617520    0.181240  -10.868190
  C      2.745620   -0.110870  -11.772540
  O      3.209910   -1.189000  -12.081330
  C      3.137600    1.224960  -12.243070
  C      2.225020    2.252580  -11.695190
  N      2.591250    3.487100  -12.111390
  C      3.659550    3.297500  -12.849080
  C      4.063100    1.910580  -12.962530
  C      0.760500   -0.377750   -9.950920
  C      0.754910   -1.701210   -9.421290
  C      1.489090   -2.698610   -9.968970
  C      1.540270   -4.022530   -9.459240
  C      2.451300   -4.958770   -9.830910
  C      3.653430   -4.816810  -10.632010
  C      4.470690   -3.719980  -10.664550
  C      5.656570   -3.649700  -11.424760
  N      6.625390   -3.555620  -12.032340
  C      4.292100   -2.586100   -9.841060
  N      4.236810   -1.688930   -9.127940
  C      3.947940   -6.129460  -11.192610
  C      3.114290   -7.090780  -10.561050
  C      2.205230   -6.412310   -9.618380
  O      1.389180   -6.909510   -8.877030
  C      3.190270   -8.432070  -10.852620
  C      4.118630   -8.841070  -11.814350
  C      4.934860   -7.871850  -12.446940
  C      4.866980   -6.516060  -12.148030
  S      5.995920   -8.604900  -13.607310
  C      5.355460  -10.169900  -13.241410
  C      4.390540  -10.152860  -12.296590
  H    -10.463470   -4.928510   -1.686880
  H     -5.812730   -6.782980   -1.389500
  H     -9.901860   -9.030760    1.184320
  H    -11.135770   -7.049280    0.014590
  H     -5.392960   -1.953740   -3.803970
  H    -11.964400    3.671260   -3.237210
  H    -10.314950    4.697690   -5.115350
  H     -4.977540   -0.925710   -5.672490
  H     -5.417230    1.997130   -6.501700
  H     -3.651060   -1.211010   -7.351690
  H     -1.778520   -1.310270   -8.875430
  H     -1.256180    2.852900   -8.696340
  H     -3.634530    2.478920   -8.677240
  H      4.153680    4.133690  -13.312630
  H      4.912300    1.549090  -13.507710
  H      0.210620   -1.875310   -8.503830
  H      2.055730   -2.493090  -10.867120
  H      0.757680   -4.348080   -8.782510
  H      2.551170   -9.143840  -10.353400
  H      5.501930   -5.809810  -12.657290
  H      5.747800  -11.019180  -13.766230
  H      3.878560  -11.029260  -11.942510

 Total Charge           Charge          ....    0
 Multiplicity           Mult            ....    1
 Number of Electrons    NEL             ....  534
 Basis Dimension        Dim             .... 1210

ORBITAL ENERGIES
----------------

  NO   OCC          E(Eh)            E(eV)
   0   2.0000     -88.977840     -2421.2101
   1   2.0000     -88.961953     -2420.7778
   2   2.0000     -24.802051      -674.8981
   3   2.0000     -24.798551      -674.8029
   4   2.0000     -19.227752      -523.2137
   5   2.0000     -19.217720      -522.9408
   6   2.0000     -19.213459      -522.8248
   7   2.0000     -19.208777      -522.6974
   8   2.0000     -14.438201      -392.8834
   9   2.0000     -14.431369      -392.6975
  10   2.0000     -14.428255      -392.6128
  11   2.0000     -14.427013      -392.5790
  12   2.0000     -14.422684      -392.4612
  13   2.0000     -14.414283      -392.2326
  14   2.0000     -14.409614      -392.1055
  15   2.0000     -14.407894      -392.0587
  16   2.0000     -14.402762      -391.9191
  17   2.0000     -14.402087      -391.9007
  18   2.0000     -10.416017      -283.4342
  19   2.0000     -10.411671      -283.3160
  20   2.0000     -10.380536      -282.4687
  21   2.0000     -10.377233      -282.3789
  22   2.0000     -10.372909      -282.2612
  23   2.0000     -10.363738      -282.0116
  24   2.0000     -10.360275      -281.9174
  25   2.0000     -10.359846      -281.9057
  26   2.0000     -10.352426      -281.7038
  27   2.0000     -10.343628      -281.4644
  28   2.0000     -10.341488      -281.4062
  29   2.0000     -10.339290      -281.3464
  30   2.0000     -10.336691      -281.2757
  31   2.0000     -10.335338      -281.2388
  32   2.0000     -10.334876      -281.2263
  33   2.0000     -10.333357      -281.1849
  34   2.0000     -10.332835      -281.1707
  35   2.0000     -10.331802      -281.1426
  36   2.0000     -10.331484      -281.1340
  37   2.0000     -10.329485      -281.0796
  38   2.0000     -10.328267      -281.0464
  39   2.0000     -10.328111      -281.0422
  40   2.0000     -10.325383      -280.9680
  41   2.0000     -10.321947      -280.8745
  42   2.0000     -10.321870      -280.8724
  43   2.0000     -10.321265      -280.8559
  44   2.0000     -10.320626      -280.8385
  45   2.0000     -10.317910      -280.7646
  46   2.0000     -10.315814      -280.7076
  47   2.0000     -10.314823      -280.6806
  48   2.0000     -10.311636      -280.5939
  49   2.0000     -10.310570      -280.5649
  50   2.0000     -10.309893      -280.5464
  51   2.0000     -10.309271      -280.5295
  52   2.0000     -10.306754      -280.4610
  53   2.0000     -10.305999      -280.4405
  54   2.0000     -10.305896      -280.4377
  55   2.0000     -10.305814      -280.4354
  56   2.0000     -10.305608      -280.4299
  57   2.0000     -10.305172      -280.4180
  58   2.0000     -10.301210      -280.3102
  59   2.0000     -10.300476      -280.2902
  60   2.0000     -10.299197      -280.2554
  61   2.0000     -10.299121      -280.2533
  62   2.0000     -10.297390      -280.2062
  63   2.0000     -10.297189      -280.2008
  64   2.0000     -10.296575      -280.1840
  65   2.0000     -10.296322      -280.1772
  66   2.0000     -10.295403      -280.1522
  67   2.0000     -10.294964      -280.1402
  68   2.0000     -10.294012      -280.1143
  69   2.0000     -10.293466      -280.0994
  70   2.0000     -10.291834      -280.0550
  71   2.0000     -10.290303      -280.0134
  72   2.0000     -10.289351      -279.9875
  73   2.0000     -10.286781      -279.9175
  74   2.0000     -10.285754      -279.8896
  75   2.0000     -10.285419      -279.8805
  76   2.0000     -10.285220      -279.8751
  77   2.0000     -10.284479      -279.8549
  78   2.0000      -8.074105      -219.7076
  79   2.0000      -8.058155      -219.2736
  80   2.0000      -6.043624      -164.4554
  81   2.0000      -6.039295      -164.3376
  82   2.0000      -6.035769      -164.2416
  83   2.0000      -6.027691      -164.0218
  84   2.0000      -6.023359      -163.9039
  85   2.0000      -6.019840      -163.8082
  86   2.0000      -1.330535       -36.2057
  87   2.0000      -1.315646       -35.8006
  88   2.0000      -1.144814       -31.1520
  89   2.0000      -1.132832       -30.8259
  90   2.0000      -1.127567       -30.6826
  91   2.0000      -1.123469       -30.5711
  92   2.0000      -1.087749       -29.5992
  93   2.0000      -1.082779       -29.4639
  94   2.0000      -1.076503       -29.2931
  95   2.0000      -1.069069       -29.0909
  96   2.0000      -1.057271       -28.7698
  97   2.0000      -1.037913       -28.2430
  98   2.0000      -1.023094       -27.8398
  99   2.0000      -1.012713       -27.5573
 100   2.0000      -1.012438       -27.5498
 101   2.0000      -1.012008       -27.5381
 102   2.0000      -1.001185       -27.2436
 103   2.0000      -1.000646       -27.2290
 104   2.0000      -0.984065       -26.7778
 105   2.0000      -0.977821       -26.6079
 106   2.0000      -0.963495       -26.2180
 107   2.0000      -0.950210       -25.8565
 108   2.0000      -0.942269       -25.6405
 109   2.0000      -0.936967       -25.4962
 110   2.0000      -0.932453       -25.3733
 111   2.0000      -0.924932       -25.1687
 112   2.0000      -0.918112       -24.9831
 113   2.0000      -0.914535       -24.8858
 114   2.0000      -0.894494       -24.3404
 115   2.0000      -0.893778       -24.3209
 116   2.0000      -0.889044       -24.1921
 117   2.0000      -0.881149       -23.9773
 118   2.0000      -0.875688       -23.8287
 119   2.0000      -0.868211       -23.6252
 120   2.0000      -0.864226       -23.5168
 121   2.0000      -0.861195       -23.4343
 122   2.0000      -0.856175       -23.2977
 123   2.0000      -0.835817       -22.7437
 124   2.0000      -0.831636       -22.6300
 125   2.0000      -0.822705       -22.3869
 126   2.0000      -0.817458       -22.2442
 127   2.0000      -0.813493       -22.1363
 128   2.0000      -0.787079       -21.4175
 129   2.0000      -0.778906       -21.1951
 130   2.0000      -0.773233       -21.0407
 131   2.0000      -0.770308       -20.9611
 132   2.0000      -0.767943       -20.8968
 133   2.0000      -0.763066       -20.7641
 134   2.0000      -0.756300       -20.5800
 135   2.0000      -0.753420       -20.5016
 136   2.0000      -0.745726       -20.2922
 137   2.0000      -0.732490       -19.9321
 138   2.0000      -0.729057       -19.8386
 139   2.0000      -0.710299       -19.3282
 140   2.0000      -0.706227       -19.2174
 141   2.0000      -0.702544       -19.1172
 142   2.0000      -0.696580       -18.9549
 143   2.0000      -0.694545       -18.8995
 144   2.0000      -0.680308       -18.5121
 145   2.0000      -0.678886       -18.4734
 146   2.0000      -0.677215       -18.4280
 147   2.0000      -0.675973       -18.3942
 148   2.0000      -0.669609       -18.2210
 149   2.0000      -0.660135       -17.9632
 150   2.0000      -0.656532       -17.8651
 151   2.0000      -0.653419       -17.7804
 152   2.0000      -0.652064       -17.7436
 153   2.0000      -0.642326       -17.4786
 154   2.0000      -0.639792       -17.4096
 155   2.0000      -0.633261       -17.2319
 156   2.0000      -0.627388       -17.0721
 157   2.0000      -0.623733       -16.9726
 158   2.0000      -0.623349       -16.9622
 159   2.0000      -0.619146       -16.8478
 160   2.0000      -0.613960       -16.7067
 161   2.0000      -0.613174       -16.6853
 162   2.0000      -0.608636       -16.5618
 163   2.0000      -0.602121       -16.3845
 164   2.0000      -0.595081       -16.1930
 165   2.0000      -0.589941       -16.0531
 166   2.0000      -0.588521       -16.0145
 167   2.0000      -0.587953       -15.9990
 168   2.0000      -0.585589       -15.9347
 169   2.0000      -0.582005       -15.8372
 170   2.0000      -0.569779       -15.5045
 171   2.0000      -0.567272       -15.4363
 172   2.0000      -0.563522       -15.3342
 173   2.0000      -0.558830       -15.2065
 174   2.0000      -0.558172       -15.1886
 175   2.0000      -0.555462       -15.1149
 176   2.0000      -0.554059       -15.0767
 177   2.0000      -0.550111       -14.9693
 178   2.0000      -0.548542       -14.9266
 179   2.0000      -0.544782       -14.8243
 180   2.0000      -0.542986       -14.7754
 181   2.0000      -0.542369       -14.7586
 182   2.0000      -0.540830       -14.7167
 183   2.0000      -0.539865       -14.6905
 184   2.0000      -0.537077       -14.6146
 185   2.0000      -0.533653       -14.5214
 186   2.0000      -0.528848       -14.3907
 187   2.0000      -0.528636       -14.3849
 188   2.0000      -0.525183       -14.2909
 189   2.0000      -0.523263       -14.2387
 190   2.0000      -0.522355       -14.2140
 191   2.0000      -0.520295       -14.1579
 192   2.0000      -0.518127       -14.0990
 193   2.0000      -0.514391       -13.9973
 194   2.0000      -0.511669       -13.9232
 195   2.0000      -0.509903       -13.8752
 196   2.0000      -0.508204       -13.8289
 197   2.0000      -0.505091       -13.7442
 198   2.0000      -0.503288       -13.6952
 199   2.0000      -0.501235       -13.6393
 200   2.0000      -0.496923       -13.5220
 201   2.0000      -0.496007       -13.4970
 202   2.0000      -0.493118       -13.4184
 203   2.0000      -0.492544       -13.4028
 204   2.0000      -0.487876       -13.2758
 205   2.0000      -0.486211       -13.2305
 206   2.0000      -0.485218       -13.2035
 207   2.0000      -0.483585       -13.1590
 208   2.0000      -0.482973       -13.1424
 209   2.0000      -0.480217       -13.0674
 210   2.0000      -0.479241       -13.0408
 211   2.0000      -0.473766       -12.8918
 212   2.0000      -0.471509       -12.8304
 213   2.0000      -0.469806       -12.7841
 214   2.0000      -0.467019       -12.7082
 215   2.0000      -0.464398       -12.6369
 216   2.0000      -0.463654       -12.6167
 217   2.0000      -0.460901       -12.5418
 218   2.0000      -0.458427       -12.4744
 219   2.0000      -0.453625       -12.3438
 220   2.0000      -0.449568       -12.2334
 221   2.0000      -0.449189       -12.2230
 222   2.0000      -0.448341       -12.2000
 223   2.0000      -0.446616       -12.1530
 224   2.0000      -0.444417       -12.0932
 225   2.0000      -0.443460       -12.0672
 226   2.0000      -0.439833       -11.9685
 227   2.0000      -0.438756       -11.9392
 228   2.0000      -0.436750       -11.8846
 229   2.0000      -0.433056       -11.7841
 230   2.0000      -0.432310       -11.7637
 231   2.0000      -0.429473       -11.6865
 232   2.0000      -0.425545       -11.5797
 233   2.0000      -0.425022       -11.5654
 234   2.0000      -0.417666       -11.3653
 235   2.0000      -0.414543       -11.2803
 236   2.0000      -0.413912       -11.2631
 237   2.0000      -0.410784       -11.1780
 238   2.0000      -0.406616       -11.0646
 239   2.0000      -0.396456       -10.7881
 240   2.0000      -0.391585       -10.6556
 241   2.0000      -0.390439       -10.6244
 242   2.0000      -0.385002       -10.4764
 243   2.0000      -0.374828       -10.1996
 244   2.0000      -0.370031       -10.0691
 245   2.0000      -0.367382        -9.9970
 246   2.0000      -0.365316        -9.9408
 247   2.0000      -0.361631        -9.8405
 248   2.0000      -0.358926        -9.7669
 249   2.0000      -0.354099        -9.6355
 250   2.0000      -0.349217        -9.5027
 251   2.0000      -0.346220        -9.4211
 252   2.0000      -0.344609        -9.3773
 253   2.0000      -0.343225        -9.3396
 254   2.0000      -0.338227        -9.2036
 255   2.0000      -0.334412        -9.0998
 256   2.0000      -0.331506        -9.0207
 257   2.0000      -0.330343        -8.9891
 258   2.0000      -0.327544        -8.9129
 259   2.0000      -0.326883        -8.8950
 260   2.0000      -0.322958        -8.7881
 261   2.0000      -0.316568        -8.6143
 262   2.0000      -0.307571        -8.3694
 263   2.0000      -0.307082        -8.3561
 264   2.0000      -0.290533        -7.9058
 265   2.0000      -0.280564        -7.6345
 266   2.0000      -0.266148        -7.2422
 267   0.0000      -0.131885        -3.5888
 268   0.0000      -0.117562        -3.1990
 269   0.0000      -0.092434        -2.5153
 270   0.0000      -0.084109        -2.2887
 271   0.0000      -0.064503        -1.7552

MULLIKEN ATOMIC CHARGES
-----------------------
   0 C :    0.248192
   1 C :   -0.317813
   2 C :   -0.181878
   3 N :    0.167275
   4 C :   -0.168071
   5 N :    0.144612
   6 C :    0.024166
   7 C :   -0.010796
   8 C :   -0.060487
   9 C :    0.110759
  10 C :   -0.091182
  11 C :   -0.018716
  12 S :    0.149319
  13 C :   -0.046641
  14 C :    0.026829
  15 C :    0.146085
  16 O :   -0.097726
  17 C :   -0.034331
  18 C :   -0.072548
  19 C :    0.023544
  20 N :    0.003965
  21 C :    0.077037
  22 C :   -0.165208
  23 C :    0.219302
  24 O :   -0.124751
  25 C :   -0.009843
  26 C :   -0.025501
  27 N :   -0.047440
  28 C :    0.095155
  29 C :   -0.094144
  30 C :    0.056151
  31 C :   -0.022014
  32 C :    0.028239
  33 C :   -0.027697
  34 C :    0.000260
  35 C :   -0.003187
  36 C :   -0.035842
  37 C :    0.108924
  38 C :    0.104611
  39 N :   -0.088534
  40 C :    0.115411
  41 C :    0.115072
  42 N :   -0.071316
  43 F :   -0.143371
  44 F :   -0.140204
  45 C :    0.071824
  46 N :   -0.051077
  47 C :    0.063510
  48 C :   -0.154879
  49 C :    0.244223
  50 O :   -0.152786
  51 C :   -0.011326
  52 C :   -0.024521
  53 N :   -0.049440
  54 C :    0.092086
  55 C :   -0.094205
  56 C :    0.053814
  57 C :   -0.039184
  58 C :    0.020295
  59 C :    0.029777
  60 C :   -0.098115
  61 C :    0.251274
  62 C :   -0.297053
  63 C :   -0.173854
  64 N :    0.148871
  65 C :   -0.201267
  66 N :    0.161362
  67 C :    0.014451
  68 C :   -0.011512
  69 C :    0.140963
  70 O :   -0.140487
  71 C :   -0.065957
  72 C :    0.107549
  73 C :   -0.090285
  74 C :   -0.024594
  75 S :    0.137054
  76 C :   -0.051596
  77 C :    0.027767
  78 H :   -0.001889
  79 H :    0.000623
  80 H :    0.044625
  81 H :   -0.000511
  82 H :    0.046806
  83 H :    0.014837
  84 H :    0.000326
  85 H :   -0.013461
  86 H :    0.030259
  87 H :    0.001108
  88 H :   -0.003448
  89 H :    0.054386
  90 H :    0.047488
  91 H :    0.010577
  92 H :   -0.000808
  93 H :    0.002318
  94 H :    0.039329
  95 H :    0.014442
  96 H :   -0.011239
  97 H :   -0.003247
  98 H :    0.037097
  99 H :   -0.007966
Sum of atomic charges:   -0.0000000

LOEWDIN ATOMIC CHARGES
----------------------
   0 C :    0.077103
   1 C :   -0.129919
   2 C :   -0.020859
   3 N :   -0.035505
   4 C :   -0.009297
   5 N :   -0.056417
   6 C :   -0.024717
   7 C :   -0.049105
   8 C :    0.026637
   9 C :   -0.028477
  10 C :   -0.144039
  11 C :   -0.004817
  12 S :    0.436740
  13 C :   -0.142974
  14 C :   -0.056234
  15 C :    0.081112
  16 O :   -0.097287
  17 C :   -0.024854
  18 C :    0.029232
  19 C :    0.055451
  20 N :   -0.065121
  21 C :    0.045663
  22 C :   -0.049294
  23 C :    0.068489
  24 O :   -0.126203
  25 C :   -0.035872
  26 C :    0.038185
  27 N :   -0.091776
  28 C :    0.084331
  29 C :   -0.027214
  30 C :   -0.022678
  31 C :   -0.020888
  32 C :    0.014912
  33 C :   -0.003086
  34 C :   -0.019976
  35 C :    0.022030
  36 C :   -0.034349
  37 C :    0.020599
  38 C :    0.019940
  39 N :   -0.067279
  40 C :    0.053580
  41 C :    0.043288
  42 N :   -0.061720
  43 F :   -0.032419
  44 F :   -0.028557
  45 C :    0.082434
  46 N :   -0.099922
  47 C :    0.046292
  48 C :   -0.027107
  49 C :    0.079381
  50 O :   -0.140070
  51 C :   -0.037639
  52 C :    0.025367
  53 N :   -0.095215
  54 C :    0.076378
  55 C :   -0.031215
  56 C :   -0.025582
  57 C :    0.001947
  58 C :    0.000616
  59 C :    0.059645
  60 C :   -0.073613
  61 C :    0.065535
  62 C :   -0.118604
  63 C :   -0.012642
  64 N :   -0.050851
  65 C :   -0.017342
  66 N :   -0.053079
  67 C :   -0.016942
  68 C :   -0.056271
  69 C :    0.082023
  70 O :   -0.141600
  71 C :    0.023466
  72 C :   -0.037105
  73 C :   -0.144132
  74 C :   -0.011674
  75 S :    0.427448
  76 C :   -0.151436
  77 C :   -0.057743
  78 H :    0.044151
  79 H :    0.042229
  80 H :    0.031874
  81 H :    0.037770
  82 H :    0.048764
  83 H :    0.025824
  84 H :    0.036755
  85 H :    0.028775
  86 H :    0.038056
  87 H :    0.036718
  88 H :    0.036758
  89 H :    0.046160
  90 H :    0.051126
  91 H :    0.024152
  92 H :    0.036233
  93 H :    0.034338
  94 H :    0.034237
  95 H :    0.044285
  96 H :    0.040325
  97 H :    0.040914
  98 H :    0.028658
  99 H :    0.034793

  Mayer bond orders larger than 0.100000
B(  0-C ,  1-C ) :   1.6726 B(  0-C ,  6-C ) :   1.0280 B(  0-C , 17-C ) :   1.0120
B(  1-C ,  2-C ) :   1.1266 B(  1-C ,  4-C ) :   1.1392 B(  2-C ,  3-N ) :   2.9922
B(  4-C ,  5-N ) :   2.9682 B(  6-C ,  7-C ) :   1.2568 B(  6-C , 11-C ) :   1.4012
B(  7-C ,  8-C ) :   1.4266 B(  7-C , 15-C ) :   0.9250 B(  8-C ,  9-C ) :   1.2565
B(  8-C , 78-H ) :   1.0157 B(  9-C , 10-C ) :   1.2887 B(  9-C , 14-C ) :   1.1772
B( 10-C , 11-C ) :   1.3347 B( 10-C , 12-S ) :   1.0991 B( 11-C , 79-H ) :   0.9858
B( 12-S , 13-C ) :   1.1296 B( 13-C , 14-C ) :   1.6251 B( 13-C , 80-H ) :   0.9682
B( 14-C , 81-H ) :   0.9999 B( 15-C , 16-O ) :   2.3016 B( 15-C , 17-C ) :   0.8900
B( 17-C , 18-C ) :   1.7757 B( 18-C , 19-C ) :   1.0539 B( 18-C , 82-H ) :   0.9259
B( 19-C , 20-N ) :   1.6438 B( 19-C , 21-C ) :   0.1184 B( 19-C , 30-C ) :   1.0119
B( 20-N , 21-C ) :   1.3075 B( 21-C , 22-C ) :   1.0587 B( 21-C , 26-C ) :   1.4491
B( 22-C , 23-C ) :   0.8948 B( 22-C , 30-C ) :   1.5484 B( 23-C , 24-O ) :   2.2151
B( 23-C , 25-C ) :   0.9160 B( 25-C , 26-C ) :   1.0577 B( 25-C , 29-C ) :   1.6309
B( 26-C , 27-N ) :   1.2957 B( 27-N , 28-C ) :   1.6764 B( 28-C , 29-C ) :   1.0471
B( 28-C , 83-H ) :   0.9885 B( 29-C , 84-H ) :   1.0101 B( 30-C , 31-C ) :   1.1326
B( 31-C , 32-C ) :   1.6469 B( 31-C , 85-H ) :   0.9500 B( 32-C , 33-C ) :   1.1168
B( 32-C , 86-H ) :   0.9563 B( 33-C , 34-C ) :   1.6687 B( 33-C , 38-C ) :   0.9227
B( 34-C , 35-C ) :   1.1351 B( 34-C , 87-H ) :   0.9734 B( 35-C , 36-C ) :   1.6436
B( 35-C , 88-H ) :   0.9761 B( 36-C , 37-C ) :   0.9840 B( 36-C , 45-C ) :   1.1204
B( 37-C , 38-C ) :   0.9862 B( 37-C , 42-N ) :   1.0410 B( 37-C , 89-H ) :   0.8773
B( 38-C , 39-N ) :   1.0184 B( 38-C , 90-H ) :   0.8840 B( 39-N , 40-C ) :   1.9371
B( 40-C , 41-C ) :   0.9298 B( 40-C , 44-F ) :   1.1672 B( 41-C , 42-N ) :   1.9537
B( 41-C , 43-F ) :   1.1655 B( 45-C , 46-N ) :   1.5750 B( 45-C , 47-C ) :   0.1169
B( 45-C , 56-C ) :   1.0215 B( 46-N , 47-C ) :   1.3663 B( 47-C , 48-C ) :   1.0608
B( 47-C , 52-C ) :   1.4071 B( 48-C , 49-C ) :   0.8893 B( 48-C , 56-C ) :   1.5666
B( 49-C , 50-O ) :   2.1395 B( 49-C , 51-C ) :   0.9413 B( 51-C , 52-C ) :   1.0653
B( 51-C , 55-C ) :   1.5956 B( 52-C , 53-N ) :   1.3252 B( 53-N , 54-C ) :   1.6436
B( 54-C , 55-C ) :   1.0766 B( 54-C , 91-H ) :   0.9892 B( 55-C , 92-H ) :   1.0118
B( 56-C , 57-C ) :   1.0879 B( 57-C , 58-C ) :   1.6744 B( 57-C , 93-H ) :   0.9750
B( 58-C , 59-C ) :   1.0950 B( 58-C , 94-H ) :   0.9307 B( 59-C , 60-C ) :   1.6581
B( 59-C , 95-H ) :   0.9643 B( 60-C , 61-C ) :   1.0246 B( 60-C , 69-C ) :   0.9306
B( 61-C , 62-C ) :   1.6752 B( 61-C , 67-C ) :   1.0159 B( 62-C , 63-C ) :   1.1356
B( 62-C , 65-C ) :   1.1551 B( 63-C , 64-N ) :   2.9886 B( 65-C , 66-N ) :   2.9917
B( 67-C , 68-C ) :   1.2665 B( 67-C , 74-C ) :   1.4200 B( 68-C , 69-C ) :   0.9245
B( 68-C , 71-C ) :   1.4269 B( 69-C , 70-O ) :   2.2771 B( 71-C , 72-C ) :   1.2566
B( 71-C , 96-H ) :   1.0150 B( 72-C , 73-C ) :   1.3020 B( 72-C , 77-C ) :   1.1719
B( 73-C , 74-C ) :   1.3203 B( 73-C , 75-S ) :   1.0961 B( 74-C , 97-H ) :   0.9863
B( 75-S , 76-C ) :   1.1251 B( 76-C , 77-C ) :   1.6297 B( 76-C , 98-H ) :   0.9689
B( 77-C , 99-H ) :   0.9995

-----------------------------------------------------------------------------
         ABSORPTION SPECTRUM VIA TRANSITION ELECTRIC DIPOLE MOMENTS
-----------------------------------------------------------------------------
State   Energy  Wavelength   fosc         T2         TX        TY        TZ
        (cm-1)    (nm)                  (au**2)     (au)      (au)      (au)
-----------------------------------------------------------------------------
   0   13909.6    718.9   0.174311320   4.12561   1.73723  -0.52491  -0.91220
   1   17511.0    571.1   0.147519379   2.77340  -1.34557   0.74394   0.63984
   2   18058.0    553.8   1.044427047  19.04075   3.34589   0.95407  -2.63354
   3   20369.3    490.9   0.003525117   0.05697   0.15156  -0.16296   0.08629
   4   21911.7    456.4   0.009654281   0.14505  -0.36151   0.04279   0.11193
   5   22572.8    443.0   0.083277973   1.21457  -0.48854   0.97867  -0.13454
   6   22749.6    439.6   0.300707542   4.35157  -1.46799   1.38881   0.51748
   7   23362.0    428.0   0.000827623   0.01166  -0.06669  -0.07408   0.04156
   8   23670.2    422.5   0.181066153   2.51832  -1.32651   0.67343   0.55244
   9   23949.0    417.6   0.045408908   0.62421   0.38228  -0.34768  -0.59765
  10   24378.3    410.2   0.219675736   2.96657  -0.43716   1.65467  -0.19373
  11   24568.4    407.0   0.035156794   0.47109  -0.51458  -0.22867   0.39245
  12   24880.5    401.9   0.047807695   0.63258   0.42101  -0.66407  -0.11972
  13   25270.5    395.7   0.004361590   0.05682   0.10213   0.16060  -0.14351
  14   25354.3    394.4   0.101741678   1.32106  -0.70754  -0.51553   0.74477
  15   25623.5    390.3   0.009829421   0.12629   0.26741  -0.23007  -0.04301
  16   25787.1    387.8   0.161939818   2.06741  -0.97446   1.05700   0.02431
  17   26209.0    381.5   0.029361670   0.36881   0.26039   0.42808  -0.34315
  18   26667.5    375.0   0.385804328   4.76277  -0.80904   2.01198  -0.24529
  19   26920.8    371.5   0.008237275   0.10073   0.06842   0.19980  -0.23692
  20   27388.3    365.1   0.234499278   2.81872   0.16024  -1.56043   0.59841
  21   27569.8    362.7   0.038613314   0.46108   0.08051  -0.62931  -0.24202
  22   27625.1    362.0   0.009242584   0.11015   0.26036  -0.00188  -0.20580
  23   28686.7    348.6   0.009888924   0.11349  -0.08545   0.31857   0.06856
  24   28848.0    346.6   0.071481908   0.81575   0.61867  -0.65681  -0.03998
  25   29083.6    343.8   0.099352483   1.12462  -0.77620   0.71131   0.12715
  26   29347.4    340.7   0.065986828   0.74023  -0.11232   0.83170   0.18943
  27   29527.3    338.7   0.036347438   0.40525   0.21361   0.23016  -0.55376
  28   29933.0    334.1   0.011926295   0.13117  -0.28491  -0.02936   0.22166
  29   30041.0    332.9   0.018387763   0.20151   0.17325   0.28910  -0.29650
  30   30579.7    327.0   0.069271456   0.74576  -0.18335  -0.82665   0.16967
  31   30777.5    324.9   0.091217828   0.97571  -0.09419  -0.95527  -0.23303
  32   30882.9    323.8   0.049385480   0.52645  -0.45856  -0.44921   0.33820
  33   30913.9    323.5   0.073425930   0.78194   0.71043   0.17208  -0.49761
  34   31084.0    321.7   0.255113927   2.70192  -0.59254  -1.46625   0.44826
  35   31106.3    321.5   0.197237335   2.08745  -0.96993   0.90113   0.57849
  36   31361.8    318.9   0.151668211   1.59210   0.24640   1.04662  -0.66028
  37   32069.1    311.8   0.128686426   1.32106   0.01761  -1.13697  -0.16744
  38   32346.8    309.1   0.190235706   1.93614   0.14027   1.24291  -0.60961
  39   32451.4    308.2   0.014702344   0.14915   0.02586  -0.35377  -0.15273
  40   32761.9    305.2   0.008650464   0.08693   0.17428   0.08090  -0.22362
  41   32916.8    303.8   0.044763332   0.44769  -0.23596  -0.45483   0.43029
  42   33055.6    302.5   0.005855622   0.05832   0.08478  -0.21868  -0.05754
  43   33577.0    297.8   0.055940775   0.54848  -0.46227   0.39734   0.42060
  44   33692.5    296.8   0.188206212   1.83898   0.40492   1.29288   0.05908
  45   34140.3    292.9   0.129707201   1.25076  -0.92029  -0.23544   0.59024
  46   34309.2    291.5   0.009653559   0.09263  -0.13474  -0.26532  -0.06389
  47   34315.4    291.4   0.194856978   1.86940   1.14484  -0.14065  -0.73415
  48   34478.8    290.0   0.068540167   0.65444   0.08980   0.78189   0.18716
  49   34551.4    289.4   0.292955876   2.79134  -0.14853  -1.59038  -0.48987
  50   34873.8    286.7   0.039787770   0.37560   0.06343   0.60827  -0.03988
  51   34968.3    286.0   0.038613990   0.36353   0.45264  -0.10752  -0.38353
  52   35129.0    284.7   0.019613762   0.18381  -0.23671  -0.34842   0.07989
  53   35343.1    282.9   0.053608546   0.49935   0.32379   0.56970  -0.26448
  54   35650.4    280.5   0.064398094   0.59468  -0.21563   0.74038  -0.00413
  55   35785.2    279.4   0.011703546   0.10767   0.22148  -0.23626   0.05289
  56   35933.6    278.3   0.023110403   0.21173   0.26490   0.22973  -0.29796
  57   36136.8    276.7   0.007241105   0.06597  -0.25224  -0.03396   0.03447
  58   36165.3    276.5   0.147254768   1.34046   0.84632   0.49922  -0.61236
  59   36258.5    275.8   0.052237304   0.47429  -0.17802  -0.59293   0.30173
  60   36411.1    274.6   0.004964732   0.04489  -0.12096  -0.11212   0.13299
  61   36579.4    273.4   0.004579151   0.04121   0.13915  -0.10518  -0.10386
  62   36902.9    271.0   0.033120746   0.29547   0.50811  -0.15079  -0.12067
  63   37044.2    269.9   0.014058016   0.12493  -0.21310   0.27365  -0.06812
  64   37319.5    268.0   0.015576296   0.13741   0.18141  -0.24362  -0.21247
  65   37462.5    266.9   0.165717764   1.45629   1.03048   0.39766  -0.48607
  66   37608.6    265.9   0.158690849   1.38912  -0.95914   0.68267   0.05594
  67   37680.2    265.4   0.037226749   0.32525  -0.35194  -0.29563   0.33763
  68   37906.1    263.8   0.006172121   0.05360   0.20828   0.01304   0.10026
  69   38060.6    262.7   0.005369155   0.04644   0.03078   0.20660   0.05302
  70   38095.8    262.5   0.045650982   0.39450   0.43932  -0.35620  -0.27316
  71   38148.2    262.1   0.021657951   0.18690   0.13936   0.40798   0.03219
  72   38232.6    261.6   0.043438037   0.37403   0.42469  -0.39096  -0.20205
  73   38551.0    259.4   0.000504812   0.00431  -0.02929   0.05327   0.02481
  74   38625.9    258.9   0.010977589   0.09356   0.27362   0.04461  -0.12924
  75   38814.3    257.6   0.014657864   0.12432  -0.21892  -0.09582   0.25927
  76   38919.0    256.9   0.011300043   0.09559  -0.29138   0.04133   0.09474
  77   38947.7    256.8   0.059615907   0.50391  -0.28124  -0.56344   0.32765
  78   39276.1    254.6   0.009914121   0.08310  -0.16836   0.23203  -0.03023
  79   39499.1    253.2   0.146424509   1.22040  -0.94822  -0.33413   0.45787
  80   39518.9    253.0   0.019258790   0.16044  -0.18646  -0.27358   0.22544
  81   40005.4    250.0   0.008557596   0.07042   0.10110   0.19419  -0.14997
  82   40021.2    249.9   0.087955784   0.72352  -0.51355  -0.44422   0.51231
  83   40096.8    249.4   0.048488177   0.39811   0.56395  -0.07941  -0.27160
  84   40208.3    248.7   0.082114284   0.67232  -0.16891   0.72067  -0.35275
  85   40326.9    248.0   0.007690487   0.06278  -0.20488  -0.13625   0.04735

FINAL SINGLE POINT ENERGY     -4139.404698465060

DIPOLE MOMENT
-------------
                                X             Y             Z
Electronic contribution:      5.59291      16.48900      11.36191
Nuclear contribution   :     -9.15078     -19.10665     -10.49129
                        -----------------------------------------
Total Dipole Moment    :     -3.55786      -2.61765       0.87063
                        -----------------------------------------
Magnitude (a.u.)       :      4.50205
Magnitude (Debye)      :     11.44331

Rotational constants in cm-1:     0.000854     0.000365     0.000266
Rotational constants in MHz :    25.605762    10.936028     7.981824

                             ****ORCA TERMINATED NORMALLY****
TOTAL RUN TIME: 0 days 0 hours 11 minutes 12 seconds 974 msec
