                         Program Version 4.2.0 -  RELEASE  -
|  1> # ORCA input file
|  2> # SCF done       -142.643712486104          0.000773982807
|  3> ! CAM-B3LYP def2-SVP def2/J RIJCOSX Grid4 TightSCF
|  4> %maxcore 5000
|  5> %tddft
|  6>     Mode sTDDFT
|  7>     Ethresh 5.0
|  8>     maxcore 5000
|  9> end
| 10>
| 11> %pal
| 12>   nprocs 6
| 13>   end
| 14> * xyz 0 1
| 15>    C       -8.96666        -3.08135         3.75814
| 16>    C       -9.11384        -3.95709         2.70966
| 17>    C       -9.15241        -5.35935         2.84729
| 18>    N       -9.19383        -6.50659         2.88566
| 19>    C       -9.23331        -3.60256         1.35114
| 20>    N       -9.33071        -3.40467         0.22319
| 21>    C       -8.81308        -3.46558         5.15801
| 22>    C       -8.63351        -2.29384         5.93396
| 23>    C       -8.46317        -2.32600         7.29641
| 24>    C       -8.47371        -3.57383         7.92726
| 25>    C       -8.65478        -4.73858         7.14518
| 26>    C       -8.82415        -4.70662         5.76574
| 27>    S       -8.63918        -6.16668         8.13265
| 28>    C       -8.39513        -5.21069         9.55381
| 29>    C       -8.32735        -3.88417         9.30886
| 30>    C       -8.67326        -1.11175         5.05237
| 31>    O       -8.53859         0.04536         5.39905
| 32>    C       -8.91377        -1.63699         3.68864
| 33>    C       -9.09091        -0.86174         2.57022
| 34>    C       -9.03544         0.54212         2.54541
| 35>    C       -9.25001         1.26073         1.40224
| 36>    C       -9.19865         2.66643         1.35409
| 37>    C       -9.43088         3.38901         0.22100
| 38>    C       -9.38332         4.79659         0.13213
| 39>    N       -9.65782         5.45011        -1.05513
| 40>    C       -9.53684         6.78696        -0.85487
| 41>    C       -9.63645         8.03124        -1.46239
| 42>    C       -9.32562         8.97663        -0.47136
| 43>    N       -9.04166         8.32123         0.70984
| 44>    C       -9.16901         6.98562         0.50527
| 45>    C       -9.07497         5.74663         1.12049
| 46>    C       -9.30126        10.38231        -0.61563
| 47>    C       -8.96149        11.27849         0.35282
| 48>    C       -8.98392        12.67659         0.16806
| 49>    C       -8.65177        13.56664         1.14666
| 50>    C       -8.74019        14.96413         0.99908
| 51>    C       -8.39472        15.84290         1.98551
| 52>    C       -8.44053        17.24942         1.90280
| 53>    C       -9.13166        18.08103         1.06317
| 54>    C      -10.25576        17.90295         0.17575
| 55>    C      -11.26237        16.97462         0.29069
| 56>    C      -12.37549        16.90669        -0.56918
| 57>    N      -13.29047        16.78894        -1.25384
| 58>    C      -11.34466        16.02439         1.32550
| 59>    N      -11.47875        15.24798         2.16110
| 60>    C      -10.28562        19.05143        -0.72765
| 61>    C       -9.35276        20.01523        -0.26780
| 62>    C       -8.65337        19.48173         0.91568
| 63>    O       -7.82958        20.04128         1.60588
| 64>    C       -9.17739        21.22732        -0.88957
| 65>    C       -9.94937        21.49718        -2.02414
| 66>    C      -10.86650        20.52280        -2.48360
| 67>    C      -11.05097        19.29887        -1.84985
| 68>    S      -11.70143        21.06662        -3.90492
| 69>    C      -10.83740        22.56519        -3.86893
| 70>    C       -9.96135        22.66010        -2.84552
| 71>    H       -8.32806        -1.41444         7.85789
| 72>    H       -8.96042        -5.62328         5.21677
| 73>    H       -8.31736        -5.71064        10.49969
| 74>    H       -8.18040        -3.13813        10.06883
| 75>    H       -9.29933        -1.35329         1.62846
| 76>    H       -8.81857         1.06047         3.46763
| 77>    H       -9.47226         0.73090         0.48328
| 78>    H       -8.96422         3.18317         2.27350
| 79>    H       -9.67428         2.85644        -0.69078
| 80>    H       -9.90860         4.98943        -1.91310
| 81>    H       -9.89370         8.26047        -2.47685
| 82>    H       -8.80955         8.77385         1.57587
| 83>    H       -8.81973         5.53154         2.13766
| 84>    H       -9.58466        10.75346        -1.59102
| 85>    H       -8.66141        10.92961         1.33237
| 86>    H       -9.29965        13.04837        -0.79837
| 87>    H       -8.33354        13.19103         2.11055
| 88>    H       -9.06717        15.34105         0.03830
| 89>    H       -7.96987        15.43635         2.89453
| 90>    H       -7.76730        17.78090         2.57081
| 91>    H       -8.46662        21.94571        -0.51162
| 92>    H      -11.75875        18.58621        -2.23996
| 93>    H      -11.04303        23.29287        -4.62971
| 94>    H       -9.33756        23.51665        -2.66414
| 95> *
| 96>
| 97>                          ****END OF INPUT****

CARTESIAN COORDINATES (ANGSTROEM)
---------------------------------
  C     -8.966660   -3.081350    3.758140
  C     -9.113840   -3.957090    2.709660
  C     -9.152410   -5.359350    2.847290
  N     -9.193830   -6.506590    2.885660
  C     -9.233310   -3.602560    1.351140
  N     -9.330710   -3.404670    0.223190
  C     -8.813080   -3.465580    5.158010
  C     -8.633510   -2.293840    5.933960
  C     -8.463170   -2.326000    7.296410
  C     -8.473710   -3.573830    7.927260
  C     -8.654780   -4.738580    7.145180
  C     -8.824150   -4.706620    5.765740
  S     -8.639180   -6.166680    8.132650
  C     -8.395130   -5.210690    9.553810
  C     -8.327350   -3.884170    9.308860
  C     -8.673260   -1.111750    5.052370
  O     -8.538590    0.045360    5.399050
  C     -8.913770   -1.636990    3.688640
  C     -9.090910   -0.861740    2.570220
  C     -9.035440    0.542120    2.545410
  C     -9.250010    1.260730    1.402240
  C     -9.198650    2.666430    1.354090
  C     -9.430880    3.389010    0.221000
  C     -9.383320    4.796590    0.132130
  N     -9.657820    5.450110   -1.055130
  C     -9.536840    6.786960   -0.854870
  C     -9.636450    8.031240   -1.462390
  C     -9.325620    8.976630   -0.471360
  N     -9.041660    8.321230    0.709840
  C     -9.169010    6.985620    0.505270
  C     -9.074970    5.746630    1.120490
  C     -9.301260   10.382310   -0.615630
  C     -8.961490   11.278490    0.352820
  C     -8.983920   12.676590    0.168060
  C     -8.651770   13.566640    1.146660
  C     -8.740190   14.964130    0.999080
  C     -8.394720   15.842900    1.985510
  C     -8.440530   17.249420    1.902800
  C     -9.131660   18.081030    1.063170
  C    -10.255760   17.902950    0.175750
  C    -11.262370   16.974620    0.290690
  C    -12.375490   16.906690   -0.569180
  N    -13.290470   16.788940   -1.253840
  C    -11.344660   16.024390    1.325500
  N    -11.478750   15.247980    2.161100
  C    -10.285620   19.051430   -0.727650
  C     -9.352760   20.015230   -0.267800
  C     -8.653370   19.481730    0.915680
  O     -7.829580   20.041280    1.605880
  C     -9.177390   21.227320   -0.889570
  C     -9.949370   21.497180   -2.024140
  C    -10.866500   20.522800   -2.483600
  C    -11.050970   19.298870   -1.849850
  S    -11.701430   21.066620   -3.904920
  C    -10.837400   22.565190   -3.868930
  C     -9.961350   22.660100   -2.845520
  H     -8.328060   -1.414440    7.857890
  H     -8.960420   -5.623280    5.216770
  H     -8.317360   -5.710640   10.499690
  H     -8.180400   -3.138130   10.068830
  H     -9.299330   -1.353290    1.628460
  H     -8.818570    1.060470    3.467630
  H     -9.472260    0.730900    0.483280
  H     -8.964220    3.183170    2.273500
  H     -9.674280    2.856440   -0.690780
  H     -9.908600    4.989430   -1.913100
  H     -9.893700    8.260470   -2.476850
  H     -8.809550    8.773850    1.575870
  H     -8.819730    5.531540    2.137660
  H     -9.584660   10.753460   -1.591020
  H     -8.661410   10.929610    1.332370
  H     -9.299650   13.048370   -0.798370
  H     -8.333540   13.191030    2.110550
  H     -9.067170   15.341050    0.038300
  H     -7.969870   15.436350    2.894530
  H     -7.767300   17.780900    2.570810
  H     -8.466620   21.945710   -0.511620
  H    -11.758750   18.586210   -2.239960
  H    -11.043030   23.292870   -4.629710
  H     -9.337560   23.516650   -2.664140

 Total Charge           Charge          ....    0
 Multiplicity           Mult            ....    1
 Number of Electrons    NEL             ....  390
 Basis Dimension        Dim             ....  912

ORBITAL ENERGIES
----------------

  NO   OCC          E(Eh)            E(eV)
   0   2.0000     -88.962235     -2420.7855
   1   2.0000     -88.959548     -2420.7124
   2   2.0000     -19.205199      -522.6000
   3   2.0000     -19.204938      -522.5929
   4   2.0000     -14.473489      -393.8437
   5   2.0000     -14.469965      -393.7478
   6   2.0000     -14.409227      -392.0950
   7   2.0000     -14.408206      -392.0672
   8   2.0000     -14.406388      -392.0178
   9   2.0000     -14.403819      -391.9478
  10   2.0000     -10.355987      -281.8007
  11   2.0000     -10.355459      -281.7864
  12   2.0000     -10.334974      -281.2289
  13   2.0000     -10.333528      -281.1896
  14   2.0000     -10.329940      -281.0920
  15   2.0000     -10.328829      -281.0617
  16   2.0000     -10.321382      -280.8591
  17   2.0000     -10.321153      -280.8529
  18   2.0000     -10.315691      -280.7042
  19   2.0000     -10.312730      -280.6236
  20   2.0000     -10.312348      -280.6133
  21   2.0000     -10.310485      -280.5626
  22   2.0000     -10.310086      -280.5517
  23   2.0000     -10.309982      -280.5489
  24   2.0000     -10.309712      -280.5415
  25   2.0000     -10.309642      -280.5396
  26   2.0000     -10.307602      -280.4841
  27   2.0000     -10.307455      -280.4801
  28   2.0000     -10.305381      -280.4237
  29   2.0000     -10.303609      -280.3755
  30   2.0000     -10.302116      -280.3348
  31   2.0000     -10.300740      -280.2974
  32   2.0000     -10.298941      -280.2484
  33   2.0000     -10.298663      -280.2409
  34   2.0000     -10.297745      -280.2159
  35   2.0000     -10.296971      -280.1948
  36   2.0000     -10.296703      -280.1875
  37   2.0000     -10.296295      -280.1764
  38   2.0000     -10.294696      -280.1329
  39   2.0000     -10.294145      -280.1179
  40   2.0000     -10.293688      -280.1055
  41   2.0000     -10.293411      -280.0980
  42   2.0000     -10.290005      -280.0053
  43   2.0000     -10.288269      -279.9580
  44   2.0000     -10.286014      -279.8967
  45   2.0000     -10.285001      -279.8691
  46   2.0000     -10.284527      -279.8562
  47   2.0000     -10.284146      -279.8458
  48   2.0000     -10.283076      -279.8167
  49   2.0000     -10.282602      -279.8038
  50   2.0000     -10.282191      -279.7926
  51   2.0000     -10.281519      -279.7744
  52   2.0000     -10.281398      -279.7711
  53   2.0000     -10.280716      -279.7525
  54   2.0000     -10.280290      -279.7409
  55   2.0000     -10.272462      -279.5279
  56   2.0000      -8.058542      -219.2841
  57   2.0000      -8.055731      -219.2076
  58   2.0000      -6.028063      -164.0319
  59   2.0000      -6.025253      -163.9555
  60   2.0000      -6.023764      -163.9150
  61   2.0000      -6.020955      -163.8385
  62   2.0000      -6.020183      -163.8175
  63   2.0000      -6.017406      -163.7419
  64   2.0000      -1.119808       -30.4715
  65   2.0000      -1.118586       -30.4383
  66   2.0000      -1.104607       -30.0579
  67   2.0000      -1.067931       -29.0599
  68   2.0000      -1.013553       -27.5802
  69   2.0000      -1.009937       -27.4818
  70   2.0000      -1.002472       -27.2787
  71   2.0000      -0.999680       -27.2027
  72   2.0000      -0.987376       -26.8679
  73   2.0000      -0.983885       -26.7729
  74   2.0000      -0.978088       -26.6151
  75   2.0000      -0.974795       -26.5255
  76   2.0000      -0.935860       -25.4660
  77   2.0000      -0.932050       -25.3624
  78   2.0000      -0.924482       -25.1564
  79   2.0000      -0.919453       -25.0196
  80   2.0000      -0.910549       -24.7773
  81   2.0000      -0.900537       -24.5049
  82   2.0000      -0.891595       -24.2615
  83   2.0000      -0.883596       -24.0439
  84   2.0000      -0.878242       -23.8982
  85   2.0000      -0.875867       -23.8336
  86   2.0000      -0.873541       -23.7703
  87   2.0000      -0.871727       -23.7209
  88   2.0000      -0.860030       -23.4026
  89   2.0000      -0.838099       -22.8058
  90   2.0000      -0.822363       -22.3776
  91   2.0000      -0.817633       -22.2489
  92   2.0000      -0.814709       -22.1694
  93   2.0000      -0.796536       -21.6748
  94   2.0000      -0.782218       -21.2852
  95   2.0000      -0.762759       -20.7557
  96   2.0000      -0.750515       -20.4226
  97   2.0000      -0.746680       -20.3182
  98   2.0000      -0.738492       -20.0954
  99   2.0000      -0.717878       -19.5345
 100   2.0000      -0.707283       -19.2461
 101   2.0000      -0.704981       -19.1835
 102   2.0000      -0.699392       -19.0314
 103   2.0000      -0.685637       -18.6571
 104   2.0000      -0.681051       -18.5323
 105   2.0000      -0.680615       -18.5205
 106   2.0000      -0.673924       -18.3384
 107   2.0000      -0.668408       -18.1883
 108   2.0000      -0.662017       -18.0144
 109   2.0000      -0.658506       -17.9189
 110   2.0000      -0.655105       -17.8263
 111   2.0000      -0.651219       -17.7206
 112   2.0000      -0.647935       -17.6312
 113   2.0000      -0.644879       -17.5481
 114   2.0000      -0.624388       -16.9905
 115   2.0000      -0.613386       -16.6911
 116   2.0000      -0.610387       -16.6095
 117   2.0000      -0.606097       -16.4927
 118   2.0000      -0.599002       -16.2997
 119   2.0000      -0.594266       -16.1708
 120   2.0000      -0.586568       -15.9613
 121   2.0000      -0.584440       -15.9034
 122   2.0000      -0.576773       -15.6948
 123   2.0000      -0.569525       -15.4976
 124   2.0000      -0.559997       -15.2383
 125   2.0000      -0.556066       -15.1313
 126   2.0000      -0.549252       -14.9459
 127   2.0000      -0.547350       -14.8942
 128   2.0000      -0.542801       -14.7704
 129   2.0000      -0.541725       -14.7411
 130   2.0000      -0.532567       -14.4919
 131   2.0000      -0.531997       -14.4764
 132   2.0000      -0.529866       -14.4184
 133   2.0000      -0.528303       -14.3759
 134   2.0000      -0.527672       -14.3587
 135   2.0000      -0.525130       -14.2895
 136   2.0000      -0.522233       -14.2107
 137   2.0000      -0.516744       -14.0613
 138   2.0000      -0.508413       -13.8346
 139   2.0000      -0.506819       -13.7912
 140   2.0000      -0.498375       -13.5615
 141   2.0000      -0.495936       -13.4951
 142   2.0000      -0.493475       -13.4281
 143   2.0000      -0.492636       -13.4053
 144   2.0000      -0.489985       -13.3332
 145   2.0000      -0.489051       -13.3078
 146   2.0000      -0.486609       -13.2413
 147   2.0000      -0.484319       -13.1790
 148   2.0000      -0.482449       -13.1281
 149   2.0000      -0.482103       -13.1187
 150   2.0000      -0.479240       -13.0408
 151   2.0000      -0.473345       -12.8804
 152   2.0000      -0.467951       -12.7336
 153   2.0000      -0.462886       -12.5958
 154   2.0000      -0.459345       -12.4994
 155   2.0000      -0.457925       -12.4608
 156   2.0000      -0.454508       -12.3678
 157   2.0000      -0.449024       -12.2186
 158   2.0000      -0.447029       -12.1643
 159   2.0000      -0.446990       -12.1632
 160   2.0000      -0.444654       -12.0996
 161   2.0000      -0.443641       -12.0721
 162   2.0000      -0.442857       -12.0508
 163   2.0000      -0.439828       -11.9683
 164   2.0000      -0.437661       -11.9094
 165   2.0000      -0.435791       -11.8585
 166   2.0000      -0.433734       -11.8025
 167   2.0000      -0.427894       -11.6436
 168   2.0000      -0.426513       -11.6060
 169   2.0000      -0.425408       -11.5759
 170   2.0000      -0.424523       -11.5518
 171   2.0000      -0.421157       -11.4603
 172   2.0000      -0.419406       -11.4126
 173   2.0000      -0.416947       -11.3457
 174   2.0000      -0.412553       -11.2261
 175   2.0000      -0.411232       -11.1902
 176   2.0000      -0.400827       -10.9070
 177   2.0000      -0.398632       -10.8473
 178   2.0000      -0.397275       -10.8104
 179   2.0000      -0.383583       -10.4378
 180   2.0000      -0.376402       -10.2424
 181   2.0000      -0.370614       -10.0849
 182   2.0000      -0.364297        -9.9130
 183   2.0000      -0.354008        -9.6330
 184   2.0000      -0.335940        -9.1414
 185   2.0000      -0.326334        -8.8800
 186   2.0000      -0.324577        -8.8322
 187   2.0000      -0.308512        -8.3950
 188   2.0000      -0.306684        -8.3453
 189   2.0000      -0.305047        -8.3008
 190   2.0000      -0.299511        -8.1501
 191   2.0000      -0.290591        -7.9074
 192   2.0000      -0.286352        -7.7920
 193   2.0000      -0.268847        -7.3157
 194   2.0000      -0.226260        -6.1569
 195   0.0000      -0.101429        -2.7600
 196   0.0000      -0.083602        -2.2749
 197   0.0000      -0.057780        -1.5723
 198   0.0000      -0.050784        -1.3819
 199   0.0000      -0.027878        -0.7586

MULLIKEN ATOMIC CHARGES
-----------------------
   0 C :    0.327887
   1 C :   -0.358929
   2 C :   -0.187674
   3 N :    0.141386
   4 C :   -0.188985
   5 N :    0.136030
   6 C :    0.015030
   7 C :   -0.013596
   8 C :   -0.068800
   9 C :    0.115833
  10 C :   -0.098013
  11 C :   -0.025081
  12 S :    0.136007
  13 C :   -0.050578
  14 C :    0.023151
  15 C :    0.139526
  16 O :   -0.161917
  17 C :   -0.075662
  18 C :   -0.031196
  19 C :   -0.012351
  20 C :    0.058199
  21 C :   -0.003916
  22 C :    0.022921
  23 C :    0.103812
  24 N :   -0.033300
  25 C :    0.124301
  26 C :   -0.158720
  27 C :    0.087210
  28 N :   -0.036541
  29 C :    0.116363
  30 C :   -0.153672
  31 C :    0.038840
  32 C :   -0.001571
  33 C :    0.035158
  34 C :    0.006785
  35 C :    0.058322
  36 C :   -0.005807
  37 C :    0.051723
  38 C :   -0.131110
  39 C :    0.273174
  40 C :   -0.351711
  41 C :   -0.177600
  42 N :    0.146468
  43 C :   -0.206373
  44 N :    0.167660
  45 C :   -0.000104
  46 C :    0.006539
  47 C :    0.130916
  48 O :   -0.152308
  49 C :   -0.072685
  50 C :    0.109639
  51 C :   -0.091521
  52 C :   -0.029358
  53 S :    0.134294
  54 C :   -0.052657
  55 C :    0.025803
  56 H :   -0.016425
  57 H :   -0.009188
  58 H :    0.035901
  59 H :   -0.008538
  60 H :    0.004820
  61 H :    0.019909
  62 H :    0.003543
  63 H :   -0.001599
  64 H :   -0.019145
  65 H :    0.125414
  66 H :   -0.029043
  67 H :    0.127768
  68 H :   -0.024549
  69 H :   -0.009069
  70 H :   -0.030283
  71 H :   -0.004234
  72 H :   -0.009693
  73 H :    0.011508
  74 H :   -0.003082
  75 H :    0.025445
  76 H :   -0.012770
  77 H :   -0.008134
  78 H :    0.037595
  79 H :   -0.007391
Sum of atomic charges:   -0.0000000

LOEWDIN ATOMIC CHARGES
----------------------
   0 C :    0.076613
   1 C :   -0.150180
   2 C :   -0.018404
   3 N :   -0.062568
   4 C :   -0.019332
   5 N :   -0.063865
   6 C :   -0.021444
   7 C :   -0.052076
   8 C :    0.020019
   9 C :   -0.036592
  10 C :   -0.146559
  11 C :   -0.010672
  12 S :    0.425339
  13 C :   -0.152066
  14 C :   -0.058950
  15 C :    0.083469
  16 O :   -0.154734
  17 C :   -0.103987
  18 C :    0.064350
  19 C :   -0.043316
  20 C :    0.030852
  21 C :   -0.034714
  22 C :   -0.002029
  23 C :   -0.003674
  24 N :    0.073916
  25 C :   -0.014991
  26 C :   -0.079637
  27 C :    0.002751
  28 N :    0.070132
  29 C :   -0.008645
  30 C :   -0.076078
  31 C :   -0.006854
  32 C :   -0.046531
  33 C :    0.012765
  34 C :   -0.033261
  35 C :    0.041450
  36 C :   -0.051014
  37 C :    0.064715
  38 C :   -0.102049
  39 C :    0.066339
  40 C :   -0.151701
  41 C :   -0.020882
  42 N :   -0.061984
  43 C :   -0.017498
  44 N :   -0.048144
  45 C :   -0.019549
  46 C :   -0.054299
  47 C :    0.081992
  48 O :   -0.150567
  49 C :    0.021846
  50 C :   -0.037578
  51 C :   -0.145840
  52 C :   -0.014588
  53 S :    0.424614
  54 C :   -0.152470
  55 C :   -0.058012
  56 H :    0.038509
  57 H :    0.040002
  58 H :    0.028200
  59 H :    0.034319
  60 H :    0.040241
  61 H :    0.032899
  62 H :    0.033490
  63 H :    0.032222
  64 H :    0.031799
  65 H :    0.092037
  66 H :    0.027893
  67 H :    0.089782
  68 H :    0.028085
  69 H :    0.038968
  70 H :    0.020443
  71 H :    0.032232
  72 H :    0.029666
  73 H :    0.032853
  74 H :    0.033514
  75 H :    0.046417
  76 H :    0.039960
  77 H :    0.039205
  78 H :    0.028588
  79 H :    0.034848

  Mayer bond orders larger than 0.100000
B(  0-C ,  1-C ) :   1.6052 B(  0-C ,  6-C ) :   0.9987 B(  0-C , 17-C ) :   1.0842
B(  1-C ,  2-C ) :   1.1455 B(  1-C ,  4-C ) :   1.1500 B(  2-C ,  3-N ) :   2.9655
B(  4-C ,  5-N ) :   2.9594 B(  6-C ,  7-C ) :   1.2708 B(  6-C , 11-C ) :   1.4147
B(  7-C ,  8-C ) :   1.4282 B(  7-C , 15-C ) :   0.9447 B(  8-C ,  9-C ) :   1.2435
B(  8-C , 56-H ) :   1.0162 B(  9-C , 10-C ) :   1.3060 B(  9-C , 14-C ) :   1.1701
B( 10-C , 11-C ) :   1.3211 B( 10-C , 12-S ) :   1.0966 B( 11-C , 57-H ) :   0.9820
B( 12-S , 13-C ) :   1.1251 B( 13-C , 14-C ) :   1.6282 B( 13-C , 58-H ) :   0.9692
B( 14-C , 59-H ) :   0.9993 B( 15-C , 16-O ) :   2.1902 B( 15-C , 17-C ) :   0.9539
B( 17-C , 18-C ) :   1.5016 B( 18-C , 19-C ) :   1.1931 B( 18-C , 60-H ) :   0.9585
B( 19-C , 20-C ) :   1.4945 B( 19-C , 61-H ) :   0.9870 B( 20-C , 21-C ) :   1.1811
B( 20-C , 62-H ) :   0.9912 B( 21-C , 22-C ) :   1.5752 B( 21-C , 63-H ) :   0.9867
B( 22-C , 23-C ) :   1.1311 B( 22-C , 64-H ) :   0.9727 B( 23-C , 24-N ) :   1.1649
B( 23-C , 30-C ) :   1.3689 B( 24-N , 25-C ) :   1.1757 B( 24-N , 65-H ) :   0.9362
B( 25-C , 26-C ) :   1.2594 B( 25-C , 29-C ) :   1.2851 B( 26-C , 27-C ) :   1.3421
B( 26-C , 66-H ) :   1.0413 B( 27-C , 28-N ) :   1.1934 B( 27-C , 31-C ) :   1.1612
B( 28-N , 29-C ) :   1.1698 B( 28-N , 67-H ) :   0.9316 B( 29-C , 30-C ) :   1.2929
B( 30-C , 68-H ) :   1.0299 B( 31-C , 32-C ) :   1.5708 B( 31-C , 69-H ) :   0.9664
B( 32-C , 33-C ) :   1.1789 B( 32-C , 70-H ) :   0.9799 B( 33-C , 34-C ) :   1.5646
B( 33-C , 71-H ) :   0.9896 B( 34-C , 35-C ) :   1.1972 B( 34-C , 72-H ) :   0.9877
B( 35-C , 36-C ) :   1.5634 B( 35-C , 73-H ) :   0.9705 B( 36-C , 37-C ) :   1.1939
B( 36-C , 74-H ) :   0.9639 B( 37-C , 38-C ) :   1.6047 B( 37-C , 75-H ) :   0.9288
B( 38-C , 39-C ) :   1.0607 B( 38-C , 47-C ) :   0.9536 B( 39-C , 40-C ) :   1.6198
B( 39-C , 45-C ) :   1.0071 B( 40-C , 41-C ) :   1.1305 B( 40-C , 43-C ) :   1.1755
B( 41-C , 42-N ) :   2.9844 B( 43-C , 44-N ) :   2.9932 B( 45-C , 46-C ) :   1.2728
B( 45-C , 52-C ) :   1.4189 B( 46-C , 47-C ) :   0.9210 B( 46-C , 49-C ) :   1.4284
B( 47-C , 48-O ) :   2.2525 B( 49-C , 50-C ) :   1.2467 B( 49-C , 76-H ) :   1.0168
B( 50-C , 51-C ) :   1.3095 B( 50-C , 55-C ) :   1.1714 B( 51-C , 52-C ) :   1.3157
B( 51-C , 53-S ) :   1.0957 B( 52-C , 77-H ) :   0.9866 B( 53-S , 54-C ) :   1.1248
B( 54-C , 55-C ) :   1.6311 B( 54-C , 78-H ) :   0.9683 B( 55-C , 79-H ) :   0.9989

-----------------------------------------------------------------------------
         ABSORPTION SPECTRUM VIA TRANSITION ELECTRIC DIPOLE MOMENTS
-----------------------------------------------------------------------------
State   Energy  Wavelength   fosc         T2         TX        TY        TZ
        (cm-1)    (nm)                  (au**2)     (au)      (au)      (au)
-----------------------------------------------------------------------------
   0   13556.3    737.7   2.725501094  66.18828  -0.46010   8.01095  -1.34214
   1   18394.3    543.6   0.191645451   3.42997  -0.46622  -1.30263   1.23116
   2   23724.6    421.5   0.127572009   1.77024   0.68311   1.13698   0.10429
   3   24478.3    408.5   0.044718415   0.60142  -0.16917   0.64169   0.40129
   4   25256.7    395.9   0.079603478   1.03760  -0.08923  -0.29586  -0.97062
   5   26762.7    373.7   0.135230270   1.66348   0.39919   0.80460  -0.92561
   6   27297.1    366.3   0.113615891   1.37025   0.13313   1.01705   0.56404
   7   28018.9    356.9   0.005859182   0.06884  -0.06798   0.13898  -0.21191
   8   28475.7    351.2   0.285539649   3.30116  -0.64930   0.99177  -1.37694
   9   28852.8    346.6   0.025855890   0.29502   0.13841   0.52035  -0.07138
  10   29530.7    338.6   0.028367042   0.31624   0.24754   0.09796   0.49535
  11   29596.6    337.9   0.089220888   0.99243   0.11942  -0.17708   0.97304
  12   30077.7    332.5   0.017012445   0.18621  -0.17172  -0.36761   0.14691
  13   30589.5    326.9   0.093137306   1.00237   0.19737   0.91578   0.35321
  14   32093.5    311.6   0.019408042   0.19909  -0.20464   0.24714  -0.31005
  15   32166.1    310.9   0.054967360   0.56258   0.29417  -0.21479   0.65568
  16   32796.0    304.9   0.255604811   2.56581   0.60505   1.42098   0.42490
  17   33111.5    302.0   0.395799187   3.93524  -0.37748  -0.30830  -1.92294
  18   33452.3    298.9   0.253654411   2.49628   0.01505  -0.65072   1.43966
  19   33727.1    296.5   0.741098658   7.23390   0.03283   1.60312  -2.15936
  20   34141.0    292.9   0.009994663   0.09638  -0.02947  -0.10013  -0.29237
  21   35021.2    285.5   0.010287486   0.09671  -0.03601   0.30753  -0.02889
  22   35665.0    280.4   0.050166849   0.46307  -0.09542   0.46198  -0.49045
  23   36172.8    276.5   0.008750362   0.07964   0.23772  -0.09528  -0.11852
  24   36766.5    272.0   0.016360637   0.14650   0.02630   0.34303  -0.16773
  25   37144.2    269.2   0.009111644   0.08076   0.26747   0.04996   0.08199
  26   37984.5    263.3   0.032846617   0.28468  -0.48301  -0.16954   0.15046
  27   38390.0    260.5   0.336919018   2.88923   0.51408   1.48326   0.65185
  28   39011.1    256.3   0.056586096   0.47753  -0.07825  -0.46055  -0.50922
  29   39370.4    254.0   0.113214051   0.94669   0.74347   0.62746   0.01512
  30   40209.9    248.7   0.022408346   0.18346   0.28171  -0.09742   0.30759

FINAL SINGLE POINT ENERGY     -3039.452870340288

DIPOLE MOMENT
-------------
                                X             Y             Z
Electronic contribution:     -7.09630     -11.20150       3.28028
Nuclear contribution   :      8.33655      13.39112      -3.76252
                        -----------------------------------------
Total Dipole Moment    :      1.24025       2.18962      -0.48225
                        -----------------------------------------
Magnitude (a.u.)       :      2.56227
Magnitude (Debye)      :      6.51278

Rotational constants in cm-1:     0.004251     0.000207     0.000200
Rotational constants in MHz :   127.455435     6.212766     6.004840

                             ****ORCA TERMINATED NORMALLY****
TOTAL RUN TIME: 0 days 0 hours 6 minutes 6 seconds 626 msec
