                         Program Version 4.2.0 -  RELEASE  -
|  1> # ORCA input file
|  2> # SCF done       -183.195785407802          0.003692982355
|  3> ! CAM-B3LYP def2-SVP def2/J RIJCOSX Grid4 TightSCF
|  4> %maxcore 5000
|  5> %tddft
|  6>     Mode sTDDFT
|  7>     Ethresh 5.0
|  8>     maxcore 5000
|  9> end
| 10>
| 11> %pal
| 12>   nprocs 6
| 13>   end
| 14> * xyz 0 1
| 15>    C       -2.60219         7.97325        -4.67888
| 16>    C       -1.99169         8.86236        -5.52102
| 17>    C       -0.65857         9.30491        -5.37925
| 18>    N        0.41482         9.70404        -5.32112
| 19>    C       -2.59241         9.45404        -6.65316
| 20>    N       -3.00983         9.96972        -7.58936
| 21>    C       -1.99542         7.32023        -3.53158
| 22>    C       -2.94109         6.43771        -2.93946
| 23>    C       -2.63311         5.63994        -1.86213
| 24>    C       -1.35048         5.73888        -1.31958
| 25>    C       -0.43056         6.66316        -1.88049
| 26>    C       -0.72854         7.44379        -2.99050
| 27>    S        1.05488         6.68107        -0.99808
| 28>    C        0.46787         5.46506         0.07091
| 29>    C       -0.79140         5.05895        -0.20532
| 30>    C       -4.22625         6.56558        -3.62759
| 31>    O       -5.29872         6.10808        -3.30056
| 32>    C       -3.96712         7.46661        -4.79867
| 33>    C       -4.89031         7.74093        -5.74505
| 34>    C       -6.16337         7.08344        -5.86170
| 35>    N       -7.26541         7.76047        -6.08934
| 36>    C       -8.26377         6.84419        -6.12615
| 37>    C       -7.74047         5.48341        -5.93077
| 38>    C       -8.83295         4.49977        -5.97800
| 39>    O       -8.77303         3.29572        -5.84943
| 40>    C      -10.01700         5.34675        -6.22208
| 41>    C       -9.62052         6.77254        -6.29798
| 42>    N      -10.70273         7.55580        -6.53886
| 43>    C      -11.71180         6.72900        -6.62552
| 44>    C      -11.35356         5.33154        -6.44477
| 45>    C       -6.38477         5.61261        -5.78785
| 46>    C       -5.36046         4.64486        -5.60327
| 47>    C       -5.61019         3.35140        -5.30266
| 48>    C       -4.58623         2.42425        -4.95742
| 49>    S       -4.96626         0.71344        -4.83074
| 50>    C       -3.34284         0.33512        -4.38806
| 51>    O       -2.96781        -0.90555        -4.07144
| 52>    C       -2.54175         1.47094        -4.32231
| 53>    C       -3.27913         2.64290        -4.62880
| 54>    C       -1.16890         1.51932        -3.92814
| 55>    N       -0.69167         2.59348        -3.31536
| 56>    C        0.59322         2.31109        -3.01627
| 57>    C        0.94667         0.95415        -3.45909
| 58>    C        2.37198         0.67071        -3.23083
| 59>    O        2.98486        -0.33791        -3.50425
| 60>    C        2.84202         1.92588        -2.61918
| 61>    C        1.72425         2.88905        -2.49643
| 62>    N        2.16401         4.06065        -1.97895
| 63>    C        3.45494         3.89735        -1.79956
| 64>    C        3.94488         2.59606        -2.19205
| 65>    C       -0.15507         0.45406        -4.09167
| 66>    C       -0.14944        -0.73330        -4.88463
| 67>    C       -0.82169        -0.91633        -6.03697
| 68>    C       -0.64440        -2.07162        -6.86043
| 69>    C        0.47307        -2.81448        -7.03785
| 70>    C        1.87336        -2.62206        -6.68368
| 71>    C        2.54593        -1.43667        -6.57005
| 72>    C        3.94472        -1.33843        -6.39524
| 73>    N        5.07785        -1.19667        -6.29093
| 74>    C        1.96294        -0.16153        -6.71075
| 75>    N        1.55959         0.90458        -6.84696
| 76>    C        2.50642        -3.93461        -6.73438
| 77>    C        1.60995        -4.85867        -7.33274
| 78>    C        0.34097        -4.18007        -7.63304
| 79>    O       -0.63671        -4.62503        -8.18932
| 80>    C        1.94438        -6.17517        -7.54801
| 81>    C        3.21382        -6.60003        -7.14750
| 82>    C        4.09480        -5.67329        -6.53627
| 83>    C        3.76071        -4.34150        -6.32188
| 84>    S        5.60067        -6.42277        -6.11328
| 85>    C        5.05327        -7.93696        -6.74729
| 86>    C        3.80120        -7.89241        -7.25242
| 87>    H       -3.36778         4.96639        -1.44991
| 88>    H        0.01120         8.11586        -3.39160
| 89>    H        1.10819         5.11883         0.85879
| 90>    H       -1.32059         4.31023         0.35337
| 91>    H       -4.71660         8.51813        -6.47883
| 92>    H      -12.70542         7.09823        -6.81231
| 93>    H      -12.03628         4.50584        -6.48335
| 94>    H       -4.33854         4.99264        -5.67159
| 95>    H       -6.63001         2.99049        -5.28942
| 96>    H       -3.70635        -1.52590        -4.12589
| 97>    H       -2.81405         3.60994        -4.59276
| 98>    H        4.04778         4.69805        -1.39203
| 99>    H        4.96491         2.27062        -2.14067
|100>    H        0.56150        -1.48371        -4.56096
|101>    H       -1.55237        -0.19020        -6.36590
|102>    H       -1.52350        -2.43615        -7.38458
|103>    H        1.24577        -6.85471        -8.01110
|104>    H        4.45535        -3.67317        -5.84029
|105>    H        5.71261        -8.78172        -6.70146
|106>    H        3.29675        -8.73659        -7.68701
|107> *
|108>
|109>                          ****END OF INPUT****

CARTESIAN COORDINATES (ANGSTROEM)
---------------------------------
  C     -2.602190    7.973250   -4.678880
  C     -1.991690    8.862360   -5.521020
  C     -0.658570    9.304910   -5.379250
  N      0.414820    9.704040   -5.321120
  C     -2.592410    9.454040   -6.653160
  N     -3.009830    9.969720   -7.589360
  C     -1.995420    7.320230   -3.531580
  C     -2.941090    6.437710   -2.939460
  C     -2.633110    5.639940   -1.862130
  C     -1.350480    5.738880   -1.319580
  C     -0.430560    6.663160   -1.880490
  C     -0.728540    7.443790   -2.990500
  S      1.054880    6.681070   -0.998080
  C      0.467870    5.465060    0.070910
  C     -0.791400    5.058950   -0.205320
  C     -4.226250    6.565580   -3.627590
  O     -5.298720    6.108080   -3.300560
  C     -3.967120    7.466610   -4.798670
  C     -4.890310    7.740930   -5.745050
  C     -6.163370    7.083440   -5.861700
  N     -7.265410    7.760470   -6.089340
  C     -8.263770    6.844190   -6.126150
  C     -7.740470    5.483410   -5.930770
  C     -8.832950    4.499770   -5.978000
  O     -8.773030    3.295720   -5.849430
  C    -10.017000    5.346750   -6.222080
  C     -9.620520    6.772540   -6.297980
  N    -10.702730    7.555800   -6.538860
  C    -11.711800    6.729000   -6.625520
  C    -11.353560    5.331540   -6.444770
  C     -6.384770    5.612610   -5.787850
  C     -5.360460    4.644860   -5.603270
  C     -5.610190    3.351400   -5.302660
  C     -4.586230    2.424250   -4.957420
  S     -4.966260    0.713440   -4.830740
  C     -3.342840    0.335120   -4.388060
  O     -2.967810   -0.905550   -4.071440
  C     -2.541750    1.470940   -4.322310
  C     -3.279130    2.642900   -4.628800
  C     -1.168900    1.519320   -3.928140
  N     -0.691670    2.593480   -3.315360
  C      0.593220    2.311090   -3.016270
  C      0.946670    0.954150   -3.459090
  C      2.371980    0.670710   -3.230830
  O      2.984860   -0.337910   -3.504250
  C      2.842020    1.925880   -2.619180
  C      1.724250    2.889050   -2.496430
  N      2.164010    4.060650   -1.978950
  C      3.454940    3.897350   -1.799560
  C      3.944880    2.596060   -2.192050
  C     -0.155070    0.454060   -4.091670
  C     -0.149440   -0.733300   -4.884630
  C     -0.821690   -0.916330   -6.036970
  C     -0.644400   -2.071620   -6.860430
  C      0.473070   -2.814480   -7.037850
  C      1.873360   -2.622060   -6.683680
  C      2.545930   -1.436670   -6.570050
  C      3.944720   -1.338430   -6.395240
  N      5.077850   -1.196670   -6.290930
  C      1.962940   -0.161530   -6.710750
  N      1.559590    0.904580   -6.846960
  C      2.506420   -3.934610   -6.734380
  C      1.609950   -4.858670   -7.332740
  C      0.340970   -4.180070   -7.633040
  O     -0.636710   -4.625030   -8.189320
  C      1.944380   -6.175170   -7.548010
  C      3.213820   -6.600030   -7.147500
  C      4.094800   -5.673290   -6.536270
  C      3.760710   -4.341500   -6.321880
  S      5.600670   -6.422770   -6.113280
  C      5.053270   -7.936960   -6.747290
  C      3.801200   -7.892410   -7.252420
  H     -3.367780    4.966390   -1.449910
  H      0.011200    8.115860   -3.391600
  H      1.108190    5.118830    0.858790
  H     -1.320590    4.310230    0.353370
  H     -4.716600    8.518130   -6.478830
  H    -12.705420    7.098230   -6.812310
  H    -12.036280    4.505840   -6.483350
  H     -4.338540    4.992640   -5.671590
  H     -6.630010    2.990490   -5.289420
  H     -3.706350   -1.525900   -4.125890
  H     -2.814050    3.609940   -4.592760
  H      4.047780    4.698050   -1.392030
  H      4.964910    2.270620   -2.140670
  H      0.561500   -1.483710   -4.560960
  H     -1.552370   -0.190200   -6.365900
  H     -1.523500   -2.436150   -7.384580
  H      1.245770   -6.854710   -8.011100
  H      4.455350   -3.673170   -5.840290
  H      5.712610   -8.781720   -6.701460
  H      3.296750   -8.736590   -7.687010

 Total Charge           Charge          ....    0
 Multiplicity           Mult            ....    1
 Number of Electrons    NEL             ....  500
 Basis Dimension        Dim             .... 1120

ORBITAL ENERGIES
----------------

  NO   OCC          E(Eh)            E(eV)
   0   2.0000     -88.983736     -2421.3705
   1   2.0000     -88.967643     -2420.9326
   2   2.0000     -88.959815     -2420.7196
   3   2.0000     -19.301547      -525.2218
   4   2.0000     -19.226945      -523.1918
   5   2.0000     -19.217218      -522.9271
   6   2.0000     -19.216562      -522.9092
   7   2.0000     -19.213165      -522.8168
   8   2.0000     -14.421969      -392.4417
   9   2.0000     -14.421016      -392.4158
  10   2.0000     -14.416931      -392.3046
  11   2.0000     -14.416101      -392.2821
  12   2.0000     -14.414752      -392.2453
  13   2.0000     -14.411807      -392.1652
  14   2.0000     -14.410728      -392.1359
  15   2.0000     -14.406536      -392.0218
  16   2.0000     -10.397574      -282.9324
  17   2.0000     -10.376739      -282.3654
  18   2.0000     -10.375703      -282.3372
  19   2.0000     -10.372131      -282.2400
  20   2.0000     -10.367262      -282.1075
  21   2.0000     -10.355565      -281.7892
  22   2.0000     -10.352360      -281.7020
  23   2.0000     -10.348893      -281.6077
  24   2.0000     -10.348549      -281.5983
  25   2.0000     -10.342910      -281.4449
  26   2.0000     -10.341292      -281.4009
  27   2.0000     -10.339392      -281.3492
  28   2.0000     -10.332674      -281.1664
  29   2.0000     -10.330298      -281.1017
  30   2.0000     -10.328448      -281.0514
  31   2.0000     -10.325919      -280.9826
  32   2.0000     -10.324446      -280.9425
  33   2.0000     -10.323401      -280.9140
  34   2.0000     -10.322887      -280.9000
  35   2.0000     -10.322701      -280.8950
  36   2.0000     -10.322028      -280.8767
  37   2.0000     -10.319595      -280.8104
  38   2.0000     -10.318535      -280.7816
  39   2.0000     -10.317265      -280.7470
  40   2.0000     -10.316736      -280.7327
  41   2.0000     -10.315652      -280.7032
  42   2.0000     -10.315179      -280.6903
  43   2.0000     -10.313163      -280.6354
  44   2.0000     -10.310839      -280.5722
  45   2.0000     -10.309863      -280.5456
  46   2.0000     -10.309186      -280.5272
  47   2.0000     -10.307775      -280.4888
  48   2.0000     -10.305905      -280.4379
  49   2.0000     -10.303939      -280.3844
  50   2.0000     -10.303435      -280.3707
  51   2.0000     -10.303310      -280.3673
  52   2.0000     -10.302778      -280.3528
  53   2.0000     -10.301386      -280.3150
  54   2.0000     -10.301114      -280.3075
  55   2.0000     -10.300713      -280.2967
  56   2.0000     -10.300191      -280.2824
  57   2.0000     -10.299729      -280.2699
  58   2.0000     -10.296638      -280.1858
  59   2.0000     -10.296217      -280.1743
  60   2.0000     -10.294244      -280.1206
  61   2.0000     -10.294009      -280.1142
  62   2.0000     -10.293773      -280.1078
  63   2.0000     -10.293213      -280.0926
  64   2.0000     -10.292199      -280.0650
  65   2.0000     -10.292175      -280.0643
  66   2.0000     -10.291930      -280.0576
  67   2.0000     -10.290186      -280.0102
  68   2.0000     -10.289182      -279.9829
  69   2.0000     -10.286860      -279.9197
  70   2.0000     -10.283645      -279.8322
  71   2.0000     -10.282563      -279.8028
  72   2.0000      -8.080541      -219.8827
  73   2.0000      -8.063832      -219.4280
  74   2.0000      -8.055704      -219.2069
  75   2.0000      -6.049833      -164.6243
  76   2.0000      -6.045729      -164.5127
  77   2.0000      -6.042332      -164.4202
  78   2.0000      -6.033336      -164.1754
  79   2.0000      -6.029045      -164.0587
  80   2.0000      -6.025538      -163.9632
  81   2.0000      -6.025283      -163.9563
  82   2.0000      -6.020927      -163.8378
  83   2.0000      -6.017316      -163.7395
  84   2.0000      -1.200924       -32.6788
  85   2.0000      -1.142689       -31.0941
  86   2.0000      -1.131748       -30.7964
  87   2.0000      -1.131084       -30.7784
  88   2.0000      -1.127104       -30.6701
  89   2.0000      -1.084754       -29.5177
  90   2.0000      -1.080475       -29.4012
  91   2.0000      -1.065380       -28.9905
  92   2.0000      -1.061031       -28.8721
  93   2.0000      -1.025265       -27.8989
  94   2.0000      -1.019634       -27.7456
  95   2.0000      -1.009311       -27.4648
  96   2.0000      -1.007765       -27.4227
  97   2.0000      -1.002548       -27.2807
  98   2.0000      -0.999751       -27.2046
  99   2.0000      -0.991127       -26.9699
 100   2.0000      -0.988230       -26.8911
 101   2.0000      -0.985024       -26.8039
 102   2.0000      -0.943415       -25.6716
 103   2.0000      -0.940835       -25.6014
 104   2.0000      -0.939883       -25.5755
 105   2.0000      -0.932222       -25.3671
 106   2.0000      -0.924286       -25.1511
 107   2.0000      -0.920933       -25.0599
 108   2.0000      -0.907955       -24.7067
 109   2.0000      -0.900116       -24.4934
 110   2.0000      -0.884992       -24.0818
 111   2.0000      -0.882199       -24.0058
 112   2.0000      -0.881079       -23.9754
 113   2.0000      -0.876187       -23.8422
 114   2.0000      -0.874193       -23.7880
 115   2.0000      -0.862897       -23.4806
 116   2.0000      -0.857697       -23.3391
 117   2.0000      -0.853935       -23.2368
 118   2.0000      -0.830003       -22.5855
 119   2.0000      -0.823906       -22.4196
 120   2.0000      -0.822424       -22.3793
 121   2.0000      -0.812928       -22.1209
 122   2.0000      -0.801749       -21.8167
 123   2.0000      -0.786481       -21.4012
 124   2.0000      -0.776456       -21.1284
 125   2.0000      -0.766611       -20.8605
 126   2.0000      -0.764011       -20.7898
 127   2.0000      -0.762673       -20.7534
 128   2.0000      -0.754399       -20.5282
 129   2.0000      -0.752554       -20.4780
 130   2.0000      -0.731517       -19.9056
 131   2.0000      -0.727533       -19.7972
 132   2.0000      -0.719213       -19.5708
 133   2.0000      -0.718088       -19.5402
 134   2.0000      -0.694787       -18.9061
 135   2.0000      -0.694113       -18.8878
 136   2.0000      -0.688721       -18.7411
 137   2.0000      -0.687155       -18.6984
 138   2.0000      -0.683690       -18.6041
 139   2.0000      -0.670721       -18.2513
 140   2.0000      -0.667071       -18.1519
 141   2.0000      -0.662359       -18.0237
 142   2.0000      -0.661803       -18.0086
 143   2.0000      -0.656997       -17.8778
 144   2.0000      -0.654314       -17.8048
 145   2.0000      -0.641957       -17.4685
 146   2.0000      -0.636674       -17.3248
 147   2.0000      -0.625966       -17.0334
 148   2.0000      -0.622077       -16.9276
 149   2.0000      -0.621559       -16.9135
 150   2.0000      -0.618551       -16.8316
 151   2.0000      -0.617689       -16.8082
 152   2.0000      -0.609823       -16.5941
 153   2.0000      -0.603039       -16.4095
 154   2.0000      -0.602590       -16.3973
 155   2.0000      -0.596546       -16.2329
 156   2.0000      -0.596127       -16.2214
 157   2.0000      -0.586301       -15.9541
 158   2.0000      -0.579508       -15.7692
 159   2.0000      -0.577169       -15.7056
 160   2.0000      -0.572618       -15.5817
 161   2.0000      -0.562454       -15.3052
 162   2.0000      -0.556709       -15.1488
 163   2.0000      -0.555557       -15.1175
 164   2.0000      -0.552738       -15.0408
 165   2.0000      -0.549539       -14.9537
 166   2.0000      -0.547952       -14.9105
 167   2.0000      -0.545960       -14.8563
 168   2.0000      -0.544913       -14.8278
 169   2.0000      -0.543381       -14.7861
 170   2.0000      -0.538949       -14.6655
 171   2.0000      -0.538312       -14.6482
 172   2.0000      -0.537681       -14.6310
 173   2.0000      -0.534711       -14.5502
 174   2.0000      -0.531410       -14.4604
 175   2.0000      -0.530848       -14.4451
 176   2.0000      -0.530481       -14.4351
 177   2.0000      -0.528350       -14.3771
 178   2.0000      -0.522961       -14.2305
 179   2.0000      -0.516836       -14.0638
 180   2.0000      -0.514699       -14.0057
 181   2.0000      -0.513926       -13.9846
 182   2.0000      -0.508553       -13.8384
 183   2.0000      -0.503729       -13.7072
 184   2.0000      -0.501725       -13.6526
 185   2.0000      -0.500329       -13.6147
 186   2.0000      -0.499253       -13.5854
 187   2.0000      -0.495912       -13.4945
 188   2.0000      -0.494968       -13.4688
 189   2.0000      -0.491405       -13.3718
 190   2.0000      -0.490011       -13.3339
 191   2.0000      -0.489591       -13.3224
 192   2.0000      -0.484699       -13.1893
 193   2.0000      -0.484150       -13.1744
 194   2.0000      -0.480825       -13.0839
 195   2.0000      -0.476801       -12.9744
 196   2.0000      -0.474614       -12.9149
 197   2.0000      -0.474395       -12.9090
 198   2.0000      -0.473825       -12.8934
 199   2.0000      -0.467254       -12.7146
 200   2.0000      -0.464751       -12.6465
 201   2.0000      -0.463119       -12.6021
 202   2.0000      -0.460847       -12.5403
 203   2.0000      -0.457788       -12.4570
 204   2.0000      -0.454018       -12.3545
 205   2.0000      -0.453097       -12.3294
 206   2.0000      -0.451791       -12.2939
 207   2.0000      -0.451217       -12.2782
 208   2.0000      -0.448031       -12.1915
 209   2.0000      -0.447942       -12.1891
 210   2.0000      -0.444477       -12.0948
 211   2.0000      -0.442597       -12.0437
 212   2.0000      -0.439765       -11.9666
 213   2.0000      -0.437550       -11.9063
 214   2.0000      -0.432849       -11.7784
 215   2.0000      -0.432827       -11.7778
 216   2.0000      -0.432117       -11.7585
 217   2.0000      -0.430594       -11.7171
 218   2.0000      -0.423505       -11.5242
 219   2.0000      -0.422633       -11.5004
 220   2.0000      -0.415584       -11.3086
 221   2.0000      -0.413214       -11.2441
 222   2.0000      -0.410590       -11.1727
 223   2.0000      -0.403343       -10.9755
 224   2.0000      -0.398511       -10.8440
 225   2.0000      -0.385626       -10.4934
 226   2.0000      -0.380523       -10.3545
 227   2.0000      -0.374701       -10.1961
 228   2.0000      -0.371358       -10.1052
 229   2.0000      -0.364372        -9.9151
 230   2.0000      -0.362572        -9.8661
 231   2.0000      -0.361301        -9.8315
 232   2.0000      -0.355763        -9.6808
 233   2.0000      -0.354423        -9.6443
 234   2.0000      -0.351449        -9.5634
 235   2.0000      -0.347410        -9.4535
 236   2.0000      -0.340568        -9.2673
 237   2.0000      -0.337817        -9.1925
 238   2.0000      -0.336678        -9.1615
 239   2.0000      -0.335141        -9.1196
 240   2.0000      -0.333646        -9.0790
 241   2.0000      -0.330690        -8.9985
 242   2.0000      -0.318053        -8.6547
 243   2.0000      -0.314294        -8.5524
 244   2.0000      -0.311397        -8.4736
 245   2.0000      -0.305337        -8.3087
 246   2.0000      -0.297908        -8.1065
 247   2.0000      -0.290087        -7.8937
 248   2.0000      -0.288136        -7.8406
 249   2.0000      -0.264413        -7.1950
 250   0.0000      -0.120139        -3.2692
 251   0.0000      -0.115146        -3.1333
 252   0.0000      -0.088085        -2.3969
 253   0.0000      -0.081654        -2.2219
 254   0.0000      -0.062153        -1.6913

MULLIKEN ATOMIC CHARGES
-----------------------
   0 C :    0.316813
   1 C :   -0.337700
   2 C :   -0.186709
   3 N :    0.164356
   4 C :   -0.192372
   5 N :    0.171715
   6 C :    0.019016
   7 C :   -0.021425
   8 C :   -0.046539
   9 C :    0.125881
  10 C :   -0.080229
  11 C :   -0.025478
  12 S :    0.164479
  13 C :   -0.019944
  14 C :    0.025975
  15 C :    0.105864
  16 O :   -0.128239
  17 C :   -0.066860
  18 C :   -0.048980
  19 C :    0.027384
  20 N :   -0.015580
  21 C :    0.079799
  22 C :   -0.178917
  23 C :    0.224959
  24 O :   -0.147688
  25 C :   -0.012844
  26 C :   -0.029853
  27 N :   -0.049466
  28 C :    0.088730
  29 C :   -0.097167
  30 C :    0.079275
  31 C :   -0.017207
  32 C :    0.075703
  33 C :   -0.078296
  34 S :    0.115788
  35 C :   -0.032180
  36 O :   -0.137539
  37 C :    0.029334
  38 C :    0.011776
  39 C :    0.019631
  40 N :   -0.056635
  41 C :    0.090778
  42 C :   -0.118545
  43 C :    0.216337
  44 O :   -0.137160
  45 C :   -0.034622
  46 C :   -0.035008
  47 N :   -0.065305
  48 C :    0.092979
  49 C :   -0.088304
  50 C :    0.024298
  51 C :   -0.000334
  52 C :    0.014891
  53 C :    0.020940
  54 C :   -0.105237
  55 C :    0.265287
  56 C :   -0.326543
  57 C :   -0.173651
  58 N :    0.161465
  59 C :   -0.192288
  60 N :    0.167442
  61 C :   -0.007566
  62 C :    0.003102
  63 C :    0.127252
  64 O :   -0.144943
  65 C :   -0.069777
  66 C :    0.109039
  67 C :   -0.092980
  68 C :   -0.017927
  69 S :    0.142372
  70 C :   -0.051809
  71 C :    0.029228
  72 H :   -0.010989
  73 H :   -0.007473
  74 H :    0.030757
  75 H :   -0.012480
  76 H :    0.056104
  77 H :    0.010773
  78 H :   -0.003376
  79 H :   -0.015205
  80 H :    0.004778
  81 H :    0.204251
  82 H :   -0.002879
  83 H :    0.005165
  84 H :    0.000199
  85 H :    0.029685
  86 H :    0.020183
  87 H :    0.023395
  88 H :   -0.011326
  89 H :    0.003838
  90 H :    0.039491
  91 H :   -0.006934
Sum of atomic charges:   -0.0000000

LOEWDIN ATOMIC CHARGES
----------------------
   0 C :    0.069757
   1 C :   -0.122764
   2 C :   -0.017554
   3 N :   -0.039649
   4 C :   -0.021982
   5 N :   -0.035584
   6 C :   -0.026055
   7 C :   -0.063133
   8 C :    0.033903
   9 C :   -0.022418
  10 C :   -0.136359
  11 C :   -0.005007
  12 S :    0.459934
  13 C :   -0.133245
  14 C :   -0.058528
  15 C :    0.078644
  16 O :   -0.119831
  17 C :   -0.050779
  18 C :    0.051636
  19 C :    0.065881
  20 N :   -0.075927
  21 C :    0.051197
  22 C :   -0.061371
  23 C :    0.072723
  24 O :   -0.145258
  25 C :   -0.038099
  26 C :    0.027252
  27 N :   -0.091055
  28 C :    0.075345
  29 C :   -0.030797
  30 C :   -0.007267
  31 C :   -0.027774
  32 C :   -0.004214
  33 C :   -0.172711
  34 S :    0.422373
  35 C :   -0.077959
  36 O :   -0.014642
  37 C :   -0.128675
  38 C :   -0.009298
  39 C :    0.091397
  40 N :   -0.112121
  41 C :    0.051734
  42 C :   -0.028805
  43 C :    0.069981
  44 O :   -0.142733
  45 C :   -0.036689
  46 C :    0.017191
  47 N :   -0.102501
  48 C :    0.070290
  49 C :   -0.034075
  50 C :   -0.026555
  51 C :    0.022117
  52 C :   -0.020834
  53 C :    0.058676
  54 C :   -0.077099
  55 C :    0.062277
  56 C :   -0.123003
  57 C :   -0.016057
  58 N :   -0.046699
  59 C :   -0.012325
  60 N :   -0.050504
  61 C :   -0.017923
  62 C :   -0.057816
  63 C :    0.083411
  64 O :   -0.144384
  65 C :    0.024018
  66 C :   -0.035994
  67 C :   -0.143489
  68 C :   -0.008092
  69 S :    0.430876
  70 C :   -0.149392
  71 C :   -0.057662
  72 H :    0.041346
  73 H :    0.040873
  74 H :    0.026646
  75 H :    0.033504
  76 H :    0.059968
  77 H :    0.024142
  78 H :    0.034614
  79 H :    0.025851
  80 H :    0.033057
  81 H :    0.107050
  82 H :    0.037071
  83 H :    0.021040
  84 H :    0.036815
  85 H :    0.041547
  86 H :    0.035635
  87 H :    0.044468
  88 H :    0.040567
  89 H :    0.043067
  90 H :    0.029542
  91 H :    0.035266

  Mayer bond orders larger than 0.100000
B(  0-C ,  1-C ) :   1.6606 B(  0-C ,  6-C ) :   1.0297 B(  0-C , 17-C ) :   1.0146
B(  1-C ,  2-C ) :   1.1385 B(  1-C ,  4-C ) :   1.1442 B(  2-C ,  3-N ) :   2.9753
B(  4-C ,  5-N ) :   2.9731 B(  6-C ,  7-C ) :   1.2453 B(  6-C , 11-C ) :   1.3975
B(  7-C ,  8-C ) :   1.4115 B(  7-C , 15-C ) :   0.9526 B(  8-C ,  9-C ) :   1.2531
B(  8-C , 72-H ) :   1.0147 B(  9-C , 10-C ) :   1.2842 B(  9-C , 14-C ) :   1.1800
B( 10-C , 11-C ) :   1.3294 B( 10-C , 12-S ) :   1.1259 B( 11-C , 73-H ) :   0.9824
B( 12-S , 13-C ) :   1.1393 B( 13-C , 14-C ) :   1.6195 B( 13-C , 74-H ) :   0.9679
B( 14-C , 75-H ) :   1.0011 B( 15-C , 16-O ) :   2.2242 B( 15-C , 17-C ) :   0.9101
B( 17-C , 18-C ) :   1.7511 B( 18-C , 19-C ) :   1.0129 B( 18-C , 76-H ) :   0.9332
B( 19-C , 20-N ) :   1.6520 B( 19-C , 21-C ) :   0.1142 B( 19-C , 30-C ) :   1.0150
B( 20-N , 21-C ) :   1.3001 B( 21-C , 22-C ) :   1.0599 B( 21-C , 26-C ) :   1.4613
B( 22-C , 23-C ) :   0.9004 B( 22-C , 30-C ) :   1.5724 B( 23-C , 24-O ) :   2.1886
B( 23-C , 25-C ) :   0.9243 B( 25-C , 26-C ) :   1.0616 B( 25-C , 29-C ) :   1.6204
B( 26-C , 27-N ) :   1.2942 B( 27-N , 28-C ) :   1.6795 B( 28-C , 29-C ) :   1.0540
B( 28-C , 77-H ) :   0.9890 B( 29-C , 78-H ) :   1.0115 B( 30-C , 31-C ) :   1.1290
B( 31-C , 32-C ) :   1.7244 B( 31-C , 79-H ) :   0.9348 B( 32-C , 33-C ) :   1.0945
B( 32-C , 80-H ) :   0.9393 B( 33-C , 34-S ) :   1.0585 B( 33-C , 38-C ) :   1.5244
B( 34-S , 35-C ) :   1.1517 B( 35-C , 36-O ) :   1.2483 B( 35-C , 37-C ) :   1.4028
B( 36-O , 81-H ) :   0.9429 B( 37-C , 38-C ) :   1.2258 B( 37-C , 39-C ) :   1.0327
B( 38-C , 82-H ) :   1.0072 B( 39-C , 40-N ) :   1.6342 B( 39-C , 41-C ) :   0.1211
B( 39-C , 50-C ) :   1.0192 B( 40-N , 41-C ) :   1.3410 B( 41-C , 42-C ) :   1.0387
B( 41-C , 46-C ) :   1.4199 B( 42-C , 43-C ) :   0.8904 B( 42-C , 50-C ) :   1.5966
B( 43-C , 44-O ) :   2.2403 B( 43-C , 45-C ) :   0.9107 B( 45-C , 46-C ) :   1.0592
B( 45-C , 49-C ) :   1.5996 B( 46-C , 47-N ) :   1.3170 B( 47-N , 48-C ) :   1.6259
B( 48-C , 49-C ) :   1.0903 B( 48-C , 83-H ) :   0.9863 B( 49-C , 84-H ) :   1.0112
B( 50-C , 51-C ) :   1.1271 B( 51-C , 52-C ) :   1.7135 B( 51-C , 85-H ) :   0.9473
B( 52-C , 53-C ) :   1.1024 B( 52-C , 86-H ) :   0.9476 B( 53-C , 54-C ) :   1.7483
B( 53-C , 87-H ) :   0.9269 B( 54-C , 55-C ) :   1.0017 B( 54-C , 63-C ) :   0.9343
B( 55-C , 56-C ) :   1.6794 B( 55-C , 61-C ) :   1.0130 B( 56-C , 57-C ) :   1.1246
B( 56-C , 59-C ) :   1.1764 B( 57-C , 58-N ) :   2.9945 B( 59-C , 60-N ) :   2.9756
B( 61-C , 62-C ) :   1.2679 B( 61-C , 68-C ) :   1.4161 B( 62-C , 63-C ) :   0.9251
B( 62-C , 65-C ) :   1.4200 B( 63-C , 64-O ) :   2.2658 B( 65-C , 66-C ) :   1.2567
B( 65-C , 88-H ) :   1.0156 B( 66-C , 67-C ) :   1.2974 B( 66-C , 71-C ) :   1.1724
B( 67-C , 68-C ) :   1.3254 B( 67-C , 69-S ) :   1.0985 B( 68-C , 89-H ) :   0.9846
B( 69-S , 70-C ) :   1.1262 B( 70-C , 71-C ) :   1.6313 B( 70-C , 90-H ) :   0.9681
B( 71-C , 91-H ) :   0.9989

-----------------------------------------------------------------------------
         ABSORPTION SPECTRUM VIA TRANSITION ELECTRIC DIPOLE MOMENTS
-----------------------------------------------------------------------------
State   Energy  Wavelength   fosc         T2         TX        TY        TZ
        (cm-1)    (nm)                  (au**2)     (au)      (au)      (au)
-----------------------------------------------------------------------------
   0   14043.6    712.1   0.098126678   2.30030   1.42836  -0.39252   0.32559
   1   17086.4    585.3   0.142699153   2.74945  -1.63659   0.05914  -0.25987
   2   19413.6    515.1   0.090687638   1.53786  -0.68111  -0.63745  -0.81707
   3   20222.5    494.5   0.007862609   0.12800   0.29912  -0.14351   0.13391
   4   21929.2    456.0   0.010979310   0.16483   0.29159   0.24763  -0.13593
   5   22048.3    453.5   0.007828960   0.11690  -0.01472   0.29459  -0.17291
   6   22374.5    446.9   0.026922364   0.39613  -0.03365  -0.45220   0.43647
   7   23308.3    429.0   0.075193107   1.06204   0.55692  -0.84106  -0.21097
   8   23851.4    419.3   0.139991055   1.93225  -0.87307   0.79262   0.73604
   9   24352.8    410.6   0.018599831   0.25144  -0.00374  -0.24979   0.43478
  10   24603.7    406.4   0.093236509   1.24756   0.83433   0.72780   0.14750
  11   24681.8    405.2   0.062381524   0.83206  -0.71210   0.54686   0.16097
  12   25240.0    396.2   0.038218075   0.49849  -0.24370   0.00150   0.66264
  13   25296.0    395.3   0.083312762   1.08427   0.44671  -0.92082   0.19188
  14   25542.0    391.5   0.227992204   2.93860   1.60338  -0.15053   0.58746
  15   25766.9    388.1   0.053609372   0.68494  -0.78317  -0.23078  -0.13536
  16   26050.4    383.9   0.151049148   1.90888  -1.19564  -0.50285  -0.47589
  17   26327.6    379.8   0.083601391   1.04539  -0.39061   0.93318   0.14826
  18   26713.6    374.3   0.072486272   0.89330  -0.85636   0.31108  -0.25136
  19   27020.7    370.1   0.185721476   2.26278  -1.38046   0.48008  -0.35585
  20   27384.7    365.2   0.700993745   8.42718   2.64746  -0.09425   1.18712
  21   27506.7    363.5   0.043524814   0.52092  -0.02880   0.70899   0.13201
  22   27975.0    357.5   0.065787984   0.77420   0.77528  -0.39823   0.12060
  23   28190.2    354.7   0.018718175   0.21860  -0.24509   0.39373  -0.05920
  24   28406.8    352.0   0.122104384   1.41509   0.37742   1.11921   0.14144
  25   28839.0    346.8   0.025948838   0.29622  -0.34271   0.41532  -0.07926
  26   29251.2    341.9   0.465360055   5.23746  -1.88966   0.93278  -0.89251
  27   29595.3    337.9   0.034960378   0.38889   0.32696   0.33223  -0.41426
  28   29844.6    335.1   0.121978824   1.34553   0.27828   0.52903  -0.99410
  29   30001.3    333.3   0.009914886   0.10880   0.26281  -0.14790   0.13363
  30   30351.6    329.5   0.038790552   0.42075   0.21801  -0.60001   0.11492
  31   31060.8    321.9   0.000872259   0.00925  -0.08443  -0.01441   0.04368
  32   31260.7    319.9   0.077710482   0.81838  -0.65816   0.57762  -0.22707
  33   31421.8    318.3   0.319320393   3.34557  -0.20582   1.69128   0.66543
  34   31467.2    317.8   0.094093329   0.98441  -0.21306   0.90920   0.33522
  35   31601.0    316.4   0.019869486   0.20700   0.30035  -0.33822  -0.04892
  36   31679.0    315.7   0.044017609   0.45744  -0.43489  -0.51682  -0.03469
  37   31978.0    312.7   0.118326424   1.21816   0.93097  -0.11504   0.58157
  38   32162.6    310.9   0.078305715   0.80153   0.29683   0.72881   0.42692
  39   32438.0    308.3   0.000349809   0.00355  -0.05104   0.02311   0.02027
  40   32640.9    306.4   0.043981108   0.44359  -0.62411   0.11111  -0.20428
  41   33141.5    301.7   0.221030033   2.19561  -0.40453  -0.93893   1.07255
  42   33203.2    301.2   0.051996611   0.51555   0.37331  -0.55668  -0.25747
  43   33323.7    300.1   0.147192203   1.45414  -0.19413   0.74384  -0.92906
  44   33369.8    299.7   0.044132894   0.43540   0.13400  -0.11954   0.63494
  45   33598.4    297.6   0.075591007   0.74067   0.60204  -0.56818   0.23534
  46   33664.1    297.1   0.088236387   0.86289   0.02259  -0.91917   0.13231
  47   33905.4    294.9   0.220723595   2.14316   0.34081   1.28118   0.62095
  48   34534.9    289.6   0.256717393   2.44722  -0.78662   1.32486  -0.27056
  49   34614.2    288.9   0.160245290   1.52408   0.33412   1.12808   0.37400
  50   34915.4    286.4   0.182579454   1.72151   1.03949  -0.38777   0.70043
  51   35112.1    284.8   0.044970732   0.42165   0.63279  -0.03946   0.14021
  52   35307.7    283.2   0.015531961   0.14482  -0.28200  -0.25327  -0.03391
  53   35328.7    283.1   0.010758922   0.10026   0.14807  -0.04995   0.27538
  54   35368.8    282.7   0.049264633   0.45855   0.27564   0.56342  -0.25522
  55   35856.5    278.9   0.270329546   2.48199   1.41748   0.40154   0.55814
  56   36135.4    276.7   0.001824998   0.01663   0.08841  -0.07877   0.05106
  57   36190.0    276.3   0.003633059   0.03305  -0.03181  -0.16928   0.05816
  58   36290.6    275.6   0.035618211   0.32311  -0.16233  -0.50694  -0.19942
  59   36440.4    274.4   0.021078777   0.19043  -0.20165   0.35794  -0.14714
  60   36630.9    273.0   0.115233128   1.03563  -0.86622  -0.50165  -0.18339
  61   36717.2    272.4   0.080836307   0.72479   0.72288   0.44593  -0.05813
  62   36977.8    270.4   0.019776162   0.17607   0.16836   0.35302  -0.15197
  63   37295.9    268.1   0.018789016   0.16585   0.22716   0.33798  -0.00456
  64   37393.6    267.4   0.045719405   0.40251   0.17378  -0.60761   0.05591
  65   37641.3    265.7   0.143810100   1.25777  -1.05586   0.14126  -0.35067
  66   37775.2    264.7   0.036947623   0.32200  -0.17594   0.21049  -0.49673
  67   38327.0    260.9   0.003962142   0.03403  -0.10280  -0.12202  -0.09261
  68   38421.0    260.3   0.014071838   0.12057  -0.21358  -0.25970  -0.08670
  69   38596.3    259.1   0.004367512   0.03725  -0.04756  -0.17511   0.06580
  70   38710.6    258.3   0.145122353   1.23418   0.89767  -0.61636   0.22017
  71   38887.5    257.2   0.002462455   0.02085  -0.14306  -0.01944  -0.00194
  72   38908.8    257.0   0.005054071   0.04276  -0.05418   0.19417  -0.04610
  73   38963.3    256.7   0.046448982   0.39246   0.58288  -0.02497  -0.22822
  74   38983.1    256.5   0.011704331   0.09884   0.28433  -0.10994   0.07688
  75   39130.5    255.6   0.004884297   0.04109   0.06955  -0.17593  -0.07283
  76   39157.1    255.4   0.008635765   0.07260  -0.26516   0.04118   0.02451
  77   39267.2    254.7   0.011062640   0.09275   0.19474   0.22221   0.07379
  78   39462.3    253.4   0.009501250   0.07926   0.05732  -0.17713  -0.21119
  79   39503.2    253.1   0.051253254   0.42713  -0.31527  -0.56634  -0.08366
  80   39792.0    251.3   0.011738615   0.09712   0.11761   0.28121  -0.06486
  81   39809.5    251.2   0.256966541   2.12503   1.34162   0.26192   0.50644
  82   39970.3    250.2   0.104718765   0.86251   0.84579   0.29766   0.24195
  83   40046.0    249.7   0.016673436   0.13707  -0.05103  -0.21488  -0.29714
  84   40062.1    249.6   0.008144798   0.06693  -0.03094  -0.22414  -0.12543
  85   40164.8    249.0   0.008709047   0.07138   0.06251   0.24761  -0.07853

FINAL SINGLE POINT ENERGY     -4150.353385349286

DIPOLE MOMENT
-------------
                                X             Y             Z
Electronic contribution:      0.53707      12.44713      -2.10465
Nuclear contribution   :     -0.64956     -16.98437       4.59522
                        -----------------------------------------
Total Dipole Moment    :     -0.11249      -4.53723       2.49057
                        -----------------------------------------
Magnitude (a.u.)       :      5.17707
Magnitude (Debye)      :     13.15907

Rotational constants in cm-1:     0.001406     0.000478     0.000390
Rotational constants in MHz :    42.144320    14.315156    11.699169

                             ****ORCA TERMINATED NORMALLY****
TOTAL RUN TIME: 0 days 0 hours 9 minutes 54 seconds 250 msec
