                         Program Version 4.2.0 -  RELEASE  -
|  1> # ORCA input file
|  2> # SCF done       -196.959531175261          0.000587010924
|  3> ! CAM-B3LYP def2-SVP def2/J RIJCOSX Grid4 TightSCF
|  4> %maxcore 5000
|  5> %tddft
|  6>     Mode sTDDFT
|  7>     Ethresh 5.0
|  8>     maxcore 5000
|  9> end
| 10>
| 11> %pal
| 12>   nprocs 6
| 13>   end
| 14> * xyz 0 1
| 15>    C       -5.10001        -0.65132        -4.27946
| 16>    C       -3.76995        -0.33505        -4.19438
| 17>    C       -2.73420        -1.14328        -4.71018
| 18>    N       -1.84905        -1.75841        -5.10473
| 19>    C       -3.23423         0.84799        -3.64035
| 20>    N       -2.71147         1.78818        -3.23806
| 21>    C       -5.64639        -1.81412        -4.96395
| 22>    C       -7.05539        -1.68059        -5.02242
| 23>    C       -7.86387        -2.61512        -5.62413
| 24>    C       -7.25416        -3.73962        -6.18733
| 25>    C       -5.84584        -3.86955        -6.11576
| 26>    C       -5.02773        -2.92171        -5.51310
| 27>    S       -5.31154        -5.33937        -6.86775
| 28>    C       -6.94201        -5.75718        -7.26544
| 29>    C       -7.85076        -4.84483        -6.85700
| 30>    C       -7.46521        -0.43322        -4.35443
| 31>    O       -8.59951        -0.00770        -4.28921
| 32>    C       -6.21878         0.14761        -3.79240
| 33>    C       -6.07943         1.14343        -2.87035
| 34>    C       -7.02547         2.02465        -2.29334
| 35>    C       -8.34024         2.29598        -2.58631
| 36>    C       -8.90610         3.29497        -1.76979
| 37>    C       -7.97877         3.80526        -0.81423
| 38>    S       -6.43246         3.03078        -0.96855
| 39>    C       -8.31597         4.78969         0.08583
| 40>    C       -9.61653         5.29883         0.03901
| 41>    C      -10.54345         4.79317        -0.91689
| 42>    C      -10.20806         3.80586        -1.81148
| 43>    S      -12.08686         5.59309        -0.78490
| 44>    C      -11.49234         6.59438         0.52907
| 45>    C      -10.18411         6.31093         0.83913
| 46>    C      -12.35501         7.57249         1.11643
| 47>    C      -11.98914         8.43948         2.17062
| 48>    C      -12.89753         9.43058         2.68227
| 49>    N      -12.49775        10.24164         3.68342
| 50>    C      -11.31163        10.12320         4.17896
| 51>    C      -10.41743         9.14109         3.67749
| 52>    N      -10.75654         8.34699         2.71780
| 53>    F       -9.19317         9.00606         4.18364
| 54>    F      -10.95624        10.94063         5.16396
| 55>    C      -14.20691         9.61403         2.18748
| 56>    C      -14.58620         8.73209         1.15200
| 57>    C      -13.67256         7.73932         0.63765
| 58>    N      -14.22770         7.01849        -0.33750
| 59>    S      -15.72634         7.52228        -0.58503
| 60>    N      -15.76268         8.68155         0.52120
| 61>    C      -15.06903        10.63259         2.69578
| 62>    C      -16.35549        10.89205         2.28473
| 63>    C      -16.95322        11.98116         2.94907
| 64>    C      -16.07270        12.56464         3.90378
| 65>    S      -14.53929        11.73350         3.94869
| 66>    C      -16.43595        13.65085         4.66397
| 67>    C      -17.71429        14.18501         4.47858
| 68>    C      -18.59173        13.60049         3.52123
| 69>    C      -18.23304        12.51101         2.76295
| 70>    S      -20.10855        14.44744         3.45808
| 71>    C      -19.59158        15.54366         4.72608
| 72>    C      -18.31124        15.27638         5.14248
| 73>    C      -20.46313        16.59537         5.11349
| 74>    C      -20.46030        17.34113         6.24776
| 75>    C      -19.78700        17.20359         7.52390
| 76>    C      -19.43648        16.02937         8.13678
| 77>    C      -18.86924        15.95543         9.42553
| 78>    N      -18.38862        15.84312        10.46177
| 79>    C      -19.68105        14.75422         7.58777
| 80>    N      -19.89201        13.69369         7.20312
| 81>    C      -19.79206        18.51682         8.15787
| 82>    C      -20.65026        19.37502         7.42190
| 83>    C      -21.17519        18.65189         6.25059
| 84>    O      -21.97312        19.03861         5.42882
| 85>    C      -20.89184        20.67403         7.79995
| 86>    C      -20.24984        21.15114         8.94666
| 87>    C      -19.38337        20.29106         9.66443
| 88>    C      -19.14487        18.97419         9.28913
| 89>    S      -18.69225        21.09737        11.03632
| 90>    C      -19.55402        22.54612        10.64988
| 91>    C      -20.32436        22.44046         9.54524
| 92>    H       -8.93407        -2.48130        -5.65601
| 93>    H       -3.96122        -3.06858        -5.48074
| 94>    H       -7.12204        -6.67612        -7.78876
| 95>    H       -8.90989        -4.93677        -7.01606
| 96>    H       -5.07998         1.28920        -2.47573
| 97>    H       -8.88121         1.79064        -3.36487
| 98>    H       -7.60513         5.16597         0.80381
| 99>    H      -10.91792         3.42921        -2.53007
|100>    H       -9.64935         6.82082         1.61723
|101>    H      -16.84557        10.31311         1.52410
|102>    H      -15.76169        14.08075         5.38727
|103>    H      -18.90862        12.07632         2.04392
|104>    H      -17.79061        15.87090         5.87274
|105>    H      -21.19651        16.89677         4.37116
|106>    H      -21.55633        21.30224         7.22738
|107>    H      -18.47262        18.35704         9.86223
|108>    H      -19.42806        23.40168        11.28458
|109>    H      -20.92984        23.23804         9.15446
|110> *
|111>
|112>                          ****END OF INPUT****

CARTESIAN COORDINATES (ANGSTROEM)
---------------------------------
  C     -5.100010   -0.651320   -4.279460
  C     -3.769950   -0.335050   -4.194380
  C     -2.734200   -1.143280   -4.710180
  N     -1.849050   -1.758410   -5.104730
  C     -3.234230    0.847990   -3.640350
  N     -2.711470    1.788180   -3.238060
  C     -5.646390   -1.814120   -4.963950
  C     -7.055390   -1.680590   -5.022420
  C     -7.863870   -2.615120   -5.624130
  C     -7.254160   -3.739620   -6.187330
  C     -5.845840   -3.869550   -6.115760
  C     -5.027730   -2.921710   -5.513100
  S     -5.311540   -5.339370   -6.867750
  C     -6.942010   -5.757180   -7.265440
  C     -7.850760   -4.844830   -6.857000
  C     -7.465210   -0.433220   -4.354430
  O     -8.599510   -0.007700   -4.289210
  C     -6.218780    0.147610   -3.792400
  C     -6.079430    1.143430   -2.870350
  C     -7.025470    2.024650   -2.293340
  C     -8.340240    2.295980   -2.586310
  C     -8.906100    3.294970   -1.769790
  C     -7.978770    3.805260   -0.814230
  S     -6.432460    3.030780   -0.968550
  C     -8.315970    4.789690    0.085830
  C     -9.616530    5.298830    0.039010
  C    -10.543450    4.793170   -0.916890
  C    -10.208060    3.805860   -1.811480
  S    -12.086860    5.593090   -0.784900
  C    -11.492340    6.594380    0.529070
  C    -10.184110    6.310930    0.839130
  C    -12.355010    7.572490    1.116430
  C    -11.989140    8.439480    2.170620
  C    -12.897530    9.430580    2.682270
  N    -12.497750   10.241640    3.683420
  C    -11.311630   10.123200    4.178960
  C    -10.417430    9.141090    3.677490
  N    -10.756540    8.346990    2.717800
  F     -9.193170    9.006060    4.183640
  F    -10.956240   10.940630    5.163960
  C    -14.206910    9.614030    2.187480
  C    -14.586200    8.732090    1.152000
  C    -13.672560    7.739320    0.637650
  N    -14.227700    7.018490   -0.337500
  S    -15.726340    7.522280   -0.585030
  N    -15.762680    8.681550    0.521200
  C    -15.069030   10.632590    2.695780
  C    -16.355490   10.892050    2.284730
  C    -16.953220   11.981160    2.949070
  C    -16.072700   12.564640    3.903780
  S    -14.539290   11.733500    3.948690
  C    -16.435950   13.650850    4.663970
  C    -17.714290   14.185010    4.478580
  C    -18.591730   13.600490    3.521230
  C    -18.233040   12.511010    2.762950
  S    -20.108550   14.447440    3.458080
  C    -19.591580   15.543660    4.726080
  C    -18.311240   15.276380    5.142480
  C    -20.463130   16.595370    5.113490
  C    -20.460300   17.341130    6.247760
  C    -19.787000   17.203590    7.523900
  C    -19.436480   16.029370    8.136780
  C    -18.869240   15.955430    9.425530
  N    -18.388620   15.843120   10.461770
  C    -19.681050   14.754220    7.587770
  N    -19.892010   13.693690    7.203120
  C    -19.792060   18.516820    8.157870
  C    -20.650260   19.375020    7.421900
  C    -21.175190   18.651890    6.250590
  O    -21.973120   19.038610    5.428820
  C    -20.891840   20.674030    7.799950
  C    -20.249840   21.151140    8.946660
  C    -19.383370   20.291060    9.664430
  C    -19.144870   18.974190    9.289130
  S    -18.692250   21.097370   11.036320
  C    -19.554020   22.546120   10.649880
  C    -20.324360   22.440460    9.545240
  H     -8.934070   -2.481300   -5.656010
  H     -3.961220   -3.068580   -5.480740
  H     -7.122040   -6.676120   -7.788760
  H     -8.909890   -4.936770   -7.016060
  H     -5.079980    1.289200   -2.475730
  H     -8.881210    1.790640   -3.364870
  H     -7.605130    5.165970    0.803810
  H    -10.917920    3.429210   -2.530070
  H     -9.649350    6.820820    1.617230
  H    -16.845570   10.313110    1.524100
  H    -15.761690   14.080750    5.387270
  H    -18.908620   12.076320    2.043920
  H    -17.790610   15.870900    5.872740
  H    -21.196510   16.896770    4.371160
  H    -21.556330   21.302240    7.227380
  H    -18.472620   18.357040    9.862230
  H    -19.428060   23.401680   11.284580
  H    -20.929840   23.238040    9.154460

 Total Charge           Charge          ....    0
 Multiplicity           Mult            ....    1
 Number of Electrons    NEL             ....  568
 Basis Dimension        Dim             .... 1196

ORBITAL ENERGIES
----------------

  NO   OCC          E(Eh)            E(eV)
   0   2.0000     -89.049182     -2423.1514
   1   2.0000     -88.967083     -2420.9174
   2   2.0000     -88.966178     -2420.8928
   3   2.0000     -88.952753     -2420.5275
   4   2.0000     -88.950355     -2420.4622
   5   2.0000     -88.946193     -2420.3490
   6   2.0000     -88.945641     -2420.3339
   7   2.0000     -24.821128      -675.4172
   8   2.0000     -24.820356      -675.3962
   9   2.0000     -19.218354      -522.9580
  10   2.0000     -19.214081      -522.8417
  11   2.0000     -14.461449      -393.5160
  12   2.0000     -14.458761      -393.4429
  13   2.0000     -14.456761      -393.3885
  14   2.0000     -14.456221      -393.3738
  15   2.0000     -14.415864      -392.2756
  16   2.0000     -14.412979      -392.1971
  17   2.0000     -14.412551      -392.1854
  18   2.0000     -14.412478      -392.1835
  19   2.0000     -10.437623      -284.0222
  20   2.0000     -10.436949      -284.0038
  21   2.0000     -10.369359      -282.1646
  22   2.0000     -10.365239      -282.0525
  23   2.0000     -10.352281      -281.6999
  24   2.0000     -10.351066      -281.6668
  25   2.0000     -10.345591      -281.5178
  26   2.0000     -10.344614      -281.4913
  27   2.0000     -10.343031      -281.4482
  28   2.0000     -10.341833      -281.4156
  29   2.0000     -10.340188      -281.3708
  30   2.0000     -10.339230      -281.3447
  31   2.0000     -10.321423      -280.8602
  32   2.0000     -10.321110      -280.8517
  33   2.0000     -10.320687      -280.8402
  34   2.0000     -10.320642      -280.8389
  35   2.0000     -10.319863      -280.8177
  36   2.0000     -10.318873      -280.7908
  37   2.0000     -10.318428      -280.7787
  38   2.0000     -10.315830      -280.7080
  39   2.0000     -10.315699      -280.7044
  40   2.0000     -10.315470      -280.6982
  41   2.0000     -10.314485      -280.6714
  42   2.0000     -10.314203      -280.6637
  43   2.0000     -10.313902      -280.6555
  44   2.0000     -10.313533      -280.6455
  45   2.0000     -10.313511      -280.6449
  46   2.0000     -10.312207      -280.6094
  47   2.0000     -10.307606      -280.4842
  48   2.0000     -10.306812      -280.4626
  49   2.0000     -10.306060      -280.4422
  50   2.0000     -10.305076      -280.4154
  51   2.0000     -10.304009      -280.3863
  52   2.0000     -10.302212      -280.3374
  53   2.0000     -10.302118      -280.3349
  54   2.0000     -10.301225      -280.3106
  55   2.0000     -10.299740      -280.2702
  56   2.0000     -10.299680      -280.2685
  57   2.0000     -10.298211      -280.2286
  58   2.0000     -10.298184      -280.2278
  59   2.0000     -10.297870      -280.2193
  60   2.0000     -10.295197      -280.1465
  61   2.0000     -10.291983      -280.0591
  62   2.0000     -10.291301      -280.0405
  63   2.0000     -10.289519      -279.9920
  64   2.0000     -10.289468      -279.9907
  65   2.0000     -10.288792      -279.9723
  66   2.0000     -10.288665      -279.9688
  67   2.0000     -10.287322      -279.9323
  68   2.0000     -10.286522      -279.9105
  69   2.0000     -10.286402      -279.9072
  70   2.0000     -10.284935      -279.8673
  71   2.0000     -10.284837      -279.8646
  72   2.0000     -10.284707      -279.8611
  73   2.0000     -10.284541      -279.8566
  74   2.0000     -10.283872      -279.8384
  75   2.0000     -10.276987      -279.6510
  76   2.0000     -10.276274      -279.6316
  77   2.0000      -8.140118      -221.5039
  78   2.0000      -8.063438      -219.4173
  79   2.0000      -8.062359      -219.3879
  80   2.0000      -8.048864      -219.0207
  81   2.0000      -8.046511      -218.9567
  82   2.0000      -8.040983      -218.8063
  83   2.0000      -8.039962      -218.7785
  84   2.0000      -6.111185      -166.2938
  85   2.0000      -6.103406      -166.0821
  86   2.0000      -6.103009      -166.0713
  87   2.0000      -6.032954      -164.1650
  88   2.0000      -6.031887      -164.1360
  89   2.0000      -6.028643      -164.0477
  90   2.0000      -6.027556      -164.0182
  91   2.0000      -6.025077      -163.9507
  92   2.0000      -6.024056      -163.9229
  93   2.0000      -6.018469      -163.7709
  94   2.0000      -6.016059      -163.7053
  95   2.0000      -6.014483      -163.6624
  96   2.0000      -6.012148      -163.5989
  97   2.0000      -6.010797      -163.5621
  98   2.0000      -6.010045      -163.5416
  99   2.0000      -6.009793      -163.5348
 100   2.0000      -6.007695      -163.4777
 101   2.0000      -6.006448      -163.4437
 102   2.0000      -6.005364      -163.4143
 103   2.0000      -6.002077      -163.3248
 104   2.0000      -6.001168      -163.3001
 105   2.0000      -1.348959       -36.7070
 106   2.0000      -1.334934       -36.3254
 107   2.0000      -1.146265       -31.1915
 108   2.0000      -1.133074       -30.8325
 109   2.0000      -1.129614       -30.7383
 110   2.0000      -1.120127       -30.4802
 111   2.0000      -1.045690       -28.4547
 112   2.0000      -1.020400       -27.7665
 113   2.0000      -1.018758       -27.7218
 114   2.0000      -1.008219       -27.4350
 115   2.0000      -1.007003       -27.4019
 116   2.0000      -1.006546       -27.3895
 117   2.0000      -1.003629       -27.3101
 118   2.0000      -0.998949       -27.1828
 119   2.0000      -0.992825       -27.0161
 120   2.0000      -0.991327       -26.9754
 121   2.0000      -0.988477       -26.8978
 122   2.0000      -0.984747       -26.7963
 123   2.0000      -0.983644       -26.7663
 124   2.0000      -0.975735       -26.5511
 125   2.0000      -0.966454       -26.2985
 126   2.0000      -0.932713       -25.3804
 127   2.0000      -0.931249       -25.3406
 128   2.0000      -0.921153       -25.0658
 129   2.0000      -0.914228       -24.8774
 130   2.0000      -0.899616       -24.4798
 131   2.0000      -0.893742       -24.3200
 132   2.0000      -0.891103       -24.2482
 133   2.0000      -0.882497       -24.0140
 134   2.0000      -0.881563       -23.9885
 135   2.0000      -0.880161       -23.9504
 136   2.0000      -0.877510       -23.8783
 137   2.0000      -0.876491       -23.8505
 138   2.0000      -0.864673       -23.5289
 139   2.0000      -0.857514       -23.3342
 140   2.0000      -0.835206       -22.7271
 141   2.0000      -0.831717       -22.6322
 142   2.0000      -0.823682       -22.4135
 143   2.0000      -0.822905       -22.3924
 144   2.0000      -0.822264       -22.3749
 145   2.0000      -0.814821       -22.1724
 146   2.0000      -0.807014       -21.9600
 147   2.0000      -0.788117       -21.4457
 148   2.0000      -0.786687       -21.4068
 149   2.0000      -0.783096       -21.3091
 150   2.0000      -0.775310       -21.0973
 151   2.0000      -0.764487       -20.8028
 152   2.0000      -0.759058       -20.6550
 153   2.0000      -0.756528       -20.5862
 154   2.0000      -0.753350       -20.4997
 155   2.0000      -0.738189       -20.0872
 156   2.0000      -0.723892       -19.6981
 157   2.0000      -0.709563       -19.3082
 158   2.0000      -0.699265       -19.0280
 159   2.0000      -0.692250       -18.8371
 160   2.0000      -0.688136       -18.7251
 161   2.0000      -0.687656       -18.7121
 162   2.0000      -0.686623       -18.6840
 163   2.0000      -0.684981       -18.6393
 164   2.0000      -0.682730       -18.5780
 165   2.0000      -0.681676       -18.5494
 166   2.0000      -0.674447       -18.3526
 167   2.0000      -0.664951       -18.0942
 168   2.0000      -0.662279       -18.0215
 169   2.0000      -0.660661       -17.9775
 170   2.0000      -0.658264       -17.9123
 171   2.0000      -0.649453       -17.6725
 172   2.0000      -0.645412       -17.5626
 173   2.0000      -0.641862       -17.4660
 174   2.0000      -0.630104       -17.1460
 175   2.0000      -0.627480       -17.0746
 176   2.0000      -0.624119       -16.9831
 177   2.0000      -0.620031       -16.8719
 178   2.0000      -0.618586       -16.8326
 179   2.0000      -0.614805       -16.7297
 180   2.0000      -0.608396       -16.5553
 181   2.0000      -0.604206       -16.4413
 182   2.0000      -0.599698       -16.3186
 183   2.0000      -0.596405       -16.2290
 184   2.0000      -0.588347       -16.0097
 185   2.0000      -0.585135       -15.9223
 186   2.0000      -0.576049       -15.6751
 187   2.0000      -0.571619       -15.5545
 188   2.0000      -0.571282       -15.5454
 189   2.0000      -0.566421       -15.4131
 190   2.0000      -0.564381       -15.3576
 191   2.0000      -0.561515       -15.2796
 192   2.0000      -0.557459       -15.1692
 193   2.0000      -0.551380       -15.0038
 194   2.0000      -0.548054       -14.9133
 195   2.0000      -0.545054       -14.8317
 196   2.0000      -0.543090       -14.7782
 197   2.0000      -0.538555       -14.6548
 198   2.0000      -0.537113       -14.6156
 199   2.0000      -0.534339       -14.5401
 200   2.0000      -0.532718       -14.4960
 201   2.0000      -0.531670       -14.4675
 202   2.0000      -0.530875       -14.4459
 203   2.0000      -0.527002       -14.3405
 204   2.0000      -0.526583       -14.3291
 205   2.0000      -0.522015       -14.2048
 206   2.0000      -0.520483       -14.1631
 207   2.0000      -0.517521       -14.0825
 208   2.0000      -0.515335       -14.0230
 209   2.0000      -0.513172       -13.9641
 210   2.0000      -0.510497       -13.8913
 211   2.0000      -0.509023       -13.8512
 212   2.0000      -0.506976       -13.7955
 213   2.0000      -0.506372       -13.7791
 214   2.0000      -0.499945       -13.6042
 215   2.0000      -0.499779       -13.5997
 216   2.0000      -0.496131       -13.5004
 217   2.0000      -0.493655       -13.4330
 218   2.0000      -0.492854       -13.4112
 219   2.0000      -0.491882       -13.3848
 220   2.0000      -0.490534       -13.3481
 221   2.0000      -0.488509       -13.2930
 222   2.0000      -0.487252       -13.2588
 223   2.0000      -0.483124       -13.1465
 224   2.0000      -0.475911       -12.9502
 225   2.0000      -0.473410       -12.8821
 226   2.0000      -0.471459       -12.8291
 227   2.0000      -0.468816       -12.7571
 228   2.0000      -0.466702       -12.6996
 229   2.0000      -0.458128       -12.4663
 230   2.0000      -0.457224       -12.4417
 231   2.0000      -0.453419       -12.3382
 232   2.0000      -0.452160       -12.3039
 233   2.0000      -0.451658       -12.2902
 234   2.0000      -0.450976       -12.2717
 235   2.0000      -0.447362       -12.1733
 236   2.0000      -0.445733       -12.1290
 237   2.0000      -0.442540       -12.0421
 238   2.0000      -0.441189       -12.0054
 239   2.0000      -0.440657       -11.9909
 240   2.0000      -0.440077       -11.9751
 241   2.0000      -0.438023       -11.9192
 242   2.0000      -0.434640       -11.8272
 243   2.0000      -0.432964       -11.7816
 244   2.0000      -0.432708       -11.7746
 245   2.0000      -0.432105       -11.7582
 246   2.0000      -0.430371       -11.7110
 247   2.0000      -0.428005       -11.6466
 248   2.0000      -0.425689       -11.5836
 249   2.0000      -0.424011       -11.5379
 250   2.0000      -0.421223       -11.4620
 251   2.0000      -0.419466       -11.4142
 252   2.0000      -0.418196       -11.3797
 253   2.0000      -0.414566       -11.2809
 254   2.0000      -0.414234       -11.2719
 255   2.0000      -0.411083       -11.1861
 256   2.0000      -0.404364       -11.0033
 257   2.0000      -0.403543       -10.9810
 258   2.0000      -0.400448       -10.8967
 259   2.0000      -0.390991       -10.6394
 260   2.0000      -0.387246       -10.5375
 261   2.0000      -0.384433       -10.4609
 262   2.0000      -0.380744       -10.3606
 263   2.0000      -0.378470       -10.2987
 264   2.0000      -0.373561       -10.1651
 265   2.0000      -0.371620       -10.1123
 266   2.0000      -0.364959        -9.9310
 267   2.0000      -0.359171        -9.7736
 268   2.0000      -0.350617        -9.5408
 269   2.0000      -0.347946        -9.4681
 270   2.0000      -0.343434        -9.3453
 271   2.0000      -0.338057        -9.1990
 272   2.0000      -0.335486        -9.1290
 273   2.0000      -0.332082        -9.0364
 274   2.0000      -0.322117        -8.7652
 275   2.0000      -0.313812        -8.5393
 276   2.0000      -0.313400        -8.5280
 277   2.0000      -0.302030        -8.2187
 278   2.0000      -0.296137        -8.0583
 279   2.0000      -0.293001        -7.9730
 280   2.0000      -0.285978        -7.7819
 281   2.0000      -0.277132        -7.5412
 282   2.0000      -0.262285        -7.1371
 283   2.0000      -0.241920        -6.5830
 284   0.0000      -0.120666        -3.2835
 285   0.0000      -0.089574        -2.4374
 286   0.0000      -0.087279        -2.3750
 287   0.0000      -0.058431        -1.5900
 288   0.0000      -0.056765        -1.5447

MULLIKEN ATOMIC CHARGES
-----------------------
   0 C :    0.297236
   1 C :   -0.347051
   2 C :   -0.187556
   3 N :    0.149057
   4 C :   -0.200641
   5 N :    0.163058
   6 C :    0.014411
   7 C :   -0.007777
   8 C :   -0.071359
   9 C :    0.113260
  10 C :   -0.094285
  11 C :   -0.023703
  12 S :    0.141060
  13 C :   -0.048708
  14 C :    0.026364
  15 C :    0.155366
  16 O :   -0.157557
  17 C :   -0.076460
  18 C :    0.050030
  19 C :   -0.097471
  20 C :   -0.002958
  21 C :    0.094283
  22 C :   -0.031141
  23 S :    0.120460
  24 C :   -0.054557
  25 C :    0.131843
  26 C :   -0.014088
  27 C :   -0.051192
  28 S :    0.132568
  29 C :   -0.152479
  30 C :   -0.042208
  31 C :    0.205718
  32 C :   -0.067766
  33 C :   -0.060404
  34 N :   -0.032709
  35 C :    0.151528
  36 C :    0.141585
  37 N :    0.002956
  38 F :   -0.140506
  39 F :   -0.133903
  40 C :    0.182731
  41 C :   -0.001086
  42 C :   -0.028739
  43 N :   -0.319572
  44 S :    0.558691
  45 N :   -0.293551
  46 C :   -0.151991
  47 C :   -0.039676
  48 C :    0.131731
  49 C :   -0.015681
  50 S :    0.135539
  51 C :   -0.053908
  52 C :    0.095456
  53 C :   -0.024004
  54 C :   -0.055111
  55 S :    0.130760
  56 C :   -0.104272
  57 C :    0.022111
  58 C :    0.086470
  59 C :   -0.123859
  60 C :    0.261496
  61 C :   -0.333715
  62 C :   -0.180629
  63 N :    0.157076
  64 C :   -0.205117
  65 N :    0.181228
  66 C :    0.001240
  67 C :    0.003282
  68 C :    0.134746
  69 O :   -0.143486
  70 C :   -0.068844
  71 C :    0.107881
  72 C :   -0.090036
  73 C :   -0.025696
  74 S :    0.140154
  75 C :   -0.050771
  76 C :    0.027336
  77 H :   -0.012169
  78 H :   -0.005309
  79 H :    0.038152
  80 H :   -0.006588
  81 H :    0.016415
  82 H :    0.009199
  83 H :   -0.026085
  84 H :   -0.024745
  85 H :   -0.004934
  86 H :   -0.008598
  87 H :   -0.029768
  88 H :   -0.029101
  89 H :   -0.005652
  90 H :    0.026210
  91 H :   -0.009640
  92 H :   -0.003327
  93 H :    0.039671
  94 H :   -0.006217
Sum of atomic charges:   -0.0000000

LOEWDIN ATOMIC CHARGES
----------------------
   0 C :    0.076712
   1 C :   -0.140389
   2 C :   -0.017573
   3 N :   -0.053769
   4 C :   -0.027109
   5 N :   -0.047882
   6 C :   -0.022756
   7 C :   -0.052806
   8 C :    0.022441
   9 C :   -0.034966
  10 C :   -0.145202
  11 C :   -0.008664
  12 S :    0.430109
  13 C :   -0.149308
  14 C :   -0.058101
  15 C :    0.088732
  16 O :   -0.141836
  17 C :   -0.088826
  18 C :    0.050721
  19 C :   -0.168966
  20 C :    0.003079
  21 C :   -0.050231
  22 C :   -0.147489
  23 S :    0.402558
  24 C :   -0.033148
  25 C :   -0.037703
  26 C :   -0.158276
  27 C :   -0.022086
  28 S :    0.424277
  29 C :   -0.147471
  30 C :   -0.033503
  31 C :   -0.039374
  32 C :   -0.004648
  33 C :   -0.010931
  34 N :   -0.047030
  35 C :    0.061996
  36 C :    0.061882
  37 N :   -0.030193
  38 F :   -0.028900
  39 F :   -0.023293
  40 C :   -0.034351
  41 C :   -0.036797
  42 C :   -0.044522
  43 N :   -0.293639
  44 S :    0.681071
  45 N :   -0.279036
  46 C :   -0.152996
  47 C :   -0.030034
  48 C :   -0.040305
  49 C :   -0.157008
  50 S :    0.425554
  51 C :   -0.025802
  52 C :   -0.041270
  53 C :   -0.144465
  54 C :   -0.030336
  55 S :    0.410511
  56 C :   -0.169258
  57 C :   -0.009854
  58 C :    0.050020
  59 C :   -0.085689
  60 C :    0.065255
  61 C :   -0.138354
  62 C :   -0.020771
  63 N :   -0.051359
  64 C :   -0.020861
  65 N :   -0.036689
  66 C :   -0.019834
  67 C :   -0.055561
  68 C :    0.083930
  69 O :   -0.142021
  70 C :    0.024476
  71 C :   -0.035859
  72 C :   -0.144516
  73 C :   -0.012181
  74 S :    0.429552
  75 C :   -0.149869
  76 C :   -0.057178
  77 H :    0.039897
  78 H :    0.040885
  79 H :    0.029359
  80 H :    0.035234
  81 H :    0.043856
  82 H :    0.034514
  83 H :    0.032961
  84 H :    0.033732
  85 H :    0.029502
  86 H :    0.029157
  87 H :    0.031976
  88 H :    0.031986
  89 H :    0.033440
  90 H :    0.046800
  91 H :    0.041092
  92 H :    0.040409
  93 H :    0.029606
  94 H :    0.035563

  Mayer bond orders larger than 0.100000
B(  0-C ,  1-C ) :   1.6345 B(  0-C ,  6-C ) :   1.0025 B(  0-C , 17-C ) :   1.0647
B(  1-C ,  2-C ) :   1.1440 B(  1-C ,  4-C ) :   1.1347 B(  2-C ,  3-N ) :   2.9744
B(  4-C ,  5-N ) :   2.9944 B(  6-C ,  7-C ) :   1.2701 B(  6-C , 11-C ) :   1.4086
B(  7-C ,  8-C ) :   1.4202 B(  7-C , 15-C ) :   0.9568 B(  8-C ,  9-C ) :   1.2454
B(  8-C , 77-H ) :   1.0175 B(  9-C , 10-C ) :   1.3009 B(  9-C , 14-C ) :   1.1730
B( 10-C , 11-C ) :   1.3238 B( 10-C , 12-S ) :   1.0984 B( 11-C , 78-H ) :   0.9843
B( 12-S , 13-C ) :   1.1273 B( 13-C , 14-C ) :   1.6282 B( 13-C , 79-H ) :   0.9684
B( 14-C , 80-H ) :   0.9992 B( 15-C , 16-O ) :   2.1666 B( 15-C , 17-C ) :   0.9346
B( 17-C , 18-C ) :   1.6207 B( 18-C , 19-C ) :   1.1885 B( 18-C , 81-H ) :   0.9204
B( 19-C , 20-C ) :   1.5080 B( 19-C , 23-S ) :   1.0612 B( 20-C , 21-C ) :   1.1635
B( 20-C , 82-H ) :   0.9820 B( 21-C , 22-C ) :   1.2586 B( 21-C , 27-C ) :   1.2930
B( 22-C , 23-S ) :   1.0573 B( 22-C , 24-C ) :   1.3801 B( 24-C , 25-C ) :   1.3106
B( 24-C , 27-C ) :   0.1011 B( 24-C , 83-H ) :   1.0039 B( 25-C , 26-C ) :   1.2559
B( 25-C , 30-C ) :   1.1349 B( 26-C , 27-C ) :   1.4012 B( 26-C , 28-S ) :   1.0043
B( 27-C , 84-H ) :   1.0030 B( 28-S , 29-C ) :   1.0815 B( 29-C , 30-C ) :   1.5223
B( 29-C , 31-C ) :   1.1592 B( 30-C , 85-H ) :   0.9924 B( 31-C , 32-C ) :   1.3105
B( 31-C , 40-C ) :   0.1297 B( 31-C , 42-C ) :   1.1906 B( 32-C , 33-C ) :   1.1106
B( 32-C , 37-N ) :   1.4244 B( 33-C , 34-N ) :   1.3847 B( 33-C , 40-C ) :   1.2971
B( 34-N , 35-C ) :   1.6633 B( 35-C , 36-C ) :   1.1011 B( 35-C , 39-F ) :   1.1889
B( 36-C , 37-N ) :   1.6740 B( 36-C , 38-F ) :   1.1736 B( 40-C , 41-C ) :   1.2100
B( 40-C , 46-C ) :   1.1670 B( 41-C , 42-C ) :   1.1112 B( 41-C , 45-N ) :   1.4983
B( 42-C , 43-N ) :   1.4720 B( 43-N , 44-S ) :   1.2830 B( 43-N , 45-N ) :   0.1544
B( 44-S , 45-N ) :   1.2838 B( 46-C , 47-C ) :   1.5275 B( 46-C , 50-S ) :   1.0725
B( 47-C , 48-C ) :   1.1400 B( 47-C , 86-H ) :   0.9873 B( 48-C , 49-C ) :   1.2630
B( 48-C , 54-C ) :   1.3069 B( 49-C , 50-S ) :   0.9976 B( 49-C , 51-C ) :   1.4018
B( 51-C , 52-C ) :   1.2969 B( 51-C , 54-C ) :   0.1013 B( 51-C , 87-H ) :   1.0024
B( 52-C , 53-C ) :   1.2725 B( 52-C , 57-C ) :   1.1987 B( 53-C , 54-C ) :   1.3844
B( 53-C , 55-S ) :   1.0503 B( 54-C , 88-H ) :   1.0029 B( 55-S , 56-C ) :   1.0709
B( 56-C , 57-C ) :   1.5159 B( 56-C , 58-C ) :   1.0990 B( 57-C , 89-H ) :   0.9924
B( 58-C , 59-C ) :   1.7037 B( 58-C , 90-H ) :   0.9285 B( 59-C , 60-C ) :   1.0289
B( 59-C , 68-C ) :   0.9358 B( 60-C , 61-C ) :   1.6556 B( 60-C , 66-C ) :   1.0136
B( 61-C , 62-C ) :   1.1273 B( 61-C , 64-C ) :   1.1645 B( 62-C , 63-N ) :   2.9915
B( 64-C , 65-N ) :   3.0094 B( 66-C , 67-C ) :   1.2691 B( 66-C , 73-C ) :   1.4144
B( 67-C , 68-C ) :   0.9237 B( 67-C , 70-C ) :   1.4242 B( 68-C , 69-O ) :   2.2661
B( 70-C , 71-C ) :   1.2521 B( 70-C , 91-H ) :   1.0167 B( 71-C , 72-C ) :   1.3018
B( 71-C , 76-C ) :   1.1735 B( 72-C , 73-C ) :   1.3197 B( 72-C , 74-S ) :   1.0983
B( 73-C , 92-H ) :   0.9868 B( 74-S , 75-C ) :   1.1262 B( 75-C , 76-C ) :   1.6297
B( 75-C , 93-H ) :   0.9682 B( 76-C , 94-H ) :   0.9993

-----------------------------------------------------------------------------
         ABSORPTION SPECTRUM VIA TRANSITION ELECTRIC DIPOLE MOMENTS
-----------------------------------------------------------------------------
State   Energy  Wavelength   fosc         T2         TX        TY        TZ
        (cm-1)    (nm)                  (au**2)     (au)      (au)      (au)
-----------------------------------------------------------------------------
   0   11609.8    861.3   1.195639956  33.90412   3.67087  -3.96337  -2.17268
   1   16083.9    621.7   0.000283267   0.00580   0.00730   0.02780   0.07051
   2   18232.4    548.5   0.142192781   2.56750  -0.45264   1.18785   0.97552
   3   19421.9    514.9   0.356467134   6.04230  -1.25889   1.54065   1.44357
   4   20500.4    487.8   0.601714651   9.66281   1.96630  -2.06749  -1.23368
   5   22018.5    454.2   0.001615336   0.02415   0.02933  -0.08679  -0.12553
   6   24625.4    406.1   0.306123910   4.09251  -0.56941   1.34319   1.40147
   7   25223.3    396.5   0.266692054   3.48084   0.83431  -1.30132  -1.04467
   8   25970.3    385.1   0.047615754   0.60360   0.61110  -0.33040  -0.34784
   9   26580.4    376.2   0.020842514   0.25815   0.39341  -0.31188   0.07814
  10   26772.9    373.5   0.064310684   0.79079   0.82062  -0.26585   0.21609
  11   27339.8    365.8   0.258259774   3.10984   0.15863   1.63454   0.64261
  12   27510.8    363.5   0.120774581   1.44527  -0.74230   0.90723  -0.26682
  13   27959.9    357.7   0.044611208   0.52527  -0.08968   0.63330   0.34083
  14   28577.9    349.9   0.110307898   1.27072  -0.35699   0.93148   0.52501
  15   28729.1    348.1   0.217703923   2.49471   0.27335  -1.00144  -1.19043
  16   29163.3    342.9   0.003487881   0.03937   0.19820   0.00290  -0.00903
  17   29395.1    340.2   0.047479365   0.53175  -0.45737   0.56768  -0.01728
  18   29631.4    337.5   0.131190358   1.45756   0.45513  -0.96903  -0.55803
  19   29724.2    336.4   0.001117500   0.01238   0.02952   0.10490   0.02241
  20   29850.4    335.0   0.012468891   0.13752  -0.34388   0.10747   0.08782
  21   30444.7    328.5   0.008025544   0.08678  -0.15729  -0.17803  -0.17421
  22   30546.0    327.4   0.107020844   1.15342   0.60775   0.60971   0.64212
  23   30712.5    325.6   0.138172726   1.48109  -0.70583  -0.68013  -0.72133
  24   31434.5    318.1   0.138538295   1.45091  -0.33172   1.15770   0.02448
  25   31678.6    315.7   0.032450517   0.33723  -0.55966   0.01267  -0.15444
  26   31927.2    313.2   0.240856530   2.48355   0.10391   1.39259   0.73038
  27   32538.8    307.3   0.179916744   1.82031   0.94367  -0.87100  -0.41371
  28   32646.6    306.3   0.082116325   0.82807   0.61960  -0.65926   0.09767
  29   32983.5    303.2   0.101586336   1.01395  -0.85297   0.52802   0.08712
  30   33052.6    302.5   0.281687805   2.80568   0.80416   1.17160   0.88677
  31   33321.8    300.1   0.271192680   2.67932  -0.64616  -1.44926  -0.40181
  32   33536.4    298.2   0.018461143   0.18123   0.17608  -0.36972   0.11630
  33   33751.4    296.3   0.061286436   0.59779   0.65795  -0.39969  -0.07170
  34   33853.4    295.4   0.068016746   0.66144  -0.54031  -0.56324  -0.22859
  35   34120.6    293.1   0.192450721   1.85685   0.05295   1.23024   0.58357
  36   34626.0    288.8   0.033400431   0.31756  -0.13299  -0.32084  -0.44377
  37   35010.5    285.6   0.119076460   1.11970   0.89442  -0.54905   0.13511
  38   35085.9    285.0   0.049792509   0.46720  -0.45024  -0.21388  -0.46770
  39   35559.4    281.2   0.380267480   3.52054  -0.69959  -1.65443  -0.54220
  40   35786.6    279.4   0.052765775   0.48541  -0.43631  -0.45157  -0.30187
  41   35856.2    278.9   0.057511234   0.52804   0.63505  -0.02907   0.35200
  42   36021.2    277.6   0.184063511   1.68223  -0.17587   0.95702   0.85756
  43   36253.0    275.8   0.023776151   0.21591  -0.40769   0.21578   0.05606
  44   36626.2    273.0   0.026510235   0.23829   0.20938   0.43299   0.08344
  45   36670.2    272.7   0.237843640   2.13528   1.30501  -0.45707   0.47257
  46   36910.7    270.9   0.003614597   0.03224  -0.02486   0.12044  -0.13082
  47   37286.9    268.2   0.094103625   0.83086   0.79364  -0.02166   0.44780
  48   37611.9    265.9   0.108147360   0.94660   0.67789   0.25843   0.64828
  49   37954.1    263.5   0.059953587   0.52003  -0.65301   0.30553   0.01612
  50   38297.8    261.1   0.092367471   0.79400   0.75783   0.23339   0.40647
  51   38901.8    257.1   0.053254911   0.45068   0.62740  -0.23658  -0.03271
  52   38977.7    256.6   0.034022534   0.28736  -0.09216   0.46106   0.25747
  53   39214.7    255.0   0.123249282   1.03469   0.37959  -0.64977  -0.68440
  54   39326.6    254.3   0.174133364   1.45771   1.08738  -0.13129   0.50801
  55   39571.0    252.7   0.135789942   1.12971  -0.98431   0.37809  -0.13377
  56   39618.0    252.4   0.020920464   0.17384  -0.19800   0.34696   0.11942
  57   39732.1    251.7   0.020865852   0.17289   0.01394  -0.13558   0.39283
  58   39919.7    250.5   0.000805750   0.00664   0.03537   0.05751  -0.04568
  59   40217.6    248.6   0.107943651   0.88360  -0.49027  -0.61875  -0.51027

FINAL SINGLE POINT ENERGY     -5791.856696213801

DIPOLE MOMENT
-------------
                                X             Y             Z
Electronic contribution:     11.46579       0.39161       9.34395
Nuclear contribution   :    -13.70071       0.38059     -10.14243
                        -----------------------------------------
Total Dipole Moment    :     -2.23492       0.77219      -0.79848
                        -----------------------------------------
Magnitude (a.u.)       :      2.49574
Magnitude (Debye)      :      6.34367

Rotational constants in cm-1:     0.002820     0.000133     0.000129
Rotational constants in MHz :    84.555776     3.995955     3.859501

                             ****ORCA TERMINATED NORMALLY****
TOTAL RUN TIME: 0 days 0 hours 15 minutes 26 seconds 817 msec
