                         Program Version 4.2.0 -  RELEASE  -
|  1> # ORCA input file
|  2> # SCF done       -158.727977682105          0.000430534415
|  3> ! CAM-B3LYP def2-SVP def2/J RIJCOSX Grid4 TightSCF
|  4> %maxcore 5000
|  5> %tddft
|  6>     Mode sTDDFT
|  7>     Ethresh 5.0
|  8>     maxcore 5000
|  9> end
| 10>
| 11> %pal
| 12>   nprocs 6
| 13>   end
| 14> * xyz 0 1
| 15>    C       -8.08953        -3.76108        -1.80907
| 16>    C       -6.77242        -3.90342        -1.45244
| 17>    C       -6.02415        -5.08434        -1.64171
| 18>    N       -5.35910        -6.01151        -1.76812
| 19>    C       -5.97986        -2.91814        -0.82753
| 20>    N       -5.27107        -2.17720        -0.31009
| 21>    C       -8.91986        -4.80035        -2.40628
| 22>    C      -10.24411        -4.31018        -2.53357
| 23>    C      -11.26484        -5.06273        -3.06290
| 24>    C      -10.96583        -6.35824        -3.49430
| 25>    C       -9.63934        -6.83764        -3.36930
| 26>    C       -8.60777        -6.07881        -2.82918
| 27>    S       -9.49744        -8.45804        -3.97359
| 28>    C      -11.17869        -8.47998        -4.37899
| 29>    C      -11.82391        -7.33155        -4.07904
| 30>    C      -10.30587        -2.92499        -2.03700
| 31>    O      -11.29310        -2.22108        -1.98429
| 32>    C       -8.91664        -2.58218        -1.63231
| 33>    C       -8.50140        -1.34105        -1.23240
| 34>    C       -9.34068        -0.21596        -1.10018
| 35>    C       -8.85731         1.01801        -0.76838
| 36>    C       -9.68031         2.15800        -0.67039
| 37>    C       -9.18494         3.40459        -0.42118
| 38>    C       -9.94370         4.59943        -0.35082
| 39>    C       -9.27559         5.84410        -0.18853
| 40>    C       -9.97803         7.09741        -0.18006
| 41>    N       -9.29426         8.24541        -0.04512
| 42>    C       -7.99198         8.20705         0.08253
| 43>    C       -7.29175         6.95587         0.08168
| 44>    N       -7.93959         5.82647        -0.05361
| 45>    C       -5.88198         6.93348         0.23307
| 46>    N       -4.74381         6.95405         0.35788
| 47>    C       -7.27772         9.42294         0.23143
| 48>    N       -6.67549        10.38876         0.35821
| 49>    C      -11.39112         7.17948        -0.31215
| 50>    C      -12.06274         5.93850        -0.41533
| 51>    C      -11.35392         4.67778        -0.44667
| 52>    N      -12.19536         3.64924        -0.56846
| 53>    S      -13.69965         4.19413        -0.63464
| 54>    N      -13.38151         5.75867        -0.51294
| 55>    C      -12.01170         8.45247        -0.37174
| 56>    C      -13.34911         8.68716        -0.48394
| 57>    C      -13.87291         9.98735        -0.64654
| 58>    C      -15.20610        10.24959        -0.74258
| 59>    C      -15.77591        11.53370        -0.92585
| 60>    C      -15.24907        12.65036        -1.50202
| 61>    C      -14.09349        12.88983        -2.34183
| 62>    C      -13.51045        12.00426        -3.21173
| 63>    C      -12.45503        12.33858        -4.08524
| 64>    N      -11.58966        12.54849        -4.80948
| 65>    C      -13.94394        10.67822        -3.40633
| 66>    N      -14.27012         9.60219        -3.63744
| 67>    C      -13.81910        14.32231        -2.30153
| 68>    C      -14.90271        14.97779        -1.66049
| 69>    C      -15.88077        13.97224        -1.21345
| 70>    O      -16.95253        14.15375        -0.68272
| 71>    C      -14.95327        16.34328        -1.51253
| 72>    C      -13.88368        17.09444        -2.00903
| 73>    C      -12.79858        16.42874        -2.63024
| 74>    C      -12.74901        15.04840        -2.78665
| 75>    S      -11.58799        17.55395        -3.15580
| 76>    C      -12.52609        18.87882        -2.55966
| 77>    C      -13.69189        18.50459        -1.98860
| 78>    H      -12.26273        -4.66031        -3.14404
| 79>    H       -7.61451        -6.48944        -2.75882
| 80>    H      -11.58632        -9.36641        -4.82486
| 81>    H      -12.87012        -7.16347        -4.26003
| 82>    H       -7.45091        -1.18675        -1.02018
| 83>    H      -10.39723        -0.34258        -1.28729
| 84>    H       -7.79557         1.14040        -0.58851
| 85>    H      -10.74276         2.03064        -0.82164
| 86>    H       -8.11856         3.53484        -0.28877
| 87>    H      -11.32708         9.29044        -0.34092
| 88>    H      -14.03740         7.85493        -0.49313
| 89>    H      -13.16584        10.80769        -0.67881
| 90>    H      -15.90054         9.43288        -0.59380
| 91>    H      -16.76643        11.68179        -0.50342
| 92>    H      -15.79397        16.81687        -1.02988
| 93>    H      -11.89903        14.58468        -3.25949
| 94>    H      -12.13966        19.87280        -2.67515
| 95>    H      -14.40194        19.19058        -1.56357
| 96> *
| 97>
| 98>                          ****END OF INPUT****

CARTESIAN COORDINATES (ANGSTROEM)
---------------------------------
  C     -8.089530   -3.761080   -1.809070
  C     -6.772420   -3.903420   -1.452440
  C     -6.024150   -5.084340   -1.641710
  N     -5.359100   -6.011510   -1.768120
  C     -5.979860   -2.918140   -0.827530
  N     -5.271070   -2.177200   -0.310090
  C     -8.919860   -4.800350   -2.406280
  C    -10.244110   -4.310180   -2.533570
  C    -11.264840   -5.062730   -3.062900
  C    -10.965830   -6.358240   -3.494300
  C     -9.639340   -6.837640   -3.369300
  C     -8.607770   -6.078810   -2.829180
  S     -9.497440   -8.458040   -3.973590
  C    -11.178690   -8.479980   -4.378990
  C    -11.823910   -7.331550   -4.079040
  C    -10.305870   -2.924990   -2.037000
  O    -11.293100   -2.221080   -1.984290
  C     -8.916640   -2.582180   -1.632310
  C     -8.501400   -1.341050   -1.232400
  C     -9.340680   -0.215960   -1.100180
  C     -8.857310    1.018010   -0.768380
  C     -9.680310    2.158000   -0.670390
  C     -9.184940    3.404590   -0.421180
  C     -9.943700    4.599430   -0.350820
  C     -9.275590    5.844100   -0.188530
  C     -9.978030    7.097410   -0.180060
  N     -9.294260    8.245410   -0.045120
  C     -7.991980    8.207050    0.082530
  C     -7.291750    6.955870    0.081680
  N     -7.939590    5.826470   -0.053610
  C     -5.881980    6.933480    0.233070
  N     -4.743810    6.954050    0.357880
  C     -7.277720    9.422940    0.231430
  N     -6.675490   10.388760    0.358210
  C    -11.391120    7.179480   -0.312150
  C    -12.062740    5.938500   -0.415330
  C    -11.353920    4.677780   -0.446670
  N    -12.195360    3.649240   -0.568460
  S    -13.699650    4.194130   -0.634640
  N    -13.381510    5.758670   -0.512940
  C    -12.011700    8.452470   -0.371740
  C    -13.349110    8.687160   -0.483940
  C    -13.872910    9.987350   -0.646540
  C    -15.206100   10.249590   -0.742580
  C    -15.775910   11.533700   -0.925850
  C    -15.249070   12.650360   -1.502020
  C    -14.093490   12.889830   -2.341830
  C    -13.510450   12.004260   -3.211730
  C    -12.455030   12.338580   -4.085240
  N    -11.589660   12.548490   -4.809480
  C    -13.943940   10.678220   -3.406330
  N    -14.270120    9.602190   -3.637440
  C    -13.819100   14.322310   -2.301530
  C    -14.902710   14.977790   -1.660490
  C    -15.880770   13.972240   -1.213450
  O    -16.952530   14.153750   -0.682720
  C    -14.953270   16.343280   -1.512530
  C    -13.883680   17.094440   -2.009030
  C    -12.798580   16.428740   -2.630240
  C    -12.749010   15.048400   -2.786650
  S    -11.587990   17.553950   -3.155800
  C    -12.526090   18.878820   -2.559660
  C    -13.691890   18.504590   -1.988600
  H    -12.262730   -4.660310   -3.144040
  H     -7.614510   -6.489440   -2.758820
  H    -11.586320   -9.366410   -4.824860
  H    -12.870120   -7.163470   -4.260030
  H     -7.450910   -1.186750   -1.020180
  H    -10.397230   -0.342580   -1.287290
  H     -7.795570    1.140400   -0.588510
  H    -10.742760    2.030640   -0.821640
  H     -8.118560    3.534840   -0.288770
  H    -11.327080    9.290440   -0.340920
  H    -14.037400    7.854930   -0.493130
  H    -13.165840   10.807690   -0.678810
  H    -15.900540    9.432880   -0.593800
  H    -16.766430   11.681790   -0.503420
  H    -15.793970   16.816870   -1.029880
  H    -11.899030   14.584680   -3.259490
  H    -12.139660   19.872800   -2.675150
  H    -14.401940   19.190580   -1.563570

 Total Charge           Charge          ....    0
 Multiplicity           Mult            ....    1
 Number of Electrons    NEL             ....  440
 Basis Dimension        Dim             ....  984

ORBITAL ENERGIES
----------------

  NO   OCC          E(Eh)            E(eV)
   0   2.0000     -89.057850     -2423.3873
   1   2.0000     -88.968436     -2420.9542
   2   2.0000     -88.967291     -2420.9231
   3   2.0000     -19.217688      -522.9399
   4   2.0000     -19.217253      -522.9280
   5   2.0000     -14.470753      -393.7692
   6   2.0000     -14.470461      -393.7613
   7   2.0000     -14.465918      -393.6376
   8   2.0000     -14.465652      -393.6304
   9   2.0000     -14.434947      -392.7949
  10   2.0000     -14.434692      -392.7879
  11   2.0000     -14.418575      -392.3494
  12   2.0000     -14.418182      -392.3387
  13   2.0000     -14.415909      -392.2768
  14   2.0000     -14.414311      -392.2333
  15   2.0000     -10.389716      -282.7186
  16   2.0000     -10.389303      -282.7073
  17   2.0000     -10.368119      -282.1309
  18   2.0000     -10.367962      -282.1266
  19   2.0000     -10.358294      -281.8635
  20   2.0000     -10.357858      -281.8516
  21   2.0000     -10.354825      -281.7691
  22   2.0000     -10.354522      -281.7609
  23   2.0000     -10.346402      -281.5399
  24   2.0000     -10.345686      -281.5204
  25   2.0000     -10.342102      -281.4229
  26   2.0000     -10.340798      -281.3874
  27   2.0000     -10.328046      -281.0404
  28   2.0000     -10.327619      -281.0288
  29   2.0000     -10.327270      -281.0193
  30   2.0000     -10.326274      -280.9922
  31   2.0000     -10.323152      -280.9073
  32   2.0000     -10.321236      -280.8551
  33   2.0000     -10.320811      -280.8435
  34   2.0000     -10.320060      -280.8231
  35   2.0000     -10.318609      -280.7836
  36   2.0000     -10.317204      -280.7454
  37   2.0000     -10.317154      -280.7440
  38   2.0000     -10.315903      -280.7100
  39   2.0000     -10.315163      -280.6899
  40   2.0000     -10.313742      -280.6512
  41   2.0000     -10.309962      -280.5483
  42   2.0000     -10.306830      -280.4631
  43   2.0000     -10.306097      -280.4432
  44   2.0000     -10.305309      -280.4217
  45   2.0000     -10.304112      -280.3891
  46   2.0000     -10.303446      -280.3710
  47   2.0000     -10.303087      -280.3612
  48   2.0000     -10.302587      -280.3476
  49   2.0000     -10.302568      -280.3471
  50   2.0000     -10.301926      -280.3297
  51   2.0000     -10.300390      -280.2879
  52   2.0000     -10.299676      -280.2684
  53   2.0000     -10.299537      -280.2647
  54   2.0000     -10.299424      -280.2616
  55   2.0000     -10.299209      -280.2557
  56   2.0000     -10.295243      -280.1478
  57   2.0000     -10.293685      -280.1054
  58   2.0000     -10.293557      -280.1019
  59   2.0000     -10.290832      -280.0278
  60   2.0000     -10.290701      -280.0242
  61   2.0000     -10.289993      -280.0049
  62   2.0000     -10.288989      -279.9776
  63   2.0000      -8.149181      -221.7505
  64   2.0000      -8.064803      -219.4545
  65   2.0000      -8.063593      -219.4215
  66   2.0000      -6.120274      -166.5411
  67   2.0000      -6.112277      -166.3235
  68   2.0000      -6.112100      -166.3187
  69   2.0000      -6.034314      -164.2020
  70   2.0000      -6.033078      -164.1684
  71   2.0000      -6.029992      -164.0844
  72   2.0000      -6.028809      -164.0522
  73   2.0000      -6.026453      -163.9881
  74   2.0000      -6.025258      -163.9556
  75   2.0000      -1.154881       -31.4259
  76   2.0000      -1.132346       -30.8127
  77   2.0000      -1.131853       -30.7993
  78   2.0000      -1.129412       -30.7329
  79   2.0000      -1.055736       -28.7280
  80   2.0000      -1.023261       -27.8444
  81   2.0000      -1.019973       -27.7549
  82   2.0000      -1.019584       -27.7443
  83   2.0000      -1.010769       -27.5044
  84   2.0000      -1.010443       -27.4955
  85   2.0000      -1.008673       -27.4474
  86   2.0000      -1.007233       -27.4082
  87   2.0000      -0.996915       -27.1274
  88   2.0000      -0.993623       -27.0379
  89   2.0000      -0.988360       -26.8946
  90   2.0000      -0.987827       -26.8801
  91   2.0000      -0.985072       -26.8052
  92   2.0000      -0.943864       -25.6838
  93   2.0000      -0.939964       -25.5777
  94   2.0000      -0.931157       -25.3381
  95   2.0000      -0.926788       -25.2192
  96   2.0000      -0.916683       -24.9442
  97   2.0000      -0.915794       -24.9200
  98   2.0000      -0.901907       -24.5421
  99   2.0000      -0.893827       -24.3223
 100   2.0000      -0.883995       -24.0547
 101   2.0000      -0.882045       -24.0017
 102   2.0000      -0.880117       -23.9492
 103   2.0000      -0.867028       -23.5930
 104   2.0000      -0.847943       -23.0737
 105   2.0000      -0.832544       -22.6547
 106   2.0000      -0.826815       -22.4988
 107   2.0000      -0.825249       -22.4562
 108   2.0000      -0.823569       -22.4105
 109   2.0000      -0.803041       -21.8518
 110   2.0000      -0.792336       -21.5606
 111   2.0000      -0.775211       -21.0946
 112   2.0000      -0.761679       -20.7263
 113   2.0000      -0.757295       -20.6070
 114   2.0000      -0.751945       -20.4615
 115   2.0000      -0.740720       -20.1560
 116   2.0000      -0.728669       -19.8281
 117   2.0000      -0.716738       -19.5034
 118   2.0000      -0.710041       -19.3212
 119   2.0000      -0.697700       -18.9854
 120   2.0000      -0.691267       -18.8103
 121   2.0000      -0.689804       -18.7705
 122   2.0000      -0.688040       -18.7225
 123   2.0000      -0.679349       -18.4860
 124   2.0000      -0.674985       -18.3673
 125   2.0000      -0.667583       -18.1659
 126   2.0000      -0.663969       -18.0675
 127   2.0000      -0.661483       -17.9999
 128   2.0000      -0.658374       -17.9153
 129   2.0000      -0.654537       -17.8108
 130   2.0000      -0.645918       -17.5763
 131   2.0000      -0.637103       -17.3364
 132   2.0000      -0.622806       -16.9474
 133   2.0000      -0.620875       -16.8949
 134   2.0000      -0.619116       -16.8470
 135   2.0000      -0.608566       -16.5599
 136   2.0000      -0.607267       -16.5246
 137   2.0000      -0.599002       -16.2997
 138   2.0000      -0.594731       -16.1834
 139   2.0000      -0.588246       -16.0070
 140   2.0000      -0.584958       -15.9175
 141   2.0000      -0.580788       -15.8041
 142   2.0000      -0.568376       -15.4663
 143   2.0000      -0.567515       -15.4429
 144   2.0000      -0.561335       -15.2747
 145   2.0000      -0.556738       -15.1496
 146   2.0000      -0.550220       -14.9722
 147   2.0000      -0.545992       -14.8572
 148   2.0000      -0.540482       -14.7073
 149   2.0000      -0.539152       -14.6711
 150   2.0000      -0.537745       -14.6328
 151   2.0000      -0.533947       -14.5294
 152   2.0000      -0.532072       -14.4784
 153   2.0000      -0.530096       -14.4246
 154   2.0000      -0.524865       -14.2823
 155   2.0000      -0.522390       -14.2150
 156   2.0000      -0.513809       -13.9815
 157   2.0000      -0.510363       -13.8877
 158   2.0000      -0.504948       -13.7403
 159   2.0000      -0.502314       -13.6687
 160   2.0000      -0.501361       -13.6427
 161   2.0000      -0.497813       -13.5462
 162   2.0000      -0.496454       -13.5092
 163   2.0000      -0.494810       -13.4645
 164   2.0000      -0.493918       -13.4402
 165   2.0000      -0.492814       -13.4101
 166   2.0000      -0.491121       -13.3641
 167   2.0000      -0.489883       -13.3304
 168   2.0000      -0.488255       -13.2861
 169   2.0000      -0.483151       -13.1472
 170   2.0000      -0.482308       -13.1243
 171   2.0000      -0.470231       -12.7956
 172   2.0000      -0.468990       -12.7619
 173   2.0000      -0.465923       -12.6784
 174   2.0000      -0.462896       -12.5960
 175   2.0000      -0.462710       -12.5910
 176   2.0000      -0.460036       -12.5182
 177   2.0000      -0.458144       -12.4667
 178   2.0000      -0.457348       -12.4451
 179   2.0000      -0.453107       -12.3297
 180   2.0000      -0.452626       -12.3166
 181   2.0000      -0.451765       -12.2932
 182   2.0000      -0.448886       -12.2148
 183   2.0000      -0.448199       -12.1961
 184   2.0000      -0.444779       -12.1031
 185   2.0000      -0.442816       -12.0496
 186   2.0000      -0.442334       -12.0365
 187   2.0000      -0.441467       -12.0129
 188   2.0000      -0.435512       -11.8509
 189   2.0000      -0.435172       -11.8416
 190   2.0000      -0.434091       -11.8122
 191   2.0000      -0.432994       -11.7824
 192   2.0000      -0.429383       -11.6841
 193   2.0000      -0.428452       -11.6588
 194   2.0000      -0.425787       -11.5863
 195   2.0000      -0.423218       -11.5163
 196   2.0000      -0.422006       -11.4834
 197   2.0000      -0.421089       -11.4584
 198   2.0000      -0.417949       -11.3730
 199   2.0000      -0.416317       -11.3286
 200   2.0000      -0.408631       -11.1194
 201   2.0000      -0.407283       -11.0827
 202   2.0000      -0.402625       -10.9560
 203   2.0000      -0.396500       -10.7893
 204   2.0000      -0.388269       -10.5653
 205   2.0000      -0.381126       -10.3710
 206   2.0000      -0.378737       -10.3059
 207   2.0000      -0.368649       -10.0314
 208   2.0000      -0.367883       -10.0106
 209   2.0000      -0.360216        -9.8020
 210   2.0000      -0.357817        -9.7367
 211   2.0000      -0.339275        -9.2322
 212   2.0000      -0.336654        -9.1608
 213   2.0000      -0.327977        -8.9247
 214   2.0000      -0.316015        -8.5992
 215   2.0000      -0.314487        -8.5576
 216   2.0000      -0.301125        -8.1940
 217   2.0000      -0.297020        -8.0823
 218   2.0000      -0.292252        -7.9526
 219   2.0000      -0.255208        -6.9446
 220   0.0000      -0.141732        -3.8567
 221   0.0000      -0.093116        -2.5338
 222   0.0000      -0.090829        -2.4716
 223   0.0000      -0.063327        -1.7232
 224   0.0000      -0.062274        -1.6946

MULLIKEN ATOMIC CHARGES
-----------------------
   0 C :    0.323034
   1 C :   -0.351258
   2 C :   -0.183885
   3 N :    0.149796
   4 C :   -0.191308
   5 N :    0.151238
   6 C :    0.014860
   7 C :   -0.009428
   8 C :   -0.071586
   9 C :    0.117305
  10 C :   -0.094569
  11 C :   -0.026164
  12 S :    0.142695
  13 C :   -0.049151
  14 C :    0.025234
  15 C :    0.144287
  16 O :   -0.155051
  17 C :   -0.065025
  18 C :   -0.033613
  19 C :    0.003130
  20 C :    0.048593
  21 C :    0.042347
  22 C :   -0.077175
  23 C :    0.101489
  24 C :   -0.040960
  25 C :   -0.045486
  26 N :    0.053749
  27 C :   -0.134503
  28 C :   -0.129687
  29 N :    0.055138
  30 C :   -0.209911
  31 N :    0.242513
  32 C :   -0.207614
  33 N :    0.241209
  34 C :    0.107388
  35 C :    0.024257
  36 C :    0.019991
  37 N :   -0.287650
  38 S :    0.568609
  39 N :   -0.287698
  40 C :   -0.080593
  41 C :    0.050846
  42 C :    0.039296
  43 C :    0.011348
  44 C :    0.045507
  45 C :   -0.114615
  46 C :    0.266406
  47 C :   -0.334705
  48 C :   -0.182239
  49 N :    0.155562
  50 C :   -0.197341
  51 N :    0.169035
  52 C :   -0.004581
  53 C :    0.007111
  54 C :    0.130716
  55 O :   -0.143082
  56 C :   -0.068575
  57 C :    0.107060
  58 C :   -0.091781
  59 C :   -0.021259
  60 S :    0.144348
  61 C :   -0.051015
  62 C :    0.029142
  63 H :   -0.013902
  64 H :   -0.006496
  65 H :    0.038939
  66 H :   -0.006588
  67 H :    0.013411
  68 H :    0.029555
  69 H :    0.014125
  70 H :    0.023749
  71 H :    0.008662
  72 H :    0.003567
  73 H :    0.020241
  74 H :    0.018509
  75 H :    0.011508
  76 H :    0.030235
  77 H :   -0.009783
  78 H :   -0.001966
  79 H :    0.040086
  80 H :   -0.005586
Sum of atomic charges:   -0.0000000

LOEWDIN ATOMIC CHARGES
----------------------
   0 C :    0.073918
   1 C :   -0.138612
   2 C :   -0.018035
   3 N :   -0.052814
   4 C :   -0.021021
   5 N :   -0.051179
   6 C :   -0.021645
   7 C :   -0.053537
   8 C :    0.023064
   9 C :   -0.034692
  10 C :   -0.144927
  11 C :   -0.008914
  12 S :    0.430825
  13 C :   -0.148843
  14 C :   -0.058061
  15 C :    0.084903
  16 O :   -0.146732
  17 C :   -0.085277
  18 C :    0.061883
  19 C :   -0.017192
  20 C :    0.026289
  21 C :    0.002024
  22 C :    0.000445
  23 C :   -0.020533
  24 C :   -0.002866
  25 C :   -0.004549
  26 N :    0.004606
  27 C :   -0.025611
  28 C :   -0.024351
  29 N :    0.004067
  30 C :   -0.037197
  31 N :    0.001673
  32 C :   -0.036668
  33 N :   -0.000646
  34 C :   -0.015051
  35 C :   -0.035363
  36 C :   -0.035054
  37 N :   -0.273329
  38 S :    0.693078
  39 N :   -0.272080
  40 C :   -0.004812
  41 C :    0.012903
  42 C :    0.026132
  43 C :   -0.020606
  44 C :    0.059276
  45 C :   -0.081760
  46 C :    0.065311
  47 C :   -0.139438
  48 C :   -0.021258
  49 N :   -0.049989
  50 C :   -0.016522
  51 N :   -0.044765
  52 C :   -0.020653
  53 C :   -0.055888
  54 C :    0.083249
  55 O :   -0.141554
  56 C :    0.024895
  57 C :   -0.035101
  58 C :   -0.144218
  59 C :   -0.010548
  60 S :    0.432734
  61 C :   -0.148273
  62 C :   -0.057292
  63 H :    0.039789
  64 H :    0.040880
  65 H :    0.029580
  66 H :    0.035288
  67 H :    0.042681
  68 H :    0.036282
  69 H :    0.036248
  70 H :    0.032475
  71 H :    0.036932
  72 H :    0.035223
  73 H :    0.032007
  74 H :    0.033511
  75 H :    0.038745
  76 H :    0.048507
  77 H :    0.041218
  78 H :    0.041056
  79 H :    0.029995
  80 H :    0.035768

  Mayer bond orders larger than 0.100000
B(  0-C ,  1-C ) :   1.6282 B(  0-C ,  6-C ) :   1.0035 B(  0-C , 17-C ) :   1.0625
B(  1-C ,  2-C ) :   1.1412 B(  1-C ,  4-C ) :   1.1479 B(  2-C ,  3-N ) :   2.9692
B(  4-C ,  5-N ) :   2.9675 B(  6-C ,  7-C ) :   1.2714 B(  6-C , 11-C ) :   1.4090
B(  7-C ,  8-C ) :   1.4212 B(  7-C , 15-C ) :   0.9468 B(  8-C ,  9-C ) :   1.2448
B(  8-C , 63-H ) :   1.0173 B(  9-C , 10-C ) :   1.3022 B(  9-C , 14-C ) :   1.1709
B( 10-C , 11-C ) :   1.3237 B( 10-C , 12-S ) :   1.0999 B( 11-C , 64-H ) :   0.9824
B( 12-S , 13-C ) :   1.1275 B( 13-C , 14-C ) :   1.6280 B( 13-C , 65-H ) :   0.9684
B( 14-C , 66-H ) :   0.9996 B( 15-C , 16-O ) :   2.1958 B( 15-C , 17-C ) :   0.9417
B( 17-C , 18-C ) :   1.5496 B( 18-C , 19-C ) :   1.1545 B( 18-C , 67-H ) :   0.9600
B( 19-C , 20-C ) :   1.5251 B( 19-C , 68-H ) :   0.9849 B( 20-C , 21-C ) :   1.1416
B( 20-C , 69-H ) :   0.9955 B( 21-C , 22-C ) :   1.5266 B( 21-C , 70-H ) :   0.9682
B( 22-C , 23-C ) :   1.2007 B( 22-C , 71-H ) :   0.9686 B( 23-C , 24-C ) :   1.2320
B( 23-C , 34-C ) :   0.1304 B( 23-C , 36-C ) :   1.1767 B( 24-C , 25-C ) :   1.1204
B( 24-C , 29-N ) :   1.4469 B( 25-C , 26-N ) :   1.4468 B( 25-C , 34-C ) :   1.2328
B( 26-N , 27-C ) :   1.7443 B( 27-C , 28-C ) :   1.2013 B( 27-C , 32-C ) :   1.1529
B( 28-C , 29-N ) :   1.7468 B( 28-C , 30-C ) :   1.1513 B( 30-C , 31-N ) :   3.0477
B( 32-C , 33-N ) :   3.0490 B( 34-C , 35-C ) :   1.1770 B( 34-C , 40-C ) :   1.2046
B( 35-C , 36-C ) :   1.1177 B( 35-C , 39-N ) :   1.4976 B( 36-C , 37-N ) :   1.5011
B( 37-N , 38-S ) :   1.2866 B( 37-N , 39-N ) :   0.1507 B( 38-S , 39-N ) :   1.2890
B( 40-C , 41-C ) :   1.5359 B( 40-C , 72-H ) :   0.9655 B( 41-C , 42-C ) :   1.1639
B( 41-C , 73-H ) :   0.9682 B( 42-C , 43-C ) :   1.6015 B( 42-C , 74-H ) :   0.9793
B( 43-C , 44-C ) :   1.1358 B( 43-C , 75-H ) :   0.9624 B( 44-C , 45-C ) :   1.6745
B( 44-C , 76-H ) :   0.9275 B( 45-C , 46-C ) :   1.0355 B( 45-C , 54-C ) :   0.9388
B( 46-C , 47-C ) :   1.6433 B( 46-C , 52-C ) :   1.0129 B( 47-C , 48-C ) :   1.1264
B( 47-C , 50-C ) :   1.1726 B( 48-C , 49-N ) :   2.9906 B( 50-C , 51-N ) :   2.9861
B( 52-C , 53-C ) :   1.2672 B( 52-C , 59-C ) :   1.4161 B( 53-C , 54-C ) :   0.9245
B( 53-C , 56-C ) :   1.4234 B( 54-C , 55-O ) :   2.2637 B( 56-C , 57-C ) :   1.2532
B( 56-C , 77-H ) :   1.0161 B( 57-C , 58-C ) :   1.3009 B( 57-C , 62-C ) :   1.1733
B( 58-C , 59-C ) :   1.3225 B( 58-C , 60-S ) :   1.0992 B( 59-C , 78-H ) :   0.9850
B( 60-S , 61-C ) :   1.1278 B( 61-C , 62-C ) :   1.6278 B( 61-C , 79-H ) :   0.9690
B( 62-C , 80-H ) :   0.9995

-----------------------------------------------------------------------------
         ABSORPTION SPECTRUM VIA TRANSITION ELECTRIC DIPOLE MOMENTS
-----------------------------------------------------------------------------
State   Energy  Wavelength   fosc         T2         TX        TY        TZ
        (cm-1)    (nm)                  (au**2)     (au)      (au)      (au)
-----------------------------------------------------------------------------
   0   10275.1    973.2   0.897512943  28.75600  -1.94539   4.99710  -0.02156
   1   19081.6    524.1   0.051334064   0.88566  -0.51341  -0.38269  -0.68965
   2   19949.5    501.3   0.602498549   9.94259  -0.98478   2.92000  -0.66814
   3   21328.0    468.9   0.608012493   9.38507  -0.15938   2.86728   1.06693
   4   22270.6    449.0   0.011409199   0.16865  -0.18754  -0.21154  -0.29788
   5   22933.2    436.0   0.032869154   0.47184   0.46981   0.32587   0.38070
   6   25524.5    391.8   0.041243970   0.53196   0.14863  -0.70201   0.13056
   7   25705.2    389.0   0.011597249   0.14853   0.06267  -0.37633   0.05458
   8   26120.8    382.8   0.006498399   0.08190   0.13375  -0.24041   0.07883
   9   26308.7    380.1   0.065761815   0.82291   0.56663  -0.70766  -0.03242
  10   26370.0    379.2   0.040820570   0.50962  -0.48270   0.45928   0.25630
  11   26647.1    375.3   0.036640040   0.45267   0.47754   0.45987   0.11466
  12   27093.6    369.1   0.028088447   0.34130  -0.31310  -0.48245   0.10252
  13   27592.3    362.4   0.008158921   0.09735  -0.05397   0.30259  -0.05359
  14   28160.2    355.1   0.271306850   3.17176  -0.21342   1.74251   0.29979
  15   28545.4    350.3   0.214428124   2.47299  -1.32093  -0.74006  -0.42478
  16   29278.8    341.5   0.190293869   2.13967  -0.50560   1.35030   0.24643
  17   29949.6    333.9   0.255036653   2.80342  -1.19944  -0.92369  -0.71523
  18   30305.8    330.0   0.000712867   0.00774  -0.06644  -0.02455  -0.05221
  19   31114.3    321.4   0.099017345   1.04768  -0.73961  -0.48242   0.51761
  20   31748.7    315.0   0.033569299   0.34809   0.21460   0.26158  -0.48334
  21   31850.9    314.0   0.066351422   0.68581  -0.50990   0.64531   0.09691
  22   32290.8    309.7   0.699723491   7.13384  -2.28502  -1.35823  -0.26025
  23   32556.0    307.2   0.007632136   0.07718  -0.10844  -0.25164  -0.04576
  24   32915.7    303.8   0.149817783   1.49843   0.72091   0.87667   0.45843
  25   33075.1    302.3   0.170349893   1.69557   0.07324  -1.25381  -0.34376
  26   33478.6    298.7   0.092110841   0.90577   0.65860   0.66806  -0.16036
  27   34166.4    292.7   0.026405311   0.25443  -0.17083  -0.46139  -0.11119
  28   34336.3    291.2   0.374192712   3.58771  -0.50619  -1.73909  -0.55412
  29   34607.7    289.0   0.229054112   2.17892   1.18279  -0.85858   0.20683
  30   34957.0    286.1   0.571816921   5.38516  -1.55166  -1.50164  -0.85006
  31   35395.4    282.5   0.004003327   0.03723   0.08693  -0.01724   0.17141
  32   36479.9    274.1   0.018875698   0.17034   0.40846   0.05903  -0.00414
  33   36938.2    270.7   0.080607062   0.71841   0.84484  -0.05312  -0.04290
  34   37137.5    269.3   0.028981596   0.25691   0.48882  -0.10951  -0.07732
  35   37309.5    268.0   0.001722799   0.01520  -0.10850   0.02452  -0.05317
  36   37747.9    264.9   0.027323193   0.23829  -0.10875   0.46188  -0.11460
  37   37776.2    264.7   0.010591876   0.09231   0.20078  -0.21242  -0.08291
  38   38379.4    260.6   0.084662151   0.72622  -0.77991  -0.03132   0.34202
  39   38658.3    258.7   0.062780911   0.53464  -0.38103   0.62280  -0.03970
  40   38910.1    257.0   0.072137371   0.61034  -0.47185  -0.57795  -0.23166
  41   39222.9    255.0   0.047314269   0.39713  -0.52755  -0.29160   0.18381
  42   39523.3    253.0   0.118403031   0.98625  -0.04502   0.97504  -0.18310
  43   39782.7    251.4   0.137156745   1.13501  -0.86377  -0.53475   0.32087
  44   40089.6    249.4   0.234349250   1.92445  -0.84522   0.94409   0.56458

FINAL SINGLE POINT ENERGY     -3728.731716810317

DIPOLE MOMENT
-------------
                                X             Y             Z
Electronic contribution:     12.11886      -1.47464       0.69242
Nuclear contribution   :    -16.28398       1.84201      -0.64429
                        -----------------------------------------
Total Dipole Moment    :     -4.16513       0.36737       0.04813
                        -----------------------------------------
Magnitude (a.u.)       :      4.18157
Magnitude (Debye)      :     10.62871

Rotational constants in cm-1:     0.002505     0.000281     0.000263
Rotational constants in MHz :    75.105788     8.437719     7.890761

                             ****ORCA TERMINATED NORMALLY****
TOTAL RUN TIME: 0 days 0 hours 7 minutes 2 seconds 430 msec
