                         Program Version 4.2.0 -  RELEASE  -
|  1> # ORCA input file
|  2> # SCF done       -199.208346028828          0.000635252583
|  3> ! CAM-B3LYP def2-SVP def2/J RIJCOSX Grid4 TightSCF
|  4> %maxcore 5000
|  5> %tddft
|  6>     Mode sTDDFT
|  7>     Ethresh 5.0
|  8>     maxcore 5000
|  9> end
| 10>
| 11> %pal
| 12>   nprocs 6
| 13>   end
| 14> * xyz 0 1
| 15>    C       -8.02493        14.98898         3.51907
| 16>    C       -7.99882        15.25562         4.86575
| 17>    C       -8.41246        16.47643         5.43868
| 18>    N       -8.72979        17.44252         5.97224
| 19>    C       -7.59102        14.36428         5.87930
| 20>    N       -7.28860        13.70121         6.76779
| 21>    C       -8.50882        15.90434         2.49362
| 22>    C       -8.48969        15.23689         1.24484
| 23>    C       -8.88930        15.83957         0.07688
| 24>    C       -9.32686        17.16595         0.14184
| 25>    C       -9.33919        17.82639         1.39354
| 26>    C       -8.93697        17.21634         2.57554
| 27>    S       -9.90865        19.45880         1.23743
| 28>    C      -10.12181        19.24682        -0.46581
| 29>    C       -9.78471        18.01457        -0.90512
| 30>    C       -7.97687        13.86334         1.42079
| 31>    O       -7.83863        13.04088         0.54321
| 32>    C       -7.64166        13.74989         2.86603
| 33>    C       -6.98683        12.72167         3.48896
| 34>    C       -6.61124        11.46053         2.99040
| 35>    O       -6.98578        10.99401         1.78795
| 36>    C       -6.47119         9.76300         1.61416
| 37>    C       -5.73174         9.40737         2.73519
| 38>    C       -5.81927        10.48202         3.63080
| 39>    C       -5.20168        10.53566         4.95000
| 40>    O       -4.48291         9.67662         5.39407
| 41>    C       -6.77153         9.07391         0.40613
| 42>    C       -6.30482         7.84000         0.11197
| 43>    C       -6.59672         7.06353        -1.06247
| 44>    C       -7.45354         7.48807        -2.05505
| 45>    C       -7.73986         6.65081        -3.15044
| 46>    C       -8.58490         6.83215        -4.23685
| 47>    C       -9.37748         8.06074        -4.53780
| 48>    C       -9.06212         8.60799        -5.93882
| 49>    N       -7.62304         8.64614        -6.13574
| 50>    C      -10.88582         7.81768        -4.35458
| 51>    N      -11.16317         7.62425        -2.94324
| 52>    C       -8.55053         5.60600        -4.99996
| 53>    C       -9.23739         5.19602        -6.08195
| 54>    C       -9.07273         3.82672        -6.65181
| 55>    C       -8.02330         2.99273        -5.98057
| 56>    C       -7.35162         3.41133        -4.89319
| 57>    C       -7.60062         4.69082        -4.34256
| 58>    C       -7.12167         5.33243        -3.22180
| 59>    C       -6.22014         4.93314        -2.20595
| 60>    C       -5.97389         5.77120        -1.17081
| 61>    C       -8.77129         3.91569        -8.12053
| 62>    C       -9.50291         3.30441        -9.05953
| 63>    C       -9.22808         3.35623       -10.46301
| 64>    O       -8.18966         4.06263       -10.93125
| 65>    C       -8.17108         3.94963       -12.28868
| 66>    C       -9.21783         3.14884       -12.69658
| 67>    C       -9.90778         2.75724       -11.52893
| 68>    C      -11.07733         1.89623       -11.47792
| 69>    O      -11.58755         1.36876       -12.43286
| 70>    C       -7.15602         4.62954       -13.01338
| 71>    C       -7.06332         4.62788       -14.36547
| 72>    C       -6.04169         5.31325       -15.06531
| 73>    C       -5.95852         5.50666       -16.41005
| 74>    C       -6.91473         5.27691       -17.47310
| 75>    C       -8.27890         5.37232       -17.37654
| 76>    C       -9.15484         5.20061       -18.46867
| 77>    N       -9.90955         5.05239       -19.32066
| 78>    C       -8.96354         5.77089       -16.20903
| 79>    N       -9.56767         6.14006       -15.30536
| 80>    C       -6.15886         5.16523       -18.71542
| 81>    C       -4.81668         5.55630       -18.46749
| 82>    C       -4.65569         5.86756       -17.03518
| 83>    O       -3.66984         6.27721       -16.46578
| 84>    C       -3.86736         5.59444       -19.46035
| 85>    C       -4.25456         5.21965       -20.75068
| 86>    C       -5.59202         4.81690       -20.98320
| 87>    C       -6.55640         4.78629       -19.98258
| 88>    S       -5.83885         4.38508       -22.64523
| 89>    C       -4.18675         4.74490       -23.00937
| 90>    C       -3.47583         5.16712       -21.94114
| 91>    H       -8.86311        15.30239        -0.85854
| 92>    H       -8.96066        17.76496         3.50198
| 93>    H      -10.49199        20.07245        -1.04203
| 94>    H       -9.85110        17.70236        -1.93166
| 95>    H       -6.69081        12.87561         4.51713
| 96>    H       -5.19947         8.49517         2.90758
| 97>    H       -5.44465        11.43921         5.53950
| 98>    H       -7.41581         9.61830        -0.26795
| 99>    H       -5.65004         7.36263         0.82963
|100>    H       -7.93523         8.45058        -1.98679
|101>    H       -9.09678         8.82640        -3.80810
|102>    H       -9.54813         9.59397        -6.04288
|103>    H       -9.47834         7.95327        -6.70824
|104>    H       -7.18609         9.21681        -5.41944
|105>    H       -7.39924         9.05326        -7.03701
|106>    H      -11.20118         6.96986        -4.98507
|107>    H      -11.43571         8.70540        -4.68163
|108>    H      -10.66175         6.81226        -2.59735
|109>    H      -12.15349         7.47503        -2.78736
|110>    H       -9.95506         5.82523        -6.58827
|111>    H      -10.03985         3.30980        -6.54114
|112>    H       -7.84598         2.02149        -6.41627
|113>    H       -6.61871         2.77291        -4.42143
|114>    H       -5.74795         3.96344        -2.26257
|115>    H       -5.29457         5.47534        -0.38440
|116>    H       -7.89757         4.49084        -8.38973
|117>    H      -10.37168         2.72332        -8.78320
|118>    H       -9.48273         2.87335       -13.69568
|119>    H      -11.48291         1.74247       -10.45815
|120>    H       -6.45294         5.19924       -12.42092
|121>    H       -7.78475         4.06442       -14.93789
|122>    H       -5.19060         5.66225       -14.49017
|123>    H       -2.85601         5.90411       -19.24730
|124>    H       -7.56136         4.46649       -20.20390
|125>    H       -3.84470         4.61465       -24.01769
|126>    H       -2.43547         5.43502       -21.97792
|127> *
|128>
|129>                          ****END OF INPUT****

CARTESIAN COORDINATES (ANGSTROEM)
---------------------------------
  C     -8.024930   14.988980    3.519070
  C     -7.998820   15.255620    4.865750
  C     -8.412460   16.476430    5.438680
  N     -8.729790   17.442520    5.972240
  C     -7.591020   14.364280    5.879300
  N     -7.288600   13.701210    6.767790
  C     -8.508820   15.904340    2.493620
  C     -8.489690   15.236890    1.244840
  C     -8.889300   15.839570    0.076880
  C     -9.326860   17.165950    0.141840
  C     -9.339190   17.826390    1.393540
  C     -8.936970   17.216340    2.575540
  S     -9.908650   19.458800    1.237430
  C    -10.121810   19.246820   -0.465810
  C     -9.784710   18.014570   -0.905120
  C     -7.976870   13.863340    1.420790
  O     -7.838630   13.040880    0.543210
  C     -7.641660   13.749890    2.866030
  C     -6.986830   12.721670    3.488960
  C     -6.611240   11.460530    2.990400
  O     -6.985780   10.994010    1.787950
  C     -6.471190    9.763000    1.614160
  C     -5.731740    9.407370    2.735190
  C     -5.819270   10.482020    3.630800
  C     -5.201680   10.535660    4.950000
  O     -4.482910    9.676620    5.394070
  C     -6.771530    9.073910    0.406130
  C     -6.304820    7.840000    0.111970
  C     -6.596720    7.063530   -1.062470
  C     -7.453540    7.488070   -2.055050
  C     -7.739860    6.650810   -3.150440
  C     -8.584900    6.832150   -4.236850
  C     -9.377480    8.060740   -4.537800
  C     -9.062120    8.607990   -5.938820
  N     -7.623040    8.646140   -6.135740
  C    -10.885820    7.817680   -4.354580
  N    -11.163170    7.624250   -2.943240
  C     -8.550530    5.606000   -4.999960
  C     -9.237390    5.196020   -6.081950
  C     -9.072730    3.826720   -6.651810
  C     -8.023300    2.992730   -5.980570
  C     -7.351620    3.411330   -4.893190
  C     -7.600620    4.690820   -4.342560
  C     -7.121670    5.332430   -3.221800
  C     -6.220140    4.933140   -2.205950
  C     -5.973890    5.771200   -1.170810
  C     -8.771290    3.915690   -8.120530
  C     -9.502910    3.304410   -9.059530
  C     -9.228080    3.356230  -10.463010
  O     -8.189660    4.062630  -10.931250
  C     -8.171080    3.949630  -12.288680
  C     -9.217830    3.148840  -12.696580
  C     -9.907780    2.757240  -11.528930
  C    -11.077330    1.896230  -11.477920
  O    -11.587550    1.368760  -12.432860
  C     -7.156020    4.629540  -13.013380
  C     -7.063320    4.627880  -14.365470
  C     -6.041690    5.313250  -15.065310
  C     -5.958520    5.506660  -16.410050
  C     -6.914730    5.276910  -17.473100
  C     -8.278900    5.372320  -17.376540
  C     -9.154840    5.200610  -18.468670
  N     -9.909550    5.052390  -19.320660
  C     -8.963540    5.770890  -16.209030
  N     -9.567670    6.140060  -15.305360
  C     -6.158860    5.165230  -18.715420
  C     -4.816680    5.556300  -18.467490
  C     -4.655690    5.867560  -17.035180
  O     -3.669840    6.277210  -16.465780
  C     -3.867360    5.594440  -19.460350
  C     -4.254560    5.219650  -20.750680
  C     -5.592020    4.816900  -20.983200
  C     -6.556400    4.786290  -19.982580
  S     -5.838850    4.385080  -22.645230
  C     -4.186750    4.744900  -23.009370
  C     -3.475830    5.167120  -21.941140
  H     -8.863110   15.302390   -0.858540
  H     -8.960660   17.764960    3.501980
  H    -10.491990   20.072450   -1.042030
  H     -9.851100   17.702360   -1.931660
  H     -6.690810   12.875610    4.517130
  H     -5.199470    8.495170    2.907580
  H     -5.444650   11.439210    5.539500
  H     -7.415810    9.618300   -0.267950
  H     -5.650040    7.362630    0.829630
  H     -7.935230    8.450580   -1.986790
  H     -9.096780    8.826400   -3.808100
  H     -9.548130    9.593970   -6.042880
  H     -9.478340    7.953270   -6.708240
  H     -7.186090    9.216810   -5.419440
  H     -7.399240    9.053260   -7.037010
  H    -11.201180    6.969860   -4.985070
  H    -11.435710    8.705400   -4.681630
  H    -10.661750    6.812260   -2.597350
  H    -12.153490    7.475030   -2.787360
  H     -9.955060    5.825230   -6.588270
  H    -10.039850    3.309800   -6.541140
  H     -7.845980    2.021490   -6.416270
  H     -6.618710    2.772910   -4.421430
  H     -5.747950    3.963440   -2.262570
  H     -5.294570    5.475340   -0.384400
  H     -7.897570    4.490840   -8.389730
  H    -10.371680    2.723320   -8.783200
  H     -9.482730    2.873350  -13.695680
  H    -11.482910    1.742470  -10.458150
  H     -6.452940    5.199240  -12.420920
  H     -7.784750    4.064420  -14.937890
  H     -5.190600    5.662250  -14.490170
  H     -2.856010    5.904110  -19.247300
  H     -7.561360    4.466490  -20.203900
  H     -3.844700    4.614650  -24.017690
  H     -2.435470    5.435020  -21.977920

 Total Charge           Charge          ....    0
 Multiplicity           Mult            ....    1
 Number of Electrons    NEL             ....  530
 Basis Dimension        Dim             .... 1252

ORBITAL ENERGIES
----------------

  NO   OCC          E(Eh)            E(eV)
   0   2.0000     -88.967340     -2420.9244
   1   2.0000     -88.964419     -2420.8449
   2   2.0000     -19.314227      -525.5668
   3   2.0000     -19.303936      -525.2868
   4   2.0000     -19.216985      -522.9207
   5   2.0000     -19.215740      -522.8869
   6   2.0000     -19.213789      -522.8338
   7   2.0000     -19.208393      -522.6869
   8   2.0000     -14.415982      -392.2788
   9   2.0000     -14.415976      -392.2786
  10   2.0000     -14.414254      -392.2318
  11   2.0000     -14.411509      -392.1571
  12   2.0000     -14.382486      -391.3673
  13   2.0000     -14.379259      -391.2795
  14   2.0000     -10.364980      -282.0455
  15   2.0000     -10.364848      -282.0418
  16   2.0000     -10.364616      -282.0355
  17   2.0000     -10.362785      -281.9857
  18   2.0000     -10.362330      -281.9733
  19   2.0000     -10.354131      -281.7502
  20   2.0000     -10.353528      -281.7338
  21   2.0000     -10.349003      -281.6107
  22   2.0000     -10.344342      -281.4839
  23   2.0000     -10.342049      -281.4215
  24   2.0000     -10.339248      -281.3452
  25   2.0000     -10.338673      -281.3296
  26   2.0000     -10.321432      -280.8604
  27   2.0000     -10.321232      -280.8550
  28   2.0000     -10.319088      -280.7967
  29   2.0000     -10.318432      -280.7788
  30   2.0000     -10.317800      -280.7616
  31   2.0000     -10.316926      -280.7378
  32   2.0000     -10.315279      -280.6930
  33   2.0000     -10.314762      -280.6789
  34   2.0000     -10.314690      -280.6770
  35   2.0000     -10.313332      -280.6400
  36   2.0000     -10.312523      -280.6180
  37   2.0000     -10.307925      -280.4929
  38   2.0000     -10.307320      -280.4764
  39   2.0000     -10.305990      -280.4402
  40   2.0000     -10.305337      -280.4225
  41   2.0000     -10.303790      -280.3804
  42   2.0000     -10.303085      -280.3612
  43   2.0000     -10.302602      -280.3481
  44   2.0000     -10.302065      -280.3335
  45   2.0000     -10.300327      -280.2862
  46   2.0000     -10.300179      -280.2821
  47   2.0000     -10.299507      -280.2638
  48   2.0000     -10.299488      -280.2633
  49   2.0000     -10.297575      -280.2113
  50   2.0000     -10.297114      -280.1987
  51   2.0000     -10.295934      -280.1666
  52   2.0000     -10.295434      -280.1530
  53   2.0000     -10.293969      -280.1131
  54   2.0000     -10.292940      -280.0851
  55   2.0000     -10.291179      -280.0372
  56   2.0000     -10.291174      -280.0371
  57   2.0000     -10.289713      -279.9973
  58   2.0000     -10.289581      -279.9937
  59   2.0000     -10.288070      -279.9526
  60   2.0000     -10.287372      -279.9336
  61   2.0000     -10.287170      -279.9281
  62   2.0000     -10.286434      -279.9081
  63   2.0000     -10.285935      -279.8945
  64   2.0000     -10.284190      -279.8470
  65   2.0000     -10.281527      -279.7746
  66   2.0000     -10.279650      -279.7235
  67   2.0000     -10.277509      -279.6652
  68   2.0000     -10.277369      -279.6614
  69   2.0000     -10.274072      -279.5717
  70   2.0000     -10.272878      -279.5392
  71   2.0000     -10.270912      -279.4857
  72   2.0000     -10.269977      -279.4603
  73   2.0000     -10.268392      -279.4172
  74   2.0000     -10.268221      -279.4125
  75   2.0000     -10.267798      -279.4010
  76   2.0000      -8.063545      -219.4202
  77   2.0000      -8.060695      -219.3427
  78   2.0000      -6.033051      -164.1677
  79   2.0000      -6.030221      -164.0907
  80   2.0000      -6.028757      -164.0508
  81   2.0000      -6.025901      -163.9731
  82   2.0000      -6.025238      -163.9551
  83   2.0000      -6.022348      -163.8764
  84   2.0000      -1.233408       -33.5627
  85   2.0000      -1.229286       -33.4506
  86   2.0000      -1.129217       -30.7276
  87   2.0000      -1.129072       -30.7236
  88   2.0000      -1.128657       -30.7123
  89   2.0000      -1.124228       -30.5918
  90   2.0000      -1.020330       -27.7646
  91   2.0000      -1.018055       -27.7027
  92   2.0000      -1.008294       -27.4371
  93   2.0000      -1.006462       -27.3872
  94   2.0000      -0.993814       -27.0431
  95   2.0000      -0.992198       -26.9991
  96   2.0000      -0.990873       -26.9630
  97   2.0000      -0.985188       -26.8083
  98   2.0000      -0.982663       -26.7396
  99   2.0000      -0.969266       -26.3751
 100   2.0000      -0.956742       -26.0343
 101   2.0000      -0.955869       -26.0105
 102   2.0000      -0.943393       -25.6710
 103   2.0000      -0.937024       -25.4977
 104   2.0000      -0.932420       -25.3724
 105   2.0000      -0.926713       -25.2171
 106   2.0000      -0.923380       -25.1265
 107   2.0000      -0.921462       -25.0742
 108   2.0000      -0.913957       -24.8700
 109   2.0000      -0.905068       -24.6281
 110   2.0000      -0.893559       -24.3150
 111   2.0000      -0.889328       -24.1998
 112   2.0000      -0.881806       -23.9952
 113   2.0000      -0.878814       -23.9138
 114   2.0000      -0.877720       -23.8840
 115   2.0000      -0.871424       -23.7126
 116   2.0000      -0.858437       -23.3593
 117   2.0000      -0.843884       -22.9633
 118   2.0000      -0.837820       -22.7982
 119   2.0000      -0.835424       -22.7330
 120   2.0000      -0.823512       -22.4089
 121   2.0000      -0.820647       -22.3310
 122   2.0000      -0.819770       -22.3071
 123   2.0000      -0.802500       -21.8371
 124   2.0000      -0.783874       -21.3303
 125   2.0000      -0.775089       -21.0913
 126   2.0000      -0.766661       -20.8619
 127   2.0000      -0.764984       -20.8163
 128   2.0000      -0.763905       -20.7869
 129   2.0000      -0.754825       -20.5398
 130   2.0000      -0.754449       -20.5296
 131   2.0000      -0.745600       -20.2888
 132   2.0000      -0.724539       -19.7157
 133   2.0000      -0.719911       -19.5898
 134   2.0000      -0.716428       -19.4950
 135   2.0000      -0.706043       -19.2124
 136   2.0000      -0.695348       -18.9214
 137   2.0000      -0.693062       -18.8592
 138   2.0000      -0.689656       -18.7665
 139   2.0000      -0.688083       -18.7237
 140   2.0000      -0.684583       -18.6285
 141   2.0000      -0.679892       -18.5008
 142   2.0000      -0.676700       -18.4139
 143   2.0000      -0.671287       -18.2666
 144   2.0000      -0.668880       -18.2012
 145   2.0000      -0.663390       -18.0518
 146   2.0000      -0.659358       -17.9420
 147   2.0000      -0.655274       -17.8309
 148   2.0000      -0.648854       -17.6562
 149   2.0000      -0.647470       -17.6186
 150   2.0000      -0.644444       -17.5362
 151   2.0000      -0.637712       -17.3530
 152   2.0000      -0.624078       -16.9820
 153   2.0000      -0.623254       -16.9596
 154   2.0000      -0.619359       -16.8536
 155   2.0000      -0.616145       -16.7661
 156   2.0000      -0.608832       -16.5672
 157   2.0000      -0.600062       -16.3285
 158   2.0000      -0.596215       -16.2238
 159   2.0000      -0.595919       -16.2158
 160   2.0000      -0.591285       -16.0897
 161   2.0000      -0.583525       -15.8785
 162   2.0000      -0.580166       -15.7871
 163   2.0000      -0.579326       -15.7643
 164   2.0000      -0.575767       -15.6674
 165   2.0000      -0.575203       -15.6521
 166   2.0000      -0.572495       -15.5784
 167   2.0000      -0.568799       -15.4778
 168   2.0000      -0.562185       -15.2978
 169   2.0000      -0.559118       -15.2144
 170   2.0000      -0.552680       -15.0392
 171   2.0000      -0.550344       -14.9756
 172   2.0000      -0.547001       -14.8847
 173   2.0000      -0.546559       -14.8726
 174   2.0000      -0.541901       -14.7459
 175   2.0000      -0.541813       -14.7435
 176   2.0000      -0.536438       -14.5972
 177   2.0000      -0.534782       -14.5522
 178   2.0000      -0.534599       -14.5472
 179   2.0000      -0.531680       -14.4678
 180   2.0000      -0.529792       -14.4164
 181   2.0000      -0.529613       -14.4115
 182   2.0000      -0.526197       -14.3185
 183   2.0000      -0.525915       -14.3109
 184   2.0000      -0.523603       -14.2480
 185   2.0000      -0.522088       -14.2067
 186   2.0000      -0.520818       -14.1722
 187   2.0000      -0.518506       -14.1093
 188   2.0000      -0.509534       -13.8651
 189   2.0000      -0.508190       -13.8285
 190   2.0000      -0.507331       -13.8052
 191   2.0000      -0.505440       -13.7537
 192   2.0000      -0.502548       -13.6750
 193   2.0000      -0.501122       -13.6362
 194   2.0000      -0.499162       -13.5829
 195   2.0000      -0.498674       -13.5696
 196   2.0000      -0.494933       -13.4678
 197   2.0000      -0.493130       -13.4188
 198   2.0000      -0.493070       -13.4171
 199   2.0000      -0.490215       -13.3394
 200   2.0000      -0.489015       -13.3068
 201   2.0000      -0.488093       -13.2817
 202   2.0000      -0.486649       -13.2424
 203   2.0000      -0.484082       -13.1725
 204   2.0000      -0.482732       -13.1358
 205   2.0000      -0.481478       -13.1017
 206   2.0000      -0.477607       -12.9963
 207   2.0000      -0.476699       -12.9716
 208   2.0000      -0.472376       -12.8540
 209   2.0000      -0.469536       -12.7767
 210   2.0000      -0.468023       -12.7356
 211   2.0000      -0.464182       -12.6310
 212   2.0000      -0.457410       -12.4467
 213   2.0000      -0.456057       -12.4099
 214   2.0000      -0.453541       -12.3415
 215   2.0000      -0.451153       -12.2765
 216   2.0000      -0.450465       -12.2578
 217   2.0000      -0.448034       -12.1916
 218   2.0000      -0.447653       -12.1813
 219   2.0000      -0.447579       -12.1793
 220   2.0000      -0.441770       -12.0212
 221   2.0000      -0.441263       -12.0074
 222   2.0000      -0.440451       -11.9853
 223   2.0000      -0.439178       -11.9506
 224   2.0000      -0.438892       -11.9429
 225   2.0000      -0.432912       -11.7801
 226   2.0000      -0.432114       -11.7584
 227   2.0000      -0.431721       -11.7477
 228   2.0000      -0.430867       -11.7245
 229   2.0000      -0.427052       -11.6207
 230   2.0000      -0.425539       -11.5795
 231   2.0000      -0.424701       -11.5567
 232   2.0000      -0.420589       -11.4448
 233   2.0000      -0.420397       -11.4396
 234   2.0000      -0.417427       -11.3588
 235   2.0000      -0.414879       -11.2894
 236   2.0000      -0.411191       -11.1891
 237   2.0000      -0.405357       -11.0303
 238   2.0000      -0.404680       -11.0119
 239   2.0000      -0.397710       -10.8222
 240   2.0000      -0.392867       -10.6904
 241   2.0000      -0.389910       -10.6100
 242   2.0000      -0.385902       -10.5009
 243   2.0000      -0.378273       -10.2933
 244   2.0000      -0.376980       -10.2582
 245   2.0000      -0.372855       -10.1459
 246   2.0000      -0.368456       -10.0262
 247   2.0000      -0.365650        -9.9498
 248   2.0000      -0.352605        -9.5949
 249   2.0000      -0.340355        -9.2615
 250   2.0000      -0.337674        -9.1886
 251   2.0000      -0.336754        -9.1635
 252   2.0000      -0.335330        -9.1248
 253   2.0000      -0.328922        -8.9504
 254   2.0000      -0.326675        -8.8893
 255   2.0000      -0.314263        -8.5515
 256   2.0000      -0.313805        -8.5391
 257   2.0000      -0.310089        -8.4379
 258   2.0000      -0.306427        -8.3383
 259   2.0000      -0.303394        -8.2558
 260   2.0000      -0.295879        -8.0513
 261   2.0000      -0.292644        -7.9633
 262   2.0000      -0.270077        -7.3492
 263   2.0000      -0.265473        -7.2239
 264   2.0000      -0.225966        -6.1489
 265   0.0000      -0.099584        -2.7098
 266   0.0000      -0.094836        -2.5806
 267   0.0000      -0.075973        -2.0673
 268   0.0000      -0.060264        -1.6399
 269   0.0000      -0.055702        -1.5157

MULLIKEN ATOMIC CHARGES
-----------------------
   0 C :    0.309070
   1 C :   -0.356317
   2 C :   -0.183726
   3 N :    0.148891
   4 C :   -0.196179
   5 N :    0.153985
   6 C :    0.018964
   7 C :   -0.019340
   8 C :   -0.074837
   9 C :    0.121826
  10 C :   -0.094489
  11 C :   -0.026880
  12 S :    0.140153
  13 C :   -0.047990
  14 C :    0.020348
  15 C :    0.130167
  16 O :   -0.130384
  17 C :   -0.064867
  18 C :   -0.064528
  19 C :    0.150485
  20 O :   -0.142477
  21 C :    0.213937
  22 C :   -0.095263
  23 C :   -0.007352
  24 C :    0.143756
  25 O :   -0.170138
  26 C :    0.020212
  27 C :   -0.009009
  28 C :    0.111425
  29 C :   -0.077018
  30 C :    0.041068
  31 C :   -0.013083
  32 C :   -0.080419
  33 C :    0.155791
  34 N :   -0.212036
  35 C :    0.162441
  36 N :   -0.225160
  37 C :    0.125759
  38 C :   -0.151421
  39 C :    0.134980
  40 C :   -0.042446
  41 C :    0.024392
  42 C :    0.006608
  43 C :    0.034274
  44 C :    0.003598
  45 C :   -0.013494
  46 C :   -0.036384
  47 C :   -0.027288
  48 C :    0.171404
  49 O :   -0.191603
  50 C :    0.188854
  51 C :   -0.046061
  52 C :   -0.030631
  53 C :    0.144374
  54 O :   -0.173848
  55 C :    0.029076
  56 C :    0.002701
  57 C :    0.030467
  58 C :   -0.108064
  59 C :    0.268151
  60 C :   -0.328524
  61 C :   -0.180301
  62 N :    0.152321
  63 C :   -0.218735
  64 N :    0.167424
  65 C :    0.009973
  66 C :   -0.008629
  67 C :    0.140548
  68 O :   -0.144051
  69 C :   -0.065762
  70 C :    0.108441
  71 C :   -0.093611
  72 C :   -0.022181
  73 S :    0.140638
  74 C :   -0.051009
  75 C :    0.027210
  76 H :   -0.015524
  77 H :   -0.007614
  78 H :    0.038176
  79 H :   -0.008247
  80 H :    0.000483
  81 H :    0.001845
  82 H :    0.008212
  83 H :    0.014995
  84 H :   -0.014792
  85 H :   -0.034107
  86 H :   -0.012361
  87 H :   -0.010427
  88 H :   -0.019328
  89 H :    0.091760
  90 H :    0.090432
  91 H :   -0.030988
  92 H :   -0.008130
  93 H :    0.097843
  94 H :    0.091515
  95 H :   -0.000965
  96 H :    0.034269
  97 H :   -0.012120
  98 H :   -0.031414
  99 H :   -0.037065
 100 H :   -0.027599
 101 H :    0.026573
 102 H :   -0.005239
 103 H :    0.008581
 104 H :   -0.024168
 105 H :    0.009847
 106 H :    0.024129
 107 H :    0.015771
 108 H :   -0.011221
 109 H :   -0.003785
 110 H :    0.039017
 111 H :   -0.006529
Sum of atomic charges:   -0.0000000

LOEWDIN ATOMIC CHARGES
----------------------
   0 C :    0.076120
   1 C :   -0.145258
   2 C :   -0.018261
   3 N :   -0.055226
   4 C :   -0.022353
   5 N :   -0.055969
   6 C :   -0.023940
   7 C :   -0.051941
   8 C :    0.020361
   9 C :   -0.034483
  10 C :   -0.146169
  11 C :   -0.009258
  12 S :    0.428217
  13 C :   -0.149839
  14 C :   -0.058899
  15 C :    0.074134
  16 O :   -0.137355
  17 C :   -0.087412
  18 C :    0.037967
  19 C :    0.027210
  20 O :    0.057939
  21 C :    0.065112
  22 C :   -0.035531
  23 C :   -0.078136
  24 C :    0.108204
  25 O :   -0.121301
  26 C :   -0.039669
  27 C :    0.017331
  28 C :   -0.038007
  29 C :    0.007291
  30 C :   -0.021081
  31 C :   -0.020834
  32 C :   -0.040921
  33 C :    0.025783
  34 N :   -0.116071
  35 C :    0.029231
  36 N :   -0.119417
  37 C :   -0.005852
  38 C :    0.059875
  39 C :   -0.029453
  40 C :   -0.037025
  41 C :   -0.011246
  42 C :   -0.034927
  43 C :   -0.027220
  44 C :   -0.009826
  45 C :   -0.025145
  46 C :    0.030351
  47 C :   -0.062156
  48 C :    0.070313
  49 O :    0.024565
  50 C :    0.022946
  51 C :    0.002537
  52 C :   -0.120670
  53 C :    0.102581
  54 O :   -0.130439
  55 C :    0.018459
  56 C :   -0.023441
  57 C :    0.064098
  58 C :   -0.090957
  59 C :    0.070945
  60 C :   -0.140627
  61 C :   -0.019889
  62 N :   -0.050493
  63 C :   -0.025234
  64 N :   -0.050018
  65 C :   -0.020026
  66 C :   -0.055131
  67 C :    0.082257
  68 O :   -0.144959
  69 C :    0.023652
  70 C :   -0.035777
  71 C :   -0.145209
  72 C :   -0.011127
  73 S :    0.429832
  74 C :   -0.149727
  75 C :   -0.057516
  76 H :    0.038760
  77 H :    0.040407
  78 H :    0.029125
  79 H :    0.034625
  80 H :    0.047831
  81 H :    0.037386
  82 H :    0.004775
  83 H :    0.042004
  84 H :    0.030302
  85 H :    0.026075
  86 H :    0.027229
  87 H :    0.001267
  88 H :    0.010105
  89 H :    0.053901
  90 H :    0.054866
  91 H :   -0.004928
  92 H :    0.015503
  93 H :    0.052413
  94 H :    0.054872
  95 H :    0.026420
  96 H :    0.057579
  97 H :    0.024947
  98 H :    0.031481
  99 H :    0.027753
 100 H :    0.025615
 101 H :    0.036046
 102 H :    0.034335
 103 H :    0.041488
 104 H :   -0.006754
 105 H :    0.043366
 106 H :    0.034060
 107 H :    0.045198
 108 H :    0.040617
 109 H :    0.040603
 110 H :    0.029444
 111 H :    0.035386

  Mayer bond orders larger than 0.100000
B(  0-C ,  1-C ) :   1.6182 B(  0-C ,  6-C ) :   1.0039 B(  0-C , 17-C ) :   1.0767
B(  1-C ,  2-C ) :   1.1436 B(  1-C ,  4-C ) :   1.1443 B(  2-C ,  3-N ) :   2.9684
B(  4-C ,  5-N ) :   2.9886 B(  6-C ,  7-C ) :   1.2721 B(  6-C , 11-C ) :   1.4040
B(  7-C ,  8-C ) :   1.4285 B(  7-C , 15-C ) :   0.9398 B(  8-C ,  9-C ) :   1.2413
B(  8-C , 76-H ) :   1.0171 B(  9-C , 10-C ) :   1.3034 B(  9-C , 14-C ) :   1.1699
B( 10-C , 11-C ) :   1.3254 B( 10-C , 12-S ) :   1.0980 B( 11-C , 77-H ) :   0.9831
B( 12-S , 13-C ) :   1.1266 B( 13-C , 14-C ) :   1.6292 B( 13-C , 78-H ) :   0.9680
B( 14-C , 79-H ) :   1.0002 B( 15-C , 16-O ) :   2.2745 B( 15-C , 17-C ) :   0.9162
B( 17-C , 18-C ) :   1.5519 B( 18-C , 19-C ) :   1.2389 B( 18-C , 80-H ) :   0.9227
B( 19-C , 20-O ) :   1.1771 B( 19-C , 23-C ) :   1.2796 B( 20-O , 21-C ) :   1.1660
B( 21-C , 22-C ) :   1.3896 B( 21-C , 26-C ) :   1.1134 B( 22-C , 23-C ) :   1.2858
B( 22-C , 81-H ) :   1.0150 B( 23-C , 24-C ) :   0.9731 B( 24-C , 25-O ) :   2.1965
B( 24-C , 82-H ) :   0.9591 B( 26-C , 27-C ) :   1.6610 B( 26-C , 83-H ) :   0.9597
B( 27-C , 28-C ) :   1.0864 B( 27-C , 84-H ) :   0.9828 B( 28-C , 29-C ) :   1.5170
B( 28-C , 45-C ) :   1.1053 B( 29-C , 30-C ) :   1.1497 B( 29-C , 85-H ) :   0.9881
B( 30-C , 31-C ) :   1.4862 B( 30-C , 43-C ) :   1.1142 B( 31-C , 32-C ) :   1.0304
B( 31-C , 37-C ) :   1.0830 B( 32-C , 33-C ) :   1.0440 B( 32-C , 35-C ) :   1.0403
B( 32-C , 86-H ) :   0.8843 B( 33-C , 34-N ) :   1.0953 B( 33-C , 87-H ) :   0.9376
B( 33-C , 88-H ) :   0.9303 B( 34-N , 89-H ) :   0.9694 B( 34-N , 90-H ) :   0.9680
B( 35-C , 36-N ) :   1.0939 B( 35-C , 91-H ) :   0.9322 B( 35-C , 92-H ) :   0.9349
B( 36-N , 93-H ) :   0.9694 B( 36-N , 94-H ) :   0.9662 B( 37-C , 38-C ) :   1.6397
B( 37-C , 42-C ) :   1.0554 B( 38-C , 39-C ) :   0.9619 B( 38-C , 95-H ) :   0.9748
B( 39-C , 40-C ) :   0.9835 B( 39-C , 46-C ) :   0.9542 B( 39-C , 96-H ) :   0.8646
B( 40-C , 41-C ) :   1.7065 B( 40-C , 97-H ) :   0.9753 B( 41-C , 42-C ) :   1.1284
B( 41-C , 98-H ) :   0.9892 B( 42-C , 43-C ) :   1.4494 B( 43-C , 44-C ) :   1.1364
B( 44-C , 45-C ) :   1.6144 B( 44-C , 99-H ) :   0.9899 B( 45-C ,100-H ) :   0.9895
B( 46-C , 47-C ) :   1.7633 B( 46-C ,101-H ) :   0.9812 B( 47-C , 48-C ) :   1.1259
B( 47-C ,102-H ) :   0.9544 B( 48-C , 49-O ) :   1.2067 B( 48-C , 52-C ) :   1.3563
B( 49-O , 50-C ) :   1.0822 B( 50-C , 51-C ) :   1.4706 B( 50-C , 55-C ) :   1.1131
B( 51-C , 52-C ) :   1.2215 B( 51-C ,103-H ) :   1.0118 B( 52-C , 53-C ) :   0.9864
B( 53-C , 54-O ) :   2.1995 B( 53-C ,104-H ) :   0.9579 B( 55-C , 56-C ) :   1.6505
B( 55-C ,105-H ) :   0.9742 B( 56-C , 57-C ) :   1.1401 B( 56-C ,106-H ) :   0.9561
B( 57-C , 58-C ) :   1.6186 B( 57-C ,107-H ) :   0.9574 B( 58-C , 59-C ) :   1.0383
B( 58-C , 67-C ) :   0.9378 B( 59-C , 60-C ) :   1.6432 B( 59-C , 65-C ) :   1.0176
B( 60-C , 61-C ) :   1.1300 B( 60-C , 63-C ) :   1.1552 B( 61-C , 62-N ) :   2.9885
B( 63-C , 64-N ) :   3.0176 B( 65-C , 66-C ) :   1.2659 B( 65-C , 72-C ) :   1.4162
B( 66-C , 67-C ) :   0.9247 B( 66-C , 69-C ) :   1.4298 B( 67-C , 68-O ) :   2.2680
B( 69-C , 70-C ) :   1.2519 B( 69-C ,108-H ) :   1.0157 B( 70-C , 71-C ) :   1.3022
B( 70-C , 75-C ) :   1.1734 B( 71-C , 72-C ) :   1.3205 B( 71-C , 73-S ) :   1.0980
B( 72-C ,109-H ) :   0.9852 B( 73-S , 74-C ) :   1.1268 B( 74-C , 75-C ) :   1.6296
B( 74-C ,110-H ) :   0.9683 B( 75-C ,111-H ) :   0.9990

-----------------------------------------------------------------------------
         ABSORPTION SPECTRUM VIA TRANSITION ELECTRIC DIPOLE MOMENTS
-----------------------------------------------------------------------------
State   Energy  Wavelength   fosc         T2         TX        TY        TZ
        (cm-1)    (nm)                  (au**2)     (au)      (au)      (au)
-----------------------------------------------------------------------------
   0   13066.9    765.3   0.078857948   1.98677   0.36544   0.50775   1.26310
   1   16750.5    597.0   0.725170017  14.25239   0.59262  -3.20831  -1.89946
   2   18428.0    542.7   0.259419626   4.63447  -0.31511   0.24396   2.11558
   3   21151.6    472.8   0.737224629  11.47445  -0.59559   2.31695   2.39822
   4   21653.7    461.8   0.704570500  10.71195   0.39105   1.73264  -2.74900
   5   24826.6    402.8   0.026947018   0.35733  -0.12984  -0.42254  -0.40240
   6   25442.7    393.0   0.074172074   0.95974   0.43082  -0.67259  -0.56724
   7   26137.0    382.6   0.106756776   1.34467  -0.31608  -0.79757  -0.78016
   8   26431.1    378.3   0.031748578   0.39544  -0.01254   0.61224  -0.14300
   9   26529.4    376.9   0.241353062   2.99502  -0.77525   0.74325  -1.35705
  10   26954.5    371.0   0.070305624   0.85869   0.31895  -0.37655  -0.78433
  11   27568.9    362.7   0.044925552   0.53648  -0.13754   0.27113   0.66637
  12   27840.3    359.2   0.028083765   0.33209   0.20505  -0.11283   0.52661
  13   28270.6    353.7   0.020037420   0.23334  -0.44999  -0.16580  -0.05796
  14   28515.8    350.7   0.469082554   5.41551   0.12430  -0.48450  -2.27273
  15   28681.5    348.7   0.024661301   0.28307   0.07577  -0.02339   0.52610
  16   28701.8    348.4   0.214500240   2.46033   0.84872   0.95770   0.90709
  17   29009.3    344.7   0.074095931   0.84088  -0.77734  -0.48071  -0.07444
  18   29055.5    344.2   0.005061507   0.05735  -0.17047  -0.12482   0.11273
  19   29801.3    335.6   0.174250661   1.92493   0.84643   0.32043  -1.05158
  20   29982.7    333.5   0.003953328   0.04341  -0.12625  -0.07198  -0.14930
  21   30325.9    329.8   0.217729305   2.36363   1.06583   0.17177  -1.09459
  22   30523.3    327.6   0.110407379   1.19081   0.24221  -0.69581   0.80498
  23   31602.6    316.4   0.002120989   0.02209   0.10877  -0.08862   0.04909
  24   32384.8    308.8   0.004612055   0.04688   0.05955   0.15826   0.13525
  25   32546.8    307.2   0.650671943   6.58156   1.27172  -0.54443   2.16053
  26   33051.1    302.6   0.207348009   2.06533   1.24604  -0.07313  -0.71229
  27   33233.8    300.9   0.604508856   5.98822  -0.58019   0.93322  -2.18648
  28   33360.5    299.8   0.146491756   1.44563  -0.77738   0.75778   0.51679
  29   33935.8    294.7   0.323729862   3.14051   1.28991  -0.09825  -1.21120
  30   34265.1    291.8   0.000197066   0.00189   0.02906   0.01868   0.02646
  31   34494.2    289.9   0.004090206   0.03904  -0.16791   0.09045  -0.05160
  32   34890.9    286.6   0.001733511   0.01636   0.08527   0.08135  -0.04967
  33   35064.0    285.2   0.037135961   0.34867   0.14185  -0.36788   0.43955
  34   35760.6    279.6   0.002896693   0.02667   0.02267  -0.01798  -0.16072
  35   35859.3    278.9   0.064008749   0.58764  -0.10146   0.04882  -0.75826
  36   36203.7    276.2   0.009455894   0.08599  -0.13538  -0.16132  -0.20404
  37   36238.3    276.0   0.000057770   0.00052   0.00910   0.01695  -0.01244
  38   36476.5    274.1   0.027171713   0.24523  -0.20495  -0.43061   0.13344
  39   36806.0    271.7   0.008429647   0.07540  -0.20245  -0.12529   0.13680
  40   37406.5    267.3   0.048679911   0.42843  -0.06690   0.39813   0.51521
  41   37540.0    266.4   0.011436507   0.10029  -0.04116  -0.08319  -0.30279
  42   37727.2    265.1   0.002692899   0.02350   0.08310  -0.02660   0.12603
  43   37813.6    264.5   0.032234939   0.28064   0.16345   0.32018   0.38912
  44   37922.7    263.7   0.101367547   0.87998   0.24968   0.63404   0.64470
  45   38160.8    262.0   0.163811634   1.41320  -0.05604  -0.70743  -0.95373
  46   38520.1    259.6   0.181733779   1.55319   0.34939  -0.76129  -0.92280
  47   38632.6    258.8   0.193866033   1.65205  -0.95368  -0.42612  -0.74898
  48   39470.8    253.4   0.022132053   0.18460   0.34645   0.15111   0.20429
  49   40068.3    249.6   0.498044761   4.09207  -0.75415  -0.76719  -1.71311
  50   40254.9    248.4   0.009355602   0.07651   0.15270  -0.20026  -0.11442

FINAL SINGLE POINT ENERGY     -3956.081759396551

DIPOLE MOMENT
-------------
                                X             Y             Z
Electronic contribution:      9.48820      29.72327      -9.18837
Nuclear contribution   :     -8.65656     -30.71446       5.59895
                        -----------------------------------------
Total Dipole Moment    :      0.83164      -0.99119      -3.58942
                        -----------------------------------------
Magnitude (a.u.)       :      3.81550
Magnitude (Debye)      :      9.69824

Rotational constants in cm-1:     0.001192     0.000169     0.000158
Rotational constants in MHz :    35.729822     5.070376     4.727670

                             ****ORCA TERMINATED NORMALLY****
TOTAL RUN TIME: 0 days 0 hours 11 minutes 1 seconds 420 msec
