                         Program Version 4.2.0 -  RELEASE  -
|  1> # ORCA input file
|  2> # SCF done       -196.102094936098          0.000426547277
|  3> ! CAM-B3LYP def2-SVP def2/J RIJCOSX Grid4 TightSCF
|  4> %maxcore 5000
|  5> %tddft
|  6>     Mode sTDDFT
|  7>     Ethresh 5.0
|  8>     maxcore 5000
|  9> end
| 10>
| 11> %pal
| 12>   nprocs 6
| 13>   end
| 14> * xyz 0 1
| 15>    C       -6.91435         6.99979        -6.13112
| 16>    C       -6.27762         6.86466        -7.33414
| 17>    C       -6.67552         7.53776        -8.51001
| 18>    N       -6.96533         8.06026        -9.48902
| 19>    C       -5.11854         6.08174        -7.53004
| 20>    N       -4.17173         5.46473        -7.73102
| 21>    C       -8.05406         7.85246        -5.83609
| 22>    C       -8.22047         7.92738        -4.42700
| 23>    C       -9.22221         8.66443        -3.84279
| 24>    C      -10.11107         9.34109        -4.68356
| 25>    C       -9.94123         9.25362        -6.08913
| 26>    C       -8.92053         8.52177        -6.68178
| 27>    S      -11.15872        10.16181        -6.92680
| 28>    C      -11.86907        10.64080        -5.42521
| 29>    C      -11.23055        10.14886        -4.34033
| 30>    C       -7.17076         7.13077        -3.76238
| 31>    O       -6.82803         7.17750        -2.61109
| 32>    C       -6.53960         6.34754        -4.88036
| 33>    C       -5.85381         5.18905        -4.77340
| 34>    C       -5.68321         4.40781        -3.58883
| 35>    N       -6.52980         4.41449        -2.58184
| 36>    C       -6.09600         3.46505        -1.72391
| 37>    C       -4.91432         2.76774        -2.25533
| 38>    C       -4.44979         1.74256        -1.30652
| 39>    O       -3.54229         0.95036        -1.43395
| 40>    C       -5.37905         1.91203        -0.17203
| 41>    C       -6.38170         2.95920        -0.48143
| 42>    N       -7.23237         3.12661         0.56177
| 43>    C       -6.82178         2.28841         1.47786
| 44>    C       -5.65944         1.50473         1.08954
| 45>    C       -4.61667         3.38147        -3.44655
| 46>    C       -3.55244         3.15822        -4.36388
| 47>    C       -2.82221         2.01627        -4.34214
| 48>    C       -1.71269         1.72375        -5.17307
| 49>    S       -1.14388         0.08598        -5.27694
| 50>    C        0.18749         0.51675        -6.32069
| 51>    C        0.17738         1.89190        -6.54844
| 52>    C       -0.90034         2.55755        -5.93412
| 53>    S       -1.00499         4.27750        -6.17019
| 54>    C        0.47639         4.42398        -7.14734
| 55>    O        0.88352         5.45947        -7.56705
| 56>    S        1.30090         2.86885        -7.43483
| 57>    C        1.04276        -0.50494        -6.77138
| 58>    C        2.20212        -0.36849        -7.47750
| 59>    C        2.95619        -1.51978        -7.80193
| 60>    N        2.50882        -2.74747        -7.53553
| 61>    C        3.49613        -3.58970        -7.85789
| 62>    C        4.68688        -2.85684        -8.32772
| 63>    C        5.77614        -3.79017        -8.67751
| 64>    O        6.88344        -3.52911        -9.08983
| 65>    C        5.16571        -5.10090        -8.39832
| 66>    C        3.78289        -4.93564        -7.89863
| 67>    N        3.21701        -6.13881        -7.65182
| 68>    C        4.13700        -7.02179        -7.96660
| 69>    C        5.37416        -6.44344        -8.44226
| 70>    C        4.34368        -1.53565        -8.33444
| 71>    C        5.16164        -0.42434        -8.71324
| 72>    C        4.75077         0.63475        -9.44768
| 73>    C        5.66056         1.67698        -9.76555
| 74>    C        5.61369         2.70264       -10.65701
| 75>    C        4.67510         3.18127       -11.65719
| 76>    C        3.31583         3.01613       -11.71746
| 77>    C        2.49206         3.58132       -12.71768
| 78>    N        1.75568         3.99782       -13.49320
| 79>    C        2.50104         2.33516       -10.79636
| 80>    N        1.75238         1.81372       -10.09728
| 81>    C        5.42975         4.02653       -12.58249
| 82>    C        6.73295         4.23969       -12.06563
| 83>    C        6.88391         3.47815       -10.82043
| 84>    O        7.83990         3.43860       -10.08007
| 85>    C        7.67019         5.01666       -12.70315
| 86>    C        7.31157         5.60559       -13.91846
| 87>    C        6.01554         5.37260       -14.43946
| 88>    C        5.06627         4.59177       -13.79106
| 89>    S        5.79616         6.18035       -15.95960
| 90>    C        7.40397         6.81300       -15.88351
| 91>    C        8.08188         6.44018       -14.77592
| 92>    H       -9.32185         8.70767        -2.76950
| 93>    H       -8.83125         8.47962        -7.75492
| 94>    H      -12.73678        11.27119        -5.44704
| 95>    H      -11.53065        10.34102        -3.32629
| 96>    H       -5.43093         4.74663        -5.66673
| 97>    H       -7.33733         2.21583         2.41978
| 98>    H       -5.16939         0.77269         1.70042
| 99>    H       -3.35108         3.92436        -5.10030
|100>    H       -3.09147         1.23546        -3.64233
|101>    H        0.75708        -1.51468        -6.50419
|102>    H        2.58141         0.60067        -7.76251
|103>    H        3.93654        -8.07386        -7.86025
|104>    H        6.24212        -6.99165        -8.75085
|105>    H        6.20712        -0.50517        -8.43787
|106>    H        3.74316         0.65769        -9.82789
|107>    H        6.60924         1.62788        -9.23440
|108>    H        8.65090         5.15945       -12.27664
|109>    H        4.09947         4.43929       -14.24025
|110>    H        7.74825         7.43494       -16.68691
|111>    H        9.09224         6.73641       -14.55929
|112> *
|113>
|114>                          ****END OF INPUT****

CARTESIAN COORDINATES (ANGSTROEM)
---------------------------------
  C     -6.914350    6.999790   -6.131120
  C     -6.277620    6.864660   -7.334140
  C     -6.675520    7.537760   -8.510010
  N     -6.965330    8.060260   -9.489020
  C     -5.118540    6.081740   -7.530040
  N     -4.171730    5.464730   -7.731020
  C     -8.054060    7.852460   -5.836090
  C     -8.220470    7.927380   -4.427000
  C     -9.222210    8.664430   -3.842790
  C    -10.111070    9.341090   -4.683560
  C     -9.941230    9.253620   -6.089130
  C     -8.920530    8.521770   -6.681780
  S    -11.158720   10.161810   -6.926800
  C    -11.869070   10.640800   -5.425210
  C    -11.230550   10.148860   -4.340330
  C     -7.170760    7.130770   -3.762380
  O     -6.828030    7.177500   -2.611090
  C     -6.539600    6.347540   -4.880360
  C     -5.853810    5.189050   -4.773400
  C     -5.683210    4.407810   -3.588830
  N     -6.529800    4.414490   -2.581840
  C     -6.096000    3.465050   -1.723910
  C     -4.914320    2.767740   -2.255330
  C     -4.449790    1.742560   -1.306520
  O     -3.542290    0.950360   -1.433950
  C     -5.379050    1.912030   -0.172030
  C     -6.381700    2.959200   -0.481430
  N     -7.232370    3.126610    0.561770
  C     -6.821780    2.288410    1.477860
  C     -5.659440    1.504730    1.089540
  C     -4.616670    3.381470   -3.446550
  C     -3.552440    3.158220   -4.363880
  C     -2.822210    2.016270   -4.342140
  C     -1.712690    1.723750   -5.173070
  S     -1.143880    0.085980   -5.276940
  C      0.187490    0.516750   -6.320690
  C      0.177380    1.891900   -6.548440
  C     -0.900340    2.557550   -5.934120
  S     -1.004990    4.277500   -6.170190
  C      0.476390    4.423980   -7.147340
  O      0.883520    5.459470   -7.567050
  S      1.300900    2.868850   -7.434830
  C      1.042760   -0.504940   -6.771380
  C      2.202120   -0.368490   -7.477500
  C      2.956190   -1.519780   -7.801930
  N      2.508820   -2.747470   -7.535530
  C      3.496130   -3.589700   -7.857890
  C      4.686880   -2.856840   -8.327720
  C      5.776140   -3.790170   -8.677510
  O      6.883440   -3.529110   -9.089830
  C      5.165710   -5.100900   -8.398320
  C      3.782890   -4.935640   -7.898630
  N      3.217010   -6.138810   -7.651820
  C      4.137000   -7.021790   -7.966600
  C      5.374160   -6.443440   -8.442260
  C      4.343680   -1.535650   -8.334440
  C      5.161640   -0.424340   -8.713240
  C      4.750770    0.634750   -9.447680
  C      5.660560    1.676980   -9.765550
  C      5.613690    2.702640  -10.657010
  C      4.675100    3.181270  -11.657190
  C      3.315830    3.016130  -11.717460
  C      2.492060    3.581320  -12.717680
  N      1.755680    3.997820  -13.493200
  C      2.501040    2.335160  -10.796360
  N      1.752380    1.813720  -10.097280
  C      5.429750    4.026530  -12.582490
  C      6.732950    4.239690  -12.065630
  C      6.883910    3.478150  -10.820430
  O      7.839900    3.438600  -10.080070
  C      7.670190    5.016660  -12.703150
  C      7.311570    5.605590  -13.918460
  C      6.015540    5.372600  -14.439460
  C      5.066270    4.591770  -13.791060
  S      5.796160    6.180350  -15.959600
  C      7.403970    6.813000  -15.883510
  C      8.081880    6.440180  -14.775920
  H     -9.321850    8.707670   -2.769500
  H     -8.831250    8.479620   -7.754920
  H    -12.736780   11.271190   -5.447040
  H    -11.530650   10.341020   -3.326290
  H     -5.430930    4.746630   -5.666730
  H     -7.337330    2.215830    2.419780
  H     -5.169390    0.772690    1.700420
  H     -3.351080    3.924360   -5.100300
  H     -3.091470    1.235460   -3.642330
  H      0.757080   -1.514680   -6.504190
  H      2.581410    0.600670   -7.762510
  H      3.936540   -8.073860   -7.860250
  H      6.242120   -6.991650   -8.750850
  H      6.207120   -0.505170   -8.437870
  H      3.743160    0.657690   -9.827890
  H      6.609240    1.627880   -9.234400
  H      8.650900    5.159450  -12.276640
  H      4.099470    4.439290  -14.240250
  H      7.748250    7.434940  -16.686910
  H      9.092240    6.736410  -14.559290

 Total Charge           Charge          ....    0
 Multiplicity           Mult            ....    1
 Number of Electrons    NEL             ....  550
 Basis Dimension        Dim             .... 1198

ORBITAL ENERGIES
----------------

  NO   OCC          E(Eh)            E(eV)
   0   2.0000     -88.976783     -2421.1814
   1   2.0000     -88.974607     -2421.1222
   2   2.0000     -88.967877     -2420.9390
   3   2.0000     -88.967659     -2420.9331
   4   2.0000     -88.965570     -2420.8762
   5   2.0000     -19.230740      -523.2950
   6   2.0000     -19.223858      -523.1078
   7   2.0000     -19.219835      -522.9983
   8   2.0000     -19.213038      -522.8133
   9   2.0000     -19.205186      -522.5997
  10   2.0000     -14.429927      -392.6583
  11   2.0000     -14.427390      -392.5892
  12   2.0000     -14.422310      -392.4510
  13   2.0000     -14.421833      -392.4380
  14   2.0000     -14.415698      -392.2711
  15   2.0000     -14.414684      -392.2435
  16   2.0000     -14.401489      -391.8844
  17   2.0000     -14.397781      -391.7835
  18   2.0000     -10.409323      -283.2521
  19   2.0000     -10.379619      -282.4438
  20   2.0000     -10.376405      -282.3563
  21   2.0000     -10.366709      -282.0925
  22   2.0000     -10.362333      -281.9734
  23   2.0000     -10.359639      -281.9001
  24   2.0000     -10.355938      -281.7994
  25   2.0000     -10.352497      -281.7058
  26   2.0000     -10.346066      -281.5308
  27   2.0000     -10.345495      -281.5152
  28   2.0000     -10.341187      -281.3980
  29   2.0000     -10.340191      -281.3709
  30   2.0000     -10.335469      -281.2424
  31   2.0000     -10.335120      -281.2329
  32   2.0000     -10.333879      -281.1991
  33   2.0000     -10.331926      -281.1460
  34   2.0000     -10.331451      -281.1331
  35   2.0000     -10.330041      -281.0947
  36   2.0000     -10.329888      -281.0906
  37   2.0000     -10.328927      -281.0644
  38   2.0000     -10.328131      -281.0427
  39   2.0000     -10.327215      -281.0178
  40   2.0000     -10.326601      -281.0011
  41   2.0000     -10.325331      -280.9665
  42   2.0000     -10.325226      -280.9637
  43   2.0000     -10.322296      -280.8840
  44   2.0000     -10.319876      -280.8181
  45   2.0000     -10.318368      -280.7771
  46   2.0000     -10.318243      -280.7737
  47   2.0000     -10.316443      -280.7247
  48   2.0000     -10.316250      -280.7194
  49   2.0000     -10.313940      -280.6566
  50   2.0000     -10.313717      -280.6505
  51   2.0000     -10.313423      -280.6425
  52   2.0000     -10.313238      -280.6375
  53   2.0000     -10.311340      -280.5858
  54   2.0000     -10.311309      -280.5850
  55   2.0000     -10.309108      -280.5251
  56   2.0000     -10.307066      -280.4695
  57   2.0000     -10.306896      -280.4649
  58   2.0000     -10.304683      -280.4047
  59   2.0000     -10.303575      -280.3745
  60   2.0000     -10.302536      -280.3463
  61   2.0000     -10.301205      -280.3100
  62   2.0000     -10.300989      -280.3042
  63   2.0000     -10.300007      -280.2774
  64   2.0000     -10.299936      -280.2755
  65   2.0000     -10.298385      -280.2333
  66   2.0000     -10.298076      -280.2249
  67   2.0000     -10.297440      -280.2076
  68   2.0000     -10.296253      -280.1753
  69   2.0000     -10.295688      -280.1599
  70   2.0000     -10.293930      -280.1121
  71   2.0000     -10.292865      -280.0831
  72   2.0000     -10.289440      -279.9899
  73   2.0000     -10.288979      -279.9774
  74   2.0000     -10.288121      -279.9540
  75   2.0000     -10.281657      -279.7781
  76   2.0000     -10.281043      -279.7614
  77   2.0000      -8.072381      -219.6607
  78   2.0000      -8.070865      -219.6194
  79   2.0000      -8.064200      -219.4380
  80   2.0000      -8.063954      -219.4313
  81   2.0000      -8.061899      -219.3754
  82   2.0000      -6.041639      -164.4014
  83   2.0000      -6.040350      -164.3663
  84   2.0000      -6.037621      -164.2920
  85   2.0000      -6.036077      -164.2500
  86   2.0000      -6.034301      -164.2017
  87   2.0000      -6.033887      -164.1904
  88   2.0000      -6.033616      -164.1830
  89   2.0000      -6.032551      -164.1541
  90   2.0000      -6.031388      -164.1224
  91   2.0000      -6.029866      -164.0810
  92   2.0000      -6.029497      -164.0710
  93   2.0000      -6.027110      -164.0060
  94   2.0000      -6.024848      -163.9445
  95   2.0000      -6.024759      -163.9420
  96   2.0000      -6.023560      -163.9094
  97   2.0000      -1.160268       -31.5725
  98   2.0000      -1.140957       -31.0470
  99   2.0000      -1.134474       -30.8706
 100   2.0000      -1.128538       -30.7091
 101   2.0000      -1.120321       -30.4855
 102   2.0000      -1.088257       -29.6130
 103   2.0000      -1.073041       -29.1989
 104   2.0000      -1.069444       -29.1011
 105   2.0000      -1.052198       -28.6318
 106   2.0000      -1.032597       -28.0984
 107   2.0000      -1.025653       -27.9094
 108   2.0000      -1.022241       -27.8166
 109   2.0000      -1.018442       -27.7132
 110   2.0000      -1.009796       -27.4780
 111   2.0000      -1.006808       -27.3966
 112   2.0000      -0.997360       -27.1395
 113   2.0000      -0.996999       -27.1297
 114   2.0000      -0.984426       -26.7876
 115   2.0000      -0.951179       -25.8829
 116   2.0000      -0.949077       -25.8257
 117   2.0000      -0.941626       -25.6229
 118   2.0000      -0.939097       -25.5541
 119   2.0000      -0.937645       -25.5146
 120   2.0000      -0.930582       -25.3224
 121   2.0000      -0.925356       -25.1802
 122   2.0000      -0.916011       -24.9259
 123   2.0000      -0.908135       -24.7116
 124   2.0000      -0.899277       -24.4706
 125   2.0000      -0.890809       -24.2401
 126   2.0000      -0.884684       -24.0735
 127   2.0000      -0.881190       -23.9784
 128   2.0000      -0.880834       -23.9687
 129   2.0000      -0.871898       -23.7256
 130   2.0000      -0.864597       -23.5269
 131   2.0000      -0.857820       -23.3425
 132   2.0000      -0.850010       -23.1299
 133   2.0000      -0.832239       -22.6464
 134   2.0000      -0.830270       -22.5928
 135   2.0000      -0.823012       -22.3953
 136   2.0000      -0.822676       -22.3862
 137   2.0000      -0.816278       -22.2121
 138   2.0000      -0.811203       -22.0740
 139   2.0000      -0.782998       -21.3065
 140   2.0000      -0.779264       -21.2049
 141   2.0000      -0.768287       -20.9062
 142   2.0000      -0.762510       -20.7490
 143   2.0000      -0.761176       -20.7126
 144   2.0000      -0.754749       -20.5378
 145   2.0000      -0.747254       -20.3338
 146   2.0000      -0.730115       -19.8674
 147   2.0000      -0.727511       -19.7966
 148   2.0000      -0.715564       -19.4715
 149   2.0000      -0.710165       -19.3246
 150   2.0000      -0.701187       -19.0803
 151   2.0000      -0.698444       -19.0056
 152   2.0000      -0.696780       -18.9603
 153   2.0000      -0.685317       -18.6484
 154   2.0000      -0.676033       -18.3958
 155   2.0000      -0.673077       -18.3154
 156   2.0000      -0.672927       -18.3113
 157   2.0000      -0.665965       -18.1218
 158   2.0000      -0.663179       -18.0460
 159   2.0000      -0.656024       -17.8513
 160   2.0000      -0.652547       -17.7567
 161   2.0000      -0.651173       -17.7193
 162   2.0000      -0.642622       -17.4866
 163   2.0000      -0.641616       -17.4593
 164   2.0000      -0.631339       -17.1796
 165   2.0000      -0.629459       -17.1284
 166   2.0000      -0.623992       -16.9797
 167   2.0000      -0.619096       -16.8465
 168   2.0000      -0.618584       -16.8325
 169   2.0000      -0.613645       -16.6981
 170   2.0000      -0.607915       -16.5422
 171   2.0000      -0.605210       -16.4686
 172   2.0000      -0.597884       -16.2693
 173   2.0000      -0.591520       -16.0961
 174   2.0000      -0.587027       -15.9738
 175   2.0000      -0.584683       -15.9100
 176   2.0000      -0.578257       -15.7352
 177   2.0000      -0.569972       -15.5097
 178   2.0000      -0.567689       -15.4476
 179   2.0000      -0.561987       -15.2924
 180   2.0000      -0.559281       -15.2188
 181   2.0000      -0.556013       -15.1299
 182   2.0000      -0.551189       -14.9986
 183   2.0000      -0.549324       -14.9479
 184   2.0000      -0.546333       -14.8665
 185   2.0000      -0.545675       -14.8486
 186   2.0000      -0.543686       -14.7944
 187   2.0000      -0.542165       -14.7531
 188   2.0000      -0.540950       -14.7200
 189   2.0000      -0.538254       -14.6466
 190   2.0000      -0.536719       -14.6049
 191   2.0000      -0.536456       -14.5977
 192   2.0000      -0.535627       -14.5752
 193   2.0000      -0.533222       -14.5097
 194   2.0000      -0.530359       -14.4318
 195   2.0000      -0.524774       -14.2798
 196   2.0000      -0.523213       -14.2373
 197   2.0000      -0.518750       -14.1159
 198   2.0000      -0.516351       -14.0506
 199   2.0000      -0.515843       -14.0368
 200   2.0000      -0.513231       -13.9657
 201   2.0000      -0.510673       -13.8961
 202   2.0000      -0.507684       -13.8148
 203   2.0000      -0.505147       -13.7458
 204   2.0000      -0.504428       -13.7262
 205   2.0000      -0.502444       -13.6722
 206   2.0000      -0.500744       -13.6259
 207   2.0000      -0.498422       -13.5628
 208   2.0000      -0.497006       -13.5242
 209   2.0000      -0.493593       -13.4313
 210   2.0000      -0.492235       -13.3944
 211   2.0000      -0.490970       -13.3600
 212   2.0000      -0.488203       -13.2847
 213   2.0000      -0.483813       -13.1652
 214   2.0000      -0.482573       -13.1315
 215   2.0000      -0.481163       -13.0931
 216   2.0000      -0.479482       -13.0474
 217   2.0000      -0.476544       -12.9674
 218   2.0000      -0.469625       -12.7792
 219   2.0000      -0.468480       -12.7480
 220   2.0000      -0.467270       -12.7151
 221   2.0000      -0.466489       -12.6938
 222   2.0000      -0.462662       -12.5897
 223   2.0000      -0.461165       -12.5489
 224   2.0000      -0.459449       -12.5023
 225   2.0000      -0.456327       -12.4173
 226   2.0000      -0.455563       -12.3965
 227   2.0000      -0.455010       -12.3815
 228   2.0000      -0.453143       -12.3306
 229   2.0000      -0.450923       -12.2702
 230   2.0000      -0.444438       -12.0938
 231   2.0000      -0.443344       -12.0640
 232   2.0000      -0.442368       -12.0374
 233   2.0000      -0.440129       -11.9765
 234   2.0000      -0.438954       -11.9445
 235   2.0000      -0.437667       -11.9095
 236   2.0000      -0.433437       -11.7944
 237   2.0000      -0.432268       -11.7626
 238   2.0000      -0.431566       -11.7435
 239   2.0000      -0.430780       -11.7221
 240   2.0000      -0.427080       -11.6214
 241   2.0000      -0.423573       -11.5260
 242   2.0000      -0.423264       -11.5176
 243   2.0000      -0.421519       -11.4701
 244   2.0000      -0.415348       -11.3022
 245   2.0000      -0.409307       -11.1378
 246   2.0000      -0.407806       -11.0970
 247   2.0000      -0.391944       -10.6653
 248   2.0000      -0.389260       -10.5923
 249   2.0000      -0.386618       -10.5204
 250   2.0000      -0.373973       -10.1763
 251   2.0000      -0.373137       -10.1536
 252   2.0000      -0.372040       -10.1237
 253   2.0000      -0.365110        -9.9351
 254   2.0000      -0.362109        -9.8535
 255   2.0000      -0.355755        -9.6806
 256   2.0000      -0.349568        -9.5122
 257   2.0000      -0.346637        -9.4325
 258   2.0000      -0.346137        -9.4189
 259   2.0000      -0.345237        -9.3944
 260   2.0000      -0.342991        -9.3333
 261   2.0000      -0.337448        -9.1824
 262   2.0000      -0.336239        -9.1495
 263   2.0000      -0.334899        -9.1131
 264   2.0000      -0.325795        -8.8653
 265   2.0000      -0.323980        -8.8160
 266   2.0000      -0.323367        -8.7993
 267   2.0000      -0.318543        -8.6680
 268   2.0000      -0.313551        -8.5322
 269   2.0000      -0.309604        -8.4248
 270   2.0000      -0.303267        -8.2523
 271   2.0000      -0.298237        -8.1154
 272   2.0000      -0.294911        -8.0249
 273   2.0000      -0.289095        -7.8667
 274   2.0000      -0.258927        -7.0458
 275   0.0000      -0.133054        -3.6206
 276   0.0000      -0.117166        -3.1883
 277   0.0000      -0.092800        -2.5252
 278   0.0000      -0.084628        -2.3028
 279   0.0000      -0.065735        -1.7887

MULLIKEN ATOMIC CHARGES
-----------------------
   0 C :    0.256801
   1 C :   -0.321578
   2 C :   -0.181270
   3 N :    0.164438
   4 C :   -0.181064
   5 N :    0.160675
   6 C :    0.029115
   7 C :   -0.009775
   8 C :   -0.062217
   9 C :    0.111150
  10 C :   -0.093464
  11 C :   -0.022155
  12 S :    0.147628
  13 C :   -0.047011
  14 C :    0.028571
  15 C :    0.145215
  16 O :   -0.100353
  17 C :   -0.029317
  18 C :   -0.071183
  19 C :    0.031137
  20 N :   -0.001829
  21 C :    0.070606
  22 C :   -0.161376
  23 C :    0.217202
  24 O :   -0.135585
  25 C :   -0.015557
  26 C :   -0.016497
  27 N :   -0.050445
  28 C :    0.096262
  29 C :   -0.097473
  30 C :    0.040781
  31 C :   -0.058292
  32 C :    0.065452
  33 C :   -0.148677
  34 S :    0.194338
  35 C :   -0.145928
  36 C :    0.010771
  37 C :   -0.013979
  38 S :    0.116452
  39 C :    0.085169
  40 O :   -0.147349
  41 S :    0.132182
  42 C :    0.087969
  43 C :   -0.036314
  44 C :    0.031243
  45 N :   -0.052311
  46 C :    0.060885
  47 C :   -0.106679
  48 C :    0.201601
  49 O :   -0.127278
  50 C :   -0.051308
  51 C :   -0.018471
  52 N :   -0.058697
  53 C :    0.086968
  54 C :   -0.091496
  55 C :    0.016714
  56 C :   -0.038837
  57 C :    0.017199
  58 C :   -0.009599
  59 C :   -0.079048
  60 C :    0.319031
  61 C :   -0.343498
  62 C :   -0.186986
  63 N :    0.155033
  64 C :   -0.156400
  65 N :    0.129234
  66 C :   -0.004857
  67 C :    0.001472
  68 C :    0.130672
  69 O :   -0.144782
  70 C :   -0.063032
  71 C :    0.112586
  72 C :   -0.095142
  73 C :   -0.018707
  74 S :    0.143224
  75 C :   -0.050017
  76 C :    0.026842
  77 H :   -0.001727
  78 H :    0.000092
  79 H :    0.043386
  80 H :   -0.002559
  81 H :    0.036153
  82 H :    0.014572
  83 H :    0.001349
  84 H :    0.010250
  85 H :    0.012138
  86 H :    0.023056
  87 H :   -0.006047
  88 H :    0.006982
  89 H :   -0.008888
  90 H :    0.034165
  91 H :    0.015270
  92 H :    0.024966
  93 H :   -0.010886
  94 H :   -0.004871
  95 H :    0.039806
  96 H :   -0.005991
Sum of atomic charges:   -0.0000000

LOEWDIN ATOMIC CHARGES
----------------------
   0 C :    0.073026
   1 C :   -0.125195
   2 C :   -0.019219
   3 N :   -0.037327
   4 C :   -0.019455
   5 N :   -0.043007
   6 C :   -0.023864
   7 C :   -0.048988
   8 C :    0.025741
   9 C :   -0.029203
  10 C :   -0.143921
  11 C :   -0.006122
  12 S :    0.434999
  13 C :   -0.144044
  14 C :   -0.056254
  15 C :    0.080443
  16 O :   -0.097606
  17 C :   -0.017193
  18 C :    0.023427
  19 C :    0.057765
  20 N :   -0.064244
  21 C :    0.045677
  22 C :   -0.053598
  23 C :    0.068777
  24 O :   -0.137296
  25 C :   -0.037426
  26 C :    0.036833
  27 N :   -0.091420
  28 C :    0.083263
  29 C :   -0.027822
  30 C :   -0.021441
  31 C :   -0.036997
  32 C :   -0.003521
  33 C :   -0.176121
  34 S :    0.484006
  35 C :   -0.194292
  36 C :   -0.188666
  37 C :   -0.205798
  38 S :    0.384636
  39 C :   -0.201016
  40 O :   -0.143181
  41 S :    0.416037
  42 C :    0.040738
  43 C :   -0.054231
  44 C :    0.078217
  45 N :   -0.116030
  46 C :    0.042417
  47 C :   -0.019708
  48 C :    0.061076
  49 O :   -0.141250
  50 C :   -0.045536
  51 C :    0.017155
  52 N :   -0.099274
  53 C :    0.069492
  54 C :   -0.042533
  55 C :   -0.042112
  56 C :    0.038603
  57 C :   -0.034340
  58 C :    0.067572
  59 C :   -0.089598
  60 C :    0.075888
  61 C :   -0.136991
  62 C :   -0.018124
  63 N :   -0.046857
  64 C :   -0.007879
  65 N :   -0.066730
  66 C :   -0.020157
  67 C :   -0.054756
  68 C :    0.084045
  69 O :   -0.141506
  70 C :    0.025437
  71 C :   -0.034105
  72 C :   -0.144122
  73 C :   -0.009087
  74 S :    0.431200
  75 C :   -0.148229
  76 C :   -0.057309
  77 H :    0.043960
  78 H :    0.041986
  79 H :    0.031323
  80 H :    0.037156
  81 H :    0.047614
  82 H :    0.025807
  83 H :    0.036688
  84 H :    0.023072
  85 H :    0.037144
  86 H :    0.044051
  87 H :    0.021329
  88 H :    0.022372
  89 H :    0.033038
  90 H :    0.046832
  91 H :    0.031718
  92 H :    0.046614
  93 H :    0.041275
  94 H :    0.040704
  95 H :    0.029851
  96 H :    0.035692

  Mayer bond orders larger than 0.100000
B(  0-C ,  1-C ) :   1.6721 B(  0-C ,  6-C ) :   1.0227 B(  0-C , 17-C ) :   1.0194
B(  1-C ,  2-C ) :   1.1312 B(  1-C ,  4-C ) :   1.1367 B(  2-C ,  3-N ) :   2.9863
B(  4-C ,  5-N ) :   2.9829 B(  6-C ,  7-C ) :   1.2587 B(  6-C , 11-C ) :   1.3999
B(  7-C ,  8-C ) :   1.4281 B(  7-C , 15-C ) :   0.9216 B(  8-C ,  9-C ) :   1.2563
B(  8-C , 77-H ) :   1.0150 B(  9-C , 10-C ) :   1.2885 B(  9-C , 14-C ) :   1.1777
B( 10-C , 11-C ) :   1.3394 B( 10-C , 12-S ) :   1.0990 B( 11-C , 78-H ) :   0.9846
B( 12-S , 13-C ) :   1.1288 B( 13-C , 14-C ) :   1.6246 B( 13-C , 79-H ) :   0.9682
B( 14-C , 80-H ) :   1.0002 B( 15-C , 16-O ) :   2.3017 B( 15-C , 17-C ) :   0.8903
B( 17-C , 18-C ) :   1.7471 B( 18-C , 19-C ) :   1.0726 B( 18-C , 81-H ) :   0.9311
B( 19-C , 20-N ) :   1.6312 B( 19-C , 21-C ) :   0.1138 B( 19-C , 30-C ) :   1.0100
B( 20-N , 21-C ) :   1.3244 B( 21-C , 22-C ) :   1.0548 B( 21-C , 26-C ) :   1.4402
B( 22-C , 23-C ) :   0.9005 B( 22-C , 30-C ) :   1.5550 B( 23-C , 24-O ) :   2.2166
B( 23-C , 25-C ) :   0.9167 B( 25-C , 26-C ) :   1.0550 B( 25-C , 29-C ) :   1.6257
B( 26-C , 27-N ) :   1.3000 B( 27-N , 28-C ) :   1.6731 B( 28-C , 29-C ) :   1.0507
B( 28-C , 82-H ) :   0.9887 B( 29-C , 83-H ) :   1.0121 B( 30-C , 31-C ) :   1.1425
B( 31-C , 32-C ) :   1.6619 B( 31-C , 84-H ) :   0.9462 B( 32-C , 33-C ) :   1.1332
B( 32-C , 85-H ) :   0.9420 B( 33-C , 34-S ) :   1.1458 B( 33-C , 37-C ) :   1.5078
B( 34-S , 35-C ) :   1.1138 B( 35-C , 36-C ) :   1.4834 B( 35-C , 42-C ) :   1.1595
B( 36-C , 37-C ) :   1.2909 B( 36-C , 41-S ) :   1.0451 B( 37-C , 38-S ) :   1.0215
B( 38-S , 39-C ) :   0.9824 B( 38-S , 40-O ) :   0.1049 B( 39-C , 40-O ) :   2.1222
B( 39-C , 41-S ) :   0.9854 B( 40-O , 41-S ) :   0.1040 B( 42-C , 43-C ) :   1.5927
B( 42-C , 86-H ) :   0.9540 B( 43-C , 44-C ) :   1.2184 B( 43-C , 87-H ) :   0.9454
B( 44-C , 45-N ) :   1.5444 B( 44-C , 46-C ) :   0.1008 B( 44-C , 55-C ) :   1.0096
B( 45-N , 46-C ) :   1.4001 B( 46-C , 47-C ) :   1.0377 B( 46-C , 51-C ) :   1.3737
B( 47-C , 48-C ) :   0.8823 B( 47-C , 55-C ) :   1.6061 B( 48-C , 49-O ) :   2.2967
B( 48-C , 50-C ) :   0.9024 B( 50-C , 51-C ) :   1.0572 B( 50-C , 54-C ) :   1.5894
B( 51-C , 52-N ) :   1.3362 B( 52-N , 53-C ) :   1.6286 B( 53-C , 54-C ) :   1.0957
B( 53-C , 88-H ) :   0.9894 B( 54-C , 89-H ) :   1.0098 B( 55-C , 56-C ) :   1.0313
B( 56-C , 57-C ) :   1.6827 B( 56-C , 90-H ) :   0.9768 B( 57-C , 58-C ) :   1.1220
B( 57-C , 91-H ) :   0.9587 B( 58-C , 59-C ) :   1.6399 B( 58-C , 92-H ) :   0.9386
B( 59-C , 60-C ) :   1.0109 B( 59-C , 68-C ) :   0.9372 B( 60-C , 61-C ) :   1.6394
B( 60-C , 66-C ) :   1.0141 B( 61-C , 62-C ) :   1.1210 B( 61-C , 64-C ) :   1.1825
B( 62-C , 63-N ) :   2.9812 B( 64-C , 65-N ) :   2.8895 B( 66-C , 67-C ) :   1.2669
B( 66-C , 73-C ) :   1.4072 B( 67-C , 68-C ) :   0.9345 B( 67-C , 70-C ) :   1.4254
B( 68-C , 69-O ) :   2.2438 B( 70-C , 71-C ) :   1.2501 B( 70-C , 93-H ) :   1.0168
B( 71-C , 72-C ) :   1.2984 B( 71-C , 76-C ) :   1.1714 B( 72-C , 73-C ) :   1.3309
B( 72-C , 74-S ) :   1.1001 B( 73-C , 94-H ) :   0.9813 B( 74-S , 75-C ) :   1.1278
B( 75-C , 76-C ) :   1.6279 B( 75-C , 95-H ) :   0.9684 B( 76-C , 96-H ) :   0.9996

-----------------------------------------------------------------------------
         ABSORPTION SPECTRUM VIA TRANSITION ELECTRIC DIPOLE MOMENTS
-----------------------------------------------------------------------------
State   Energy  Wavelength   fosc         T2         TX        TY        TZ
        (cm-1)    (nm)                  (au**2)     (au)      (au)      (au)
-----------------------------------------------------------------------------
   0   13054.6    766.0   0.180893588   4.56180  -1.44270   0.63800   1.43991
   1   16441.7    608.2   1.040321073  20.83030  -2.85047   3.19942   1.57125
   2   19997.3    500.1   0.009883744   0.16271  -0.03904  -0.07804   0.39383
   3   20638.0    484.5   0.306998335   4.89717   1.20829  -1.84897  -0.13601
   4   21621.0    462.5   0.010876673   0.16561   0.14270   0.29239  -0.24445
   5   21721.7    460.4   0.311168734   4.71603  -1.68583   0.33765   1.32666
   6   21872.6    457.2   0.048702051   0.73303   0.81175  -0.18431  -0.20029
   7   22286.2    448.7   0.043176543   0.63780  -0.43091   0.39096   0.54706
   8   22518.8    444.1   0.169771119   2.48195   0.71475   0.64589  -1.24656
   9   23669.1    422.5   0.021009143   0.29221  -0.07531  -0.40382   0.35138
  10   24251.2    412.4   0.051240269   0.69559  -0.60041   0.03883  -0.57758
  11   24395.1    409.9   0.001442305   0.01946   0.01171  -0.13728   0.02190
  12   24480.9    408.5   0.051232250   0.68896   0.76897  -0.06883  -0.30480
  13   24624.9    406.1   0.118219403   1.58048   0.24508   0.79695  -0.94089
  14   24979.1    400.3   0.095163025   1.25420  -0.20542  -0.43814   1.00997
  15   25395.8    393.8   0.086189334   1.11729  -0.26554  -0.38330   0.94861
  16   25441.7    393.1   0.001040056   0.01346   0.01626  -0.11197   0.02563
  17   25990.3    384.8   0.042599914   0.53960  -0.30356   0.54465   0.38834
  18   26122.2    382.8   0.374199086   4.71594  -0.61082   1.76420  -1.10924
  19   26268.1    380.7   0.494471264   6.19709   0.28492  -2.02715   1.41653
  20   26721.4    374.2   0.160230544   1.97406  -0.43964  -1.11045   0.74006
  21   26833.6    372.7   0.431259709   5.29098  -0.57183   1.71606  -1.42096
  22   27040.4    369.8   0.103809040   1.26386   0.44879  -1.00097   0.24597
  23   27814.9    359.5   0.326378756   3.86296  -0.67355  -1.07610   1.50043
  24   28064.5    356.3   0.032422371   0.38033   0.13293   0.59138  -0.11372
  25   28596.2    349.7   0.011870369   0.13666  -0.04576  -0.22042  -0.29322
  26   29000.3    344.8   0.049404578   0.56084  -0.44357  -0.49412   0.34631
  27   29697.5    336.7   0.004835606   0.05361   0.12822  -0.12306  -0.14840
  28   29804.6    335.5   0.012621340   0.13941  -0.28156   0.23532   0.06899
  29   30067.4    332.6   0.006905656   0.07561   0.19114  -0.19747  -0.00891
  30   30245.6    330.6   0.020088898   0.21866  -0.36704   0.27411   0.09383
  31   30443.9    328.5   0.029205253   0.31582  -0.04626   0.49238  -0.26690
  32   30637.7    326.4   0.123252486   1.32439   1.06753  -0.31866  -0.28848
  33   30890.2    323.7   0.160437595   1.70986   1.07352  -0.22472  -0.71198
  34   31168.9    320.8   0.047058299   0.49704   0.58386  -0.36170  -0.15914
  35   31405.6    318.4   0.156540925   1.64095  -0.72103   0.87318  -0.59884
  36   31594.3    316.5   0.079892182   0.83247  -0.55903  -0.21570   0.68807
  37   31960.2    312.9   0.125890393   1.29676   0.25626   1.02127  -0.43371
  38   32340.7    309.2   0.067411727   0.68622  -0.11434  -0.75811   0.31371
  39   32495.3    307.7   0.088343375   0.89501  -0.65199   0.65988  -0.18568
  40   32726.3    305.6   0.020103415   0.20223  -0.37446  -0.24554  -0.04149
  41   32838.3    304.5   0.714842801   7.16647  -1.42399  -1.84182   1.32152
  42   32887.4    304.1   0.061813855   0.61877  -0.22442  -0.70559   0.26563
  43   33199.1    301.2   0.023058173   0.22865  -0.06181   0.11647   0.45964
  44   33838.0    295.5   0.041487545   0.40363  -0.00405   0.63357  -0.04693
  45   33911.6    294.9   0.118821063   1.15351   0.36175  -1.00178   0.13812
  46   34026.3    293.9   0.033901450   0.32800   0.55252  -0.12306  -0.08704
  47   34111.5    293.2   0.049159783   0.47444  -0.15548   0.66160   0.11205
  48   34210.0    292.3   0.181091041   1.74269   0.89235  -0.28776  -0.92930
  49   34502.5    289.8   0.067392129   0.64303  -0.30751   0.71870  -0.17871
  50   34612.7    288.9   0.073840936   0.70232   0.36861   0.61723  -0.43067
  51   34649.6    288.6   0.006756146   0.06419  -0.04523   0.22685  -0.10337
  52   34791.5    287.4   0.265994482   2.51695   1.33494   0.57448  -0.63628
  53   35063.6    285.2   0.067833878   0.63689  -0.59465  -0.31519   0.42888
  54   35203.1    284.1   0.009179386   0.08584   0.11967   0.26585   0.02907
  55   35329.8    283.0   0.026480934   0.24676   0.15083   0.03745  -0.47181
  56   35591.5    281.0   0.003670496   0.03395  -0.03996  -0.01843  -0.17893
  57   35892.2    278.6   0.013707802   0.12573   0.35115  -0.01234  -0.04768
  58   35989.5    277.9   0.003457856   0.03163   0.06742  -0.09476  -0.13455
  59   36187.6    276.3   0.193071985   1.75645   0.88664  -0.82934  -0.53151
  60   36246.5    275.9   0.005353875   0.04863  -0.15902  -0.00975   0.15246
  61   36313.5    275.4   0.023490649   0.21296  -0.25177  -0.19123   0.33616
  62   36574.3    273.4   0.032392636   0.29157  -0.27010  -0.13278   0.44831
  63   36943.6    270.7   0.000356580   0.00318   0.03161   0.04663  -0.00189
  64   37290.9    268.2   0.069574943   0.61422  -0.32545  -0.05280   0.71100
  65   37511.5    266.6   0.074353685   0.65255  -0.33767   0.39021   0.62150
  66   37618.9    265.8   0.064150482   0.56140  -0.25656   0.00993   0.70390
  67   37744.7    264.9   0.022195951   0.19359   0.05543   0.09774  -0.42541
  68   37848.7    264.2   0.030043549   0.26132  -0.27411   0.42127  -0.09337
  69   37981.9    263.3   0.014243497   0.12346   0.08240  -0.23799   0.24500
  70   38134.8    262.2   0.010115832   0.08733   0.15306   0.17850   0.17899
  71   38213.2    261.7   0.021137467   0.18210  -0.21245   0.36797   0.03951
  72   38451.4    260.1   0.017877526   0.15306   0.11144   0.03843   0.37305
  73   38586.7    259.2   0.043942106   0.37490   0.41287  -0.18500   0.41257
  74   38659.9    258.7   0.015682905   0.13355   0.34706  -0.10241  -0.05108
  75   38867.0    257.3   0.011658676   0.09875   0.15515  -0.14435  -0.23204
  76   38948.0    256.8   0.054180325   0.45796  -0.38764   0.44291  -0.33396
  77   39006.0    256.4   0.012057337   0.10176  -0.01150  -0.07690   0.30938
  78   39160.9    255.4   0.001565530   0.01316  -0.07461  -0.08665   0.00923
  79   39235.0    254.9   0.004296361   0.03605   0.15396  -0.09542   0.05692
  80   39283.0    254.6   0.121291728   1.01649   0.70853  -0.64129  -0.32128
  81   39449.7    253.5   0.060224700   0.50258   0.02077   0.07693   0.70444
  82   39550.9    252.8   0.007013494   0.05838  -0.14320   0.15490   0.11781
  83   39760.8    251.5   0.045114766   0.37354   0.61007   0.02482   0.02716
  84   39812.0    251.2   0.077346977   0.63960   0.72587  -0.29368   0.16266
  85   39976.5    250.1   0.140646522   1.15824   0.31247  -0.77417   0.67916
  86   40192.3    248.8   0.036555313   0.29942  -0.52395   0.07879  -0.13671

FINAL SINGLE POINT ENERGY     -5060.687928382960

DIPOLE MOMENT
-------------
                                X             Y             Z
Electronic contribution:     -9.92997       5.05868      -0.36420
Nuclear contribution   :      8.25908      -3.45089       1.36202
                        -----------------------------------------
Total Dipole Moment    :     -1.67089       1.60779       0.99782
                        -----------------------------------------
Magnitude (a.u.)       :      2.52438
Magnitude (Debye)      :      6.41647

Rotational constants in cm-1:     0.000855     0.000315     0.000242
Rotational constants in MHz :    25.617908     9.446951     7.266695

                             ****ORCA TERMINATED NORMALLY****
TOTAL RUN TIME: 0 days 0 hours 9 minutes 46 seconds 770 msec
