                         Program Version 4.2.0 -  RELEASE  -
|  1> # ORCA input file
|  2> # SCF done       -190.884180211291          0.000735143034
|  3> ! CAM-B3LYP def2-SVP def2/J RIJCOSX Grid4 TightSCF
|  4> %maxcore 5000
|  5> %tddft
|  6>     Mode sTDDFT
|  7>     Ethresh 5.0
|  8>     maxcore 5000
|  9> end
| 10>
| 11> %pal
| 12>   nprocs 6
| 13>   end
| 14> * xyz 0 1
| 15>    C       -6.63747        -2.11674        -9.30594
| 16>    C       -6.48777        -3.00314        -8.27492
| 17>    C       -6.02556        -4.32795        -8.43106
| 18>    N       -5.65985        -5.41259        -8.50244
| 19>    C       -6.70559        -2.67251        -6.92226
| 20>    N       -6.83817        -2.44245        -5.80500
| 21>    C       -6.29003        -2.33352       -10.69872
| 22>    C       -6.29586        -1.08359       -11.37456
| 23>    C       -5.98086        -0.96804       -12.70692
| 24>    C       -5.66041        -2.13543       -13.40683
| 25>    C       -5.66389        -3.37890       -12.72412
| 26>    C       -5.97169        -3.49761       -11.37556
| 27>    S       -5.23616        -4.68100       -13.78744
| 28>    C       -5.05766        -3.57761       -15.10587
| 29>    C       -5.30667        -2.29076       -14.77562
| 30>    C       -6.64265        -0.00950       -10.42389
| 31>    O       -6.49750         1.17626       -10.56650
| 32>    C       -7.09317        -0.73563        -9.18811
| 33>    C       -7.84999        -0.22239        -8.19869
| 34>    C       -8.39407         1.10715        -8.18030
| 35>    N       -8.91633         1.68432        -9.23594
| 36>    C       -9.31324         2.91519        -8.82418
| 37>    C       -9.01369         3.11907        -7.40103
| 38>    C       -9.43729         4.45639        -6.97258
| 39>    O       -9.33085         4.97075        -5.87936
| 40>    C      -10.01997         5.02240        -8.20840
| 41>    C       -9.92191         4.04077        -9.31312
| 42>    N      -10.46521         4.54748       -10.45077
| 43>    C      -10.87881         5.74441       -10.12882
| 44>    C      -10.63449         6.10585        -8.74019
| 45>    C       -8.45084         1.94807        -6.95767
| 46>    C       -8.00210         1.54374        -5.66989
| 47>    C       -7.96866         2.39259        -4.62453
| 48>    S       -7.49277         2.01288        -3.00946
| 49>    C       -7.52133         0.23484        -3.01380
| 50>    C       -8.67617        -0.48511        -3.05827
| 51>    S       -8.39043        -2.17416        -3.01665
| 52>    C       -6.70014        -1.92583        -2.91544
| 53>    C       -6.37578        -0.60451        -2.91792
| 54>    S       -4.70765        -0.01465        -2.84309
| 55>    C       -4.79124         0.88814        -1.38121
| 56>    C       -3.73509         1.53432        -0.83731
| 57>    C       -3.87383         2.21380         0.39713
| 58>    N       -5.04485         2.28964         1.02536
| 59>    C       -4.81146         2.95975         2.16265
| 60>    C       -3.39727         3.36065         2.27411
| 61>    C       -3.16205         4.05919         3.55067
| 62>    O       -2.12791         4.54194         3.96869
| 63>    C       -4.48404         4.02782         4.18611
| 64>    C       -5.46532         3.36144         3.30565
| 65>    N       -6.68204         3.31715         3.89372
| 66>    C       -6.51867         3.89481         5.06319
| 67>    C       -5.17271         4.35467         5.31281
| 68>    C       -2.77932         2.87690         1.14735
| 69>    C       -1.40706         2.90935         0.77203
| 70>    C       -0.46431         3.48222         1.55800
| 71>    C        0.92625         3.46453         1.28082
| 72>    C        1.89879         3.73656         2.19023
| 73>    C        1.80438         3.93657         3.62487
| 74>    C        0.90402         3.34507         4.46937
| 75>    C        0.89183         3.54516         5.86587
| 76>    N        0.84464         3.67937         7.00457
| 77>    C       -0.02882         2.36052         4.07537
| 78>    N       -0.73908         1.49199         3.83365
| 79>    C        2.98796         4.68685         4.02810
| 80>    C        3.89434         4.72980         2.93546
| 81>    C        3.28574         4.06909         1.76595
| 82>    O        3.77620         3.87802         0.67609
| 83>    C        5.12917         5.32651         3.02859
| 84>    C        5.48165         5.91472         4.24673
| 85>    C        4.56316         5.88058         5.32389
| 86>    C        3.31699         5.27147         5.23530
| 87>    S        5.20744         6.67703         6.72425
| 88>    C        6.67181         7.03734         5.87627
| 89>    C        6.68488         6.58759         4.60281
| 90>    H       -5.98647        -0.00564       -13.19415
| 91>    H       -5.96492        -4.46288       -10.89624
| 92>    H       -4.77305        -3.96652       -16.06427
| 93>    H       -5.24574        -1.46934       -15.46609
| 94>    H       -8.09874        -0.83651        -7.34156
| 95>    H      -11.35591         6.37154       -10.86198
| 96>    H      -10.90154         7.03851        -8.28399
| 97>    H       -7.68903         0.51509        -5.54865
| 98>    H       -8.23491         3.43528        -4.73076
| 99>    H       -9.67523        -0.10244        -3.12337
|100>    H       -6.03116        -2.76110        -2.87784
|101>    H       -5.74431         0.91328        -0.87477
|102>    H       -2.77137         1.51840        -1.32297
|103>    H       -7.35059         3.99237         5.73907
|104>    H       -4.83259         4.84201         6.20499
|105>    H       -1.11498         2.39635        -0.13449
|106>    H       -0.78214         3.98528         2.46136
|107>    H        1.25296         3.27524         0.26384
|108>    H        5.80303         5.33791         2.18592
|109>    H        2.64590         5.27364         6.07831
|110>    H        7.44452         7.57257         6.39330
|111>    H        7.50970         6.71901         3.92601
|112> *
|113>
|114>                          ****END OF INPUT****

CARTESIAN COORDINATES (ANGSTROEM)
---------------------------------
  C     -6.637470   -2.116740   -9.305940
  C     -6.487770   -3.003140   -8.274920
  C     -6.025560   -4.327950   -8.431060
  N     -5.659850   -5.412590   -8.502440
  C     -6.705590   -2.672510   -6.922260
  N     -6.838170   -2.442450   -5.805000
  C     -6.290030   -2.333520  -10.698720
  C     -6.295860   -1.083590  -11.374560
  C     -5.980860   -0.968040  -12.706920
  C     -5.660410   -2.135430  -13.406830
  C     -5.663890   -3.378900  -12.724120
  C     -5.971690   -3.497610  -11.375560
  S     -5.236160   -4.681000  -13.787440
  C     -5.057660   -3.577610  -15.105870
  C     -5.306670   -2.290760  -14.775620
  C     -6.642650   -0.009500  -10.423890
  O     -6.497500    1.176260  -10.566500
  C     -7.093170   -0.735630   -9.188110
  C     -7.849990   -0.222390   -8.198690
  C     -8.394070    1.107150   -8.180300
  N     -8.916330    1.684320   -9.235940
  C     -9.313240    2.915190   -8.824180
  C     -9.013690    3.119070   -7.401030
  C     -9.437290    4.456390   -6.972580
  O     -9.330850    4.970750   -5.879360
  C    -10.019970    5.022400   -8.208400
  C     -9.921910    4.040770   -9.313120
  N    -10.465210    4.547480  -10.450770
  C    -10.878810    5.744410  -10.128820
  C    -10.634490    6.105850   -8.740190
  C     -8.450840    1.948070   -6.957670
  C     -8.002100    1.543740   -5.669890
  C     -7.968660    2.392590   -4.624530
  S     -7.492770    2.012880   -3.009460
  C     -7.521330    0.234840   -3.013800
  C     -8.676170   -0.485110   -3.058270
  S     -8.390430   -2.174160   -3.016650
  C     -6.700140   -1.925830   -2.915440
  C     -6.375780   -0.604510   -2.917920
  S     -4.707650   -0.014650   -2.843090
  C     -4.791240    0.888140   -1.381210
  C     -3.735090    1.534320   -0.837310
  C     -3.873830    2.213800    0.397130
  N     -5.044850    2.289640    1.025360
  C     -4.811460    2.959750    2.162650
  C     -3.397270    3.360650    2.274110
  C     -3.162050    4.059190    3.550670
  O     -2.127910    4.541940    3.968690
  C     -4.484040    4.027820    4.186110
  C     -5.465320    3.361440    3.305650
  N     -6.682040    3.317150    3.893720
  C     -6.518670    3.894810    5.063190
  C     -5.172710    4.354670    5.312810
  C     -2.779320    2.876900    1.147350
  C     -1.407060    2.909350    0.772030
  C     -0.464310    3.482220    1.558000
  C      0.926250    3.464530    1.280820
  C      1.898790    3.736560    2.190230
  C      1.804380    3.936570    3.624870
  C      0.904020    3.345070    4.469370
  C      0.891830    3.545160    5.865870
  N      0.844640    3.679370    7.004570
  C     -0.028820    2.360520    4.075370
  N     -0.739080    1.491990    3.833650
  C      2.987960    4.686850    4.028100
  C      3.894340    4.729800    2.935460
  C      3.285740    4.069090    1.765950
  O      3.776200    3.878020    0.676090
  C      5.129170    5.326510    3.028590
  C      5.481650    5.914720    4.246730
  C      4.563160    5.880580    5.323890
  C      3.316990    5.271470    5.235300
  S      5.207440    6.677030    6.724250
  C      6.671810    7.037340    5.876270
  C      6.684880    6.587590    4.602810
  H     -5.986470   -0.005640  -13.194150
  H     -5.964920   -4.462880  -10.896240
  H     -4.773050   -3.966520  -16.064270
  H     -5.245740   -1.469340  -15.466090
  H     -8.098740   -0.836510   -7.341560
  H    -11.355910    6.371540  -10.861980
  H    -10.901540    7.038510   -8.283990
  H     -7.689030    0.515090   -5.548650
  H     -8.234910    3.435280   -4.730760
  H     -9.675230   -0.102440   -3.123370
  H     -6.031160   -2.761100   -2.877840
  H     -5.744310    0.913280   -0.874770
  H     -2.771370    1.518400   -1.322970
  H     -7.350590    3.992370    5.739070
  H     -4.832590    4.842010    6.204990
  H     -1.114980    2.396350   -0.134490
  H     -0.782140    3.985280    2.461360
  H      1.252960    3.275240    0.263840
  H      5.803030    5.337910    2.185920
  H      2.645900    5.273640    6.078310
  H      7.444520    7.572570    6.393300
  H      7.509700    6.719010    3.926010

 Total Charge           Charge          ....    0
 Multiplicity           Mult            ....    1
 Number of Electrons    NEL             ....  538
 Basis Dimension        Dim             .... 1180

ORBITAL ENERGIES
----------------

  NO   OCC          E(Eh)            E(eV)
   0   2.0000     -88.977476     -2421.2002
   1   2.0000     -88.970810     -2421.0188
   2   2.0000     -88.962009     -2420.7793
   3   2.0000     -88.960435     -2420.7365
   4   2.0000     -88.950440     -2420.4645
   5   2.0000     -19.226597      -523.1823
   6   2.0000     -19.213173      -522.8170
   7   2.0000     -19.207134      -522.6527
   8   2.0000     -19.205494      -522.6081
   9   2.0000     -14.436890      -392.8478
  10   2.0000     -14.432224      -392.7208
  11   2.0000     -14.418893      -392.3580
  12   2.0000     -14.408979      -392.0883
  13   2.0000     -14.406097      -392.0098
  14   2.0000     -14.401681      -391.8897
  15   2.0000     -14.396671      -391.7533
  16   2.0000     -14.393030      -391.6543
  17   2.0000     -10.379063      -282.4287
  18   2.0000     -10.372251      -282.2433
  19   2.0000     -10.365293      -282.0540
  20   2.0000     -10.362713      -281.9837
  21   2.0000     -10.360183      -281.9149
  22   2.0000     -10.358034      -281.8564
  23   2.0000     -10.348906      -281.6080
  24   2.0000     -10.341002      -281.3930
  25   2.0000     -10.337295      -281.2921
  26   2.0000     -10.334969      -281.2288
  27   2.0000     -10.334053      -281.2039
  28   2.0000     -10.333745      -281.1955
  29   2.0000     -10.332847      -281.1711
  30   2.0000     -10.330804      -281.1155
  31   2.0000     -10.329084      -281.0687
  32   2.0000     -10.328762      -281.0599
  33   2.0000     -10.327180      -281.0168
  34   2.0000     -10.325990      -280.9845
  35   2.0000     -10.325843      -280.9805
  36   2.0000     -10.325206      -280.9631
  37   2.0000     -10.324087      -280.9327
  38   2.0000     -10.321256      -280.8557
  39   2.0000     -10.317496      -280.7533
  40   2.0000     -10.314465      -280.6709
  41   2.0000     -10.314308      -280.6666
  42   2.0000     -10.313191      -280.6362
  43   2.0000     -10.312433      -280.6156
  44   2.0000     -10.310716      -280.5688
  45   2.0000     -10.310235      -280.5557
  46   2.0000     -10.309978      -280.5488
  47   2.0000     -10.309911      -280.5470
  48   2.0000     -10.309547      -280.5370
  49   2.0000     -10.309098      -280.5248
  50   2.0000     -10.308424      -280.5065
  51   2.0000     -10.308264      -280.5021
  52   2.0000     -10.308093      -280.4975
  53   2.0000     -10.305099      -280.4160
  54   2.0000     -10.304429      -280.3978
  55   2.0000     -10.304232      -280.3924
  56   2.0000     -10.299640      -280.2675
  57   2.0000     -10.298909      -280.2476
  58   2.0000     -10.298718      -280.2424
  59   2.0000     -10.295606      -280.1577
  60   2.0000     -10.295443      -280.1533
  61   2.0000     -10.294927      -280.1392
  62   2.0000     -10.294080      -280.1162
  63   2.0000     -10.292592      -280.0757
  64   2.0000     -10.290858      -280.0285
  65   2.0000     -10.289537      -279.9925
  66   2.0000     -10.287430      -279.9352
  67   2.0000     -10.285879      -279.8930
  68   2.0000     -10.283861      -279.8381
  69   2.0000     -10.283346      -279.8241
  70   2.0000     -10.283305      -279.8230
  71   2.0000     -10.283096      -279.8173
  72   2.0000     -10.280628      -279.7501
  73   2.0000     -10.276837      -279.6469
  74   2.0000     -10.276249      -279.6309
  75   2.0000      -8.073793      -219.6991
  76   2.0000      -8.066888      -219.5112
  77   2.0000      -8.057530      -219.2565
  78   2.0000      -8.056690      -219.2337
  79   2.0000      -8.045628      -218.9327
  80   2.0000      -6.043296      -164.4464
  81   2.0000      -6.038988      -164.3292
  82   2.0000      -6.036051      -164.2493
  83   2.0000      -6.035457      -164.2331
  84   2.0000      -6.031732      -164.1318
  85   2.0000      -6.029305      -164.0657
  86   2.0000      -6.027524      -164.0173
  87   2.0000      -6.026202      -163.9813
  88   2.0000      -6.023285      -163.9019
  89   2.0000      -6.021907      -163.8644
  90   2.0000      -6.018357      -163.7678
  91   2.0000      -6.018230      -163.7644
  92   2.0000      -6.015966      -163.7028
  93   2.0000      -6.011308      -163.5760
  94   2.0000      -6.006079      -163.4337
  95   2.0000      -1.143527       -31.1169
  96   2.0000      -1.127200       -30.6727
  97   2.0000      -1.121530       -30.5184
  98   2.0000      -1.119191       -30.4547
  99   2.0000      -1.082658       -29.4606
 100   2.0000      -1.068103       -29.0646
 101   2.0000      -1.063449       -28.9379
 102   2.0000      -1.047000       -28.4903
 103   2.0000      -1.037806       -28.2401
 104   2.0000      -1.022933       -27.8354
 105   2.0000      -1.013150       -27.5692
 106   2.0000      -1.011232       -27.5170
 107   2.0000      -1.006141       -27.3785
 108   2.0000      -1.000456       -27.2238
 109   2.0000      -0.999400       -27.1950
 110   2.0000      -0.982668       -26.7397
 111   2.0000      -0.976497       -26.5718
 112   2.0000      -0.948071       -25.7983
 113   2.0000      -0.942773       -25.6542
 114   2.0000      -0.939443       -25.5635
 115   2.0000      -0.934974       -25.4419
 116   2.0000      -0.930421       -25.3180
 117   2.0000      -0.922954       -25.1148
 118   2.0000      -0.917126       -24.9563
 119   2.0000      -0.914731       -24.8911
 120   2.0000      -0.894890       -24.3512
 121   2.0000      -0.894034       -24.3279
 122   2.0000      -0.890019       -24.2186
 123   2.0000      -0.880895       -23.9704
 124   2.0000      -0.874624       -23.7997
 125   2.0000      -0.873746       -23.7758
 126   2.0000      -0.863281       -23.4911
 127   2.0000      -0.859217       -23.3805
 128   2.0000      -0.844109       -22.9694
 129   2.0000      -0.835560       -22.7367
 130   2.0000      -0.833341       -22.6764
 131   2.0000      -0.819721       -22.3057
 132   2.0000      -0.815998       -22.2044
 133   2.0000      -0.811028       -22.0692
 134   2.0000      -0.807574       -21.9752
 135   2.0000      -0.792599       -21.5677
 136   2.0000      -0.775659       -21.1068
 137   2.0000      -0.772468       -21.0199
 138   2.0000      -0.762101       -20.7378
 139   2.0000      -0.754703       -20.5365
 140   2.0000      -0.753073       -20.4922
 141   2.0000      -0.745841       -20.2954
 142   2.0000      -0.740022       -20.1370
 143   2.0000      -0.727146       -19.7866
 144   2.0000      -0.707094       -19.2410
 145   2.0000      -0.705318       -19.1927
 146   2.0000      -0.703076       -19.1317
 147   2.0000      -0.699956       -19.0468
 148   2.0000      -0.691134       -18.8067
 149   2.0000      -0.688202       -18.7269
 150   2.0000      -0.677467       -18.4348
 151   2.0000      -0.676619       -18.4117
 152   2.0000      -0.675148       -18.3717
 153   2.0000      -0.669611       -18.2210
 154   2.0000      -0.657857       -17.9012
 155   2.0000      -0.653012       -17.7694
 156   2.0000      -0.650271       -17.6948
 157   2.0000      -0.647923       -17.6309
 158   2.0000      -0.637212       -17.3394
 159   2.0000      -0.635574       -17.2948
 160   2.0000      -0.632691       -17.2164
 161   2.0000      -0.621771       -16.9193
 162   2.0000      -0.619321       -16.8526
 163   2.0000      -0.614540       -16.7225
 164   2.0000      -0.612909       -16.6781
 165   2.0000      -0.611244       -16.6328
 166   2.0000      -0.610623       -16.6159
 167   2.0000      -0.607303       -16.5256
 168   2.0000      -0.590903       -16.0793
 169   2.0000      -0.589316       -16.0361
 170   2.0000      -0.586202       -15.9514
 171   2.0000      -0.583377       -15.8745
 172   2.0000      -0.575820       -15.6689
 173   2.0000      -0.570966       -15.5368
 174   2.0000      -0.562281       -15.3004
 175   2.0000      -0.561105       -15.2684
 176   2.0000      -0.556283       -15.1372
 177   2.0000      -0.554345       -15.0845
 178   2.0000      -0.551090       -14.9959
 179   2.0000      -0.549498       -14.9526
 180   2.0000      -0.545798       -14.8519
 181   2.0000      -0.544434       -14.8148
 182   2.0000      -0.538732       -14.6596
 183   2.0000      -0.537959       -14.6386
 184   2.0000      -0.537004       -14.6126
 185   2.0000      -0.535920       -14.5831
 186   2.0000      -0.528882       -14.3916
 187   2.0000      -0.525915       -14.3109
 188   2.0000      -0.524311       -14.2672
 189   2.0000      -0.523089       -14.2340
 190   2.0000      -0.519229       -14.1290
 191   2.0000      -0.518539       -14.1102
 192   2.0000      -0.517031       -14.0691
 193   2.0000      -0.516029       -14.0419
 194   2.0000      -0.514272       -13.9940
 195   2.0000      -0.507865       -13.8197
 196   2.0000      -0.505829       -13.7643
 197   2.0000      -0.502217       -13.6660
 198   2.0000      -0.501491       -13.6463
 199   2.0000      -0.499864       -13.6020
 200   2.0000      -0.497490       -13.5374
 201   2.0000      -0.492384       -13.3985
 202   2.0000      -0.491985       -13.3876
 203   2.0000      -0.489674       -13.3247
 204   2.0000      -0.488396       -13.2899
 205   2.0000      -0.487050       -13.2533
 206   2.0000      -0.485931       -13.2228
 207   2.0000      -0.484245       -13.1770
 208   2.0000      -0.482658       -13.1338
 209   2.0000      -0.481425       -13.1002
 210   2.0000      -0.480269       -13.0688
 211   2.0000      -0.475116       -12.9286
 212   2.0000      -0.471051       -12.8179
 213   2.0000      -0.467176       -12.7125
 214   2.0000      -0.464496       -12.6396
 215   2.0000      -0.463852       -12.6221
 216   2.0000      -0.462451       -12.5839
 217   2.0000      -0.461599       -12.5608
 218   2.0000      -0.459129       -12.4935
 219   2.0000      -0.456110       -12.4114
 220   2.0000      -0.449657       -12.2358
 221   2.0000      -0.449247       -12.2246
 222   2.0000      -0.447822       -12.1858
 223   2.0000      -0.447166       -12.1680
 224   2.0000      -0.445867       -12.1327
 225   2.0000      -0.443897       -12.0790
 226   2.0000      -0.442445       -12.0395
 227   2.0000      -0.438434       -11.9304
 228   2.0000      -0.438400       -11.9295
 229   2.0000      -0.434777       -11.8309
 230   2.0000      -0.431231       -11.7344
 231   2.0000      -0.429279       -11.6813
 232   2.0000      -0.424330       -11.5466
 233   2.0000      -0.423709       -11.5297
 234   2.0000      -0.423017       -11.5109
 235   2.0000      -0.419840       -11.4244
 236   2.0000      -0.418768       -11.3952
 237   2.0000      -0.416852       -11.3431
 238   2.0000      -0.413105       -11.2412
 239   2.0000      -0.410597       -11.1729
 240   2.0000      -0.408691       -11.1210
 241   2.0000      -0.394270       -10.7286
 242   2.0000      -0.389991       -10.6122
 243   2.0000      -0.382285       -10.4025
 244   2.0000      -0.370163       -10.0727
 245   2.0000      -0.367943       -10.0122
 246   2.0000      -0.364125        -9.9083
 247   2.0000      -0.357441        -9.7265
 248   2.0000      -0.356210        -9.6930
 249   2.0000      -0.352685        -9.5970
 250   2.0000      -0.350743        -9.5442
 251   2.0000      -0.343745        -9.3538
 252   2.0000      -0.343337        -9.3427
 253   2.0000      -0.342630        -9.3234
 254   2.0000      -0.338104        -9.2003
 255   2.0000      -0.331828        -9.0295
 256   2.0000      -0.328412        -8.9365
 257   2.0000      -0.327320        -8.9068
 258   2.0000      -0.326330        -8.8799
 259   2.0000      -0.322367        -8.7720
 260   2.0000      -0.321789        -8.7563
 261   2.0000      -0.320066        -8.7094
 262   2.0000      -0.319256        -8.6874
 263   2.0000      -0.306568        -8.3421
 264   2.0000      -0.306220        -8.3327
 265   2.0000      -0.289242        -7.8707
 266   2.0000      -0.280746        -7.6395
 267   2.0000      -0.269322        -7.3286
 268   2.0000      -0.268737        -7.3127
 269   0.0000      -0.124844        -3.3972
 270   0.0000      -0.107479        -2.9247
 271   0.0000      -0.088547        -2.4095
 272   0.0000      -0.078812        -2.1446
 273   0.0000      -0.058514        -1.5922

MULLIKEN ATOMIC CHARGES
-----------------------
   0 C :    0.268429
   1 C :   -0.326704
   2 C :   -0.185894
   3 N :    0.166988
   4 C :   -0.186633
   5 N :    0.159349
   6 C :    0.021878
   7 C :   -0.005309
   8 C :   -0.062842
   9 C :    0.112907
  10 C :   -0.089961
  11 C :   -0.023117
  12 S :    0.147777
  13 C :   -0.046437
  14 C :    0.027613
  15 C :    0.147642
  16 O :   -0.107452
  17 C :   -0.040286
  18 C :   -0.062284
  19 C :    0.012766
  20 N :   -0.006556
  21 C :    0.076878
  22 C :   -0.182699
  23 C :    0.218015
  24 O :   -0.144907
  25 C :   -0.013572
  26 C :   -0.027088
  27 N :   -0.049441
  28 C :    0.088769
  29 C :   -0.096443
  30 C :    0.081270
  31 C :   -0.001861
  32 C :   -0.093586
  33 S :    0.114969
  34 C :   -0.091122
  35 C :   -0.074895
  36 S :    0.156590
  37 C :   -0.053407
  38 C :   -0.056098
  39 S :    0.127642
  40 C :   -0.016391
  41 C :   -0.016681
  42 C :    0.050632
  43 N :   -0.061239
  44 C :    0.065099
  45 C :   -0.145172
  46 C :    0.237354
  47 O :   -0.158839
  48 C :   -0.010985
  49 C :   -0.036506
  50 N :   -0.057920
  51 C :    0.085776
  52 C :   -0.095648
  53 C :    0.048879
  54 C :   -0.017100
  55 C :    0.017018
  56 C :    0.031552
  57 C :   -0.098141
  58 C :    0.260257
  59 C :   -0.297020
  60 C :   -0.178284
  61 N :    0.150465
  62 C :   -0.205904
  63 N :    0.157377
  64 C :    0.013778
  65 C :   -0.007789
  66 C :    0.138538
  67 O :   -0.144456
  68 C :   -0.073918
  69 C :    0.111481
  70 C :   -0.090655
  71 C :   -0.026742
  72 S :    0.137711
  73 C :   -0.052265
  74 C :    0.027472
  75 H :   -0.002695
  76 H :   -0.000736
  77 H :    0.043698
  78 H :   -0.000598
  79 H :    0.048765
  80 H :    0.011864
  81 H :   -0.002536
  82 H :   -0.001206
  83 H :    0.068652
  84 H :    0.038098
  85 H :    0.033525
  86 H :    0.077562
  87 H :   -0.007495
  88 H :    0.005326
  89 H :   -0.007602
  90 H :   -0.018756
  91 H :    0.044920
  92 H :    0.011338
  93 H :   -0.011841
  94 H :   -0.002023
  95 H :    0.036826
  96 H :   -0.007706
Sum of atomic charges:   -0.0000000

LOEWDIN ATOMIC CHARGES
----------------------
   0 C :    0.078486
   1 C :   -0.132384
   2 C :   -0.020748
   3 N :   -0.039611
   4 C :   -0.009295
   5 N :   -0.054297
   6 C :   -0.025051
   7 C :   -0.048362
   8 C :    0.027147
   9 C :   -0.028293
  10 C :   -0.144089
  11 C :   -0.005451
  12 S :    0.435574
  13 C :   -0.143011
  14 C :   -0.056014
  15 C :    0.083732
  16 O :   -0.103490
  17 C :   -0.031259
  18 C :    0.037691
  19 C :    0.056472
  20 N :   -0.069100
  21 C :    0.050434
  22 C :   -0.072585
  23 C :    0.070854
  24 O :   -0.142951
  25 C :   -0.036731
  26 C :    0.030495
  27 N :   -0.093112
  28 C :    0.076811
  29 C :   -0.029521
  30 C :   -0.011509
  31 C :   -0.093408
  32 C :   -0.117475
  33 S :    0.386533
  34 C :   -0.226379
  35 C :   -0.179873
  36 S :    0.486205
  37 C :   -0.167073
  38 C :   -0.226029
  39 S :    0.405240
  40 C :   -0.079867
  41 C :   -0.100246
  42 C :    0.080922
  43 N :   -0.119704
  44 C :    0.051004
  45 C :   -0.022853
  46 C :    0.075981
  47 O :   -0.149689
  48 C :   -0.040768
  49 C :    0.014271
  50 N :   -0.098052
  51 C :    0.066888
  52 C :   -0.039144
  53 C :   -0.031547
  54 C :    0.007851
  55 C :   -0.001398
  56 C :    0.061799
  57 C :   -0.077270
  58 C :    0.068052
  59 C :   -0.120246
  60 C :   -0.013246
  61 N :   -0.051035
  62 C :   -0.016595
  63 N :   -0.053931
  64 C :   -0.016734
  65 C :   -0.056136
  66 C :    0.081791
  67 O :   -0.145066
  68 C :    0.022777
  69 C :   -0.037077
  70 C :   -0.144038
  71 C :   -0.011515
  72 S :    0.427357
  73 C :   -0.151667
  74 C :   -0.058117
  75 H :    0.044132
  76 H :    0.041817
  77 H :    0.031631
  78 H :    0.037751
  79 H :    0.048505
  80 H :    0.024274
  81 H :    0.035269
  82 H :    0.028291
  83 H :    0.032826
  84 H :    0.030687
  85 H :    0.029354
  86 H :    0.038185
  87 H :    0.028792
  88 H :    0.021785
  89 H :    0.033616
  90 H :    0.029562
  91 H :    0.034577
  92 H :    0.043204
  93 H :    0.040025
  94 H :    0.041084
  95 H :    0.028586
  96 H :    0.034727

  Mayer bond orders larger than 0.100000
B(  0-C ,  1-C ) :   1.6651 B(  0-C ,  6-C ) :   1.0286 B(  0-C , 17-C ) :   1.0170
B(  1-C ,  2-C ) :   1.1286 B(  1-C ,  4-C ) :   1.1410 B(  2-C ,  3-N ) :   2.9902
B(  4-C ,  5-N ) :   2.9757 B(  6-C ,  7-C ) :   1.2598 B(  6-C , 11-C ) :   1.3970
B(  7-C ,  8-C ) :   1.4232 B(  7-C , 15-C ) :   0.9280 B(  8-C ,  9-C ) :   1.2555
B(  8-C , 75-H ) :   1.0169 B(  9-C , 10-C ) :   1.2894 B(  9-C , 14-C ) :   1.1757
B( 10-C , 11-C ) :   1.3373 B( 10-C , 12-S ) :   1.0981 B( 11-C , 76-H ) :   0.9855
B( 12-S , 13-C ) :   1.1300 B( 13-C , 14-C ) :   1.6245 B( 13-C , 77-H ) :   0.9682
B( 14-C , 78-H ) :   1.0007 B( 15-C , 16-O ) :   2.2898 B( 15-C , 17-C ) :   0.8937
B( 17-C , 18-C ) :   1.7914 B( 18-C , 19-C ) :   1.0338 B( 18-C , 79-H ) :   0.9222
B( 19-C , 20-N ) :   1.6435 B( 19-C , 21-C ) :   0.1152 B( 19-C , 30-C ) :   1.0207
B( 20-N , 21-C ) :   1.2970 B( 21-C , 22-C ) :   1.0579 B( 21-C , 26-C ) :   1.4631
B( 22-C , 23-C ) :   0.9090 B( 22-C , 30-C ) :   1.5335 B( 23-C , 24-O ) :   2.1917
B( 23-C , 25-C ) :   0.9206 B( 25-C , 26-C ) :   1.0603 B( 25-C , 29-C ) :   1.6303
B( 26-C , 27-N ) :   1.2896 B( 27-N , 28-C ) :   1.6827 B( 28-C , 29-C ) :   1.0490
B( 28-C , 80-H ) :   0.9883 B( 29-C , 81-H ) :   1.0100 B( 30-C , 31-C ) :   1.1445
B( 31-C , 32-C ) :   1.7078 B( 31-C , 82-H ) :   0.9394 B( 32-C , 33-S ) :   1.0919
B( 32-C , 83-H ) :   0.9167 B( 33-S , 34-C ) :   1.0005 B( 34-C , 35-C ) :   1.5772
B( 34-C , 38-C ) :   1.2628 B( 35-C , 36-S ) :   1.2100 B( 35-C , 84-H ) :   0.9682
B( 36-S , 37-C ) :   1.1955 B( 37-C , 38-C ) :   1.6011 B( 37-C , 85-H ) :   0.9691
B( 38-C , 39-S ) :   1.0023 B( 39-S , 40-C ) :   1.1170 B( 40-C , 41-C ) :   1.6637
B( 40-C , 86-H ) :   0.9257 B( 41-C , 42-C ) :   1.2132 B( 41-C , 87-H ) :   0.9456
B( 42-C , 43-N ) :   1.5460 B( 42-C , 44-C ) :   0.1064 B( 42-C , 53-C ) :   0.9998
B( 43-N , 44-C ) :   1.3949 B( 44-C , 45-C ) :   1.0537 B( 44-C , 49-C ) :   1.3813
B( 45-C , 46-C ) :   0.8926 B( 45-C , 53-C ) :   1.5608 B( 46-C , 47-O ) :   2.1349
B( 46-C , 48-C ) :   0.9512 B( 47-O , 91-H ) :   0.1121 B( 48-C , 49-C ) :   1.0775
B( 48-C , 52-C ) :   1.5737 B( 49-C , 50-N ) :   1.3372 B( 50-N , 51-C ) :   1.6289
B( 51-C , 52-C ) :   1.0955 B( 51-C , 88-H ) :   0.9895 B( 52-C , 89-H ) :   1.0108
B( 53-C , 54-C ) :   1.1075 B( 54-C , 55-C ) :   1.6779 B( 54-C , 90-H ) :   0.9751
B( 55-C , 56-C ) :   1.0958 B( 55-C , 91-H ) :   0.9219 B( 56-C , 57-C ) :   1.6514
B( 56-C , 92-H ) :   0.9644 B( 57-C , 58-C ) :   1.0255 B( 57-C , 66-C ) :   0.9334
B( 58-C , 59-C ) :   1.6660 B( 58-C , 64-C ) :   1.0175 B( 59-C , 60-C ) :   1.1350
B( 59-C , 62-C ) :   1.1560 B( 60-C , 61-N ) :   2.9868 B( 62-C , 63-N ) :   2.9944
B( 64-C , 65-C ) :   1.2673 B( 64-C , 71-C ) :   1.4191 B( 65-C , 66-C ) :   0.9254
B( 65-C , 68-C ) :   1.4236 B( 66-C , 67-O ) :   2.2733 B( 68-C , 69-C ) :   1.2543
B( 68-C , 93-H ) :   1.0160 B( 69-C , 70-C ) :   1.3030 B( 69-C , 74-C ) :   1.1725
B( 70-C , 71-C ) :   1.3186 B( 70-C , 72-S ) :   1.0970 B( 71-C , 94-H ) :   0.9851
B( 72-S , 73-C ) :   1.1257 B( 73-C , 74-C ) :   1.6300 B( 73-C , 95-H ) :   0.9687
B( 74-C , 96-H ) :   0.9988

-----------------------------------------------------------------------------
         ABSORPTION SPECTRUM VIA TRANSITION ELECTRIC DIPOLE MOMENTS
-----------------------------------------------------------------------------
State   Energy  Wavelength   fosc         T2         TX        TY        TZ
        (cm-1)    (nm)                  (au**2)     (au)      (au)      (au)
-----------------------------------------------------------------------------
   0   13763.4    726.6   0.065141527   1.55815   0.56713  -0.77359   0.79880
   1   18757.0    533.1   0.139863777   2.45481   1.48413   0.19003   0.46482
   2   21109.3    473.7   0.473653872   7.38690   1.07020  -0.97167  -2.30162
   3   21138.7    473.1   0.063091300   0.98258   0.37336  -0.58398  -0.70862
   4   21199.7    471.7   0.005083246   0.07894   0.10032  -0.05525  -0.25656
   5   22079.2    452.9   0.002317664   0.03456   0.17357   0.03302   0.05779
   6   22219.3    450.1   0.027880546   0.41309   0.21254   0.05752   0.60383
   7   22828.6    438.0   0.105898583   1.52717  -0.48531   1.02607   0.48870
   8   23474.9    426.0   0.222638538   3.12228  -1.23673   0.18494  -1.24843
   9   23616.7    423.4   0.386065602   5.38169  -1.55497  -0.70540  -1.57040
  10   24344.7    410.8   0.086809622   1.17392  -0.12545   0.53486  -0.93387
  11   24838.6    402.6   0.049356389   0.65417  -0.70386  -0.35813   0.17461
  12   25118.8    398.1   0.006311092   0.08271   0.21889  -0.16250   0.09163
  13   25162.2    397.4   0.013344760   0.17460  -0.26976   0.30677  -0.08783
  14   25222.3    396.5   0.125074484   1.63252  -0.80235  -0.57715  -0.80972
  15   25607.0    390.5   0.009480757   0.12189   0.17115  -0.29599  -0.07062
  16   25936.3    385.6   0.000211406   0.00268  -0.00575   0.03977  -0.03269
  17   26235.5    381.2   0.101633835   1.27534   0.42533  -1.04608   0.01207
  18   26958.6    370.9   0.190703229   2.32882  -0.77009   1.11535  -0.70127
  19   27314.3    366.1   0.005968422   0.07194   0.03059  -0.25609  -0.07359
  20   27373.3    365.3   0.436934064   5.25489  -0.33449   1.14461   1.95778
  21   27569.3    362.7   0.055480696   0.66251   0.23320   0.52758   0.57427
  22   28084.4    356.1   0.026070810   0.30561   0.45925  -0.20092   0.23308
  23   28103.4    355.8   0.229155471   2.68440   0.70261  -1.26996  -0.76023
  24   28853.2    346.6   0.107500878   1.22657  -0.60984   0.85652  -0.34791
  25   29121.6    343.4   0.220284150   2.49026   0.86402  -1.23075   0.47851
  26   29219.0    342.2   0.000800780   0.00902   0.01944  -0.08882  -0.02748
  27   29931.3    334.1   0.004982509   0.05480   0.09416  -0.19330   0.09258
  28   29981.9    333.5   0.194625274   2.13706  -0.79514   0.92481  -0.80594
  29   30227.1    330.8   0.013753811   0.14980  -0.09199   0.29438   0.23383
  30   30492.8    327.9   0.083591564   0.90249   0.72196  -0.29270  -0.54368
  31   30826.2    324.4   0.009180655   0.09805  -0.01173   0.26241   0.17044
  32   31029.6    322.3   0.031936595   0.33883   0.30245   0.09343   0.48850
  33   31087.6    321.7   0.018002932   0.19065  -0.13937   0.12817  -0.39344
  34   31201.1    320.5   0.614413321   6.48285   2.34961   0.97875   0.06523
  35   31555.8    316.9   0.014060616   0.14669   0.14424  -0.25086   0.25091
  36   31659.4    315.9   0.462503020   4.80936   0.46173  -0.11278  -2.14090
  37   31936.5    313.1   0.017374826   0.17911  -0.27007   0.15426   0.28700
  38   32352.6    309.1   0.102210084   1.04006   0.34231  -0.89095  -0.35929
  39   32495.3    307.7   0.256356616   2.59716  -1.40491  -0.78463  -0.08796
  40   33085.3    302.2   0.000687086   0.00684  -0.02200   0.07525   0.02626
  41   33381.3    299.6   0.018038512   0.17790  -0.19846  -0.09197  -0.36063
  42   33470.4    298.8   0.011871949   0.11677   0.18322  -0.14737   0.24796
  43   33698.7    296.7   0.041931147   0.40964  -0.46806  -0.34488  -0.26760
  44   33727.1    296.5   0.004771187   0.04657  -0.19405  -0.09368   0.01188
  45   33917.1    294.8   0.029227183   0.28369  -0.37956  -0.07275   0.36651
  46   34300.9    291.5   0.168533123   1.61754   0.14938  -0.92412   0.86094
  47   34684.4    288.3   0.144464850   1.37121   0.62469   0.63830   0.75733
  48   35028.2    285.5   0.000604007   0.00568   0.06600   0.01923   0.03083
  49   35071.4    285.1   0.007996292   0.07506   0.04357  -0.04873  -0.26606
  50   35181.6    284.2   0.000510894   0.00478   0.04507   0.03129   0.04208
  51   35544.8    281.3   0.348118653   3.22424   1.53109   0.93774   0.02520
  52   35547.9    281.3   0.010762790   0.09968   0.06722  -0.30293  -0.05820
  53   35688.0    280.2   0.006046042   0.05577   0.00581  -0.08911   0.21863
  54   35928.8    278.3   0.103786771   0.95099   0.29312  -0.09778  -0.92494
  55   36373.9    274.9   0.401895200   3.63746  -0.40167   0.31909   1.83693
  56   36538.0    273.7   0.107768796   0.97101  -0.08813   0.80364  -0.56339
  57   36585.8    273.3   0.029501740   0.26547  -0.07725   0.49777   0.10826
  58   36631.3    273.0   0.149033340   1.33939   0.26948   0.28204  -1.08960
  59   37146.2    269.2   0.061453254   0.54464  -0.01647   0.43129  -0.59863
  60   37177.9    269.0   0.005069930   0.04489  -0.19752   0.06169   0.04556
  61   37424.1    267.2   0.001692520   0.01489   0.03757   0.09981   0.05930
  62   37602.4    265.9   0.003485179   0.03051   0.02886   0.06174  -0.16084
  63   37680.8    265.4   0.003941776   0.03444  -0.05561  -0.04895  -0.17015
  64   37736.1    265.0   0.017201531   0.15007  -0.28169  -0.25074  -0.08859
  65   37870.7    264.1   0.023805331   0.20694   0.45211   0.01874   0.04680
  66   37908.3    263.8   0.002473938   0.02148   0.09781   0.10845  -0.01254
  67   38093.8    262.5   0.001622947   0.01403  -0.04021  -0.10608   0.03398
  68   38250.2    261.4   0.010249163   0.08821   0.05700  -0.28932   0.03549
  69   38483.3    259.9   0.097575499   0.83473   0.27099  -0.48221  -0.72716
  70   38539.7    259.5   0.027742202   0.23698   0.14137  -0.11172  -0.45223
  71   38723.1    258.2   0.011823283   0.10052  -0.08687   0.00615   0.30485
  72   38758.0    258.0   0.000791710   0.00672   0.00784   0.01827   0.07956
  73   38828.4    257.5   0.008644868   0.07330   0.21920   0.12376  -0.09965
  74   38904.0    257.0   0.000152554   0.00129  -0.00011  -0.02562  -0.02519
  75   38946.4    256.8   0.000112612   0.00095   0.01179   0.00236  -0.02841
  76   39200.2    255.1   0.043835616   0.36814   0.20924   0.23112   0.52052
  77   39361.6    254.1   0.002596948   0.02172  -0.01703  -0.07502   0.12571
  78   39725.6    251.7   0.001569885   0.01301   0.06743  -0.09040  -0.01707
  79   39849.7    250.9   0.001912138   0.01580   0.05189  -0.11335  -0.01600
  80   39941.7    250.4   0.039752951   0.32766   0.12327  -0.55491  -0.06735
  81   40324.5    248.0   0.186557432   1.52307  -0.37656   0.35181   1.12138

FINAL SINGLE POINT ENERGY     -4948.663007902814

DIPOLE MOMENT
-------------
                                X             Y             Z
Electronic contribution:     -7.22846     -11.14956      -1.83198
Nuclear contribution   :      7.29204      11.04880      -2.39339
                        -----------------------------------------
Total Dipole Moment    :      0.06359      -0.10076      -4.22537
                        -----------------------------------------
Magnitude (a.u.)       :      4.22705
Magnitude (Debye)      :     10.74431

Rotational constants in cm-1:     0.001134     0.000246     0.000230
Rotational constants in MHz :    33.995796     7.377992     6.896186

                             ****ORCA TERMINATED NORMALLY****
TOTAL RUN TIME: 0 days 0 hours 10 minutes 32 seconds 565 msec
