                         Program Version 4.2.0 -  RELEASE  -
|  1> # ORCA input file
|  2> # SCF done       -192.837342015771          0.000521860936
|  3> ! CAM-B3LYP def2-SVP def2/J RIJCOSX Grid4 TightSCF
|  4> %maxcore 5000
|  5> %tddft
|  6>     Mode sTDDFT
|  7>     Ethresh 5.0
|  8>     maxcore 5000
|  9> end
| 10>
| 11> %pal
| 12>   nprocs 6
| 13>   end
| 14> * xyz 0 1
| 15>    C        0.20027         4.42236         4.00430
| 16>    C        0.81918         3.21032         3.83315
| 17>    C        2.17801         2.96730         4.12542
| 18>    N        3.27385         2.70143         4.34112
| 19>    C        0.21487         2.03536         3.34021
| 20>    N       -0.19754         1.03796         2.94634
| 21>    C        0.84405         5.63347         4.50188
| 22>    C       -0.10758         6.68484         4.51215
| 23>    C        0.19461         7.95785         4.93136
| 24>    C        1.50064         8.20887         5.36226
| 25>    C        2.44568         7.15492         5.34842
| 26>    C        2.13903         5.86691         4.92432
| 27>    S        3.99309         7.69177         5.92111
| 28>    C        3.37518         9.28797         6.16907
| 29>    C        2.07148         9.42150         5.84090
| 30>    C       -1.39441         6.17472         4.01855
| 31>    O       -2.42462         6.81243         3.89042
| 32>    C       -1.18515         4.75121         3.71834
| 33>    C       -2.14303         3.88469         3.26374
| 34>    C       -3.49321         4.10593         2.94187
| 35>    C       -4.30910         3.06566         2.48696
| 36>    C       -5.59104         3.48945         2.20134
| 37>    C       -5.78291         4.86723         2.43108
| 38>    S       -4.35744         5.63560         3.01750
| 39>    C       -7.08153         5.27035         2.11815
| 40>    C       -7.87523         4.20722         1.65311
| 41>    S       -7.02158         2.68820         1.60331
| 42>    C       -9.16736         4.58275         1.31708
| 43>    C       -9.38180         5.93923         1.51924
| 44>    S       -7.96227         6.75473         2.14331
| 45>    C      -10.57831         6.65958         1.25166
| 46>    C      -10.67596         8.04714         1.49344
| 47>    C      -11.85552         8.80314         1.19125
| 48>    N      -11.87229        10.12686         1.44655
| 49>    C      -10.83078        10.69713         1.95712
| 50>    C       -9.66067         9.94787         2.25509
| 51>    N       -9.60912         8.67708         2.02423
| 52>    F       -8.59098        10.53267         2.78169
| 53>    F      -10.88707        12.00185         2.19917
| 54>    C      -13.01046         8.22011         0.62758
| 55>    C      -12.93321         6.82428         0.40710
| 56>    C      -11.74192         6.06005         0.71231
| 57>    N      -11.90144         4.76975         0.41405
| 58>    S      -13.37169         4.53598        -0.17907
| 59>    N      -13.89461         6.04858        -0.09618
| 60>    C      -14.14973         9.00240         0.29080
| 61>    C      -15.33404         8.54707        -0.26925
| 62>    C      -16.22645         9.58309        -0.50803
| 63>    C      -15.73561        10.84478        -0.13307
| 64>    S      -14.14815        10.73717         0.53639
| 65>    C      -16.64773        11.86263        -0.41079
| 66>    C      -17.82900        11.37845        -1.00160
| 67>    S      -17.82569         9.64917        -1.19798
| 68>    C      -18.73345        12.37543        -1.34129
| 69>    C      -18.26528        13.63724        -1.01051
| 70>    S      -16.68909        13.57003        -0.23607
| 71>    C      -18.88459        14.89813        -1.16272
| 72>    C      -19.89803        15.27564        -1.98954
| 73>    C      -20.52021        14.66434        -3.14417
| 74>    C      -19.92347        13.81429        -4.04024
| 75>    C      -20.55843        13.31957        -5.19745
| 76>    N      -21.03622        12.87224        -6.14063
| 77>    C      -18.57634        13.40951        -3.96274
| 78>    N      -17.47554        13.08375        -3.96859
| 79>    C      -21.80296        15.32935        -3.34877
| 80>    C      -21.86341        16.46960        -2.50612
| 81>    C      -20.64574        16.52793        -1.67875
| 82>    O      -20.32619        17.37732        -0.87901
| 83>    C      -22.93085        17.33486        -2.51397
| 84>    C      -23.99120        17.05676        -3.38191
| 85>    C      -23.92980        15.90519        -4.20342
| 86>    C      -22.84667        15.03378        -4.20352
| 87>    S      -25.35391        15.75537        -5.18298
| 88>    C      -26.00242        17.20896        -4.50575
| 89>    C      -25.19805        17.78373        -3.58532
| 90>    H       -0.55475         8.73405         4.92634
| 91>    H        2.89582         5.10072         4.93491
| 92>    H        4.03780        10.03983         6.55160
| 93>    H        1.51884        10.33930         5.92872
| 94>    H       -1.84077         2.85496         3.11623
| 95>    H       -3.95543         2.05671         2.37500
| 96>    H       -9.92755         3.92564         0.93994
| 97>    H      -15.51104         7.51161        -0.48920
| 98>    H      -19.70076        12.19170        -1.77200
| 99>    H      -18.54444        15.67451        -0.48333
|100>    H      -22.94488        18.20157        -1.87161
|101>    H      -22.84537        14.16682        -4.84349
|102>    H      -26.96206        17.54779        -4.84472
|103>    H      -25.43562        18.69095        -3.05996
|104> *
|105>
|106>                          ****END OF INPUT****

CARTESIAN COORDINATES (ANGSTROEM)
---------------------------------
  C      0.200270    4.422360    4.004300
  C      0.819180    3.210320    3.833150
  C      2.178010    2.967300    4.125420
  N      3.273850    2.701430    4.341120
  C      0.214870    2.035360    3.340210
  N     -0.197540    1.037960    2.946340
  C      0.844050    5.633470    4.501880
  C     -0.107580    6.684840    4.512150
  C      0.194610    7.957850    4.931360
  C      1.500640    8.208870    5.362260
  C      2.445680    7.154920    5.348420
  C      2.139030    5.866910    4.924320
  S      3.993090    7.691770    5.921110
  C      3.375180    9.287970    6.169070
  C      2.071480    9.421500    5.840900
  C     -1.394410    6.174720    4.018550
  O     -2.424620    6.812430    3.890420
  C     -1.185150    4.751210    3.718340
  C     -2.143030    3.884690    3.263740
  C     -3.493210    4.105930    2.941870
  C     -4.309100    3.065660    2.486960
  C     -5.591040    3.489450    2.201340
  C     -5.782910    4.867230    2.431080
  S     -4.357440    5.635600    3.017500
  C     -7.081530    5.270350    2.118150
  C     -7.875230    4.207220    1.653110
  S     -7.021580    2.688200    1.603310
  C     -9.167360    4.582750    1.317080
  C     -9.381800    5.939230    1.519240
  S     -7.962270    6.754730    2.143310
  C    -10.578310    6.659580    1.251660
  C    -10.675960    8.047140    1.493440
  C    -11.855520    8.803140    1.191250
  N    -11.872290   10.126860    1.446550
  C    -10.830780   10.697130    1.957120
  C     -9.660670    9.947870    2.255090
  N     -9.609120    8.677080    2.024230
  F     -8.590980   10.532670    2.781690
  F    -10.887070   12.001850    2.199170
  C    -13.010460    8.220110    0.627580
  C    -12.933210    6.824280    0.407100
  C    -11.741920    6.060050    0.712310
  N    -11.901440    4.769750    0.414050
  S    -13.371690    4.535980   -0.179070
  N    -13.894610    6.048580   -0.096180
  C    -14.149730    9.002400    0.290800
  C    -15.334040    8.547070   -0.269250
  C    -16.226450    9.583090   -0.508030
  C    -15.735610   10.844780   -0.133070
  S    -14.148150   10.737170    0.536390
  C    -16.647730   11.862630   -0.410790
  C    -17.829000   11.378450   -1.001600
  S    -17.825690    9.649170   -1.197980
  C    -18.733450   12.375430   -1.341290
  C    -18.265280   13.637240   -1.010510
  S    -16.689090   13.570030   -0.236070
  C    -18.884590   14.898130   -1.162720
  C    -19.898030   15.275640   -1.989540
  C    -20.520210   14.664340   -3.144170
  C    -19.923470   13.814290   -4.040240
  C    -20.558430   13.319570   -5.197450
  N    -21.036220   12.872240   -6.140630
  C    -18.576340   13.409510   -3.962740
  N    -17.475540   13.083750   -3.968590
  C    -21.802960   15.329350   -3.348770
  C    -21.863410   16.469600   -2.506120
  C    -20.645740   16.527930   -1.678750
  O    -20.326190   17.377320   -0.879010
  C    -22.930850   17.334860   -2.513970
  C    -23.991200   17.056760   -3.381910
  C    -23.929800   15.905190   -4.203420
  C    -22.846670   15.033780   -4.203520
  S    -25.353910   15.755370   -5.182980
  C    -26.002420   17.208960   -4.505750
  C    -25.198050   17.783730   -3.585320
  H     -0.554750    8.734050    4.926340
  H      2.895820    5.100720    4.934910
  H      4.037800   10.039830    6.551600
  H      1.518840   10.339300    5.928720
  H     -1.840770    2.854960    3.116230
  H     -3.955430    2.056710    2.375000
  H     -9.927550    3.925640    0.939940
  H    -15.511040    7.511610   -0.489200
  H    -19.700760   12.191700   -1.772000
  H    -18.544440   15.674510   -0.483330
  H    -22.944880   18.201570   -1.871610
  H    -22.845370   14.166820   -4.843490
  H    -26.962060   17.547790   -4.844720
  H    -25.435620   18.690950   -3.059960

 Total Charge           Charge          ....    0
 Multiplicity           Mult            ....    1
 Number of Electrons    NEL             ....  572
 Basis Dimension        Dim             .... 1156

ORBITAL ENERGIES
----------------

  NO   OCC          E(Eh)            E(eV)
   0   2.0000     -89.048676     -2423.1377
   1   2.0000     -88.970342     -2421.0061
   2   2.0000     -88.965668     -2420.8789
   3   2.0000     -88.964411     -2420.8447
   4   2.0000     -88.963301     -2420.8145
   5   2.0000     -88.963242     -2420.8129
   6   2.0000     -88.962690     -2420.7979
   7   2.0000     -88.962498     -2420.7926
   8   2.0000     -88.960351     -2420.7342
   9   2.0000     -24.823899      -675.4926
  10   2.0000     -24.823572      -675.4837
  11   2.0000     -19.216934      -522.9194
  12   2.0000     -19.211367      -522.7679
  13   2.0000     -14.464958      -393.6115
  14   2.0000     -14.464560      -393.6007
  15   2.0000     -14.458109      -393.4251
  16   2.0000     -14.457940      -393.4206
  17   2.0000     -14.413788      -392.2191
  18   2.0000     -14.413265      -392.2049
  19   2.0000     -14.411886      -392.1674
  20   2.0000     -14.409649      -392.1065
  21   2.0000     -10.440893      -284.1111
  22   2.0000     -10.440604      -284.1033
  23   2.0000     -10.364980      -282.0454
  24   2.0000     -10.362490      -281.9777
  25   2.0000     -10.351685      -281.6837
  26   2.0000     -10.351392      -281.6757
  27   2.0000     -10.347638      -281.5736
  28   2.0000     -10.347394      -281.5669
  29   2.0000     -10.340645      -281.3832
  30   2.0000     -10.340057      -281.3673
  31   2.0000     -10.337529      -281.2985
  32   2.0000     -10.336336      -281.2660
  33   2.0000     -10.322111      -280.8789
  34   2.0000     -10.321432      -280.8605
  35   2.0000     -10.319576      -280.8099
  36   2.0000     -10.319245      -280.8009
  37   2.0000     -10.319119      -280.7975
  38   2.0000     -10.319067      -280.7961
  39   2.0000     -10.318920      -280.7921
  40   2.0000     -10.318832      -280.7897
  41   2.0000     -10.317905      -280.7645
  42   2.0000     -10.317599      -280.7561
  43   2.0000     -10.316675      -280.7310
  44   2.0000     -10.316532      -280.7271
  45   2.0000     -10.315565      -280.7008
  46   2.0000     -10.313211      -280.6367
  47   2.0000     -10.313113      -280.6341
  48   2.0000     -10.313092      -280.6335
  49   2.0000     -10.311962      -280.6027
  50   2.0000     -10.311834      -280.5993
  51   2.0000     -10.310054      -280.5508
  52   2.0000     -10.308675      -280.5133
  53   2.0000     -10.308554      -280.5100
  54   2.0000     -10.308130      -280.4985
  55   2.0000     -10.306634      -280.4578
  56   2.0000     -10.305540      -280.4280
  57   2.0000     -10.304404      -280.3971
  58   2.0000     -10.302870      -280.3554
  59   2.0000     -10.302310      -280.3401
  60   2.0000     -10.302085      -280.3340
  61   2.0000     -10.300282      -280.2849
  62   2.0000     -10.299947      -280.2758
  63   2.0000     -10.299889      -280.2742
  64   2.0000     -10.298891      -280.2471
  65   2.0000     -10.297789      -280.2171
  66   2.0000     -10.296331      -280.1774
  67   2.0000     -10.294653      -280.1317
  68   2.0000     -10.292304      -280.0678
  69   2.0000     -10.289149      -279.9820
  70   2.0000     -10.288106      -279.9536
  71   2.0000     -10.287718      -279.9430
  72   2.0000     -10.287132      -279.9271
  73   2.0000     -10.286891      -279.9205
  74   2.0000     -10.286606      -279.9128
  75   2.0000      -8.139993      -221.5005
  76   2.0000      -8.065678      -219.4783
  77   2.0000      -8.061954      -219.3769
  78   2.0000      -8.060575      -219.3394
  79   2.0000      -8.057992      -219.2691
  80   2.0000      -8.056815      -219.2371
  81   2.0000      -8.056206      -219.2205
  82   2.0000      -8.055946      -219.2134
  83   2.0000      -8.055619      -219.2045
  84   2.0000      -6.111115      -166.2919
  85   2.0000      -6.103227      -166.0773
  86   2.0000      -6.102781      -166.0651
  87   2.0000      -6.035146      -164.2247
  88   2.0000      -6.031466      -164.1245
  89   2.0000      -6.031080      -164.1140
  90   2.0000      -6.030090      -164.0871
  91   2.0000      -6.027755      -164.0235
  92   2.0000      -6.027344      -164.0124
  93   2.0000      -6.027170      -164.0076
  94   2.0000      -6.026644      -163.9933
  95   2.0000      -6.025943      -163.9743
  96   2.0000      -6.025778      -163.9698
  97   2.0000      -6.025724      -163.9683
  98   2.0000      -6.025432      -163.9603
  99   2.0000      -6.023899      -163.9186
 100   2.0000      -6.023617      -163.9110
 101   2.0000      -6.022292      -163.8749
 102   2.0000      -6.022001      -163.8670
 103   2.0000      -6.021559      -163.8550
 104   2.0000      -6.021314      -163.8483
 105   2.0000      -6.021117      -163.8429
 106   2.0000      -6.018868      -163.7817
 107   2.0000      -6.018380      -163.7685
 108   2.0000      -6.017880      -163.7548
 109   2.0000      -6.017601      -163.7472
 110   2.0000      -6.016424      -163.7152
 111   2.0000      -1.352689       -36.8085
 112   2.0000      -1.338598       -36.4251
 113   2.0000      -1.146512       -31.1982
 114   2.0000      -1.132758       -30.8239
 115   2.0000      -1.126863       -30.6635
 116   2.0000      -1.124400       -30.5965
 117   2.0000      -1.051374       -28.6094
 118   2.0000      -1.025940       -27.9172
 119   2.0000      -1.021617       -27.7996
 120   2.0000      -1.017947       -27.6997
 121   2.0000      -1.016588       -27.6628
 122   2.0000      -1.006417       -27.3860
 123   2.0000      -1.005501       -27.3611
 124   2.0000      -1.002374       -27.2760
 125   2.0000      -0.994055       -27.0496
 126   2.0000      -0.990790       -26.9608
 127   2.0000      -0.990273       -26.9467
 128   2.0000      -0.984281       -26.7836
 129   2.0000      -0.982484       -26.7347
 130   2.0000      -0.980056       -26.6687
 131   2.0000      -0.970870       -26.4187
 132   2.0000      -0.938948       -25.5501
 133   2.0000      -0.932863       -25.3845
 134   2.0000      -0.925892       -25.1948
 135   2.0000      -0.922836       -25.1116
 136   2.0000      -0.899427       -24.4746
 137   2.0000      -0.897662       -24.4266
 138   2.0000      -0.892797       -24.2942
 139   2.0000      -0.890857       -24.2414
 140   2.0000      -0.880179       -23.9509
 141   2.0000      -0.878485       -23.9048
 142   2.0000      -0.876041       -23.8383
 143   2.0000      -0.874401       -23.7937
 144   2.0000      -0.857861       -23.3436
 145   2.0000      -0.848376       -23.0855
 146   2.0000      -0.841454       -22.8971
 147   2.0000      -0.838108       -22.8061
 148   2.0000      -0.823470       -22.4078
 149   2.0000      -0.821750       -22.3610
 150   2.0000      -0.820444       -22.3254
 151   2.0000      -0.810301       -22.0494
 152   2.0000      -0.803439       -21.8627
 153   2.0000      -0.797476       -21.7004
 154   2.0000      -0.789273       -21.4772
 155   2.0000      -0.778862       -21.1939
 156   2.0000      -0.777411       -21.1544
 157   2.0000      -0.760098       -20.6833
 158   2.0000      -0.756714       -20.5912
 159   2.0000      -0.753126       -20.4936
 160   2.0000      -0.749624       -20.3983
 161   2.0000      -0.732924       -19.9439
 162   2.0000      -0.716757       -19.5040
 163   2.0000      -0.703749       -19.1500
 164   2.0000      -0.694757       -18.9053
 165   2.0000      -0.690025       -18.7765
 166   2.0000      -0.687168       -18.6988
 167   2.0000      -0.685701       -18.6589
 168   2.0000      -0.684343       -18.6219
 169   2.0000      -0.678690       -18.4681
 170   2.0000      -0.674224       -18.3466
 171   2.0000      -0.665236       -18.1020
 172   2.0000      -0.660144       -17.9634
 173   2.0000      -0.658629       -17.9222
 174   2.0000      -0.654442       -17.8083
 175   2.0000      -0.652131       -17.7454
 176   2.0000      -0.644888       -17.5483
 177   2.0000      -0.642530       -17.4841
 178   2.0000      -0.635831       -17.3018
 179   2.0000      -0.633386       -17.2353
 180   2.0000      -0.630460       -17.1557
 181   2.0000      -0.627551       -17.0765
 182   2.0000      -0.624787       -17.0013
 183   2.0000      -0.617902       -16.8140
 184   2.0000      -0.617163       -16.7939
 185   2.0000      -0.606811       -16.5122
 186   2.0000      -0.601635       -16.3713
 187   2.0000      -0.595985       -16.2176
 188   2.0000      -0.591148       -16.0860
 189   2.0000      -0.586703       -15.9650
 190   2.0000      -0.579277       -15.7629
 191   2.0000      -0.579056       -15.7569
 192   2.0000      -0.572506       -15.5787
 193   2.0000      -0.570929       -15.5358
 194   2.0000      -0.564996       -15.3743
 195   2.0000      -0.557857       -15.1801
 196   2.0000      -0.556539       -15.1442
 197   2.0000      -0.553947       -15.0737
 198   2.0000      -0.549167       -14.9436
 199   2.0000      -0.545583       -14.8461
 200   2.0000      -0.538994       -14.6668
 201   2.0000      -0.537908       -14.6372
 202   2.0000      -0.536757       -14.6059
 203   2.0000      -0.532555       -14.4916
 204   2.0000      -0.531107       -14.4522
 205   2.0000      -0.530082       -14.4243
 206   2.0000      -0.529174       -14.3996
 207   2.0000      -0.527073       -14.3424
 208   2.0000      -0.524507       -14.2726
 209   2.0000      -0.523830       -14.2541
 210   2.0000      -0.521090       -14.1796
 211   2.0000      -0.518601       -14.1119
 212   2.0000      -0.516533       -14.0556
 213   2.0000      -0.514505       -14.0004
 214   2.0000      -0.514152       -13.9908
 215   2.0000      -0.503208       -13.6930
 216   2.0000      -0.500897       -13.6301
 217   2.0000      -0.498507       -13.5651
 218   2.0000      -0.495960       -13.4958
 219   2.0000      -0.494353       -13.4520
 220   2.0000      -0.492059       -13.3896
 221   2.0000      -0.491950       -13.3866
 222   2.0000      -0.489731       -13.3263
 223   2.0000      -0.488638       -13.2965
 224   2.0000      -0.485746       -13.2178
 225   2.0000      -0.484507       -13.1841
 226   2.0000      -0.482488       -13.1292
 227   2.0000      -0.479844       -13.0572
 228   2.0000      -0.473113       -12.8741
 229   2.0000      -0.470749       -12.8097
 230   2.0000      -0.468826       -12.7574
 231   2.0000      -0.466635       -12.6978
 232   2.0000      -0.463742       -12.6191
 233   2.0000      -0.458774       -12.4839
 234   2.0000      -0.455844       -12.4041
 235   2.0000      -0.454402       -12.3649
 236   2.0000      -0.451729       -12.2922
 237   2.0000      -0.451411       -12.2835
 238   2.0000      -0.446708       -12.1555
 239   2.0000      -0.446159       -12.1406
 240   2.0000      -0.445770       -12.1300
 241   2.0000      -0.440836       -11.9958
 242   2.0000      -0.439571       -11.9613
 243   2.0000      -0.439392       -11.9565
 244   2.0000      -0.435593       -11.8531
 245   2.0000      -0.433223       -11.7886
 246   2.0000      -0.431519       -11.7422
 247   2.0000      -0.431040       -11.7292
 248   2.0000      -0.429946       -11.6994
 249   2.0000      -0.429383       -11.6841
 250   2.0000      -0.425027       -11.5656
 251   2.0000      -0.423380       -11.5208
 252   2.0000      -0.422213       -11.4890
 253   2.0000      -0.421369       -11.4660
 254   2.0000      -0.419513       -11.4155
 255   2.0000      -0.413191       -11.2435
 256   2.0000      -0.411879       -11.2078
 257   2.0000      -0.411606       -11.2004
 258   2.0000      -0.406148       -11.0519
 259   2.0000      -0.403997       -10.9933
 260   2.0000      -0.400083       -10.8868
 261   2.0000      -0.395922       -10.7736
 262   2.0000      -0.394320       -10.7300
 263   2.0000      -0.384517       -10.4633
 264   2.0000      -0.380787       -10.3617
 265   2.0000      -0.379405       -10.3241
 266   2.0000      -0.377813       -10.2808
 267   2.0000      -0.369389       -10.0516
 268   2.0000      -0.364898        -9.9294
 269   2.0000      -0.361278        -9.8309
 270   2.0000      -0.350057        -9.5255
 271   2.0000      -0.349264        -9.5040
 272   2.0000      -0.337894        -9.1946
 273   2.0000      -0.336534        -9.1575
 274   2.0000      -0.334134        -9.0923
 275   2.0000      -0.331374        -9.0172
 276   2.0000      -0.327881        -8.9221
 277   2.0000      -0.312256        -8.4969
 278   2.0000      -0.311937        -8.4882
 279   2.0000      -0.301896        -8.2150
 280   2.0000      -0.294047        -8.0014
 281   2.0000      -0.291383        -7.9289
 282   2.0000      -0.287957        -7.8357
 283   2.0000      -0.285528        -7.7696
 284   2.0000      -0.267949        -7.2913
 285   2.0000      -0.236719        -6.4415
 286   0.0000      -0.123562        -3.3623
 287   0.0000      -0.088039        -2.3957
 288   0.0000      -0.084696        -2.3047
 289   0.0000      -0.056585        -1.5398
 290   0.0000      -0.055506        -1.5104

MULLIKEN ATOMIC CHARGES
-----------------------
   0 C :    0.331813
   1 C :   -0.364347
   2 C :   -0.187155
   3 N :    0.148403
   4 C :   -0.187182
   5 N :    0.143213
   6 C :    0.012987
   7 C :   -0.013099
   8 C :   -0.070386
   9 C :    0.114953
  10 C :   -0.095400
  11 C :   -0.026113
  12 S :    0.140465
  13 C :   -0.048646
  14 C :    0.024258
  15 C :    0.162248
  16 O :   -0.180481
  17 C :   -0.090875
  18 C :   -0.028164
  19 C :   -0.052874
  20 C :   -0.055766
  21 C :    0.010626
  22 C :   -0.063474
  23 S :    0.211006
  24 C :   -0.048858
  25 C :    0.000780
  26 S :    0.156868
  27 C :   -0.052998
  28 C :   -0.171281
  29 S :    0.177038
  30 C :    0.185455
  31 C :   -0.058878
  32 C :   -0.059000
  33 N :   -0.039408
  34 C :    0.148902
  35 C :    0.151920
  36 N :   -0.039067
  37 F :   -0.132927
  38 F :   -0.133282
  39 C :    0.188365
  40 C :   -0.012930
  41 C :   -0.012984
  42 N :   -0.296097
  43 S :    0.552834
  44 N :   -0.294773
  45 C :   -0.171876
  46 C :   -0.054655
  47 C :   -0.000314
  48 C :   -0.039402
  49 S :    0.172044
  50 C :   -0.068426
  51 C :   -0.035086
  52 S :    0.165433
  53 C :    0.011099
  54 C :   -0.115217
  55 S :    0.177736
  56 C :    0.079694
  57 C :   -0.132369
  58 C :    0.264508
  59 C :   -0.341417
  60 C :   -0.177417
  61 N :    0.152995
  62 C :   -0.208706
  63 N :    0.178548
  64 C :    0.003471
  65 C :    0.004253
  66 C :    0.131897
  67 O :   -0.147416
  68 C :   -0.068704
  69 C :    0.108418
  70 C :   -0.092068
  71 C :   -0.026695
  72 S :    0.138493
  73 C :   -0.049141
  74 C :    0.026466
  75 H :   -0.011618
  76 H :   -0.007244
  77 H :    0.037667
  78 H :   -0.007390
  79 H :    0.007791
  80 H :    0.007600
  81 H :   -0.001004
  82 H :    0.000155
  83 H :    0.002866
  84 H :    0.023574
  85 H :   -0.010647
  86 H :   -0.003917
  87 H :    0.037646
  88 H :   -0.007314
Sum of atomic charges:   -0.0000000

LOEWDIN ATOMIC CHARGES
----------------------
   0 C :    0.078649
   1 C :   -0.146835
   2 C :   -0.018119
   3 N :   -0.057578
   4 C :   -0.020466
   5 N :   -0.058022
   6 C :   -0.021721
   7 C :   -0.052886
   8 C :    0.022659
   9 C :   -0.035891
  10 C :   -0.146082
  11 C :   -0.008709
  12 S :    0.429816
  13 C :   -0.150267
  14 C :   -0.058017
  15 C :    0.084402
  16 O :   -0.167638
  17 C :   -0.111773
  18 C :    0.055175
  19 C :   -0.178371
  20 C :   -0.024810
  21 C :   -0.193804
  22 C :   -0.202867
  23 S :    0.497120
  24 C :   -0.222589
  25 C :   -0.180839
  26 S :    0.398122
  27 C :   -0.050661
  28 C :   -0.155624
  29 S :    0.467338
  30 C :   -0.042612
  31 C :   -0.014567
  32 C :   -0.015582
  33 N :   -0.051438
  34 C :    0.064148
  35 C :    0.064945
  36 N :   -0.051165
  37 F :   -0.022133
  38 F :   -0.022669
  39 C :   -0.040126
  40 C :   -0.037014
  41 C :   -0.036458
  42 N :   -0.278541
  43 S :    0.675125
  44 N :   -0.277970
  45 C :   -0.157708
  46 C :   -0.047450
  47 C :   -0.183097
  48 C :   -0.218722
  49 S :    0.464657
  50 C :   -0.197041
  51 C :   -0.184582
  52 S :    0.410154
  53 C :   -0.024603
  54 C :   -0.176783
  55 S :    0.453274
  56 C :    0.046726
  57 C :   -0.096185
  58 C :    0.066215
  59 C :   -0.144445
  60 C :   -0.020974
  61 N :   -0.054380
  62 C :   -0.020577
  63 N :   -0.041198
  64 C :   -0.019630
  65 C :   -0.055203
  66 C :    0.082718
  67 O :   -0.145945
  68 C :    0.023653
  69 C :   -0.036355
  70 C :   -0.145200
  71 C :   -0.012753
  72 S :    0.428239
  73 C :   -0.150261
  74 C :   -0.057420
  75 H :    0.040200
  76 H :    0.040599
  77 H :    0.029100
  78 H :    0.035011
  79 H :    0.050558
  80 H :    0.041625
  81 H :    0.032300
  82 H :    0.032724
  83 H :    0.037833
  84 H :    0.046200
  85 H :    0.040711
  86 H :    0.040195
  87 H :    0.028997
  88 H :    0.035167

  Mayer bond orders larger than 0.100000
B(  0-C ,  1-C ) :   1.6131 B(  0-C ,  6-C ) :   0.9992 B(  0-C , 17-C ) :   1.0832
B(  1-C ,  2-C ) :   1.1482 B(  1-C ,  4-C ) :   1.1483 B(  2-C ,  3-N ) :   2.9676
B(  4-C ,  5-N ) :   2.9563 B(  6-C ,  7-C ) :   1.2706 B(  6-C , 11-C ) :   1.4137
B(  7-C ,  8-C ) :   1.4227 B(  7-C , 15-C ) :   0.9631 B(  8-C ,  9-C ) :   1.2408
B(  8-C , 75-H ) :   1.0180 B(  9-C , 10-C ) :   1.3040 B(  9-C , 14-C ) :   1.1735
B( 10-C , 11-C ) :   1.3194 B( 10-C , 12-S ) :   1.1002 B( 11-C , 76-H ) :   0.9831
B( 12-S , 13-C ) :   1.1273 B( 13-C , 14-C ) :   1.6266 B( 13-C , 77-H ) :   0.9685
B( 14-C , 78-H ) :   0.9994 B( 15-C , 16-O ) :   2.1277 B( 15-C , 17-C ) :   0.9746
B( 17-C , 18-C ) :   1.4935 B( 18-C , 19-C ) :   1.2709 B( 18-C , 79-H ) :   0.9379
B( 19-C , 20-C ) :   1.3634 B( 19-C , 23-S ) :   1.0732 B( 20-C , 21-C ) :   1.3311
B( 20-C , 80-H ) :   1.0128 B( 21-C , 22-C ) :   1.3733 B( 21-C , 26-S ) :   1.0324
B( 22-C , 23-S ) :   1.0567 B( 22-C , 24-C ) :   1.3276 B( 24-C , 25-C ) :   1.4172
B( 24-C , 29-S ) :   1.0313 B( 25-C , 26-S ) :   1.0425 B( 25-C , 27-C ) :   1.2718
B( 27-C , 28-C ) :   1.4676 B( 27-C , 81-H ) :   0.9856 B( 28-C , 29-S ) :   1.0923
B( 28-C , 30-C ) :   1.1941 B( 30-C , 31-C ) :   1.2966 B( 30-C , 39-C ) :   0.1264
B( 30-C , 41-C ) :   1.1958 B( 31-C , 32-C ) :   1.1179 B( 31-C , 36-N ) :   1.3815
B( 32-C , 33-N ) :   1.3799 B( 32-C , 39-C ) :   1.2969 B( 33-N , 34-C ) :   1.6575
B( 34-C , 35-C ) :   1.1036 B( 34-C , 38-F ) :   1.1884 B( 35-C , 36-N ) :   1.6601
B( 35-C , 37-F ) :   1.1879 B( 39-C , 40-C ) :   1.1962 B( 39-C , 45-C ) :   1.1951
B( 40-C , 41-C ) :   1.1017 B( 40-C , 44-N ) :   1.5081 B( 41-C , 42-N ) :   1.5079
B( 42-N , 43-S ) :   1.2784 B( 42-N , 44-N ) :   0.1511 B( 43-S , 44-N ) :   1.2788
B( 45-C , 46-C ) :   1.4704 B( 45-C , 49-S ) :   1.0876 B( 46-C , 47-C ) :   1.2672
B( 46-C , 82-H ) :   0.9868 B( 47-C , 48-C ) :   1.4240 B( 47-C , 52-S ) :   1.0458
B( 48-C , 49-S ) :   1.0310 B( 48-C , 50-C ) :   1.3218 B( 50-C , 51-C ) :   1.4185
B( 50-C , 55-S ) :   1.0948 B( 51-C , 52-S ) :   1.0460 B( 51-C , 53-C ) :   1.3428
B( 53-C , 54-C ) :   1.4441 B( 53-C , 83-H ) :   0.9892 B( 54-C , 55-S ) :   1.0795
B( 54-C , 56-C ) :   1.1408 B( 56-C , 57-C ) :   1.6633 B( 56-C , 84-H ) :   0.9270
B( 57-C , 58-C ) :   1.0433 B( 57-C , 66-C ) :   0.9438 B( 58-C , 59-C ) :   1.6389
B( 58-C , 64-C ) :   1.0128 B( 59-C , 60-C ) :   1.1281 B( 59-C , 62-C ) :   1.1675
B( 60-C , 61-N ) :   2.9898 B( 62-C , 63-N ) :   3.0084 B( 64-C , 65-C ) :   1.2703
B( 64-C , 71-C ) :   1.4161 B( 65-C , 66-C ) :   0.9238 B( 65-C , 68-C ) :   1.4279
B( 66-C , 67-O ) :   2.2611 B( 68-C , 69-C ) :   1.2510 B( 68-C , 85-H ) :   1.0161
B( 69-C , 70-C ) :   1.3047 B( 69-C , 74-C ) :   1.1712 B( 70-C , 71-C ) :   1.3193
B( 70-C , 72-S ) :   1.0964 B( 71-C , 86-H ) :   0.9858 B( 72-S , 73-C ) :   1.1261
B( 73-C , 74-C ) :   1.6305 B( 73-C , 87-H ) :   0.9683 B( 74-C , 88-H ) :   0.9995

-----------------------------------------------------------------------------
         ABSORPTION SPECTRUM VIA TRANSITION ELECTRIC DIPOLE MOMENTS
-----------------------------------------------------------------------------
State   Energy  Wavelength   fosc         T2         TX        TY        TZ
        (cm-1)    (nm)                  (au**2)     (au)      (au)      (au)
-----------------------------------------------------------------------------
   0    9931.3   1006.9   1.210562433  40.12896  -5.39516   2.86784  -1.67233
   1   17877.1    559.4   0.074639324   1.37451   0.21283   1.02779  -0.52235
   2   19073.2    524.3   0.778522996  13.43767  -2.91353   1.59869  -1.54699
   3   19933.9    501.7   0.206355479   3.40799   1.79643  -0.29520   0.30610
   4   20163.5    495.9   0.459791665   7.50706   2.65636   0.15115   0.65420
   5   20399.7    490.2   0.012223372   0.19726  -0.16694  -0.37306  -0.17384
   6   25122.2    398.1   0.104967666   1.37554   0.97982  -0.41549   0.49281
   7   25520.6    391.8   0.032030538   0.41319   0.62615  -0.11070   0.09419
   8   26065.2    383.7   0.078916266   0.99674  -0.41585   0.90142  -0.10605
   9   26279.5    380.5   0.004484568   0.05618  -0.12764   0.11203   0.16534
  10   26563.1    376.5   0.064077245   0.79415   0.05297   0.72631   0.51363
  11   26796.1    373.2   0.067453193   0.82872   0.28363   0.78277   0.36817
  12   27112.4    368.8   0.351616568   4.26951  -1.85367   0.89461  -0.18194
  13   27137.1    368.5   0.057632651   0.69917  -0.75325  -0.16375  -0.32399
  14   28318.0    353.1   0.112485550   1.30771   0.61482  -0.78764   0.55616
  15   28594.0    349.7   0.030126325   0.34685  -0.38394  -0.44316  -0.05524
  16   28691.5    348.5   0.086076610   0.98766   0.68346   0.67117   0.26472
  17   29029.0    344.5   0.020967717   0.23779  -0.19603   0.42764   0.12841
  18   29522.3    338.7   0.008894860   0.09919   0.22949   0.16999   0.13277
  19   29741.7    336.2   0.005083758   0.05627   0.10873   0.20155   0.06188
  20   30200.0    331.1   0.138961660   1.51483   0.22906   1.16046   0.34012
  21   30287.4    330.2   0.019593002   0.21297  -0.43788  -0.07489  -0.12498
  22   30498.5    327.9   0.110310976   1.19074  -0.15855  -1.02964  -0.32472
  23   30848.8    324.2   0.157928914   1.68539  -1.22313   0.39677  -0.17865
  24   31379.9    318.7   0.214131097   2.24648   1.17005   0.79101   0.50176
  25   31525.1    317.2   0.249739360   2.60799  -1.01934   1.24188   0.16331
  26   32205.4    310.5   0.175218585   1.79113  -0.54195   1.21378   0.15541
  27   32406.2    308.6   0.049541080   0.50328  -0.48879   0.39620  -0.32771
  28   32516.0    307.5   0.001182190   0.01197  -0.06661   0.08467  -0.01906
  29   32583.0    306.9   0.002555133   0.02582  -0.15182  -0.02117  -0.04816
  30   33044.7    302.6   0.151042226   1.50478   1.17690   0.29082   0.18736
  31   33228.6    300.9   0.178617799   1.76965   0.18940  -1.24989  -0.41420
  32   33715.3    296.6   0.066720916   0.65149  -0.63646   0.44235  -0.22524
  33   33973.8    294.3   0.083804757   0.81208  -0.60526  -0.54126  -0.39088
  34   34382.2    290.8   0.249270663   2.38678   0.12677  -1.48383  -0.41106
  35   34864.2    286.8   0.044239081   0.41774  -0.20876   0.50291   0.34819
  36   35037.4    285.4   0.135154925   1.26992   0.74838  -0.83362  -0.12218
  37   35079.2    285.1   0.145603036   1.36646  -1.01506  -0.53155  -0.23141
  38   35207.7    284.0   0.011450123   0.10707   0.23931  -0.22225  -0.02005
  39   35338.6    283.0   0.304777879   2.83929  -0.49259   1.56046   0.40201
  40   35532.6    281.4   0.113288888   1.04963   0.23667  -0.90998  -0.40689
  41   35573.7    281.1   0.126563314   1.17126  -0.12416  -1.05045  -0.22893
  42   35808.4    279.3   0.012994700   0.11947   0.23455   0.16039   0.19681
  43   35868.3    278.8   0.004875739   0.04475  -0.08740   0.15308  -0.11696
  44   36125.4    276.8   0.011249545   0.10252   0.27470  -0.13149   0.09882
  45   36209.5    276.2   0.089733317   0.81584   0.79899  -0.34398   0.24319
  46   36416.9    274.6   0.047517791   0.42957  -0.45825  -0.29794  -0.36167
  47   36615.0    273.1   0.004060497   0.03651  -0.18227   0.01901  -0.05409
  48   37620.9    265.8   0.346289799   3.03031   1.18569   1.20922   0.40280
  49   37951.9    263.5   0.056890629   0.49350  -0.44279  -0.45948  -0.29379
  50   38175.8    261.9   0.004638030   0.04000   0.10339  -0.14780   0.08638
  51   38199.8    261.8   0.022174234   0.19110  -0.09590   0.39711   0.15559
  52   39074.9    255.9   0.181337741   1.52780  -1.16465  -0.21570  -0.35335
  53   39104.8    255.7   0.071169916   0.59916   0.70400  -0.28962   0.14023
  54   39262.2    254.7   0.015700078   0.13164   0.26479  -0.14043  -0.20448
  55   39619.5    252.4   0.034955494   0.29046  -0.49334   0.00971  -0.21675
  56   39692.1    251.9   0.001049213   0.00870  -0.07964   0.03336   0.03532
  57   39832.9    251.0   0.084088391   0.69498  -0.54642  -0.10120  -0.62142

FINAL SINGLE POINT ENERGY     -6433.334030039467

DIPOLE MOMENT
-------------
                                X             Y             Z
Electronic contribution:      4.80580     -12.17246       3.62388
Nuclear contribution   :     -7.55183      13.85150      -2.48758
                        -----------------------------------------
Total Dipole Moment    :     -2.74603       1.67904       1.13630
                        -----------------------------------------
Magnitude (a.u.)       :      3.41336
Magnitude (Debye)      :      8.67608

Rotational constants in cm-1:     0.002064     0.000155     0.000146
Rotational constants in MHz :    61.888358     4.641462     4.375248

                             ****ORCA TERMINATED NORMALLY****
TOTAL RUN TIME: 0 days 0 hours 8 minutes 58 seconds 263 msec
