                         Program Version 4.2.0 -  RELEASE  -
|  1> # ORCA input file
|  2> # SCF done       -205.122022163187          0.000690491380
|  3> ! CAM-B3LYP def2-SVP def2/J RIJCOSX Grid4 TightSCF
|  4> %maxcore 5000
|  5> %tddft
|  6>     Mode sTDDFT
|  7>     Ethresh 5.0
|  8>     maxcore 5000
|  9> end
| 10>
| 11> %pal
| 12>   nprocs 6
| 13>   end
| 14> * xyz 0 1
| 15>    C       -3.22701         1.23960         8.70893
| 16>    C       -3.12779        -0.07551         8.33509
| 17>    C       -2.39085        -1.04496         9.04901
| 18>    N       -1.81897        -1.88548         9.58209
| 19>    C       -3.69343        -0.66077         7.18195
| 20>    N       -4.09832        -1.22366         6.26625
| 21>    C       -2.55018         1.83787         9.85151
| 22>    C       -2.75933         3.23846         9.81734
| 23>    C       -2.23466         4.09098        10.75906
| 24>    C       -1.47281         3.53450        11.79013
| 25>    C       -1.27530         2.13247        11.82197
| 26>    C       -1.80113         1.27144        10.86625
| 27>    S       -0.31119         1.66511        13.18687
| 28>    C       -0.18106         3.31451        13.69072
| 29>    C       -0.82761         4.18157        12.88120
| 30>    C       -3.59789         3.58754         8.65894
| 31>    O       -3.91465         4.71114         8.32981
| 32>    C       -3.95698         2.29557         8.01842
| 33>    C       -4.88046         2.05680         7.04021
| 34>    C       -5.68809         2.93169         6.28213
| 35>    C       -5.75292         4.30978         6.17131
| 36>    C       -6.73506         4.73916         5.28684
| 37>   Cl       -7.02925         6.39737         4.96740
| 38>    C       -7.46336         3.70711         4.68204
| 39>    S       -6.87087         2.17520         5.23784
| 40>    C       -8.54285         3.82187         3.78178
| 41>    C       -9.28355         2.79464         3.19449
| 42>   Cl       -8.95283         1.13322         3.44966
| 43>    C      -10.32606         3.23439         2.38943
| 44>    C      -10.41422         4.61536         2.33113
| 45>    S       -9.16773         5.37171         3.27613
| 46>    C      -11.38790         5.39534         1.65781
| 47>    C      -11.33072         6.80622         1.70828
| 48>    C      -12.34045         7.63981         1.11503
| 49>    N      -12.23347         8.96896         1.20236
| 50>    C      -11.21462         9.50764         1.82752
| 51>    C      -10.21280         8.67655         2.42674
| 52>    N      -10.30241         7.37082         2.34835
| 53>    C       -9.11366         9.24989         3.11320
| 54>    N       -8.23577         9.73781         3.66323
| 55>    C      -11.12304        10.91981         1.90070
| 56>    N      -11.02886        12.05870         1.97454
| 57>    C      -13.46863         7.10754         0.45183
| 58>    C      -13.50753         5.69676         0.35595
| 59>    C      -12.48354         4.85680         0.94291
| 60>    N      -12.73226         3.56445         0.73200
| 61>    S      -14.08985         3.41353        -0.10861
| 62>    N      -14.44688         4.97063        -0.24968
| 63>    C      -14.48352         7.96934        -0.03464
| 64>    C      -15.67294         7.61559        -0.64973
| 65>    C      -16.46953         8.71211        -0.95198
| 66>   Cl      -18.00134         8.56167        -1.70663
| 67>    C      -15.91219         9.93896        -0.59074
| 68>    S      -14.34949         9.69220         0.14588
| 69>    C      -16.46674        11.22464        -0.75526
| 70>    C      -15.88052        12.46159        -0.48020
| 71>   Cl      -14.29182        12.62564         0.14074
| 72>    C      -16.70633        13.55017        -0.74611
| 73>    C      -17.94408        13.19106        -1.24859
| 74>    S      -18.07799        11.45883        -1.35841
| 75>    C      -19.01543        14.07781        -1.51233
| 76>    C      -20.20918        13.84079        -2.11646
| 77>    C      -20.70622        12.73190        -2.90638
| 78>    C      -19.98462        12.00670        -3.81679
| 79>    C      -20.53211        10.98293        -4.61504
| 80>    N      -20.93010        10.12707        -5.26798
| 81>    C      -18.63407        12.28262        -4.11788
| 82>    N      -17.55503        12.52080        -4.42739
| 83>    C      -22.15762        12.73174        -2.77779
| 84>    C      -22.55775        13.95195        -2.17144
| 85>    C      -21.36259        14.74315        -1.82668
| 86>    O      -21.31033        15.85402        -1.35344
| 87>    C      -23.87855        14.26520        -1.95604
| 88>    C      -24.84352        13.33029        -2.34298
| 89>    C      -24.43149        12.11115        -2.93487
| 90>    C      -23.09695        11.79658        -3.16410
| 91>    S      -25.79306        11.10737        -3.31862
| 92>    C      -26.88019        12.30310        -2.70167
| 93>    C      -26.26037        13.40530        -2.22684
| 94>    H       -2.41028         5.15392        10.70028
| 95>    H       -1.62416         0.21153        10.93827
| 96>    H        0.38037         3.53621        14.57747
| 97>    H       -0.85650         5.24467        13.03747
| 98>    H       -5.06762         1.01490         6.80595
| 99>    H       -5.11347         4.97529         6.72198
|100>    H      -11.00368         2.58520         1.86739
|101>    H      -15.93980         6.59654        -0.85830
|102>    H      -16.40488        14.57016        -0.59372
|103>    H      -18.90962        15.06761        -1.07783
|104>    H      -24.15837        15.20299        -1.50186
|105>    H      -22.82468        10.85478        -3.61178
|106>    H      -27.93345        12.10234        -2.73284
|107>    H      -26.77363        14.25032        -1.80501
|108> *
|109>
|110>                          ****END OF INPUT****

CARTESIAN COORDINATES (ANGSTROEM)
---------------------------------
  C     -3.227010    1.239600    8.708930
  C     -3.127790   -0.075510    8.335090
  C     -2.390850   -1.044960    9.049010
  N     -1.818970   -1.885480    9.582090
  C     -3.693430   -0.660770    7.181950
  N     -4.098320   -1.223660    6.266250
  C     -2.550180    1.837870    9.851510
  C     -2.759330    3.238460    9.817340
  C     -2.234660    4.090980   10.759060
  C     -1.472810    3.534500   11.790130
  C     -1.275300    2.132470   11.821970
  C     -1.801130    1.271440   10.866250
  S     -0.311190    1.665110   13.186870
  C     -0.181060    3.314510   13.690720
  C     -0.827610    4.181570   12.881200
  C     -3.597890    3.587540    8.658940
  O     -3.914650    4.711140    8.329810
  C     -3.956980    2.295570    8.018420
  C     -4.880460    2.056800    7.040210
  C     -5.688090    2.931690    6.282130
  C     -5.752920    4.309780    6.171310
  C     -6.735060    4.739160    5.286840
  Cl    -7.029250    6.397370    4.967400
  C     -7.463360    3.707110    4.682040
  S     -6.870870    2.175200    5.237840
  C     -8.542850    3.821870    3.781780
  C     -9.283550    2.794640    3.194490
  Cl    -8.952830    1.133220    3.449660
  C    -10.326060    3.234390    2.389430
  C    -10.414220    4.615360    2.331130
  S     -9.167730    5.371710    3.276130
  C    -11.387900    5.395340    1.657810
  C    -11.330720    6.806220    1.708280
  C    -12.340450    7.639810    1.115030
  N    -12.233470    8.968960    1.202360
  C    -11.214620    9.507640    1.827520
  C    -10.212800    8.676550    2.426740
  N    -10.302410    7.370820    2.348350
  C     -9.113660    9.249890    3.113200
  N     -8.235770    9.737810    3.663230
  C    -11.123040   10.919810    1.900700
  N    -11.028860   12.058700    1.974540
  C    -13.468630    7.107540    0.451830
  C    -13.507530    5.696760    0.355950
  C    -12.483540    4.856800    0.942910
  N    -12.732260    3.564450    0.732000
  S    -14.089850    3.413530   -0.108610
  N    -14.446880    4.970630   -0.249680
  C    -14.483520    7.969340   -0.034640
  C    -15.672940    7.615590   -0.649730
  C    -16.469530    8.712110   -0.951980
  Cl   -18.001340    8.561670   -1.706630
  C    -15.912190    9.938960   -0.590740
  S    -14.349490    9.692200    0.145880
  C    -16.466740   11.224640   -0.755260
  C    -15.880520   12.461590   -0.480200
  Cl   -14.291820   12.625640    0.140740
  C    -16.706330   13.550170   -0.746110
  C    -17.944080   13.191060   -1.248590
  S    -18.077990   11.458830   -1.358410
  C    -19.015430   14.077810   -1.512330
  C    -20.209180   13.840790   -2.116460
  C    -20.706220   12.731900   -2.906380
  C    -19.984620   12.006700   -3.816790
  C    -20.532110   10.982930   -4.615040
  N    -20.930100   10.127070   -5.267980
  C    -18.634070   12.282620   -4.117880
  N    -17.555030   12.520800   -4.427390
  C    -22.157620   12.731740   -2.777790
  C    -22.557750   13.951950   -2.171440
  C    -21.362590   14.743150   -1.826680
  O    -21.310330   15.854020   -1.353440
  C    -23.878550   14.265200   -1.956040
  C    -24.843520   13.330290   -2.342980
  C    -24.431490   12.111150   -2.934870
  C    -23.096950   11.796580   -3.164100
  S    -25.793060   11.107370   -3.318620
  C    -26.880190   12.303100   -2.701670
  C    -26.260370   13.405300   -2.226840
  H     -2.410280    5.153920   10.700280
  H     -1.624160    0.211530   10.938270
  H      0.380370    3.536210   14.577470
  H     -0.856500    5.244670   13.037470
  H     -5.067620    1.014900    6.805950
  H     -5.113470    4.975290    6.721980
  H    -11.003680    2.585200    1.867390
  H    -15.939800    6.596540   -0.858300
  H    -16.404880   14.570160   -0.593720
  H    -18.909620   15.067610   -1.077830
  H    -24.158370   15.202990   -1.501860
  H    -22.824680   10.854780   -3.611780
  H    -27.933450   12.102340   -2.732840
  H    -26.773630   14.250320   -1.805010

 Total Charge           Charge          ....    0
 Multiplicity           Mult            ....    1
 Number of Electrons    NEL             ....  616
 Basis Dimension        Dim             .... 1220

ORBITAL ENERGIES
----------------

  NO   OCC          E(Eh)            E(eV)
   0   2.0000    -101.604848     -2764.8085
   1   2.0000    -101.604795     -2764.8070
   2   2.0000    -101.602912     -2764.7558
   3   2.0000    -101.600705     -2764.6957
   4   2.0000     -89.060269     -2423.4531
   5   2.0000     -88.975903     -2421.1574
   6   2.0000     -88.975244     -2421.1395
   7   2.0000     -88.971876     -2421.0478
   8   2.0000     -88.971789     -2421.0455
   9   2.0000     -88.967479     -2420.9282
  10   2.0000     -88.966445     -2420.9001
  11   2.0000     -19.219553      -522.9906
  12   2.0000     -19.214671      -522.8578
  13   2.0000     -14.479799      -394.0154
  14   2.0000     -14.479598      -394.0099
  15   2.0000     -14.469363      -393.7314
  16   2.0000     -14.469190      -393.7267
  17   2.0000     -14.442241      -392.9934
  18   2.0000     -14.442157      -392.9911
  19   2.0000     -14.416799      -392.3010
  20   2.0000     -14.415775      -392.2732
  21   2.0000     -14.413502      -392.2113
  22   2.0000     -14.411988      -392.1701
  23   2.0000     -10.398887      -282.9681
  24   2.0000     -10.398626      -282.9610
  25   2.0000     -10.370420      -282.1935
  26   2.0000     -10.366590      -282.0893
  27   2.0000     -10.361716      -281.9566
  28   2.0000     -10.361446      -281.9493
  29   2.0000     -10.359968      -281.9091
  30   2.0000     -10.359729      -281.9026
  31   2.0000     -10.344170      -281.4792
  32   2.0000     -10.342917      -281.4451
  33   2.0000     -10.342291      -281.4281
  34   2.0000     -10.341671      -281.4112
  35   2.0000     -10.341609      -281.4095
  36   2.0000     -10.341393      -281.4036
  37   2.0000     -10.341039      -281.3940
  38   2.0000     -10.340879      -281.3896
  39   2.0000     -10.337236      -281.2905
  40   2.0000     -10.336178      -281.2617
  41   2.0000     -10.335508      -281.2435
  42   2.0000     -10.335318      -281.2383
  43   2.0000     -10.334537      -281.2171
  44   2.0000     -10.334090      -281.2049
  45   2.0000     -10.325821      -280.9799
  46   2.0000     -10.325789      -280.9790
  47   2.0000     -10.324648      -280.9479
  48   2.0000     -10.324299      -280.9385
  49   2.0000     -10.324145      -280.9343
  50   2.0000     -10.322129      -280.8794
  51   2.0000     -10.321940      -280.8743
  52   2.0000     -10.320837      -280.8442
  53   2.0000     -10.320447      -280.8336
  54   2.0000     -10.319078      -280.7964
  55   2.0000     -10.318919      -280.7921
  56   2.0000     -10.318650      -280.7848
  57   2.0000     -10.316591      -280.7287
  58   2.0000     -10.314849      -280.6813
  59   2.0000     -10.314164      -280.6627
  60   2.0000     -10.314015      -280.6586
  61   2.0000     -10.308341      -280.5042
  62   2.0000     -10.306066      -280.4423
  63   2.0000     -10.304565      -280.4015
  64   2.0000     -10.303015      -280.3593
  65   2.0000     -10.302974      -280.3582
  66   2.0000     -10.302576      -280.3473
  67   2.0000     -10.302053      -280.3331
  68   2.0000     -10.301778      -280.3256
  69   2.0000     -10.300261      -280.2844
  70   2.0000     -10.299000      -280.2500
  71   2.0000     -10.298726      -280.2426
  72   2.0000     -10.295799      -280.1629
  73   2.0000     -10.295459      -280.1537
  74   2.0000     -10.292203      -280.0651
  75   2.0000     -10.291980      -280.0590
  76   2.0000     -10.290031      -280.0060
  77   2.0000     -10.289999      -280.0051
  78   2.0000     -10.289017      -279.9784
  79   2.0000      -9.559585      -260.1295
  80   2.0000      -9.559567      -260.1290
  81   2.0000      -9.557497      -260.0727
  82   2.0000      -9.555312      -260.0133
  83   2.0000      -8.151481      -221.8131
  84   2.0000      -8.070240      -219.6024
  85   2.0000      -8.070121      -219.5991
  86   2.0000      -8.065008      -219.4600
  87   2.0000      -8.064927      -219.4578
  88   2.0000      -8.063861      -219.4288
  89   2.0000      -8.062757      -219.3988
  90   2.0000      -7.329662      -199.4503
  91   2.0000      -7.329628      -199.4493
  92   2.0000      -7.327682      -199.3964
  93   2.0000      -7.325461      -199.3359
  94   2.0000      -7.319676      -199.1785
  95   2.0000      -7.319676      -199.1785
  96   2.0000      -7.319605      -199.1766
  97   2.0000      -7.319569      -199.1756
  98   2.0000      -7.317585      -199.1216
  99   2.0000      -7.317407      -199.1168
 100   2.0000      -7.315428      -199.0629
 101   2.0000      -7.315211      -199.0570
 102   2.0000      -6.122585      -166.6040
 103   2.0000      -6.114645      -166.3879
 104   2.0000      -6.114350      -166.3799
 105   2.0000      -6.039755      -164.3501
 106   2.0000      -6.039432      -164.3413
 107   2.0000      -6.035333      -164.2298
 108   2.0000      -6.035212      -164.2265
 109   2.0000      -6.034805      -164.2154
 110   2.0000      -6.034659      -164.2114
 111   2.0000      -6.033376      -164.1765
 112   2.0000      -6.032270      -164.1464
 113   2.0000      -6.032143      -164.1429
 114   2.0000      -6.032087      -164.1414
 115   2.0000      -6.029900      -164.0819
 116   2.0000      -6.029851      -164.0806
 117   2.0000      -6.029072      -164.0594
 118   2.0000      -6.027961      -164.0291
 119   2.0000      -6.026694      -163.9947
 120   2.0000      -6.026637      -163.9931
 121   2.0000      -6.025489      -163.9619
 122   2.0000      -6.024408      -163.9325
 123   2.0000      -1.157792       -31.5051
 124   2.0000      -1.140229       -31.0272
 125   2.0000      -1.134667       -30.8759
 126   2.0000      -1.130392       -30.7595
 127   2.0000      -1.068657       -29.0796
 128   2.0000      -1.033863       -28.1328
 129   2.0000      -1.032216       -28.0880
 130   2.0000      -1.026826       -27.9414
 131   2.0000      -1.021041       -27.7839
 132   2.0000      -1.020143       -27.7595
 133   2.0000      -1.017809       -27.6960
 134   2.0000      -1.013420       -27.5766
 135   2.0000      -1.010462       -27.4961
 136   2.0000      -1.008236       -27.4355
 137   2.0000      -1.007998       -27.4290
 138   2.0000      -1.004971       -27.3467
 139   2.0000      -0.993286       -27.0287
 140   2.0000      -0.993143       -27.0248
 141   2.0000      -0.992484       -27.0069
 142   2.0000      -0.985638       -26.8206
 143   2.0000      -0.985164       -26.8077
 144   2.0000      -0.967004       -26.3135
 145   2.0000      -0.963875       -26.2284
 146   2.0000      -0.957632       -26.0585
 147   2.0000      -0.952769       -25.9262
 148   2.0000      -0.930842       -25.3295
 149   2.0000      -0.930596       -25.3228
 150   2.0000      -0.924228       -25.1495
 151   2.0000      -0.915088       -24.9008
 152   2.0000      -0.906998       -24.6807
 153   2.0000      -0.902661       -24.5627
 154   2.0000      -0.888000       -24.1637
 155   2.0000      -0.882926       -24.0256
 156   2.0000      -0.881763       -23.9940
 157   2.0000      -0.880636       -23.9633
 158   2.0000      -0.863550       -23.4984
 159   2.0000      -0.858551       -23.3624
 160   2.0000      -0.850573       -23.1453
 161   2.0000      -0.836243       -22.7553
 162   2.0000      -0.832441       -22.6519
 163   2.0000      -0.831391       -22.6233
 164   2.0000      -0.824259       -22.4292
 165   2.0000      -0.823513       -22.4089
 166   2.0000      -0.822488       -22.3810
 167   2.0000      -0.818331       -22.2679
 168   2.0000      -0.813364       -22.1328
 169   2.0000      -0.797481       -21.7006
 170   2.0000      -0.779954       -21.2236
 171   2.0000      -0.767905       -20.8958
 172   2.0000      -0.758550       -20.6412
 173   2.0000      -0.756830       -20.5944
 174   2.0000      -0.753689       -20.5089
 175   2.0000      -0.739071       -20.1111
 176   2.0000      -0.722402       -19.6576
 177   2.0000      -0.721239       -19.6259
 178   2.0000      -0.718906       -19.5624
 179   2.0000      -0.709539       -19.3075
 180   2.0000      -0.698103       -18.9964
 181   2.0000      -0.694458       -18.8972
 182   2.0000      -0.690123       -18.7792
 183   2.0000      -0.686958       -18.6931
 184   2.0000      -0.685079       -18.6420
 185   2.0000      -0.676263       -18.4021
 186   2.0000      -0.668063       -18.1789
 187   2.0000      -0.663116       -18.0443
 188   2.0000      -0.662676       -18.0323
 189   2.0000      -0.660777       -17.9807
 190   2.0000      -0.656491       -17.8640
 191   2.0000      -0.648031       -17.6338
 192   2.0000      -0.639967       -17.4144
 193   2.0000      -0.637450       -17.3459
 194   2.0000      -0.631756       -17.1910
 195   2.0000      -0.627224       -17.0676
 196   2.0000      -0.620985       -16.8979
 197   2.0000      -0.619767       -16.8647
 198   2.0000      -0.615235       -16.7414
 199   2.0000      -0.610909       -16.6237
 200   2.0000      -0.606412       -16.5013
 201   2.0000      -0.597304       -16.2535
 202   2.0000      -0.596115       -16.2211
 203   2.0000      -0.594818       -16.1858
 204   2.0000      -0.586647       -15.9635
 205   2.0000      -0.585161       -15.9230
 206   2.0000      -0.578733       -15.7481
 207   2.0000      -0.572884       -15.5890
 208   2.0000      -0.570929       -15.5358
 209   2.0000      -0.560714       -15.2578
 210   2.0000      -0.557864       -15.1803
 211   2.0000      -0.549995       -14.9661
 212   2.0000      -0.547966       -14.9109
 213   2.0000      -0.543419       -14.7872
 214   2.0000      -0.541475       -14.7343
 215   2.0000      -0.540285       -14.7019
 216   2.0000      -0.538659       -14.6577
 217   2.0000      -0.536966       -14.6116
 218   2.0000      -0.534181       -14.5358
 219   2.0000      -0.533236       -14.5101
 220   2.0000      -0.531558       -14.4644
 221   2.0000      -0.529905       -14.4194
 222   2.0000      -0.529495       -14.4083
 223   2.0000      -0.524930       -14.2841
 224   2.0000      -0.519128       -14.1262
 225   2.0000      -0.517828       -14.0908
 226   2.0000      -0.513470       -13.9722
 227   2.0000      -0.511725       -13.9247
 228   2.0000      -0.509879       -13.8745
 229   2.0000      -0.507117       -13.7993
 230   2.0000      -0.505255       -13.7487
 231   2.0000      -0.502743       -13.6803
 232   2.0000      -0.502602       -13.6765
 233   2.0000      -0.502166       -13.6646
 234   2.0000      -0.501231       -13.6392
 235   2.0000      -0.499841       -13.6014
 236   2.0000      -0.494899       -13.4669
 237   2.0000      -0.493540       -13.4299
 238   2.0000      -0.492469       -13.4008
 239   2.0000      -0.491231       -13.3671
 240   2.0000      -0.490131       -13.3371
 241   2.0000      -0.487877       -13.2758
 242   2.0000      -0.484414       -13.1816
 243   2.0000      -0.482613       -13.1326
 244   2.0000      -0.476529       -12.9670
 245   2.0000      -0.471858       -12.8399
 246   2.0000      -0.471019       -12.8171
 247   2.0000      -0.467246       -12.7144
 248   2.0000      -0.465202       -12.6588
 249   2.0000      -0.463678       -12.6173
 250   2.0000      -0.462223       -12.5777
 251   2.0000      -0.461293       -12.5524
 252   2.0000      -0.456359       -12.4182
 253   2.0000      -0.454829       -12.3765
 254   2.0000      -0.452714       -12.3190
 255   2.0000      -0.451124       -12.2757
 256   2.0000      -0.449493       -12.2313
 257   2.0000      -0.448785       -12.2121
 258   2.0000      -0.447789       -12.1850
 259   2.0000      -0.444419       -12.0932
 260   2.0000      -0.442485       -12.0406
 261   2.0000      -0.441643       -12.0177
 262   2.0000      -0.440877       -11.9969
 263   2.0000      -0.439711       -11.9651
 264   2.0000      -0.438382       -11.9290
 265   2.0000      -0.435450       -11.8492
 266   2.0000      -0.432702       -11.7744
 267   2.0000      -0.432623       -11.7723
 268   2.0000      -0.432440       -11.7673
 269   2.0000      -0.431184       -11.7331
 270   2.0000      -0.428000       -11.6465
 271   2.0000      -0.425740       -11.5850
 272   2.0000      -0.425653       -11.5826
 273   2.0000      -0.421516       -11.4700
 274   2.0000      -0.421205       -11.4616
 275   2.0000      -0.419593       -11.4177
 276   2.0000      -0.417586       -11.3631
 277   2.0000      -0.412956       -11.2371
 278   2.0000      -0.409372       -11.1396
 279   2.0000      -0.407895       -11.0994
 280   2.0000      -0.405058       -11.0222
 281   2.0000      -0.400728       -10.9044
 282   2.0000      -0.397306       -10.8112
 283   2.0000      -0.392553       -10.6819
 284   2.0000      -0.387646       -10.5484
 285   2.0000      -0.385402       -10.4873
 286   2.0000      -0.384784       -10.4705
 287   2.0000      -0.382358       -10.4045
 288   2.0000      -0.374558       -10.1922
 289   2.0000      -0.371270       -10.1028
 290   2.0000      -0.364008        -9.9052
 291   2.0000      -0.361015        -9.8237
 292   2.0000      -0.352874        -9.6022
 293   2.0000      -0.345577        -9.4036
 294   2.0000      -0.341836        -9.3018
 295   2.0000      -0.339379        -9.2350
 296   2.0000      -0.333466        -9.0741
 297   2.0000      -0.330800        -9.0015
 298   2.0000      -0.328758        -8.9460
 299   2.0000      -0.322002        -8.7621
 300   2.0000      -0.321552        -8.7499
 301   2.0000      -0.314349        -8.5539
 302   2.0000      -0.313919        -8.5422
 303   2.0000      -0.306218        -8.3326
 304   2.0000      -0.295858        -8.0507
 305   2.0000      -0.293857        -7.9963
 306   2.0000      -0.274524        -7.4702
 307   2.0000      -0.245185        -6.6718
 308   0.0000      -0.143156        -3.8955
 309   0.0000      -0.094752        -2.5783
 310   0.0000      -0.092455        -2.5158
 311   0.0000      -0.068157        -1.8546
 312   0.0000      -0.060861        -1.6561

MULLIKEN ATOMIC CHARGES
-----------------------
   0 C :    0.304970
   1 C :   -0.353846
   2 C :   -0.188073
   3 N :    0.151229
   4 C :   -0.197050
   5 N :    0.158654
   6 C :    0.013699
   7 C :   -0.010769
   8 C :   -0.069473
   9 C :    0.115178
  10 C :   -0.094642
  11 C :   -0.022123
  12 S :    0.141274
  13 C :   -0.048313
  14 C :    0.024698
  15 C :    0.154013
  16 O :   -0.152934
  17 C :   -0.081491
  18 C :    0.053346
  19 C :   -0.096716
  20 C :    0.026974
  21 C :    0.054973
  22 Cl:   -0.039490
  23 C :   -0.088462
  24 S :    0.169877
  25 C :   -0.055161
  26 C :    0.076945
  27 Cl:   -0.053456
  28 C :    0.000392
  29 C :   -0.154002
  30 S :    0.170997
  31 C :    0.204193
  32 C :   -0.055980
  33 C :   -0.056855
  34 N :    0.005746
  35 C :   -0.098879
  36 C :   -0.099010
  37 N :    0.005014
  38 C :   -0.238982
  39 N :    0.252623
  40 C :   -0.241508
  41 N :    0.253463
  42 C :    0.208247
  43 C :   -0.016014
  44 C :   -0.016502
  45 N :   -0.285710
  46 S :    0.564921
  47 N :   -0.284918
  48 C :   -0.155325
  49 C :   -0.004246
  50 C :    0.081463
  51 Cl:   -0.056578
  52 C :   -0.055257
  53 S :    0.173042
  54 C :   -0.088538
  55 C :    0.077179
  56 Cl:   -0.042453
  57 C :    0.035843
  58 C :   -0.064604
  59 S :    0.166061
  60 C :    0.060235
  61 C :   -0.129706
  62 C :    0.240866
  63 C :   -0.309986
  64 C :   -0.177442
  65 N :    0.152529
  66 C :   -0.212186
  67 N :    0.177481
  68 C :    0.007072
  69 C :   -0.001056
  70 C :    0.138265
  71 O :   -0.142905
  72 C :   -0.066891
  73 C :    0.107982
  74 C :   -0.089931
  75 C :   -0.023107
  76 S :    0.139775
  77 C :   -0.051848
  78 C :    0.026359
  79 H :   -0.010553
  80 H :   -0.006003
  81 H :    0.038863
  82 H :   -0.005255
  83 H :    0.009843
  84 H :    0.013876
  85 H :   -0.004173
  86 H :   -0.002413
  87 H :   -0.001173
  88 H :    0.023392
  89 H :   -0.009995
  90 H :   -0.004033
  91 H :    0.040023
  92 H :   -0.005558
Sum of atomic charges:   -0.0000000

LOEWDIN ATOMIC CHARGES
----------------------
   0 C :    0.076939
   1 C :   -0.141936
   2 C :   -0.017844
   3 N :   -0.053811
   4 C :   -0.025671
   5 N :   -0.050498
   6 C :   -0.022956
   7 C :   -0.053161
   8 C :    0.023665
   9 C :   -0.034571
  10 C :   -0.145079
  11 C :   -0.008551
  12 S :    0.430355
  13 C :   -0.148825
  14 C :   -0.057684
  15 C :    0.088365
  16 O :   -0.139929
  17 C :   -0.090777
  18 C :    0.044559
  19 C :   -0.181812
  20 C :   -0.025584
  21 C :   -0.169590
  22 Cl:    0.175660
  23 C :   -0.190796
  24 S :    0.471651
  25 C :   -0.208483
  26 C :   -0.167519
  27 Cl:    0.165213
  28 C :   -0.046612
  29 C :   -0.170116
  30 S :    0.490033
  31 C :   -0.035784
  32 C :   -0.012124
  33 C :   -0.012630
  34 N :   -0.010899
  35 C :   -0.018962
  36 C :   -0.018480
  37 N :   -0.011152
  38 C :   -0.038448
  39 N :    0.002628
  40 C :   -0.038139
  41 N :    0.001658
  42 C :   -0.034166
  43 C :   -0.036535
  44 C :   -0.036205
  45 N :   -0.274602
  46 S :    0.688808
  47 N :   -0.273716
  48 C :   -0.170335
  49 C :   -0.045096
  50 C :   -0.166805
  51 Cl:    0.163730
  52 C :   -0.205898
  53 S :    0.490682
  54 C :   -0.186713
  55 C :   -0.168048
  56 Cl:    0.174979
  57 C :   -0.029229
  58 C :   -0.181409
  59 S :    0.489666
  60 C :    0.048951
  61 C :   -0.091742
  62 C :    0.060451
  63 C :   -0.141985
  64 C :   -0.019821
  65 N :   -0.050699
  66 C :   -0.040470
  67 N :   -0.044094
  68 C :   -0.018131
  69 C :   -0.055155
  70 C :    0.084166
  71 O :   -0.142745
  72 C :    0.024492
  73 C :   -0.035962
  74 C :   -0.144581
  75 C :   -0.012120
  76 S :    0.428824
  77 C :   -0.150037
  78 C :   -0.057222
  79 H :    0.040624
  80 H :    0.040788
  81 H :    0.029566
  82 H :    0.035745
  83 H :    0.042956
  84 H :    0.038164
  85 H :    0.034022
  86 H :    0.034585
  87 H :    0.040997
  88 H :    0.052362
  89 H :    0.041061
  90 H :    0.040326
  91 H :    0.029618
  92 H :    0.035655

  Mayer bond orders larger than 0.100000
B(  0-C ,  1-C ) :   1.6252 B(  0-C ,  6-C ) :   1.0005 B(  0-C , 17-C ) :   1.0735
B(  1-C ,  2-C ) :   1.1457 B(  1-C ,  4-C ) :   1.1394 B(  2-C ,  3-N ) :   2.9720
B(  4-C ,  5-N ) :   2.9802 B(  6-C ,  7-C ) :   1.2691 B(  6-C , 11-C ) :   1.4102
B(  7-C ,  8-C ) :   1.4206 B(  7-C , 15-C ) :   0.9571 B(  8-C ,  9-C ) :   1.2464
B(  8-C , 79-H ) :   1.0172 B(  9-C , 10-C ) :   1.2990 B(  9-C , 14-C ) :   1.1724
B( 10-C , 11-C ) :   1.3256 B( 10-C , 12-S ) :   1.0995 B( 11-C , 80-H ) :   0.9826
B( 12-S , 13-C ) :   1.1270 B( 13-C , 14-C ) :   1.6267 B( 13-C , 81-H ) :   0.9688
B( 14-C , 82-H ) :   1.0000 B( 15-C , 16-O ) :   2.1721 B( 15-C , 17-C ) :   0.9350
B( 17-C , 18-C ) :   1.6057 B( 18-C , 19-C ) :   1.2060 B( 18-C , 83-H ) :   0.9132
B( 19-C , 20-C ) :   1.4110 B( 19-C , 24-S ) :   1.0862 B( 20-C , 21-C ) :   1.2958
B( 20-C , 84-H ) :   0.9865 B( 21-C , 22-Cl) :   1.0585 B( 21-C , 23-C ) :   1.3953
B( 23-C , 24-S ) :   1.1588 B( 23-C , 25-C ) :   1.2127 B( 25-C , 26-C ) :   1.4169
B( 25-C , 30-S ) :   1.0807 B( 26-C , 27-Cl) :   1.0394 B( 26-C , 28-C ) :   1.2849
B( 28-C , 29-C ) :   1.4119 B( 28-C , 85-H ) :   0.9960 B( 29-C , 30-S ) :   1.1004
B( 29-C , 31-C ) :   1.2083 B( 31-C , 32-C ) :   1.2515 B( 31-C , 42-C ) :   0.1212
B( 31-C , 44-C ) :   1.1917 B( 32-C , 33-C ) :   1.1146 B( 32-C , 37-N ) :   1.4008
B( 33-C , 34-N ) :   1.4011 B( 33-C , 42-C ) :   1.2484 B( 34-N , 35-C ) :   1.6944
B( 35-C , 36-C ) :   1.2167 B( 35-C , 40-C ) :   1.1705 B( 36-C , 37-N ) :   1.6956
B( 36-C , 38-C ) :   1.1695 B( 38-C , 39-N ) :   3.0341 B( 40-C , 41-N ) :   3.0349
B( 42-C , 43-C ) :   1.1916 B( 42-C , 48-C ) :   1.2095 B( 43-C , 44-C ) :   1.0980
B( 43-C , 47-N ) :   1.5182 B( 44-C , 45-N ) :   1.5188 B( 45-N , 46-S ) :   1.2818
B( 45-N , 47-N ) :   0.1484 B( 46-S , 47-N ) :   1.2831 B( 48-C , 49-C ) :   1.4101
B( 48-C , 53-S ) :   1.0997 B( 49-C , 50-C ) :   1.2835 B( 49-C , 86-H ) :   0.9970
B( 50-C , 51-Cl) :   1.0360 B( 50-C , 52-C ) :   1.4176 B( 52-C , 53-S ) :   1.0796
B( 52-C , 54-C ) :   1.2212 B( 54-C , 55-C ) :   1.4070 B( 54-C , 59-S ) :   1.1541
B( 55-C , 56-Cl) :   1.0483 B( 55-C , 57-C ) :   1.3006 B( 57-C , 58-C ) :   1.4082
B( 57-C , 87-H ) :   1.0108 B( 58-C , 59-S ) :   1.0928 B( 58-C , 60-C ) :   1.1462
B( 60-C , 61-C ) :   1.6554 B( 60-C , 88-H ) :   0.9455 B( 61-C , 62-C ) :   1.0241
B( 61-C , 70-C ) :   0.9366 B( 62-C , 63-C ) :   1.6604 B( 62-C , 68-C ) :   1.0197
B( 63-C , 64-C ) :   1.1337 B( 63-C , 66-C ) :   1.1448 B( 64-C , 65-N ) :   2.9927
B( 66-C , 67-N ) :   3.0340 B( 68-C , 69-C ) :   1.2679 B( 68-C , 75-C ) :   1.4207
B( 69-C , 70-C ) :   0.9253 B( 69-C , 72-C ) :   1.4266 B( 70-C , 71-O ) :   2.2658
B( 72-C , 73-C ) :   1.2555 B( 72-C , 89-H ) :   1.0154 B( 73-C , 74-C ) :   1.3029
B( 73-C , 78-C ) :   1.1715 B( 74-C , 75-C ) :   1.3176 B( 74-C , 76-S ) :   1.0975
B( 75-C , 90-H ) :   0.9868 B( 76-S , 77-C ) :   1.1255 B( 77-C , 78-C ) :   1.6314
B( 77-C , 91-H ) :   0.9684 B( 78-C , 92-H ) :   0.9989

-----------------------------------------------------------------------------
         ABSORPTION SPECTRUM VIA TRANSITION ELECTRIC DIPOLE MOMENTS
-----------------------------------------------------------------------------
State   Energy  Wavelength   fosc         T2         TX        TY        TZ
        (cm-1)    (nm)                  (au**2)     (au)      (au)      (au)
-----------------------------------------------------------------------------
   0    7230.1   1383.1   0.665898929  30.32072  -3.97930   2.87839  -2.49014
   1   15007.2    666.3   0.023290763   0.51093   0.05532   0.38101   0.60224
   2   18923.0    528.5   0.849545131  14.77994   2.99967  -1.58972   1.80409
   3   19746.3    506.4   0.789930670  13.16977  -2.43595   1.47253  -2.25112
   4   21311.2    469.2   0.025623350   0.39583  -0.42498   0.30794  -0.34698
   5   22011.7    454.3   0.012016882   0.17973   0.24354  -0.30859   0.15871
   6   22085.4    452.8   0.001237573   0.01845   0.12958  -0.01255  -0.03871
   7   22523.2    444.0   0.002035972   0.02976  -0.03206   0.03721  -0.16537
   8   23188.8    431.2   0.055341669   0.78569   0.71199   0.02880   0.52719
   9   23915.3    418.1   0.036014019   0.49576  -0.68835   0.07025   0.13037
  10   24358.9    410.5   0.016554896   0.22374  -0.28522   0.36239  -0.10518
  11   24458.0    408.9   0.018304628   0.24639  -0.12155  -0.32187  -0.35778
  12   26142.6    382.5   0.036631715   0.46130  -0.60895  -0.23274  -0.19057
  13   26667.5    375.0   0.019689956   0.24307   0.33792   0.02966   0.35778
  14   26697.8    374.6   0.157256014   1.93914  -1.02787   0.84007  -0.42059
  15   27103.7    369.0   0.038058103   0.46227   0.04290   0.59902   0.31875
  16   27361.1    365.5   0.038115069   0.45861  -0.38071  -0.33822  -0.44640
  17   27577.9    362.6   0.082024846   0.97917   0.47490  -0.60742   0.62023
  18   27912.4    358.3   0.005031295   0.05934   0.18168  -0.14386  -0.07507
  19   27968.8    357.5   0.018187398   0.21408  -0.39400   0.13355  -0.20250
  20   28293.0    353.4   0.001445623   0.01682   0.11254  -0.02637   0.05882
  21   28849.3    346.6   0.052418184   0.59817  -0.63851   0.43627   0.01199
  22   28852.3    346.6   0.253614101   2.89380   1.62632  -0.40769   0.28752
  23   29117.7    343.4   0.132689234   1.50022  -0.71304   0.56053   0.82317
  24   29358.8    340.6   0.311151681   3.48907  -0.96839  -0.74230  -1.41431
  25   29691.6    336.8   0.026387892   0.29258  -0.39817  -0.36561   0.01921
  26   30748.9    325.2   0.042065796   0.45038  -0.17574   0.64767   0.00429
  27   30901.8    323.6   0.444467319   4.73512  -1.07906  -1.71329  -0.79711
  28   31056.0    322.0   0.069210635   0.73367  -0.09336  -0.84631  -0.09335
  29   31356.6    318.9   0.067706237   0.71085   0.47697   0.11902   0.68497
  30   31501.1    317.4   0.039590970   0.41376  -0.27772   0.52082  -0.25569
  31   31557.4    316.9   0.019545415   0.20390   0.21102  -0.35885   0.17492
  32   32330.0    309.3   0.048850764   0.49744   0.03420   0.68426   0.16750
  33   32354.1    309.1   0.080240602   0.81647  -0.82605   0.08121  -0.35710
  34   33167.3    301.5   0.100711281   0.99964  -0.01603   0.85658   0.51542
  35   33570.7    297.9   0.157699765   1.54649  -1.17976  -0.39029  -0.04821
  36   33594.4    297.7   0.047695852   0.46740   0.23870  -0.08171   0.63541
  37   33900.3    295.0   0.095739868   0.92975   0.64385   0.35505   0.62382
  38   33937.6    294.7   0.174188028   1.68971  -0.68724   0.87496   0.67220
  39   34175.1    292.6   0.323195595   3.11337  -0.57944  -1.27491  -1.07341
  40   34490.6    289.9   0.118907891   1.13497   0.74800   0.54520   0.52747
  41   34639.3    288.7   0.238565912   2.26733   0.96854  -0.82404  -0.80636
  42   34731.6    287.9   0.142340091   1.34921   1.10394  -0.10190  -0.34660
  43   34887.7    286.6   0.063894884   0.60293   0.41485   0.11073   0.64697
  44   35022.9    285.5   0.158063986   1.48579  -1.08149  -0.52269  -0.20729
  45   35269.7    283.5   0.008357241   0.07801   0.06450   0.11899   0.24431
  46   35623.2    280.7   0.028649565   0.26476  -0.40384  -0.31225   0.06464
  47   36028.1    277.6   0.149403774   1.36520   0.82874   0.65404   0.50062
  48   36266.7    275.7   0.254322649   2.30862  -0.53136  -1.39416  -0.28740
  49   36309.1    275.4   0.072920930   0.66117  -0.71461   0.25223  -0.29476
  50   36732.1    272.2   0.013838080   0.12402   0.19340   0.28136   0.08635
  51   37287.9    268.2   0.001527812   0.01349  -0.01958  -0.10063  -0.05459
  52   37727.2    265.1   0.003569741   0.03115   0.12210   0.11394  -0.05710
  53   37821.2    264.4   0.086531297   0.75321  -0.56945  -0.57264  -0.31783
  54   38219.3    261.6   0.028888165   0.24884  -0.12949   0.45125  -0.16866
  55   38359.3    260.7   0.022608454   0.19403   0.18962  -0.36769   0.15126
  56   38601.5    259.1   0.017683153   0.15081  -0.29936   0.07882  -0.23448
  57   38743.9    258.1   0.016793472   0.14270   0.18554   0.29641   0.14286
  58   38884.9    257.2   0.077689081   0.65774  -0.28613  -0.73269  -0.19758
  59   38918.4    256.9   0.248141054   2.09903   1.06768   0.81139   0.54839
  60   39276.4    254.6   0.309143086   2.59122  -0.07731  -1.60537   0.08968
  61   39348.3    254.1   0.053750884   0.44971  -0.17418   0.54320   0.35257
  62   39706.5    251.8   0.070611117   0.58545  -0.03549  -0.72969  -0.22747
  63   39801.7    251.2   0.052766370   0.43645   0.11082  -0.49500  -0.42325
  64   39922.8    250.5   0.020519209   0.16921   0.01127   0.39829   0.10219
  65   40002.0    250.0   0.036260800   0.29842   0.42328  -0.20395   0.27869
  66   40213.9    248.7   0.058078577   0.47546   0.46614   0.40494   0.30692

FINAL SINGLE POINT ENERGY     -7463.372270226856

DIPOLE MOMENT
-------------
                                X             Y             Z
Electronic contribution:      5.33811     -10.19243     -19.32237
Nuclear contribution   :     -8.07136      10.21118      21.02701
                        -----------------------------------------
Total Dipole Moment    :     -2.73325       0.01875       1.70464
                        -----------------------------------------
Magnitude (a.u.)       :      3.22130
Magnitude (Debye)      :      8.18790

Rotational constants in cm-1:     0.001877     0.000151     0.000145
Rotational constants in MHz :    56.257499     4.535340     4.355553

                             ****ORCA TERMINATED NORMALLY****
TOTAL RUN TIME: 0 days 0 hours 10 minutes 30 seconds 493 msec
