                         Program Version 4.2.0 -  RELEASE  -
|  1> # ORCA input file
|  2> # SCF done       -177.709578363991          0.000999945709
|  3> ! CAM-B3LYP def2-SVP def2/J RIJCOSX Grid4 TightSCF
|  4> %maxcore 5000
|  5> %tddft
|  6>     Mode sTDDFT
|  7>     Ethresh 5.0
|  8>     maxcore 5000
|  9> end
| 10>
| 11> %pal
| 12>   nprocs 6
| 13>   end
| 14> * xyz 0 1
| 15>    C       -3.49588         2.11839        -4.65667
| 16>    C       -3.96373         1.08359        -5.42464
| 17>    C       -3.54177         0.82556        -6.74357
| 18>    N       -3.22624         0.57622        -7.81873
| 19>    C       -4.87352         0.12034        -4.94155
| 20>    N       -5.57330        -0.71109        -4.57096
| 21>    C       -2.44247         3.05985        -5.00709
| 22>    C       -2.11109         3.81797        -3.85462
| 23>    C       -1.14485         4.79424        -3.86835
| 24>    C       -0.47720         5.03558        -5.07339
| 25>    C       -0.81936         4.27723        -6.21875
| 26>    C       -1.79489         3.28683        -6.20574
| 27>    S        0.12401         4.75605        -7.59412
| 28>    C        0.95270         5.94017        -6.64436
| 29>    C        0.54785         5.98172        -5.35619
| 30>    C       -2.96204         3.39971        -2.72402
| 31>    O       -2.95573         3.84959        -1.59735
| 32>    C       -3.88918         2.38907        -3.29199
| 33>    C       -5.06973         2.04069        -2.69519
| 34>    C       -5.39390         2.30242        -1.34462
| 35>    C       -4.63644         2.20797        -0.16991
| 36>    O       -3.49443         1.54633         0.04709
| 37>    C       -2.97166         0.67228        -0.92168
| 38>    C       -5.29098         2.78220         0.93205
| 39>    C       -6.54414         3.27855         0.64110
| 40>    S       -6.97440         2.99084        -1.01519
| 41>    C       -7.42592         3.96392         1.52129
| 42>    C       -8.69386         4.40558         1.07896
| 43>    C       -9.59532         5.16846         1.90657
| 44>    N      -10.69384         5.70174         1.35945
| 45>    C      -10.99691         5.42950         0.11695
| 46>    C      -10.17746         4.54675        -0.66512
| 47>    N       -9.05233         4.09664        -0.17329
| 48>    C      -10.57185         4.17612        -1.97402
| 49>    N      -10.92813         3.91262        -3.03015
| 50>    C      -12.15719         6.01893        -0.44433
| 51>    N      -13.09949         6.47310        -0.91092
| 52>    C       -9.29919         5.43391         3.26264
| 53>    C       -8.02385         5.01037         3.69929
| 54>    C       -7.10507         4.28009         2.85932
| 55>    N       -5.98547         3.97290         3.51893
| 56>    S       -6.07516         4.52985         5.01795
| 57>    N       -7.52710         5.20047         4.92359
| 58>    C      -10.18197         6.07609         4.17518
| 59>    C      -11.58536         6.10569         4.22394
| 60>    O      -12.31755         5.46494         3.30376
| 61>    C      -13.72258         5.49117         3.44047
| 62>    C      -12.06760         6.78647         5.35138
| 63>    C      -11.07086         7.23681         6.19460
| 64>    S       -9.50099         6.86682         5.55414
| 65>    C      -11.22302         7.93063         7.42425
| 66>    C      -10.32981         7.97961         8.44652
| 67>    C       -9.12966         7.20257         8.70266
| 68>    C       -8.94997         5.87713         8.40659
| 69>    C       -7.76394         5.16196         8.65484
| 70>    N       -6.80387         4.54487         8.78301
| 71>    C       -9.96271         5.07670         7.83607
| 72>    N      -10.78893         4.38936         7.43297
| 73>    C       -8.27935         8.00450         9.56891
| 74>    C       -9.03189         9.11053        10.04643
| 75>    C      -10.37815         9.08756         9.44259
| 76>    O      -11.30497         9.83443         9.65295
| 77>    C       -8.50819        10.02589        10.92793
| 78>    C       -7.18608         9.84814        11.34761
| 79>    C       -6.44287         8.74686        10.85601
| 80>    C       -6.97212         7.81466         9.97191
| 81>    S       -4.83339         8.73522        11.50344
| 82>    C       -5.16200        10.16978        12.41189
| 83>    C       -6.41562        10.64351        12.24211
| 84>    H       -0.91225         5.35545        -2.97656
| 85>    H       -2.02985         2.73908        -7.10349
| 86>    H        1.70338         6.54263        -7.11783
| 87>    H        0.94942         6.65438        -4.62003
| 88>    H       -5.87995         1.67376        -3.31551
| 89>    H       -2.30913        -0.00313        -0.38056
| 90>    H       -2.39303         1.20633        -1.68214
| 91>    H       -3.76231         0.09945        -1.41627
| 92>    H       -4.85128         2.83447         1.91005
| 93>    H      -14.10992         4.92448         2.59581
| 94>    H      -14.10595         6.51409         3.39278
| 95>    H      -14.03898         5.01949         4.37548
| 96>    H      -13.10900         6.90404         5.58879
| 97>    H      -12.11272         8.54199         7.53512
| 98>    H       -9.10126        10.85358        11.28461
| 99>    H       -6.37264         6.99264         9.61626
|100>    H       -4.38237        10.57645        13.02624
|101>    H       -6.79656        11.52464        12.72567
|102> *
|103>
|104>                          ****END OF INPUT****

CARTESIAN COORDINATES (ANGSTROEM)
---------------------------------
  C     -3.495880    2.118390   -4.656670
  C     -3.963730    1.083590   -5.424640
  C     -3.541770    0.825560   -6.743570
  N     -3.226240    0.576220   -7.818730
  C     -4.873520    0.120340   -4.941550
  N     -5.573300   -0.711090   -4.570960
  C     -2.442470    3.059850   -5.007090
  C     -2.111090    3.817970   -3.854620
  C     -1.144850    4.794240   -3.868350
  C     -0.477200    5.035580   -5.073390
  C     -0.819360    4.277230   -6.218750
  C     -1.794890    3.286830   -6.205740
  S      0.124010    4.756050   -7.594120
  C      0.952700    5.940170   -6.644360
  C      0.547850    5.981720   -5.356190
  C     -2.962040    3.399710   -2.724020
  O     -2.955730    3.849590   -1.597350
  C     -3.889180    2.389070   -3.291990
  C     -5.069730    2.040690   -2.695190
  C     -5.393900    2.302420   -1.344620
  C     -4.636440    2.207970   -0.169910
  O     -3.494430    1.546330    0.047090
  C     -2.971660    0.672280   -0.921680
  C     -5.290980    2.782200    0.932050
  C     -6.544140    3.278550    0.641100
  S     -6.974400    2.990840   -1.015190
  C     -7.425920    3.963920    1.521290
  C     -8.693860    4.405580    1.078960
  C     -9.595320    5.168460    1.906570
  N    -10.693840    5.701740    1.359450
  C    -10.996910    5.429500    0.116950
  C    -10.177460    4.546750   -0.665120
  N     -9.052330    4.096640   -0.173290
  C    -10.571850    4.176120   -1.974020
  N    -10.928130    3.912620   -3.030150
  C    -12.157190    6.018930   -0.444330
  N    -13.099490    6.473100   -0.910920
  C     -9.299190    5.433910    3.262640
  C     -8.023850    5.010370    3.699290
  C     -7.105070    4.280090    2.859320
  N     -5.985470    3.972900    3.518930
  S     -6.075160    4.529850    5.017950
  N     -7.527100    5.200470    4.923590
  C    -10.181970    6.076090    4.175180
  C    -11.585360    6.105690    4.223940
  O    -12.317550    5.464940    3.303760
  C    -13.722580    5.491170    3.440470
  C    -12.067600    6.786470    5.351380
  C    -11.070860    7.236810    6.194600
  S     -9.500990    6.866820    5.554140
  C    -11.223020    7.930630    7.424250
  C    -10.329810    7.979610    8.446520
  C     -9.129660    7.202570    8.702660
  C     -8.949970    5.877130    8.406590
  C     -7.763940    5.161960    8.654840
  N     -6.803870    4.544870    8.783010
  C     -9.962710    5.076700    7.836070
  N    -10.788930    4.389360    7.432970
  C     -8.279350    8.004500    9.568910
  C     -9.031890    9.110530   10.046430
  C    -10.378150    9.087560    9.442590
  O    -11.304970    9.834430    9.652950
  C     -8.508190   10.025890   10.927930
  C     -7.186080    9.848140   11.347610
  C     -6.442870    8.746860   10.856010
  C     -6.972120    7.814660    9.971910
  S     -4.833390    8.735220   11.503440
  C     -5.162000   10.169780   12.411890
  C     -6.415620   10.643510   12.242110
  H     -0.912250    5.355450   -2.976560
  H     -2.029850    2.739080   -7.103490
  H      1.703380    6.542630   -7.117830
  H      0.949420    6.654380   -4.620030
  H     -5.879950    1.673760   -3.315510
  H     -2.309130   -0.003130   -0.380560
  H     -2.393030    1.206330   -1.682140
  H     -3.762310    0.099450   -1.416270
  H     -4.851280    2.834470    1.910050
  H    -14.109920    4.924480    2.595810
  H    -14.105950    6.514090    3.392780
  H    -14.038980    5.019490    4.375480
  H    -13.109000    6.904040    5.588790
  H    -12.112720    8.541990    7.535120
  H     -9.101260   10.853580   11.284610
  H     -6.372640    6.992640    9.616260
  H     -4.382370   10.576450   13.026240
  H     -6.796560   11.524640   12.725670

 Total Charge           Charge          ....    0
 Multiplicity           Mult            ....    1
 Number of Electrons    NEL             ....  500
 Basis Dimension        Dim             .... 1076

ORBITAL ENERGIES
----------------

  NO   OCC          E(Eh)            E(eV)
   0   2.0000     -89.054046     -2423.2838
   1   2.0000     -88.973124     -2421.0818
   2   2.0000     -88.972818     -2421.0735
   3   2.0000     -88.963343     -2420.8156
   4   2.0000     -88.956175     -2420.6206
   5   2.0000     -19.264937      -524.2256
   6   2.0000     -19.257101      -524.0124
   7   2.0000     -19.221251      -523.0368
   8   2.0000     -19.209625      -522.7205
   9   2.0000     -14.468801      -393.7161
  10   2.0000     -14.463084      -393.5605
  11   2.0000     -14.462998      -393.5582
  12   2.0000     -14.460600      -393.4929
  13   2.0000     -14.434299      -392.7772
  14   2.0000     -14.431598      -392.7037
  15   2.0000     -14.425542      -392.5390
  16   2.0000     -14.418358      -392.3435
  17   2.0000     -14.409196      -392.0941
  18   2.0000     -14.407632      -392.0516
  19   2.0000     -10.389208      -282.7047
  20   2.0000     -10.382619      -282.5254
  21   2.0000     -10.373176      -282.2685
  22   2.0000     -10.361030      -281.9380
  23   2.0000     -10.360477      -281.9229
  24   2.0000     -10.353378      -281.7297
  25   2.0000     -10.353087      -281.7218
  26   2.0000     -10.351867      -281.6886
  27   2.0000     -10.351457      -281.6775
  28   2.0000     -10.349477      -281.6236
  29   2.0000     -10.348411      -281.5946
  30   2.0000     -10.348137      -281.5871
  31   2.0000     -10.335208      -281.2353
  32   2.0000     -10.334848      -281.2255
  33   2.0000     -10.333766      -281.1961
  34   2.0000     -10.331066      -281.1226
  35   2.0000     -10.328614      -281.0559
  36   2.0000     -10.328581      -281.0550
  37   2.0000     -10.328006      -281.0393
  38   2.0000     -10.327085      -281.0143
  39   2.0000     -10.325737      -280.9776
  40   2.0000     -10.325533      -280.9720
  41   2.0000     -10.325392      -280.9682
  42   2.0000     -10.322562      -280.8912
  43   2.0000     -10.321722      -280.8683
  44   2.0000     -10.320778      -280.8427
  45   2.0000     -10.320338      -280.8307
  46   2.0000     -10.319678      -280.8127
  47   2.0000     -10.316562      -280.7279
  48   2.0000     -10.315282      -280.6931
  49   2.0000     -10.314431      -280.6699
  50   2.0000     -10.312047      -280.6051
  51   2.0000     -10.311132      -280.5802
  52   2.0000     -10.310838      -280.5722
  53   2.0000     -10.310793      -280.5709
  54   2.0000     -10.308517      -280.5090
  55   2.0000     -10.307173      -280.4724
  56   2.0000     -10.306081      -280.4427
  57   2.0000     -10.301534      -280.3190
  58   2.0000     -10.299334      -280.2591
  59   2.0000     -10.299249      -280.2568
  60   2.0000     -10.298599      -280.2391
  61   2.0000     -10.298006      -280.2230
  62   2.0000     -10.297110      -280.1986
  63   2.0000     -10.295164      -280.1457
  64   2.0000     -10.294755      -280.1345
  65   2.0000     -10.289766      -279.9988
  66   2.0000     -10.286495      -279.9098
  67   2.0000     -10.286166      -279.9008
  68   2.0000     -10.275684      -279.6156
  69   2.0000      -8.144983      -221.6362
  70   2.0000      -8.069466      -219.5813
  71   2.0000      -8.067024      -219.5149
  72   2.0000      -8.059623      -219.3135
  73   2.0000      -8.049899      -219.0489
  74   2.0000      -6.115980      -166.4243
  75   2.0000      -6.108117      -166.2103
  76   2.0000      -6.107970      -166.2063
  77   2.0000      -6.038979      -164.3290
  78   2.0000      -6.036489      -164.2612
  79   2.0000      -6.034670      -164.2117
  80   2.0000      -6.032099      -164.1418
  81   2.0000      -6.031115      -164.1150
  82   2.0000      -6.029127      -164.0609
  83   2.0000      -6.028969      -164.0566
  84   2.0000      -6.024838      -163.9442
  85   2.0000      -6.021293      -163.8477
  86   2.0000      -6.019749      -163.8057
  87   2.0000      -6.015102      -163.6792
  88   2.0000      -6.011408      -163.5787
  89   2.0000      -1.173944       -31.9446
  90   2.0000      -1.162854       -31.6429
  91   2.0000      -1.151210       -31.3260
  92   2.0000      -1.136518       -30.9262
  93   2.0000      -1.127296       -30.6753
  94   2.0000      -1.124044       -30.5868
  95   2.0000      -1.054012       -28.6811
  96   2.0000      -1.028780       -27.9945
  97   2.0000      -1.018854       -27.7244
  98   2.0000      -1.015704       -27.6387
  99   2.0000      -1.014478       -27.6053
 100   2.0000      -1.013242       -27.5717
 101   2.0000      -1.006806       -27.3966
 102   2.0000      -1.003235       -27.2994
 103   2.0000      -1.002989       -27.2927
 104   2.0000      -0.998221       -27.1630
 105   2.0000      -0.992397       -27.0045
 106   2.0000      -0.988099       -26.8876
 107   2.0000      -0.987162       -26.8620
 108   2.0000      -0.980046       -26.6684
 109   2.0000      -0.972374       -26.4596
 110   2.0000      -0.938199       -25.5297
 111   2.0000      -0.927085       -25.2273
 112   2.0000      -0.918309       -24.9885
 113   2.0000      -0.913520       -24.8581
 114   2.0000      -0.906195       -24.6588
 115   2.0000      -0.895733       -24.3741
 116   2.0000      -0.888363       -24.1736
 117   2.0000      -0.881369       -23.9833
 118   2.0000      -0.877319       -23.8731
 119   2.0000      -0.869315       -23.6553
 120   2.0000      -0.855689       -23.2845
 121   2.0000      -0.850722       -23.1493
 122   2.0000      -0.839947       -22.8561
 123   2.0000      -0.835295       -22.7295
 124   2.0000      -0.829751       -22.5787
 125   2.0000      -0.820728       -22.3331
 126   2.0000      -0.819066       -22.2879
 127   2.0000      -0.803016       -21.8512
 128   2.0000      -0.799561       -21.7572
 129   2.0000      -0.781949       -21.2779
 130   2.0000      -0.780160       -21.2292
 131   2.0000      -0.766856       -20.8672
 132   2.0000      -0.755440       -20.5566
 133   2.0000      -0.750531       -20.4230
 134   2.0000      -0.745615       -20.2892
 135   2.0000      -0.731338       -19.9007
 136   2.0000      -0.717380       -19.5209
 137   2.0000      -0.710317       -19.3287
 138   2.0000      -0.706152       -19.2154
 139   2.0000      -0.695253       -18.9188
 140   2.0000      -0.692828       -18.8528
 141   2.0000      -0.688306       -18.7297
 142   2.0000      -0.684640       -18.6300
 143   2.0000      -0.676671       -18.4132
 144   2.0000      -0.669019       -18.2049
 145   2.0000      -0.667910       -18.1748
 146   2.0000      -0.665642       -18.1130
 147   2.0000      -0.657312       -17.8864
 148   2.0000      -0.653602       -17.7854
 149   2.0000      -0.643195       -17.5022
 150   2.0000      -0.639776       -17.4092
 151   2.0000      -0.633814       -17.2470
 152   2.0000      -0.628746       -17.1090
 153   2.0000      -0.626233       -17.0407
 154   2.0000      -0.616772       -16.7832
 155   2.0000      -0.613823       -16.7030
 156   2.0000      -0.607887       -16.5414
 157   2.0000      -0.604375       -16.4459
 158   2.0000      -0.594632       -16.1808
 159   2.0000      -0.593859       -16.1597
 160   2.0000      -0.588104       -16.0031
 161   2.0000      -0.585302       -15.9269
 162   2.0000      -0.583550       -15.8792
 163   2.0000      -0.572083       -15.5672
 164   2.0000      -0.565447       -15.3866
 165   2.0000      -0.560242       -15.2450
 166   2.0000      -0.559850       -15.2343
 167   2.0000      -0.558003       -15.1840
 168   2.0000      -0.554680       -15.0936
 169   2.0000      -0.550408       -14.9774
 170   2.0000      -0.547085       -14.8869
 171   2.0000      -0.542481       -14.7617
 172   2.0000      -0.538145       -14.6437
 173   2.0000      -0.537629       -14.6296
 174   2.0000      -0.537165       -14.6170
 175   2.0000      -0.534473       -14.5437
 176   2.0000      -0.530438       -14.4339
 177   2.0000      -0.528224       -14.3737
 178   2.0000      -0.526123       -14.3165
 179   2.0000      -0.517899       -14.0927
 180   2.0000      -0.516913       -14.0659
 181   2.0000      -0.515670       -14.0321
 182   2.0000      -0.508829       -13.8460
 183   2.0000      -0.503970       -13.7137
 184   2.0000      -0.503045       -13.6885
 185   2.0000      -0.499998       -13.6056
 186   2.0000      -0.498227       -13.5574
 187   2.0000      -0.497309       -13.5325
 188   2.0000      -0.495364       -13.4795
 189   2.0000      -0.494819       -13.4647
 190   2.0000      -0.491765       -13.3816
 191   2.0000      -0.486735       -13.2447
 192   2.0000      -0.486492       -13.2381
 193   2.0000      -0.483624       -13.1601
 194   2.0000      -0.482247       -13.1226
 195   2.0000      -0.480955       -13.0875
 196   2.0000      -0.473431       -12.8827
 197   2.0000      -0.466992       -12.7075
 198   2.0000      -0.465355       -12.6629
 199   2.0000      -0.463079       -12.6010
 200   2.0000      -0.461083       -12.5467
 201   2.0000      -0.457845       -12.4586
 202   2.0000      -0.456931       -12.4337
 203   2.0000      -0.456775       -12.4295
 204   2.0000      -0.451216       -12.2782
 205   2.0000      -0.449545       -12.2327
 206   2.0000      -0.449192       -12.2231
 207   2.0000      -0.446698       -12.1553
 208   2.0000      -0.445525       -12.1234
 209   2.0000      -0.442328       -12.0364
 210   2.0000      -0.441965       -12.0265
 211   2.0000      -0.439522       -11.9600
 212   2.0000      -0.438851       -11.9417
 213   2.0000      -0.437061       -11.8930
 214   2.0000      -0.436051       -11.8655
 215   2.0000      -0.433036       -11.7835
 216   2.0000      -0.431884       -11.7522
 217   2.0000      -0.429415       -11.6850
 218   2.0000      -0.429107       -11.6766
 219   2.0000      -0.426590       -11.6081
 220   2.0000      -0.425659       -11.5828
 221   2.0000      -0.424246       -11.5443
 222   2.0000      -0.420556       -11.4439
 223   2.0000      -0.419137       -11.4053
 224   2.0000      -0.415769       -11.3136
 225   2.0000      -0.413002       -11.2384
 226   2.0000      -0.412431       -11.2228
 227   2.0000      -0.405638       -11.0380
 228   2.0000      -0.400486       -10.8978
 229   2.0000      -0.399770       -10.8783
 230   2.0000      -0.396047       -10.7770
 231   2.0000      -0.387664       -10.5489
 232   2.0000      -0.384992       -10.4762
 233   2.0000      -0.380847       -10.3634
 234   2.0000      -0.372701       -10.1417
 235   2.0000      -0.364106        -9.9078
 236   2.0000      -0.356229        -9.6935
 237   2.0000      -0.353686        -9.6243
 238   2.0000      -0.347328        -9.4513
 239   2.0000      -0.341619        -9.2959
 240   2.0000      -0.333312        -9.0699
 241   2.0000      -0.327215        -8.9040
 242   2.0000      -0.321665        -8.7530
 243   2.0000      -0.316044        -8.6000
 244   2.0000      -0.309996        -8.4354
 245   2.0000      -0.303463        -8.2576
 246   2.0000      -0.298481        -8.1221
 247   2.0000      -0.291907        -7.9432
 248   2.0000      -0.282255        -7.6805
 249   2.0000      -0.250516        -6.8169
 250   0.0000      -0.133078        -3.6212
 251   0.0000      -0.094238        -2.5644
 252   0.0000      -0.077546        -2.1101
 253   0.0000      -0.062994        -1.7141
 254   0.0000      -0.054842        -1.4923

MULLIKEN ATOMIC CHARGES
-----------------------
   0 C :    0.285136
   1 C :   -0.330871
   2 C :   -0.183470
   3 N :    0.151633
   4 C :   -0.211190
   5 N :    0.157375
   6 C :    0.020791
   7 C :   -0.019528
   8 C :   -0.066160
   9 C :    0.110283
  10 C :   -0.093079
  11 C :   -0.025350
  12 S :    0.139372
  13 C :   -0.049731
  14 C :    0.023943
  15 C :    0.142586
  16 O :   -0.148470
  17 C :   -0.154588
  18 C :    0.025423
  19 C :   -0.211523
  20 C :    0.307269
  21 O :   -0.272020
  22 C :    0.180126
  23 C :   -0.061460
  24 C :   -0.142171
  25 S :    0.162545
  26 C :    0.206780
  27 C :   -0.050775
  28 C :   -0.093611
  29 N :    0.091856
  30 C :   -0.163158
  31 C :   -0.089927
  32 N :   -0.000749
  33 C :   -0.222211
  34 N :    0.245886
  35 C :   -0.211418
  36 N :    0.236258
  37 C :    0.183286
  38 C :   -0.004981
  39 C :   -0.008874
  40 N :   -0.282002
  41 S :    0.586023
  42 N :   -0.313519
  43 C :   -0.247606
  44 C :    0.279975
  45 O :   -0.283287
  46 C :    0.170130
  47 C :   -0.056786
  48 C :   -0.083223
  49 S :    0.194575
  50 C :    0.077095
  51 C :   -0.128515
  52 C :    0.235720
  53 C :   -0.313175
  54 C :   -0.170441
  55 N :    0.141987
  56 C :   -0.192726
  57 N :    0.163895
  58 C :    0.012680
  59 C :   -0.005017
  60 C :    0.138504
  61 O :   -0.140474
  62 C :   -0.065187
  63 C :    0.107062
  64 C :   -0.088070
  65 C :   -0.025554
  66 S :    0.140210
  67 C :   -0.050590
  68 C :    0.029160
  69 H :   -0.015198
  70 H :   -0.005338
  71 H :    0.037780
  72 H :   -0.008286
  73 H :    0.038821
  74 H :    0.037141
  75 H :    0.034912
  76 H :    0.040389
  77 H :   -0.001323
  78 H :    0.048368
  79 H :    0.032963
  80 H :    0.035164
  81 H :   -0.011128
  82 H :    0.028362
  83 H :   -0.008264
  84 H :   -0.006816
  85 H :    0.041065
  86 H :   -0.004685
Sum of atomic charges:   -0.0000000

LOEWDIN ATOMIC CHARGES
----------------------
   0 C :    0.073932
   1 C :   -0.144283
   2 C :   -0.019982
   3 N :   -0.055275
   4 C :   -0.026323
   5 N :   -0.055394
   6 C :   -0.022634
   7 C :   -0.052124
   8 C :    0.020677
   9 C :   -0.036064
  10 C :   -0.147184
  11 C :   -0.009036
  12 S :    0.428458
  13 C :   -0.151164
  14 C :   -0.058585
  15 C :    0.072556
  16 O :   -0.142123
  17 C :   -0.108369
  18 C :    0.043634
  19 C :   -0.227838
  20 C :    0.055095
  21 O :   -0.063635
  22 C :    0.083583
  23 C :   -0.045835
  24 C :   -0.148948
  25 S :    0.464817
  26 C :   -0.034460
  27 C :   -0.008263
  28 C :   -0.010609
  29 N :    0.025089
  30 C :   -0.034622
  31 C :   -0.015651
  32 N :   -0.014971
  33 C :   -0.037393
  34 N :    0.003097
  35 C :   -0.036260
  36 N :   -0.011051
  37 C :   -0.026880
  38 C :   -0.044190
  39 C :   -0.034139
  40 N :   -0.273312
  41 S :    0.707305
  42 N :   -0.298112
  43 C :   -0.186098
  44 C :    0.043988
  45 O :   -0.073047
  46 C :    0.082784
  47 C :   -0.062754
  48 C :   -0.170359
  49 S :    0.524087
  50 C :    0.051205
  51 C :   -0.085684
  52 C :    0.060534
  53 C :   -0.141034
  54 C :   -0.017375
  55 N :   -0.062725
  56 C :   -0.032564
  57 N :   -0.049821
  58 C :   -0.018889
  59 C :   -0.054990
  60 C :    0.083468
  61 O :   -0.140151
  62 C :    0.025434
  63 C :   -0.034775
  64 C :   -0.143957
  65 C :   -0.012783
  66 S :    0.429557
  67 C :   -0.148097
  68 C :   -0.056398
  69 H :    0.039353
  70 H :    0.040788
  71 H :    0.028849
  72 H :    0.034648
  73 H :    0.045814
  74 H :    0.028521
  75 H :    0.018621
  76 H :    0.023497
  77 H :    0.035693
  78 H :    0.033868
  79 H :    0.020496
  80 H :    0.020813
  81 H :    0.035571
  82 H :    0.052324
  83 H :    0.041785
  84 H :    0.039701
  85 H :    0.030371
  86 H :    0.036193

  Mayer bond orders larger than 0.100000
B(  0-C ,  1-C ) :   1.6501 B(  0-C ,  6-C ) :   1.0112 B(  0-C , 17-C ) :   1.0604
B(  1-C ,  2-C ) :   1.1332 B(  1-C ,  4-C ) :   1.1453 B(  2-C ,  3-N ) :   2.9805
B(  4-C ,  5-N ) :   2.9984 B(  6-C ,  7-C ) :   1.2659 B(  6-C , 11-C ) :   1.4157
B(  7-C ,  8-C ) :   1.4336 B(  7-C , 15-C ) :   0.9449 B(  8-C ,  9-C ) :   1.2418
B(  8-C , 69-H ) :   1.0168 B(  9-C , 10-C ) :   1.3070 B(  9-C , 14-C ) :   1.1706
B( 10-C , 11-C ) :   1.3167 B( 10-C , 12-S ) :   1.0962 B( 11-C , 70-H ) :   0.9847
B( 12-S , 13-C ) :   1.1272 B( 13-C , 14-C ) :   1.6280 B( 13-C , 71-H ) :   0.9686
B( 14-C , 72-H ) :   0.9995 B( 15-C , 16-O ) :   2.2047 B( 15-C , 17-C ) :   0.9526
B( 17-C , 18-C ) :   1.5895 B( 18-C , 19-C ) :   1.1816 B( 18-C , 73-H ) :   0.9401
B( 19-C , 20-C ) :   1.3587 B( 19-C , 25-S ) :   1.0126 B( 20-C , 21-O ) :   1.2333
B( 20-C , 23-C ) :   1.2114 B( 21-O , 22-C ) :   0.9477 B( 22-C , 74-H ) :   0.9764
B( 22-C , 75-H ) :   0.9602 B( 22-C , 76-H ) :   0.9624 B( 23-C , 24-C ) :   1.4490
B( 23-C , 77-H ) :   0.9996 B( 24-C , 25-S ) :   1.1251 B( 24-C , 26-C ) :   1.1807
B( 26-C , 27-C ) :   1.2569 B( 26-C , 37-C ) :   0.1224 B( 26-C , 39-C ) :   1.2086
B( 27-C , 28-C ) :   1.0961 B( 27-C , 32-N ) :   1.3848 B( 28-C , 29-N ) :   1.4671
B( 28-C , 37-C ) :   1.2713 B( 29-N , 30-C ) :   1.7347 B( 30-C , 31-C ) :   1.1949
B( 30-C , 35-C ) :   1.1572 B( 31-C , 32-N ) :   1.7174 B( 31-C , 33-C ) :   1.1527
B( 33-C , 34-N ) :   3.0397 B( 35-C , 36-N ) :   3.0525 B( 37-C , 38-C ) :   1.2159
B( 37-C , 43-C ) :   1.1234 B( 38-C , 39-C ) :   1.1160 B( 38-C , 42-N ) :   1.4682
B( 39-C , 40-N ) :   1.5089 B( 40-N , 41-S ) :   1.2903 B( 40-N , 42-N ) :   0.1504
B( 41-S , 42-N ) :   1.2855 B( 43-C , 44-C ) :   1.3950 B( 43-C , 48-C ) :   0.1083
B( 43-C , 49-S ) :   1.1435 B( 44-C , 45-O ) :   1.2127 B( 44-C , 47-C ) :   1.2314
B( 45-O , 46-C ) :   0.9431 B( 46-C , 78-H ) :   0.9790 B( 46-C , 79-H ) :   0.9700
B( 46-C , 80-H ) :   0.9701 B( 47-C , 48-C ) :   1.4007 B( 47-C , 81-H ) :   1.0053
B( 48-C , 49-S ) :   1.1335 B( 48-C , 50-C ) :   1.1016 B( 50-C , 51-C ) :   1.6826
B( 50-C , 82-H ) :   0.9515 B( 51-C , 52-C ) :   1.0177 B( 51-C , 60-C ) :   0.9328
B( 52-C , 53-C ) :   1.6648 B( 52-C , 58-C ) :   1.0296 B( 53-C , 54-C ) :   1.1395
B( 53-C , 56-C ) :   1.1455 B( 54-C , 55-N ) :   2.9746 B( 56-C , 57-N ) :   3.0135
B( 58-C , 59-C ) :   1.2653 B( 58-C , 65-C ) :   1.4145 B( 59-C , 60-C ) :   0.9233
B( 59-C , 62-C ) :   1.4249 B( 60-C , 61-O ) :   2.2756 B( 62-C , 63-C ) :   1.2548
B( 62-C , 83-H ) :   1.0162 B( 63-C , 64-C ) :   1.3009 B( 63-C , 68-C ) :   1.1722
B( 64-C , 65-C ) :   1.3214 B( 64-C , 66-S ) :   1.0974 B( 65-C , 84-H ) :   0.9872
B( 66-S , 67-C ) :   1.1260 B( 67-C , 68-C ) :   1.6295 B( 67-C , 85-H ) :   0.9686
B( 68-C , 86-H ) :   1.0001

-----------------------------------------------------------------------------
         ABSORPTION SPECTRUM VIA TRANSITION ELECTRIC DIPOLE MOMENTS
-----------------------------------------------------------------------------
State   Energy  Wavelength   fosc         T2         TX        TY        TZ
        (cm-1)    (nm)                  (au**2)     (au)      (au)      (au)
-----------------------------------------------------------------------------
   0    9405.1   1063.3   0.518014680  18.13238   2.08185  -1.55391  -3.37397
   1   16147.0    619.3   0.004558978   0.09295   0.29517   0.00869   0.07583
   2   18444.8    542.2   0.192076296   3.42827   0.37024   0.23545   1.79882
   3   19155.6    522.0   0.086638817   1.48899   0.73662  -0.63384  -0.73798
   4   21822.0    458.3   0.409535873   6.17834   1.58194  -0.36560  -1.88206
   5   21997.0    454.6   0.085108027   1.27374   0.10790   0.39192   1.05285
   6   23109.5    432.7   0.009976810   0.14213   0.11073   0.34191   0.11387
   7   23951.1    417.5   0.001401461   0.01926   0.13046   0.01187   0.04585
   8   24083.8    415.2   0.039412808   0.53875   0.46330   0.44622   0.35354
   9   24946.3    400.9   0.108334955   1.42968   0.13437   0.56404   1.04570
  10   25813.6    387.4   0.060230953   0.76815  -0.37983   0.12873   0.77930
  11   26155.5    382.3   0.086938195   1.09427  -0.87652   0.24106   0.51757
  12   26506.5    377.3   0.019070309   0.23685  -0.13637  -0.46711   0.00796
  13   26714.9    374.3   0.016939948   0.20875   0.36839  -0.26801   0.03484
  14   26853.0    372.4   0.027756729   0.34029  -0.49675   0.23245   0.19873
  15   27260.7    366.8   0.078188558   0.94424  -0.11344  -0.63926  -0.72300
  16   27857.2    359.0   0.052584735   0.62144   0.52974   0.15394   0.56313
  17   28409.9    352.0   0.112590855   1.30470   0.50510  -0.15394  -1.01285
  18   28617.0    349.4   0.052113970   0.59952  -0.34481   0.28511   0.63193
  19   29236.8    342.0   0.056471447   0.63588  -0.64041   0.37163  -0.29604
  20   29731.3    336.3   0.298303032   3.30308  -1.22592  -1.07275  -0.80586
  21   30168.8    331.5   0.139882192   1.52644  -0.49833  -0.61887   0.94610
  22   30200.4    331.1   0.281038774   3.06358  -1.23877  -1.20917  -0.25871
  23   30452.9    328.4   0.071197460   0.76968  -0.48002  -0.34386  -0.64886
  24   31274.6    319.7   0.595904924   6.27279   1.34838  -0.23261   2.09775
  25   31623.4    316.2   0.020689815   0.21539   0.37573  -0.08219   0.25973
  26   32033.5    312.2   0.020242219   0.20803  -0.02340  -0.45163  -0.05925
  27   32320.8    309.4   0.046769036   0.47638   0.24700   0.29870  -0.57110
  28   32507.9    307.6   0.021793099   0.22070  -0.20136   0.38866  -0.17059
  29   32800.5    304.9   0.118725706   1.19163   0.87044   0.36094   0.55107
  30   33239.0    300.9   0.077070639   0.76334  -0.10472   0.82093   0.28009
  31   33277.8    300.5   0.043155477   0.42693   0.02177   0.58050   0.29913
  32   33707.2    296.7   0.055125000   0.53840   0.36553  -0.32831  -0.54497
  33   33929.2    294.7   0.106338418   1.03179  -0.93501  -0.08100  -0.38856
  34   34394.8    290.7   0.116771745   1.11769   0.90658   0.12996  -0.52811
  35   34625.3    288.8   0.371207394   3.52938   0.49359   1.50289   1.01345
  36   34841.1    287.0   0.209251417   1.97721   0.86683   0.66600   0.88446
  37   35013.7    285.6   0.122179701   1.14878  -0.59306  -0.89274  -0.00840
  38   35060.1    285.2   0.063395599   0.59528  -0.22213  -0.46810  -0.57168
  39   35279.9    283.4   0.163043637   1.52143   0.65343   0.98681  -0.34737
  40   35654.6    280.5   0.052392072   0.48376   0.54405   0.34003  -0.26860
  41   35924.6    278.4   0.067231950   0.61611   0.16016   0.74856   0.17355
  42   36392.0    274.8   0.062834260   0.56842   0.57452  -0.31095   0.37637
  43   36593.6    273.3   0.075448160   0.67876  -0.68101   0.37662   0.27045
  44   36756.4    272.1   0.074644001   0.66856   0.41749  -0.06279   0.70023
  45   37275.9    268.3   0.080611827   0.71194   0.75624  -0.14418   0.34535
  46   37721.0    265.1   0.075533016   0.65922  -0.60181   0.17397  -0.51651
  47   37853.0    264.2   0.008287347   0.07208  -0.14188   0.22374  -0.04340
  48   38454.0    260.1   0.043379114   0.37138  -0.45018  -0.09270   0.40015
  49   38663.5    258.6   0.262483576   2.23500  -1.25272  -0.71231  -0.39788
  50   38950.3    256.7   0.177548521   1.50066  -0.44835   0.43667  -1.05307
  51   39104.8    255.7   0.006812268   0.05735  -0.09090   0.21223  -0.06363
  52   39241.0    254.8   0.009940596   0.08340   0.27283  -0.05964  -0.07350
  53   39600.4    252.5   0.016523833   0.13737  -0.18005   0.31923  -0.05519
  54   39611.7    252.5   0.061410106   0.51038  -0.09388   0.61926   0.34363
  55   39736.2    251.7   0.151732019   1.25709   0.08068  -0.58477  -0.95322
  56   40068.6    249.6   0.139627587   1.14721   0.42375  -0.00638  -0.98367

FINAL SINGLE POINT ENERGY     -4751.275788503097

DIPOLE MOMENT
-------------
                                X             Y             Z
Electronic contribution:     -6.11304      -3.16140      -1.09129
Nuclear contribution   :      8.27177       6.66077       4.88350
                        -----------------------------------------
Total Dipole Moment    :      2.15873       3.49937       3.79221
                        -----------------------------------------
Magnitude (a.u.)       :      5.59344
Magnitude (Debye)      :     14.21739

Rotational constants in cm-1:     0.001567     0.000375     0.000330
Rotational constants in MHz :    46.970009    11.240179     9.892544

                             ****ORCA TERMINATED NORMALLY****
TOTAL RUN TIME: 0 days 0 hours 9 minutes 9 seconds 251 msec
