                         Program Version 4.2.0 -  RELEASE  -
|  1> # ORCA input file
|  2> # SCF done       -214.384527497262          0.000814991368
|  3> ! CAM-B3LYP def2-SVP def2/J RIJCOSX Grid4 TightSCF
|  4> %maxcore 5000
|  5> %tddft
|  6>     Mode sTDDFT
|  7>     Ethresh 5.0
|  8>     maxcore 5000
|  9> end
| 10>
| 11> %pal
| 12>   nprocs 6
| 13>   end
| 14> * xyz 0 1
| 15>    C       -1.91019         4.61417         5.22341
| 16>    C       -0.79352         5.32163         4.86967
| 17>    C        0.31742         5.51457         5.72038
| 18>    N        1.25146         5.70479         6.35899
| 19>    C       -0.58555         5.99029         3.64284
| 20>    N       -0.33488         6.57561         2.68762
| 21>    C       -2.15078         4.02279         6.53179
| 22>    C       -3.47026         3.50516         6.55393
| 23>    C       -4.01909         2.90485         7.66412
| 24>    C       -3.22643         2.80599         8.80889
| 25>    C       -1.90275         3.31406         8.77621
| 26>    C       -1.35024         3.92273         7.65479
| 27>    S       -1.10749         3.08152        10.29821
| 28>    C       -2.52491         2.33027        10.95149
| 29>    C       -3.55107         2.24798        10.07740
| 30>    C       -4.11534         3.74172         5.26165
| 31>    O       -5.26879         3.44095         4.99600
| 32>    C       -3.09275         4.37491         4.39497
| 33>    C       -3.11787         4.56879         3.04341
| 34>    C       -4.16339         4.35677         2.10876
| 35>    C       -5.50725         4.17168         2.30136
| 36>    C       -6.20693         3.86040         1.11977
| 37>    C       -7.55078         3.47549         0.96233
| 38>    C       -7.98184         3.23766        -0.34352
| 39>    C       -7.05023         3.41568        -1.40472
| 40>    N       -5.78120         3.72950        -1.26495
| 41>    C       -5.37062         3.92765        -0.02871
| 42>    S       -3.73249         4.28248         0.39326
| 43>    S       -7.74897         3.09934        -2.96599
| 44>    C       -9.25432         2.66755        -2.19682
| 45>    C       -9.23452         2.77155        -0.84613
| 46>    F      -10.26881         2.42620        -0.06812
| 47>    F      -10.27562         2.26590        -2.94158
| 48>    C       -8.37761         3.30614         2.15189
| 49>    C       -9.61062         3.94382         2.32882
| 50>    C      -10.33906         3.83203         3.56106
| 51>    N      -11.54891         4.42232         3.66956
| 52>    C      -12.01106         5.10278         2.67609
| 53>    C      -11.24516         5.28217         1.48415
| 54>    N      -10.09359         4.72547         1.33129
| 55>    F      -11.70061         6.05036         0.50147
| 56>    F      -13.21359         5.64877         2.79441
| 57>    C       -9.81701         3.16225         4.68706
| 58>    C       -8.58406         2.50942         4.49980
| 59>    C       -7.90131         2.54750         3.22875
| 60>    N       -6.78151         1.80927         3.24086
| 61>    S       -6.57313         1.22228         4.70223
| 62>    N       -7.89827         1.77851         5.39214
| 63>    C      -10.49257         3.15755         5.95168
| 64>    C       -9.93432         2.77507         7.14452
| 65>    C      -10.83746         2.82963         8.22220
| 66>    C      -10.61783         2.56848         9.58738
| 67>    C      -11.74454         2.65366        10.42172
| 68>    C      -12.97187         3.09219         9.85532
| 69>    N      -13.16190         3.41918         8.59879
| 70>    C      -12.12306         3.27884         7.80194
| 71>    S      -12.16224         3.65509         6.11248
| 72>    S      -14.26180         3.18012        11.02529
| 73>    C      -13.18157         2.57435        12.24571
| 74>    C      -11.91977         2.34429        11.80226
| 75>    F      -10.95852         1.82054        12.58457
| 76>    F      -13.62116         2.37026        13.48102
| 77>    C       -9.27926         2.26729        10.04188
| 78>    C       -8.64509         2.72757        11.13872
| 79>    C       -9.04853         3.67284        12.17059
| 80>    C       -9.85732         4.76111        11.99770
| 81>    C      -10.20936         5.64949        13.03615
| 82>    N      -10.54330         6.38116        13.85406
| 83>    C      -10.34324         5.17323        10.73913
| 84>    N      -10.69752         5.57701         9.72503
| 85>    C       -8.27603         3.35185        13.36020
| 86>    C       -7.23803         2.44925        13.00161
| 87>    C       -7.35977         2.10812        11.57843
| 88>    O       -6.60927         1.44855        10.89354
| 89>    C       -6.31542         1.99379        13.91442
| 90>    C       -6.43206         2.43136        15.23646
| 91>    C       -7.48304         3.31670        15.58535
| 92>    C       -8.40820         3.79027        14.66290
| 93>    S       -7.44187         3.70776        17.27320
| 94>    C       -6.04704         2.71066        17.49564
| 95>    C       -5.62514         2.10676        16.36286
| 96>    H       -5.03092         2.52970         7.65240
| 97>    H       -0.33905         4.29232         7.68425
| 98>    H       -2.49668         1.99040        11.96842
| 99>    H       -4.50956         1.81533        10.30429
|100>    H       -2.18748         4.87405         2.57958
|101>    H       -5.97294         4.26429         3.26160
|102>    H       -8.91108         2.45933         7.22034
|103>    H       -8.70723         1.59139         9.41476
|104>    H       -5.53260         1.31240        13.61868
|105>    H       -9.19743         4.45571        14.97190
|106>    H       -5.62208         2.63509        18.47765
|107>    H       -4.77585         1.44979        16.31193
|108> *
|109>
|110>                          ****END OF INPUT****

CARTESIAN COORDINATES (ANGSTROEM)
---------------------------------
  C     -1.910190    4.614170    5.223410
  C     -0.793520    5.321630    4.869670
  C      0.317420    5.514570    5.720380
  N      1.251460    5.704790    6.358990
  C     -0.585550    5.990290    3.642840
  N     -0.334880    6.575610    2.687620
  C     -2.150780    4.022790    6.531790
  C     -3.470260    3.505160    6.553930
  C     -4.019090    2.904850    7.664120
  C     -3.226430    2.805990    8.808890
  C     -1.902750    3.314060    8.776210
  C     -1.350240    3.922730    7.654790
  S     -1.107490    3.081520   10.298210
  C     -2.524910    2.330270   10.951490
  C     -3.551070    2.247980   10.077400
  C     -4.115340    3.741720    5.261650
  O     -5.268790    3.440950    4.996000
  C     -3.092750    4.374910    4.394970
  C     -3.117870    4.568790    3.043410
  C     -4.163390    4.356770    2.108760
  C     -5.507250    4.171680    2.301360
  C     -6.206930    3.860400    1.119770
  C     -7.550780    3.475490    0.962330
  C     -7.981840    3.237660   -0.343520
  C     -7.050230    3.415680   -1.404720
  N     -5.781200    3.729500   -1.264950
  C     -5.370620    3.927650   -0.028710
  S     -3.732490    4.282480    0.393260
  S     -7.748970    3.099340   -2.965990
  C     -9.254320    2.667550   -2.196820
  C     -9.234520    2.771550   -0.846130
  F    -10.268810    2.426200   -0.068120
  F    -10.275620    2.265900   -2.941580
  C     -8.377610    3.306140    2.151890
  C     -9.610620    3.943820    2.328820
  C    -10.339060    3.832030    3.561060
  N    -11.548910    4.422320    3.669560
  C    -12.011060    5.102780    2.676090
  C    -11.245160    5.282170    1.484150
  N    -10.093590    4.725470    1.331290
  F    -11.700610    6.050360    0.501470
  F    -13.213590    5.648770    2.794410
  C     -9.817010    3.162250    4.687060
  C     -8.584060    2.509420    4.499800
  C     -7.901310    2.547500    3.228750
  N     -6.781510    1.809270    3.240860
  S     -6.573130    1.222280    4.702230
  N     -7.898270    1.778510    5.392140
  C    -10.492570    3.157550    5.951680
  C     -9.934320    2.775070    7.144520
  C    -10.837460    2.829630    8.222200
  C    -10.617830    2.568480    9.587380
  C    -11.744540    2.653660   10.421720
  C    -12.971870    3.092190    9.855320
  N    -13.161900    3.419180    8.598790
  C    -12.123060    3.278840    7.801940
  S    -12.162240    3.655090    6.112480
  S    -14.261800    3.180120   11.025290
  C    -13.181570    2.574350   12.245710
  C    -11.919770    2.344290   11.802260
  F    -10.958520    1.820540   12.584570
  F    -13.621160    2.370260   13.481020
  C     -9.279260    2.267290   10.041880
  C     -8.645090    2.727570   11.138720
  C     -9.048530    3.672840   12.170590
  C     -9.857320    4.761110   11.997700
  C    -10.209360    5.649490   13.036150
  N    -10.543300    6.381160   13.854060
  C    -10.343240    5.173230   10.739130
  N    -10.697520    5.577010    9.725030
  C     -8.276030    3.351850   13.360200
  C     -7.238030    2.449250   13.001610
  C     -7.359770    2.108120   11.578430
  O     -6.609270    1.448550   10.893540
  C     -6.315420    1.993790   13.914420
  C     -6.432060    2.431360   15.236460
  C     -7.483040    3.316700   15.585350
  C     -8.408200    3.790270   14.662900
  S     -7.441870    3.707760   17.273200
  C     -6.047040    2.710660   17.495640
  C     -5.625140    2.106760   16.362860
  H     -5.030920    2.529700    7.652400
  H     -0.339050    4.292320    7.684250
  H     -2.496680    1.990400   11.968420
  H     -4.509560    1.815330   10.304290
  H     -2.187480    4.874050    2.579580
  H     -5.972940    4.264290    3.261600
  H     -8.911080    2.459330    7.220340
  H     -8.707230    1.591390    9.414760
  H     -5.532600    1.312400   13.618680
  H     -9.197430    4.455710   14.971900
  H     -5.622080    2.635090   18.477650
  H     -4.775850    1.449790   16.311930

 Total Charge           Charge          ....    0
 Multiplicity           Mult            ....    1
 Number of Electrons    NEL             ....  600
 Basis Dimension        Dim             .... 1222

ORBITAL ENERGIES
----------------

  NO   OCC          E(Eh)            E(eV)
   0   2.0000     -89.047437     -2423.1039
   1   2.0000     -88.976745     -2421.1803
   2   2.0000     -88.974426     -2421.1172
   3   2.0000     -88.973067     -2421.0802
   4   2.0000     -88.970271     -2421.0042
   5   2.0000     -88.962374     -2420.7893
   6   2.0000     -88.954253     -2420.5683
   7   2.0000     -24.818490      -675.3455
   8   2.0000     -24.817371      -675.3150
   9   2.0000     -24.816498      -675.2912
  10   2.0000     -24.812914      -675.1937
  11   2.0000     -24.809676      -675.1056
  12   2.0000     -24.801834      -674.8922
  13   2.0000     -19.235450      -523.4232
  14   2.0000     -19.235040      -523.4120
  15   2.0000     -14.458861      -393.4456
  16   2.0000     -14.455665      -393.3586
  17   2.0000     -14.449104      -393.1801
  18   2.0000     -14.446400      -393.1065
  19   2.0000     -14.432118      -392.7179
  20   2.0000     -14.428849      -392.6289
  21   2.0000     -14.424297      -392.5051
  22   2.0000     -14.421396      -392.4261
  23   2.0000     -14.421030      -392.4162
  24   2.0000     -14.420359      -392.3979
  25   2.0000     -10.435330      -283.9598
  26   2.0000     -10.433114      -283.8995
  27   2.0000     -10.398630      -282.9611
  28   2.0000     -10.392854      -282.8039
  29   2.0000     -10.384499      -282.5766
  30   2.0000     -10.384296      -282.5710
  31   2.0000     -10.376000      -282.3453
  32   2.0000     -10.371674      -282.2276
  33   2.0000     -10.357588      -281.8443
  34   2.0000     -10.353920      -281.7445
  35   2.0000     -10.352920      -281.7173
  36   2.0000     -10.351410      -281.6762
  37   2.0000     -10.350068      -281.6397
  38   2.0000     -10.349941      -281.6362
  39   2.0000     -10.349815      -281.6328
  40   2.0000     -10.349477      -281.6236
  41   2.0000     -10.348503      -281.5971
  42   2.0000     -10.341379      -281.4032
  43   2.0000     -10.340306      -281.3740
  44   2.0000     -10.336244      -281.2635
  45   2.0000     -10.332887      -281.1721
  46   2.0000     -10.332142      -281.1519
  47   2.0000     -10.326885      -281.0088
  48   2.0000     -10.326369      -280.9948
  49   2.0000     -10.326211      -280.9905
  50   2.0000     -10.326093      -280.9873
  51   2.0000     -10.323811      -280.9252
  52   2.0000     -10.323706      -280.9223
  53   2.0000     -10.323542      -280.9179
  54   2.0000     -10.323265      -280.9103
  55   2.0000     -10.323049      -280.9045
  56   2.0000     -10.322862      -280.8994
  57   2.0000     -10.321101      -280.8514
  58   2.0000     -10.320427      -280.8331
  59   2.0000     -10.318581      -280.7829
  60   2.0000     -10.316309      -280.7210
  61   2.0000     -10.316126      -280.7160
  62   2.0000     -10.313661      -280.6490
  63   2.0000     -10.313635      -280.6483
  64   2.0000     -10.313425      -280.6426
  65   2.0000     -10.313368      -280.6410
  66   2.0000     -10.313178      -280.6358
  67   2.0000     -10.312996      -280.6309
  68   2.0000     -10.312812      -280.6259
  69   2.0000     -10.312349      -280.6133
  70   2.0000     -10.309360      -280.5319
  71   2.0000     -10.306445      -280.4526
  72   2.0000     -10.305835      -280.4360
  73   2.0000     -10.304380      -280.3964
  74   2.0000     -10.301570      -280.3200
  75   2.0000     -10.299200      -280.2555
  76   2.0000     -10.298106      -280.2257
  77   2.0000     -10.297450      -280.2079
  78   2.0000     -10.297246      -280.2023
  79   2.0000     -10.286066      -279.8981
  80   2.0000     -10.283407      -279.8257
  81   2.0000      -8.137290      -221.4269
  82   2.0000      -8.073053      -219.6789
  83   2.0000      -8.071507      -219.6369
  84   2.0000      -8.070229      -219.6021
  85   2.0000      -8.066513      -219.5010
  86   2.0000      -8.058931      -219.2947
  87   2.0000      -8.049338      -219.0336
  88   2.0000      -6.107991      -166.2069
  89   2.0000      -6.101062      -166.0183
  90   2.0000      -6.100234      -165.9958
  91   2.0000      -6.042543      -164.4259
  92   2.0000      -6.041100      -164.3867
  93   2.0000      -6.039805      -164.3515
  94   2.0000      -6.038230      -164.3086
  95   2.0000      -6.037160      -164.2795
  96   2.0000      -6.036000      -164.2479
  97   2.0000      -6.035956      -164.2467
  98   2.0000      -6.034743      -164.2137
  99   2.0000      -6.032296      -164.1471
 100   2.0000      -6.031707      -164.1311
 101   2.0000      -6.030953      -164.1106
 102   2.0000      -6.028362      -164.0401
 103   2.0000      -6.028226      -164.0364
 104   2.0000      -6.024456      -163.9338
 105   2.0000      -6.020186      -163.8176
 106   2.0000      -6.018900      -163.7826
 107   2.0000      -6.014569      -163.6647
 108   2.0000      -6.010793      -163.5620
 109   2.0000      -1.347152       -36.6579
 110   2.0000      -1.335969       -36.3536
 111   2.0000      -1.332681       -36.2641
 112   2.0000      -1.331526       -36.2327
 113   2.0000      -1.318272       -35.8720
 114   2.0000      -1.312528       -35.7157
 115   2.0000      -1.150268       -31.3004
 116   2.0000      -1.149287       -31.2737
 117   2.0000      -1.139766       -31.0146
 118   2.0000      -1.116817       -30.3901
 119   2.0000      -1.079988       -29.3880
 120   2.0000      -1.075395       -29.2630
 121   2.0000      -1.043282       -28.3891
 122   2.0000      -1.030590       -28.0438
 123   2.0000      -1.026816       -27.9411
 124   2.0000      -1.017512       -27.6879
 125   2.0000      -1.013259       -27.5722
 126   2.0000      -1.001834       -27.2613
 127   2.0000      -1.001118       -27.2418
 128   2.0000      -0.999678       -27.2026
 129   2.0000      -0.999039       -27.1852
 130   2.0000      -0.996039       -27.1036
 131   2.0000      -0.994165       -27.0526
 132   2.0000      -0.991221       -26.9725
 133   2.0000      -0.985690       -26.8220
 134   2.0000      -0.973763       -26.4974
 135   2.0000      -0.966475       -26.2991
 136   2.0000      -0.946955       -25.7679
 137   2.0000      -0.937744       -25.5173
 138   2.0000      -0.932730       -25.3809
 139   2.0000      -0.926712       -25.2171
 140   2.0000      -0.907801       -24.7025
 141   2.0000      -0.904388       -24.6096
 142   2.0000      -0.892722       -24.2922
 143   2.0000      -0.886569       -24.1248
 144   2.0000      -0.886284       -24.1170
 145   2.0000      -0.881098       -23.9759
 146   2.0000      -0.875362       -23.8198
 147   2.0000      -0.863786       -23.5048
 148   2.0000      -0.857264       -23.3273
 149   2.0000      -0.854106       -23.2414
 150   2.0000      -0.834278       -22.7019
 151   2.0000      -0.829113       -22.5613
 152   2.0000      -0.827914       -22.5287
 153   2.0000      -0.826471       -22.4894
 154   2.0000      -0.818737       -22.2790
 155   2.0000      -0.815143       -22.1812
 156   2.0000      -0.812010       -22.0959
 157   2.0000      -0.796456       -21.6727
 158   2.0000      -0.788945       -21.4683
 159   2.0000      -0.771130       -20.9835
 160   2.0000      -0.770987       -20.9796
 161   2.0000      -0.766750       -20.8643
 162   2.0000      -0.763899       -20.7867
 163   2.0000      -0.744594       -20.2614
 164   2.0000      -0.740435       -20.1483
 165   2.0000      -0.727621       -19.7996
 166   2.0000      -0.718261       -19.5449
 167   2.0000      -0.715902       -19.4807
 168   2.0000      -0.712456       -19.3869
 169   2.0000      -0.704826       -19.1793
 170   2.0000      -0.699627       -19.0378
 171   2.0000      -0.696854       -18.9624
 172   2.0000      -0.694145       -18.8887
 173   2.0000      -0.690654       -18.7937
 174   2.0000      -0.689313       -18.7572
 175   2.0000      -0.681098       -18.5336
 176   2.0000      -0.676708       -18.4142
 177   2.0000      -0.674601       -18.3568
 178   2.0000      -0.671740       -18.2790
 179   2.0000      -0.666996       -18.1499
 180   2.0000      -0.666372       -18.1329
 181   2.0000      -0.659718       -17.9518
 182   2.0000      -0.657331       -17.8869
 183   2.0000      -0.654264       -17.8034
 184   2.0000      -0.641761       -17.4632
 185   2.0000      -0.633958       -17.2509
 186   2.0000      -0.631758       -17.1910
 187   2.0000      -0.629903       -17.1405
 188   2.0000      -0.628041       -17.0899
 189   2.0000      -0.623013       -16.9530
 190   2.0000      -0.621475       -16.9112
 191   2.0000      -0.618841       -16.8395
 192   2.0000      -0.615733       -16.7550
 193   2.0000      -0.608996       -16.5716
 194   2.0000      -0.605020       -16.4634
 195   2.0000      -0.602818       -16.4035
 196   2.0000      -0.600614       -16.3435
 197   2.0000      -0.599577       -16.3153
 198   2.0000      -0.595629       -16.2079
 199   2.0000      -0.592724       -16.1288
 200   2.0000      -0.586776       -15.9670
 201   2.0000      -0.582028       -15.8378
 202   2.0000      -0.580848       -15.8057
 203   2.0000      -0.579110       -15.7584
 204   2.0000      -0.573560       -15.6074
 205   2.0000      -0.567192       -15.4341
 206   2.0000      -0.565516       -15.3885
 207   2.0000      -0.560808       -15.2604
 208   2.0000      -0.559914       -15.2360
 209   2.0000      -0.557342       -15.1660
 210   2.0000      -0.555054       -15.1038
 211   2.0000      -0.554135       -15.0788
 212   2.0000      -0.551539       -15.0081
 213   2.0000      -0.548955       -14.9378
 214   2.0000      -0.548173       -14.9166
 215   2.0000      -0.546725       -14.8771
 216   2.0000      -0.543800       -14.7975
 217   2.0000      -0.539586       -14.6829
 218   2.0000      -0.537270       -14.6199
 219   2.0000      -0.535329       -14.5670
 220   2.0000      -0.533118       -14.5069
 221   2.0000      -0.530854       -14.4453
 222   2.0000      -0.526414       -14.3244
 223   2.0000      -0.526083       -14.3154
 224   2.0000      -0.521531       -14.1916
 225   2.0000      -0.519490       -14.1361
 226   2.0000      -0.518618       -14.1123
 227   2.0000      -0.514531       -14.0011
 228   2.0000      -0.513659       -13.9774
 229   2.0000      -0.510586       -13.8937
 230   2.0000      -0.508676       -13.8418
 231   2.0000      -0.506850       -13.7921
 232   2.0000      -0.505212       -13.7475
 233   2.0000      -0.503432       -13.6991
 234   2.0000      -0.503204       -13.6929
 235   2.0000      -0.501578       -13.6486
 236   2.0000      -0.499396       -13.5892
 237   2.0000      -0.497433       -13.5358
 238   2.0000      -0.494297       -13.4505
 239   2.0000      -0.490955       -13.3596
 240   2.0000      -0.481698       -13.1077
 241   2.0000      -0.480214       -13.0673
 242   2.0000      -0.477618       -12.9966
 243   2.0000      -0.476177       -12.9574
 244   2.0000      -0.475482       -12.9385
 245   2.0000      -0.469104       -12.7650
 246   2.0000      -0.467186       -12.7128
 247   2.0000      -0.463551       -12.6139
 248   2.0000      -0.456804       -12.4303
 249   2.0000      -0.455428       -12.3928
 250   2.0000      -0.454111       -12.3570
 251   2.0000      -0.452870       -12.3232
 252   2.0000      -0.450419       -12.2565
 253   2.0000      -0.449496       -12.2314
 254   2.0000      -0.448352       -12.2003
 255   2.0000      -0.447599       -12.1798
 256   2.0000      -0.445874       -12.1328
 257   2.0000      -0.444293       -12.0898
 258   2.0000      -0.443941       -12.0803
 259   2.0000      -0.441540       -12.0149
 260   2.0000      -0.438265       -11.9258
 261   2.0000      -0.437396       -11.9022
 262   2.0000      -0.435109       -11.8399
 263   2.0000      -0.433437       -11.7944
 264   2.0000      -0.432697       -11.7743
 265   2.0000      -0.427549       -11.6342
 266   2.0000      -0.426848       -11.6151
 267   2.0000      -0.426369       -11.6021
 268   2.0000      -0.425580       -11.5806
 269   2.0000      -0.417709       -11.3664
 270   2.0000      -0.415681       -11.3113
 271   2.0000      -0.412944       -11.2368
 272   2.0000      -0.412391       -11.2217
 273   2.0000      -0.408164       -11.1067
 274   2.0000      -0.404947       -11.0192
 275   2.0000      -0.399489       -10.8706
 276   2.0000      -0.394554       -10.7363
 277   2.0000      -0.390827       -10.6349
 278   2.0000      -0.381004       -10.3677
 279   2.0000      -0.380286       -10.3481
 280   2.0000      -0.378572       -10.3015
 281   2.0000      -0.375444       -10.2163
 282   2.0000      -0.362066        -9.8523
 283   2.0000      -0.359201        -9.7743
 284   2.0000      -0.355353        -9.6696
 285   2.0000      -0.351271        -9.5586
 286   2.0000      -0.349552        -9.5118
 287   2.0000      -0.341428        -9.2907
 288   2.0000      -0.337295        -9.1783
 289   2.0000      -0.334387        -9.0991
 290   2.0000      -0.332801        -9.0560
 291   2.0000      -0.326900        -8.8954
 292   2.0000      -0.324373        -8.8266
 293   2.0000      -0.319058        -8.6820
 294   2.0000      -0.304381        -8.2826
 295   2.0000      -0.301423        -8.2021
 296   2.0000      -0.293866        -7.9965
 297   2.0000      -0.289719        -7.8837
 298   2.0000      -0.283096        -7.7034
 299   2.0000      -0.266719        -7.2578
 300   0.0000      -0.111791        -3.0420
 301   0.0000      -0.100152        -2.7253
 302   0.0000      -0.093273        -2.5381
 303   0.0000      -0.072519        -1.9733
 304   0.0000      -0.068688        -1.8691

MULLIKEN ATOMIC CHARGES
-----------------------
   0 C :    0.298447
   1 C :   -0.348770
   2 C :   -0.181801
   3 N :    0.152267
   4 C :   -0.198164
   5 N :    0.167612
   6 C :    0.016138
   7 C :   -0.001422
   8 C :   -0.072488
   9 C :    0.113259
  10 C :   -0.098777
  11 C :   -0.016880
  12 S :    0.139880
  13 C :   -0.050976
  14 C :    0.031829
  15 C :    0.171120
  16 O :   -0.201322
  17 C :   -0.068247
  18 C :    0.047933
  19 C :   -0.119759
  20 C :    0.034710
  21 C :    0.043790
  22 C :    0.061628
  23 C :    0.066190
  24 C :   -0.166557
  25 N :   -0.004232
  26 C :   -0.131002
  27 S :    0.148733
  28 S :    0.137454
  29 C :    0.056399
  30 C :    0.234399
  31 F :   -0.177267
  32 F :   -0.148087
  33 C :    0.020276
  34 C :   -0.049777
  35 C :   -0.063290
  36 N :   -0.020506
  37 C :    0.144889
  38 C :    0.134554
  39 N :    0.030560
  40 F :   -0.135481
  41 F :   -0.130186
  42 C :    0.150015
  43 C :    0.006981
  44 C :   -0.042878
  45 N :   -0.249603
  46 S :    0.578423
  47 N :   -0.293893
  48 C :   -0.148154
  49 C :   -0.043909
  50 C :    0.130775
  51 C :    0.036836
  52 C :    0.028463
  53 C :   -0.169315
  54 N :    0.009335
  55 C :   -0.116677
  56 S :    0.175890
  57 S :    0.146672
  58 C :    0.061043
  59 C :    0.230365
  60 F :   -0.181058
  61 F :   -0.145064
  62 C :   -0.011506
  63 C :   -0.084029
  64 C :    0.260263
  65 C :   -0.330697
  66 C :   -0.190113
  67 N :    0.163275
  68 C :   -0.177705
  69 N :    0.178946
  70 C :    0.017769
  71 C :    0.011604
  72 C :    0.150309
  73 O :   -0.160099
  74 C :   -0.074525
  75 C :    0.113371
  76 C :   -0.091330
  77 C :   -0.022018
  78 S :    0.150475
  79 C :   -0.049079
  80 C :    0.024969
  81 H :   -0.018764
  82 H :   -0.006409
  83 H :    0.031603
  84 H :   -0.010898
  85 H :    0.017053
  86 H :    0.026751
  87 H :   -0.002816
  88 H :    0.032460
  89 H :   -0.016256
  90 H :   -0.000199
  91 H :    0.042357
  92 H :   -0.006080
Sum of atomic charges:   -0.0000000

LOEWDIN ATOMIC CHARGES
----------------------
   0 C :    0.075712
   1 C :   -0.134775
   2 C :   -0.017096
   3 N :   -0.048302
   4 C :   -0.027128
   5 N :   -0.042265
   6 C :   -0.022857
   7 C :   -0.058425
   8 C :    0.024751
   9 C :   -0.033289
  10 C :   -0.143805
  11 C :   -0.006851
  12 S :    0.428986
  13 C :   -0.151285
  14 C :   -0.053597
  15 C :    0.097022
  16 O :   -0.176172
  17 C :   -0.085995
  18 C :    0.056344
  19 C :   -0.170148
  20 C :    0.012007
  21 C :   -0.059021
  22 C :    0.032110
  23 C :   -0.070752
  24 C :   -0.119788
  25 N :   -0.093698
  26 C :   -0.124172
  27 S :    0.422676
  28 S :    0.418239
  29 C :   -0.095512
  30 C :    0.003890
  31 F :   -0.050289
  32 F :   -0.038263
  33 C :   -0.032732
  34 C :   -0.002933
  35 C :   -0.012059
  36 N :   -0.051145
  37 C :    0.063562
  38 C :    0.060131
  39 N :   -0.036697
  40 F :   -0.024446
  41 F :   -0.019938
  42 C :   -0.027613
  43 C :   -0.037579
  44 C :   -0.042455
  45 N :   -0.282801
  46 S :    0.737044
  47 N :   -0.291372
  48 C :   -0.143265
  49 C :   -0.037480
  50 C :   -0.045972
  51 C :   -0.012890
  52 C :   -0.080487
  53 C :   -0.126251
  54 N :   -0.078043
  55 C :   -0.129453
  56 S :    0.460702
  57 S :    0.425301
  58 C :   -0.091445
  59 C :   -0.006700
  60 F :   -0.050058
  61 F :   -0.036351
  62 C :    0.065823
  63 C :   -0.067409
  64 C :    0.066144
  65 C :   -0.129657
  66 C :   -0.019661
  67 N :   -0.043381
  68 C :   -0.019008
  69 N :   -0.039516
  70 C :   -0.013375
  71 C :   -0.057590
  72 C :    0.098452
  73 O :   -0.148350
  74 C :    0.023661
  75 C :   -0.035247
  76 C :   -0.141311
  77 C :   -0.006907
  78 S :    0.438120
  79 C :   -0.146809
  80 C :   -0.058094
  81 H :    0.037348
  82 H :    0.041124
  83 H :    0.026324
  84 H :    0.033256
  85 H :    0.045791
  86 H :    0.031478
  87 H :    0.027934
  88 H :    0.048800
  89 H :    0.038352
  90 H :    0.042528
  91 H :    0.031034
  92 H :    0.035316

  Mayer bond orders larger than 0.100000
B(  0-C ,  1-C ) :   1.6466 B(  0-C ,  6-C ) :   1.0057 B(  0-C , 17-C ) :   1.0553
B(  1-C ,  2-C ) :   1.1407 B(  1-C ,  4-C ) :   1.1357 B(  2-C ,  3-N ) :   2.9721
B(  4-C ,  5-N ) :   2.9867 B(  6-C ,  7-C ) :   1.2651 B(  6-C , 11-C ) :   1.4087
B(  7-C ,  8-C ) :   1.3953 B(  7-C , 15-C ) :   0.9789 B(  8-C ,  9-C ) :   1.2578
B(  8-C , 81-H ) :   1.0183 B(  9-C , 10-C ) :   1.2872 B(  9-C , 14-C ) :   1.1753
B( 10-C , 11-C ) :   1.3250 B( 10-C , 12-S ) :   1.1066 B( 11-C , 82-H ) :   0.9826
B( 12-S , 13-C ) :   1.1188 B( 13-C , 14-C ) :   1.6228 B( 13-C , 83-H ) :   0.9692
B( 14-C , 84-H ) :   0.9841 B( 15-C , 16-O ) :   2.0516 B( 15-C , 17-C ) :   0.9579
B( 17-C , 18-C ) :   1.6163 B( 18-C , 19-C ) :   1.1857 B( 18-C , 85-H ) :   0.9231
B( 19-C , 20-C ) :   1.5155 B( 19-C , 27-S ) :   1.0566 B( 20-C , 21-C ) :   1.1919
B( 20-C , 86-H ) :   0.9667 B( 21-C , 22-C ) :   1.3593 B( 21-C , 26-C ) :   1.1872
B( 22-C , 23-C ) :   1.4403 B( 22-C , 33-C ) :   0.9249 B( 23-C , 24-C ) :   1.1547
B( 23-C , 30-C ) :   1.0632 B( 24-C , 25-N ) :   1.5677 B( 24-C , 28-S ) :   1.0807
B( 25-N , 26-C ) :   1.5301 B( 26-C , 27-S ) :   1.0971 B( 28-S , 29-C ) :   1.0736
B( 29-C , 30-C ) :   1.5178 B( 29-C , 32-F ) :   1.1434 B( 30-C , 31-F ) :   1.1319
B( 33-C , 34-C ) :   1.4061 B( 33-C , 42-C ) :   0.1401 B( 33-C , 44-C ) :   1.2947
B( 34-C , 35-C ) :   1.1160 B( 34-C , 39-N ) :   1.4103 B( 35-C , 36-N ) :   1.3874
B( 35-C , 42-C ) :   1.3019 B( 36-N , 37-C ) :   1.6842 B( 37-C , 38-C ) :   1.0849
B( 37-C , 41-F ) :   1.1902 B( 38-C , 39-N ) :   1.6982 B( 38-C , 40-F ) :   1.1816
B( 42-C , 43-C ) :   1.2265 B( 42-C , 48-C ) :   1.1382 B( 43-C , 44-C ) :   1.0995
B( 43-C , 47-N ) :   1.4623 B( 44-C , 45-N ) :   1.4923 B( 45-N , 46-S ) :   1.3446
B( 45-N , 47-N ) :   0.1419 B( 46-S , 47-N ) :   1.3265 B( 48-C , 49-C ) :   1.5364
B( 48-C , 56-S ) :   1.0826 B( 49-C , 50-C ) :   1.1774 B( 49-C , 87-H ) :   0.9758
B( 50-C , 51-C ) :   1.3237 B( 50-C , 55-C ) :   1.1783 B( 51-C , 52-C ) :   1.3468
B( 51-C , 62-C ) :   1.0205 B( 52-C , 53-C ) :   1.1660 B( 52-C , 59-C ) :   1.0992
B( 53-C , 54-N ) :   1.5818 B( 53-C , 57-S ) :   1.0723 B( 54-N , 55-C ) :   1.5358
B( 55-C , 56-S ) :   1.0620 B( 57-S , 58-C ) :   1.0955 B( 58-C , 59-C ) :   1.4906
B( 58-C , 61-F ) :   1.1510 B( 59-C , 60-F ) :   1.1104 B( 62-C , 63-C ) :   1.7741
B( 62-C , 88-H ) :   0.9326 B( 63-C , 64-C ) :   0.9951 B( 63-C , 72-C ) :   0.9442
B( 64-C , 65-C ) :   1.6770 B( 64-C , 70-C ) :   1.0235 B( 65-C , 66-C ) :   1.1276
B( 65-C , 68-C ) :   1.1674 B( 66-C , 67-N ) :   2.9942 B( 68-C , 69-N ) :   2.9882
B( 70-C , 71-C ) :   1.2636 B( 70-C , 77-C ) :   1.4181 B( 71-C , 72-C ) :   0.9325
B( 71-C , 74-C ) :   1.4108 B( 72-C , 73-O ) :   2.1555 B( 74-C , 75-C ) :   1.2606
B( 74-C , 89-H ) :   1.0160 B( 75-C , 76-C ) :   1.2953 B( 75-C , 80-C ) :   1.1718
B( 76-C , 77-C ) :   1.3190 B( 76-C , 78-S ) :   1.1039 B( 77-C , 90-H ) :   0.9874
B( 78-S , 79-C ) :   1.1280 B( 79-C , 80-C ) :   1.6291 B( 79-C , 91-H ) :   0.9685
B( 80-C , 92-H ) :   1.0002

-----------------------------------------------------------------------------
         ABSORPTION SPECTRUM VIA TRANSITION ELECTRIC DIPOLE MOMENTS
-----------------------------------------------------------------------------
State   Energy  Wavelength   fosc         T2         TX        TY        TZ
        (cm-1)    (nm)                  (au**2)     (au)      (au)      (au)
-----------------------------------------------------------------------------
   0   17001.2    588.2   0.511430553   9.90335   1.19742   0.14651  -2.90656
   1   20336.3    491.7   0.085505165   1.38419   1.03140   0.15961   0.54307
   2   21082.9    474.3   0.253182223   3.95348   1.79930   0.32980   0.77925
   3   21741.2    460.0   0.048045115   0.72752  -0.80585  -0.25789   0.10778
   4   22421.1    446.0   0.116065386   1.70420   0.38785   0.04317  -1.24576
   5   23635.0    423.1   0.064725027   0.90155   0.91458   0.16521   0.19442
   6   24553.2    407.3   0.082820671   1.11047  -0.47522  -0.08049  -0.93710
   7   24794.6    403.3   0.495278782   6.57609  -1.49218  -0.48734  -2.02781
   8   25610.9    390.5   0.102114991   1.31262   0.47414   0.35287   0.98148
   9   26567.8    376.4   0.198124646   2.45504  -0.32330   0.14556  -1.52622
  10   27329.8    365.9   0.051274616   0.61765   0.01880   0.38641  -0.68409
  11   27455.7    364.2   0.044310993   0.53132  -0.14150  -0.13571   0.70205
  12   27883.5    358.6   0.093047605   1.09858  -0.48356   0.48792  -0.79164
  13   28288.6    353.5   0.002387189   0.02778   0.06278   0.12758   0.08696
  14   29095.6    343.7   0.018213617   0.20608   0.30307  -0.10141   0.32241
  15   29362.6    340.6   0.059401416   0.66601   0.67656  -0.33180   0.31334
  16   29613.8    337.7   0.024994044   0.27786   0.04642  -0.11922  -0.51136
  17   29700.4    336.7   0.007484582   0.08296  -0.14832   0.01032   0.24669
  18   30103.7    332.2   0.044870757   0.49070   0.44680  -0.51173  -0.17091
  19   30153.5    331.6   0.320505640   3.49923  -1.76808   0.27730  -0.54426
  20   30366.8    329.3   0.018965036   0.20560  -0.35483   0.18372   0.21435
  21   30499.7    327.9   0.374712292   4.04462   1.00429  -0.45594   1.68171
  22   30787.6    324.8   0.059192172   0.63294  -0.36215   0.08988  -0.70265
  23   30959.6    323.0   0.103677668   1.10247   0.05012   0.23032  -1.02319
  24   31399.3    318.5   0.004048976   0.04245   0.00360   0.19048  -0.07847
  25   31563.7    316.8   0.005916000   0.06170  -0.18030  -0.16731   0.03471
  26   31804.9    314.4   0.022335809   0.23120   0.32554   0.34635   0.07252
  27   32021.9    312.3   0.331393537   3.40701  -0.59694  -0.79614   1.55461
  28   32438.4    308.3   0.020530611   0.20836  -0.06613  -0.09540  -0.44146
  29   32600.9    306.7   0.063873565   0.64501   0.79004  -0.06559   0.12863
  30   32624.9    306.5   0.115830836   1.16883   0.13049   0.57515  -0.90609
  31   32923.2    303.7   0.275693694   2.75677  -0.62614  -0.37476   1.49140
  32   33253.6    300.7   0.035638657   0.35282   0.04102   0.24821   0.53808
  33   33346.4    299.9   0.381572389   3.76707   1.01274  -1.16011   1.18134
  34   33521.9    298.3   0.008861739   0.08703   0.11643   0.11420   0.24583
  35   33713.5    296.6   0.148136094   1.44655  -0.80219   0.46848  -0.76392
  36   33971.2    294.4   0.042489898   0.41177   0.43769  -0.25278  -0.39534
  37   34224.1    292.2   0.086713689   0.83412  -0.24441   0.38443  -0.79158
  38   34353.7    291.1   0.207286000   1.98643  -0.41210   0.34584  -1.30269
  39   34472.3    290.1   0.010746227   0.10263   0.11575   0.14408  -0.26167
  40   34918.2    286.4   0.076961058   0.72559   0.55601   0.19621   0.61477
  41   35144.2    284.5   0.171154256   1.60328  -0.34328  -0.16432  -1.20766
  42   35173.5    284.3   0.128433524   1.20209  -0.30582  -0.06674   1.05077
  43   35310.1    283.2   0.089422826   0.83373  -0.73578  -0.20784   0.49915
  44   35523.5    281.5   0.006953277   0.06444  -0.06282   0.02379   0.24480
  45   35540.2    281.4   0.003016665   0.02794  -0.05731  -0.08214   0.13384
  46   35838.9    279.0   0.013011909   0.11953   0.31838  -0.12084   0.05966
  47   35963.0    278.1   0.123486777   1.13042  -0.69052  -0.25504  -0.76718
  48   35981.9    277.9   0.059417419   0.54363   0.40329   0.20440  -0.58241
  49   36182.1    276.4   0.156110468   1.42041   0.96170   0.18436   0.67938
  50   36365.8    275.0   0.056299305   0.50967   0.28936   0.47417  -0.44844
  51   36530.9    273.7   0.135353725   1.21979   1.05888  -0.30634   0.06866
  52   36757.7    272.1   0.066238586   0.59325  -0.43775   0.32537   0.54384
  53   36884.8    271.1   0.019471075   0.17379   0.13532   0.32866   0.21785
  54   36988.9    270.4   0.051129732   0.45507  -0.60715  -0.21138   0.20433
  55   37421.8    267.2   0.004158016   0.03658   0.02681   0.18012   0.05847
  56   37587.5    266.0   0.019898538   0.17428  -0.28300   0.24378  -0.18645
  57   37898.5    263.9   0.093834555   0.81511   0.23750   0.19387   0.84919
  58   37934.8    263.6   0.057695901   0.50071  -0.69190  -0.04021  -0.14271
  59   38292.6    261.1   0.012428052   0.10685   0.20769   0.00977  -0.25223
  60   38408.1    260.4   0.012945904   0.11096   0.08073  -0.31813  -0.05695
  61   38445.6    260.1   0.148158795   1.26869   0.32825   0.10820   1.07203
  62   38893.5    257.1   0.011622887   0.09838  -0.31043  -0.04443   0.00626
  63   39051.8    256.1   0.070978100   0.59836  -0.35675   0.67661   0.11529
  64   39210.0    255.0   0.006110729   0.05131  -0.00028   0.05885  -0.21873
  65   39460.4    253.4   0.356346793   2.97294  -0.03431  -0.24720   1.70606
  66   39609.2    252.5   0.114434725   0.95112  -0.49063  -0.35262   0.76555
  67   39759.6    251.5   0.019627382   0.16252  -0.35803  -0.15644   0.09928
  68   40082.8    249.5   0.022842972   0.18762  -0.00116  -0.04203  -0.43110
  69   40131.4    249.2   0.041228742   0.33821   0.20365   0.09338  -0.53667
  70   40266.6    248.3   0.030017236   0.24542  -0.48049   0.05508  -0.10727
  71   40314.9    248.0   0.255082531   2.08300  -0.66500   0.28330  -1.24921

FINAL SINGLE POINT ENERGY     -6220.427446851940

DIPOLE MOMENT
-------------
                                X             Y             Z
Electronic contribution:    -48.94830       4.40515     -50.19596
Nuclear contribution   :     49.18552      -7.28367      53.03922
                        -----------------------------------------
Total Dipole Moment    :      0.23722      -2.87852       2.84326
                        -----------------------------------------
Magnitude (a.u.)       :      4.05293
Magnitude (Debye)      :     10.30173

Rotational constants in cm-1:     0.000883     0.000459     0.000322
Rotational constants in MHz :    26.485758    13.753156     9.645463

                             ****ORCA TERMINATED NORMALLY****
TOTAL RUN TIME: 0 days 0 hours 12 minutes 31 seconds 234 msec
