                         Program Version 4.2.0 -  RELEASE  -
|  1> # ORCA input file
|  2> # SCF done       -197.558560266475          0.000555005176
|  3> ! CAM-B3LYP def2-SVP def2/J RIJCOSX Grid4 TightSCF
|  4> %maxcore 5000
|  5> %tddft
|  6>     Mode sTDDFT
|  7>     Ethresh 5.0
|  8>     maxcore 5000
|  9> end
| 10>
| 11> %pal
| 12>   nprocs 6
| 13>   end
| 14> * xyz 0 1
| 15>    C        0.61037         4.44641         0.33891
| 16>    C        1.25330         3.29116        -0.02043
| 17>    C        2.65361         3.11865         0.02492
| 18>    N        3.78257         2.91251         0.03693
| 19>    C        0.63551         2.11428        -0.49438
| 20>    N        0.21386         1.12246        -0.89087
| 21>    C        1.26290         5.66428         0.80628
| 22>    C        0.27232         6.65201         1.04230
| 23>    C        0.57339         7.91601         1.49043
| 24>    C        1.91760         8.22278         1.71922
| 25>    C        2.90120         7.23150         1.48287
| 26>    C        2.59589         5.95351         1.02860
| 27>    S        4.49140         7.82886         1.83337
| 28>    C        3.84145         9.36684         2.28322
| 29>    C        2.49625         9.43883         2.17896
| 30>    C       -1.04796         6.09090         0.73569
| 31>    O       -2.11947         6.66860         0.81915
| 32>    C       -0.82173         4.70154         0.31469
| 33>    C       -1.79924         3.80182        -0.01265
| 34>    C       -3.19754         3.95370        -0.05610
| 35>    C       -4.03958         2.88716        -0.39116
| 36>    C       -5.37636         3.24109        -0.36924
| 37>    C       -5.56042         4.59799        -0.02161
| 38>    S       -4.10332         5.42507         0.28333
| 39>    C       -6.95443         4.86080        -0.01410
| 40>    C       -7.64657         3.68229        -0.35150
| 41>    C       -6.67732         2.62912        -0.60577
| 42>    C       -6.92675         1.35165        -1.00859
| 43>    C       -5.89020         0.41471        -1.21264
| 44>    N       -5.05484        -0.35271        -1.37694
| 45>    C       -8.22796         0.87652        -1.28463
| 46>    N       -9.26970         0.47479        -1.54248
| 47>    C       -9.03299         3.83825        -0.32417
| 48>    C       -9.38456         5.12919         0.01672
| 49>    S       -7.99913         6.16589         0.31026
| 50>    C      -10.67792         5.70122         0.18921
| 51>    C      -11.96915         5.19703         0.11763
| 52>    C      -12.38518         3.81191        -0.18604
| 53>    O      -11.85993         2.84512         0.28657
| 54>    O      -13.40677         3.69548        -1.05470
| 55>    C      -12.78258         6.33194         0.43996
| 56>    N      -12.02213         7.38722         0.64363
| 57>    O      -10.74238         7.01207         0.47916
| 58>    C      -14.20089         6.42896         0.65496
| 59>    C      -14.88484         7.60723         0.86746
| 60>    C      -16.22925         7.37705         1.16660
| 61>    C      -16.55276         6.01012         1.19130
| 62>    S      -15.21858         5.01306         0.83669
| 63>    C      -17.92202         5.87031         1.54391
| 64>    C      -18.45746         7.15513         1.74488
| 65>    C      -17.41512         8.14275         1.51491
| 66>    C      -17.53233         9.49496         1.64250
| 67>    C      -16.45931        10.37715         1.39355
| 68>    N      -15.59640        11.10031         1.17934
| 69>    C      -18.75117        10.09172         2.03030
| 70>    N      -19.74841        10.56185         2.34524
| 71>    C      -19.78465         7.12759         2.15890
| 72>    C      -20.26673         5.83424         2.28091
| 73>    S      -19.05928         4.63916         1.83181
| 74>    C      -21.55486         5.40268         2.68083
| 75>    C      -22.48158         6.07173         3.41483
| 76>    C      -22.43571         7.27487         4.22381
| 77>    C      -21.35910         7.75587         4.92228
| 78>    C      -21.42142         8.85642         5.80363
| 79>    N      -21.41449         9.74171         6.53328
| 80>    C      -20.08524         7.15561         4.92941
| 81>    N      -19.03864         6.68782         4.99540
| 82>    C      -23.81048         7.72801         4.39777
| 83>    C      -24.68919         6.71308         3.93573
| 84>    C      -23.89994         5.60213         3.38040
| 85>    O      -24.29342         4.54704         2.94026
| 86>    C      -26.05622         6.83075         4.01867
| 87>    C      -26.57868         8.00484         4.56919
| 88>    C      -25.69261         9.02040         5.00619
| 89>    C      -24.31000         8.90014         4.93080
| 90>    S      -26.56014        10.38349         5.63587
| 91>    C      -28.06899         9.59829         5.32405
| 92>    C      -27.93872         8.37284         4.77019
| 93>    H       -0.20552         8.64333         1.65913
| 94>    H        3.38279         5.23639         0.86610
| 95>    H        4.51807        10.13512         2.60356
| 96>    H        1.91961        10.31457         2.41561
| 97>    H       -1.47911         2.80124        -0.27722
| 98>    H       -3.65862         1.90986        -0.62986
| 99>    H       -9.74879         3.05915        -0.51091
|100>    H      -13.69777         4.54032        -1.42280
|101>    H      -14.40172         8.56497         0.80993
|102>    H      -20.39115         7.99753         2.33374
|103>    H      -21.87351         4.43097         2.31545
|104>    H      -26.70188         6.03967         3.67032
|105>    H      -23.67310         9.70184         5.26644
|106>    H      -28.97589        10.11157         5.57857
|107>    H      -28.76642         7.73920         4.50786
|108> *
|109>
|110>                          ****END OF INPUT****

CARTESIAN COORDINATES (ANGSTROEM)
---------------------------------
  C      0.610370    4.446410    0.338910
  C      1.253300    3.291160   -0.020430
  C      2.653610    3.118650    0.024920
  N      3.782570    2.912510    0.036930
  C      0.635510    2.114280   -0.494380
  N      0.213860    1.122460   -0.890870
  C      1.262900    5.664280    0.806280
  C      0.272320    6.652010    1.042300
  C      0.573390    7.916010    1.490430
  C      1.917600    8.222780    1.719220
  C      2.901200    7.231500    1.482870
  C      2.595890    5.953510    1.028600
  S      4.491400    7.828860    1.833370
  C      3.841450    9.366840    2.283220
  C      2.496250    9.438830    2.178960
  C     -1.047960    6.090900    0.735690
  O     -2.119470    6.668600    0.819150
  C     -0.821730    4.701540    0.314690
  C     -1.799240    3.801820   -0.012650
  C     -3.197540    3.953700   -0.056100
  C     -4.039580    2.887160   -0.391160
  C     -5.376360    3.241090   -0.369240
  C     -5.560420    4.597990   -0.021610
  S     -4.103320    5.425070    0.283330
  C     -6.954430    4.860800   -0.014100
  C     -7.646570    3.682290   -0.351500
  C     -6.677320    2.629120   -0.605770
  C     -6.926750    1.351650   -1.008590
  C     -5.890200    0.414710   -1.212640
  N     -5.054840   -0.352710   -1.376940
  C     -8.227960    0.876520   -1.284630
  N     -9.269700    0.474790   -1.542480
  C     -9.032990    3.838250   -0.324170
  C     -9.384560    5.129190    0.016720
  S     -7.999130    6.165890    0.310260
  C    -10.677920    5.701220    0.189210
  C    -11.969150    5.197030    0.117630
  C    -12.385180    3.811910   -0.186040
  O    -11.859930    2.845120    0.286570
  O    -13.406770    3.695480   -1.054700
  C    -12.782580    6.331940    0.439960
  N    -12.022130    7.387220    0.643630
  O    -10.742380    7.012070    0.479160
  C    -14.200890    6.428960    0.654960
  C    -14.884840    7.607230    0.867460
  C    -16.229250    7.377050    1.166600
  C    -16.552760    6.010120    1.191300
  S    -15.218580    5.013060    0.836690
  C    -17.922020    5.870310    1.543910
  C    -18.457460    7.155130    1.744880
  C    -17.415120    8.142750    1.514910
  C    -17.532330    9.494960    1.642500
  C    -16.459310   10.377150    1.393550
  N    -15.596400   11.100310    1.179340
  C    -18.751170   10.091720    2.030300
  N    -19.748410   10.561850    2.345240
  C    -19.784650    7.127590    2.158900
  C    -20.266730    5.834240    2.280910
  S    -19.059280    4.639160    1.831810
  C    -21.554860    5.402680    2.680830
  C    -22.481580    6.071730    3.414830
  C    -22.435710    7.274870    4.223810
  C    -21.359100    7.755870    4.922280
  C    -21.421420    8.856420    5.803630
  N    -21.414490    9.741710    6.533280
  C    -20.085240    7.155610    4.929410
  N    -19.038640    6.687820    4.995400
  C    -23.810480    7.728010    4.397770
  C    -24.689190    6.713080    3.935730
  C    -23.899940    5.602130    3.380400
  O    -24.293420    4.547040    2.940260
  C    -26.056220    6.830750    4.018670
  C    -26.578680    8.004840    4.569190
  C    -25.692610    9.020400    5.006190
  C    -24.310000    8.900140    4.930800
  S    -26.560140   10.383490    5.635870
  C    -28.068990    9.598290    5.324050
  C    -27.938720    8.372840    4.770190
  H     -0.205520    8.643330    1.659130
  H      3.382790    5.236390    0.866100
  H      4.518070   10.135120    2.603560
  H      1.919610   10.314570    2.415610
  H     -1.479110    2.801240   -0.277220
  H     -3.658620    1.909860   -0.629860
  H     -9.748790    3.059150   -0.510910
  H    -13.697770    4.540320   -1.422800
  H    -14.401720    8.564970    0.809930
  H    -20.391150    7.997530    2.333740
  H    -21.873510    4.430970    2.315450
  H    -26.701880    6.039670    3.670320
  H    -23.673100    9.701840    5.266440
  H    -28.975890   10.111570    5.578570
  H    -28.766420    7.739200    4.507860

 Total Charge           Charge          ....    0
 Multiplicity           Mult            ....    1
 Number of Electrons    NEL             ....  562
 Basis Dimension        Dim             .... 1191

ORBITAL ENERGIES
----------------

  NO   OCC          E(Eh)            E(eV)
   0   2.0000     -89.007329     -2422.0125
   1   2.0000     -89.004115     -2421.9251
   2   2.0000     -89.001484     -2421.8535
   3   2.0000     -88.995732     -2421.6970
   4   2.0000     -88.972150     -2421.0553
   5   2.0000     -88.969271     -2420.9769
   6   2.0000     -19.344235      -526.3834
   7   2.0000     -19.284492      -524.7577
   8   2.0000     -19.231241      -523.3087
   9   2.0000     -19.224315      -523.1202
  10   2.0000     -19.219735      -522.9956
  11   2.0000     -14.480316      -394.0294
  12   2.0000     -14.438245      -392.8846
  13   2.0000     -14.436049      -392.8249
  14   2.0000     -14.433315      -392.7505
  15   2.0000     -14.431818      -392.7097
  16   2.0000     -14.421848      -392.4384
  17   2.0000     -14.421594      -392.4315
  18   2.0000     -14.418865      -392.3573
  19   2.0000     -14.417613      -392.3232
  20   2.0000     -10.432900      -283.8936
  21   2.0000     -10.389402      -282.7100
  22   2.0000     -10.378523      -282.4140
  23   2.0000     -10.373674      -282.2820
  24   2.0000     -10.370848      -282.2051
  25   2.0000     -10.370596      -282.1983
  26   2.0000     -10.360439      -281.9219
  27   2.0000     -10.357972      -281.8547
  28   2.0000     -10.353591      -281.7355
  29   2.0000     -10.348580      -281.5992
  30   2.0000     -10.347981      -281.5829
  31   2.0000     -10.347771      -281.5772
  32   2.0000     -10.347364      -281.5661
  33   2.0000     -10.347248      -281.5629
  34   2.0000     -10.346500      -281.5426
  35   2.0000     -10.345784      -281.5231
  36   2.0000     -10.343449      -281.4596
  37   2.0000     -10.341024      -281.3936
  38   2.0000     -10.338245      -281.3179
  39   2.0000     -10.338031      -281.3121
  40   2.0000     -10.335585      -281.2456
  41   2.0000     -10.333865      -281.1988
  42   2.0000     -10.333797      -281.1969
  43   2.0000     -10.332812      -281.1701
  44   2.0000     -10.332788      -281.1695
  45   2.0000     -10.330934      -281.1190
  46   2.0000     -10.329215      -281.0722
  47   2.0000     -10.326219      -280.9907
  48   2.0000     -10.324046      -280.9316
  49   2.0000     -10.323877      -280.9270
  50   2.0000     -10.323495      -280.9166
  51   2.0000     -10.321651      -280.8664
  52   2.0000     -10.319903      -280.8188
  53   2.0000     -10.319236      -280.8007
  54   2.0000     -10.319217      -280.8002
  55   2.0000     -10.317722      -280.7595
  56   2.0000     -10.317303      -280.7481
  57   2.0000     -10.316990      -280.7396
  58   2.0000     -10.316846      -280.7357
  59   2.0000     -10.316765      -280.7334
  60   2.0000     -10.316711      -280.7320
  61   2.0000     -10.315034      -280.6863
  62   2.0000     -10.313884      -280.6550
  63   2.0000     -10.312494      -280.6172
  64   2.0000     -10.312208      -280.6094
  65   2.0000     -10.310917      -280.5743
  66   2.0000     -10.308733      -280.5149
  67   2.0000     -10.307465      -280.4804
  68   2.0000     -10.306749      -280.4609
  69   2.0000     -10.306619      -280.4574
  70   2.0000     -10.306410      -280.4517
  71   2.0000     -10.305883      -280.4373
  72   2.0000     -10.304987      -280.4129
  73   2.0000     -10.302943      -280.3573
  74   2.0000     -10.297229      -280.2018
  75   2.0000     -10.295181      -280.1461
  76   2.0000     -10.294199      -280.1194
  77   2.0000     -10.291657      -280.0502
  78   2.0000      -8.101557      -220.4546
  79   2.0000      -8.098599      -220.3741
  80   2.0000      -8.096241      -220.3099
  81   2.0000      -8.087964      -220.0847
  82   2.0000      -8.068291      -219.5494
  83   2.0000      -8.065596      -219.4760
  84   2.0000      -6.070785      -165.1944
  85   2.0000      -6.067819      -165.1137
  86   2.0000      -6.066477      -165.0772
  87   2.0000      -6.065402      -165.0480
  88   2.0000      -6.064052      -165.0112
  89   2.0000      -6.063532      -164.9971
  90   2.0000      -6.061213      -164.9340
  91   2.0000      -6.061040      -164.9293
  92   2.0000      -6.058734      -164.8665
  93   2.0000      -6.057396      -164.8301
  94   2.0000      -6.052597      -164.6995
  95   2.0000      -6.050538      -164.6435
  96   2.0000      -6.037810      -164.2972
  97   2.0000      -6.035103      -164.2235
  98   2.0000      -6.033464      -164.1789
  99   2.0000      -6.030785      -164.1060
 100   2.0000      -6.030029      -164.0854
 101   2.0000      -6.027262      -164.0101
 102   2.0000      -1.284057       -34.9410
 103   2.0000      -1.207922       -32.8692
 104   2.0000      -1.146628       -31.2013
 105   2.0000      -1.135235       -30.8913
 106   2.0000      -1.123703       -30.5775
 107   2.0000      -1.057667       -28.7806
 108   2.0000      -1.054483       -28.6939
 109   2.0000      -1.030052       -28.0291
 110   2.0000      -1.026377       -27.9291
 111   2.0000      -1.026143       -27.9228
 112   2.0000      -1.025533       -27.9062
 113   2.0000      -1.019318       -27.7371
 114   2.0000      -1.014417       -27.6037
 115   2.0000      -1.013930       -27.5904
 116   2.0000      -1.012285       -27.5457
 117   2.0000      -1.010834       -27.5062
 118   2.0000      -1.009034       -27.4572
 119   2.0000      -0.998821       -27.1793
 120   2.0000      -0.998030       -27.1578
 121   2.0000      -0.993609       -27.0375
 122   2.0000      -0.991201       -26.9719
 123   2.0000      -0.988270       -26.8922
 124   2.0000      -0.970674       -26.4134
 125   2.0000      -0.964217       -26.2377
 126   2.0000      -0.941717       -25.6254
 127   2.0000      -0.937309       -25.5055
 128   2.0000      -0.936475       -25.4828
 129   2.0000      -0.923189       -25.1213
 130   2.0000      -0.919660       -25.0252
 131   2.0000      -0.903763       -24.5926
 132   2.0000      -0.902865       -24.5682
 133   2.0000      -0.887160       -24.1408
 134   2.0000      -0.884955       -24.0808
 135   2.0000      -0.883715       -24.0471
 136   2.0000      -0.882988       -24.0273
 137   2.0000      -0.870814       -23.6960
 138   2.0000      -0.870309       -23.6823
 139   2.0000      -0.867897       -23.6167
 140   2.0000      -0.865535       -23.5524
 141   2.0000      -0.829195       -22.5636
 142   2.0000      -0.826917       -22.5016
 143   2.0000      -0.825696       -22.4683
 144   2.0000      -0.820816       -22.3355
 145   2.0000      -0.799560       -21.7571
 146   2.0000      -0.796268       -21.6676
 147   2.0000      -0.783703       -21.3256
 148   2.0000      -0.783464       -21.3191
 149   2.0000      -0.770873       -20.9765
 150   2.0000      -0.765839       -20.8395
 151   2.0000      -0.762376       -20.7453
 152   2.0000      -0.746893       -20.3240
 153   2.0000      -0.741337       -20.1728
 154   2.0000      -0.725531       -19.7427
 155   2.0000      -0.721669       -19.6376
 156   2.0000      -0.711752       -19.3678
 157   2.0000      -0.706308       -19.2196
 158   2.0000      -0.699993       -19.0478
 159   2.0000      -0.697723       -18.9860
 160   2.0000      -0.694404       -18.8957
 161   2.0000      -0.692432       -18.8420
 162   2.0000      -0.690838       -18.7987
 163   2.0000      -0.688339       -18.7307
 164   2.0000      -0.682149       -18.5622
 165   2.0000      -0.667806       -18.1719
 166   2.0000      -0.665943       -18.1212
 167   2.0000      -0.661290       -17.9946
 168   2.0000      -0.657979       -17.9045
 169   2.0000      -0.652022       -17.7424
 170   2.0000      -0.645398       -17.5622
 171   2.0000      -0.634733       -17.2720
 172   2.0000      -0.633728       -17.2446
 173   2.0000      -0.630211       -17.1489
 174   2.0000      -0.627205       -17.0671
 175   2.0000      -0.623920       -16.9777
 176   2.0000      -0.622722       -16.9451
 177   2.0000      -0.616748       -16.7826
 178   2.0000      -0.609100       -16.5745
 179   2.0000      -0.604961       -16.4618
 180   2.0000      -0.601266       -16.3613
 181   2.0000      -0.600611       -16.3434
 182   2.0000      -0.595187       -16.1959
 183   2.0000      -0.582663       -15.8551
 184   2.0000      -0.579560       -15.7706
 185   2.0000      -0.569742       -15.5035
 186   2.0000      -0.562488       -15.3061
 187   2.0000      -0.559018       -15.2116
 188   2.0000      -0.558575       -15.1996
 189   2.0000      -0.555999       -15.1295
 190   2.0000      -0.553627       -15.0649
 191   2.0000      -0.549816       -14.9613
 192   2.0000      -0.548111       -14.9149
 193   2.0000      -0.547374       -14.8948
 194   2.0000      -0.544564       -14.8183
 195   2.0000      -0.543570       -14.7913
 196   2.0000      -0.541782       -14.7426
 197   2.0000      -0.536223       -14.5914
 198   2.0000      -0.534888       -14.5550
 199   2.0000      -0.530183       -14.4270
 200   2.0000      -0.526481       -14.3263
 201   2.0000      -0.524664       -14.2768
 202   2.0000      -0.521752       -14.1976
 203   2.0000      -0.518979       -14.1221
 204   2.0000      -0.514843       -14.0096
 205   2.0000      -0.512687       -13.9509
 206   2.0000      -0.510888       -13.9020
 207   2.0000      -0.509516       -13.8646
 208   2.0000      -0.508115       -13.8265
 209   2.0000      -0.506729       -13.7888
 210   2.0000      -0.504254       -13.7214
 211   2.0000      -0.503532       -13.7018
 212   2.0000      -0.501924       -13.6580
 213   2.0000      -0.501366       -13.6429
 214   2.0000      -0.496553       -13.5119
 215   2.0000      -0.496371       -13.5069
 216   2.0000      -0.492952       -13.4139
 217   2.0000      -0.492311       -13.3965
 218   2.0000      -0.491503       -13.3745
 219   2.0000      -0.488322       -13.2879
 220   2.0000      -0.484782       -13.1916
 221   2.0000      -0.479093       -13.0368
 222   2.0000      -0.477454       -12.9922
 223   2.0000      -0.472182       -12.8487
 224   2.0000      -0.468076       -12.7370
 225   2.0000      -0.464837       -12.6489
 226   2.0000      -0.464211       -12.6318
 227   2.0000      -0.462659       -12.5896
 228   2.0000      -0.460689       -12.5360
 229   2.0000      -0.459586       -12.5060
 230   2.0000      -0.458082       -12.4651
 231   2.0000      -0.454950       -12.3798
 232   2.0000      -0.453879       -12.3507
 233   2.0000      -0.453106       -12.3297
 234   2.0000      -0.452802       -12.3214
 235   2.0000      -0.450527       -12.2595
 236   2.0000      -0.447501       -12.1771
 237   2.0000      -0.446848       -12.1593
 238   2.0000      -0.445869       -12.1327
 239   2.0000      -0.444805       -12.1038
 240   2.0000      -0.443118       -12.0578
 241   2.0000      -0.442347       -12.0369
 242   2.0000      -0.441614       -12.0169
 243   2.0000      -0.440960       -11.9991
 244   2.0000      -0.439387       -11.9563
 245   2.0000      -0.437818       -11.9136
 246   2.0000      -0.435728       -11.8568
 247   2.0000      -0.435008       -11.8372
 248   2.0000      -0.433640       -11.8000
 249   2.0000      -0.431050       -11.7295
 250   2.0000      -0.430541       -11.7156
 251   2.0000      -0.429310       -11.6821
 252   2.0000      -0.426170       -11.5967
 253   2.0000      -0.421243       -11.4626
 254   2.0000      -0.417408       -11.3583
 255   2.0000      -0.415629       -11.3099
 256   2.0000      -0.411614       -11.2006
 257   2.0000      -0.411395       -11.1946
 258   2.0000      -0.410569       -11.1722
 259   2.0000      -0.408569       -11.1177
 260   2.0000      -0.406990       -11.0747
 261   2.0000      -0.400294       -10.8926
 262   2.0000      -0.386996       -10.5307
 263   2.0000      -0.383918       -10.4469
 264   2.0000      -0.376808       -10.2535
 265   2.0000      -0.370902       -10.0927
 266   2.0000      -0.366758        -9.9800
 267   2.0000      -0.358575        -9.7573
 268   2.0000      -0.357528        -9.7288
 269   2.0000      -0.347156        -9.4466
 270   2.0000      -0.345261        -9.3950
 271   2.0000      -0.337328        -9.1792
 272   2.0000      -0.332639        -9.0516
 273   2.0000      -0.329629        -8.9697
 274   2.0000      -0.325046        -8.8450
 275   2.0000      -0.320099        -8.7103
 276   2.0000      -0.317026        -8.6267
 277   2.0000      -0.300342        -8.1727
 278   2.0000      -0.298648        -8.1266
 279   2.0000      -0.278835        -7.5875
 280   2.0000      -0.273816        -7.4509
 281   0.0000      -0.117419        -3.1951
 282   0.0000      -0.116478        -3.1695
 283   0.0000      -0.092767        -2.5243
 284   0.0000      -0.092027        -2.5042
 285   0.0000      -0.069526        -1.8919

MULLIKEN ATOMIC CHARGES
-----------------------
   0 C :    0.326336
   1 C :   -0.352427
   2 C :   -0.185848
   3 N :    0.152859
   4 C :   -0.193466
   5 N :    0.159574
   6 C :    0.011487
   7 C :   -0.012610
   8 C :   -0.064631
   9 C :    0.111138
  10 C :   -0.096732
  11 C :   -0.019127
  12 S :    0.146355
  13 C :   -0.047818
  14 C :    0.027157
  15 C :    0.168759
  16 O :   -0.193772
  17 C :   -0.084177
  18 C :   -0.031342
  19 C :   -0.051921
  20 C :   -0.061192
  21 C :    0.050351
  22 C :   -0.074886
  23 S :    0.247742
  24 C :   -0.092634
  25 C :    0.003842
  26 C :    0.308116
  27 C :   -0.294000
  28 C :   -0.198129
  29 N :    0.187150
  30 C :   -0.193715
  31 N :    0.194519
  32 C :   -0.030676
  33 C :   -0.129955
  34 S :    0.244884
  35 C :    0.237987
  36 C :   -0.199407
  37 C :    0.169121
  38 O :   -0.157783
  39 O :   -0.154984
  40 C :    0.037737
  41 N :    0.017072
  42 O :   -0.169709
  43 C :   -0.136415
  44 C :   -0.031010
  45 C :    0.034352
  46 C :   -0.092033
  47 S :    0.197724
  48 C :   -0.071028
  49 C :   -0.000993
  50 C :    0.300608
  51 C :   -0.284601
  52 C :   -0.195004
  53 N :    0.187172
  54 C :   -0.183841
  55 N :    0.173060
  56 C :   -0.005092
  57 C :   -0.114122
  58 S :    0.224646
  59 C :    0.075041
  60 C :   -0.124554
  61 C :    0.268157
  62 C :   -0.330112
  63 C :   -0.175211
  64 N :    0.163128
  65 C :   -0.201203
  66 N :    0.168407
  67 C :   -0.006949
  68 C :    0.006349
  69 C :    0.130196
  70 O :   -0.142490
  71 C :   -0.064331
  72 C :    0.105433
  73 C :   -0.093261
  74 C :   -0.014970
  75 S :    0.145803
  76 C :   -0.050250
  77 C :    0.029209
  78 H :   -0.010460
  79 H :   -0.005764
  80 H :    0.040691
  81 H :   -0.005275
  82 H :    0.017605
  83 H :    0.028835
  84 H :    0.036421
  85 H :    0.188605
  86 H :    0.028494
  87 H :    0.026400
  88 H :    0.024153
  89 H :   -0.009826
  90 H :    0.002873
  91 H :    0.040066
  92 H :   -0.005876
Sum of atomic charges:    0.0000000

LOEWDIN ATOMIC CHARGES
----------------------
   0 C :    0.076241
   1 C :   -0.137860
   2 C :   -0.017759
   3 N :   -0.049925
   4 C :   -0.023614
   5 N :   -0.044683
   6 C :   -0.021529
   7 C :   -0.054943
   8 C :    0.025158
   9 C :   -0.034877
  10 C :   -0.144656
  11 C :   -0.006825
  12 S :    0.434891
  13 C :   -0.147532
  14 C :   -0.057261
  15 C :    0.087591
  16 O :   -0.175249
  17 C :   -0.104477
  18 C :    0.055924
  19 C :   -0.179921
  20 C :    0.009530
  21 C :   -0.071123
  22 C :   -0.175611
  23 S :    0.552308
  24 C :   -0.173164
  25 C :   -0.061182
  26 C :    0.073676
  27 C :   -0.093129
  28 C :   -0.019257
  29 N :   -0.021755
  30 C :   -0.022712
  31 N :   -0.015984
  32 C :    0.002081
  33 C :   -0.191350
  34 S :    0.513335
  35 C :    0.058325
  36 C :   -0.157209
  37 C :    0.070943
  38 O :   -0.132688
  39 O :   -0.023671
  40 C :   -0.047271
  41 N :   -0.035686
  42 O :    0.032462
  43 C :   -0.196526
  44 C :    0.003368
  45 C :   -0.061988
  46 C :   -0.176302
  47 S :    0.504442
  48 C :   -0.166035
  49 C :   -0.061983
  50 C :    0.080225
  51 C :   -0.092921
  52 C :   -0.019728
  53 N :   -0.021221
  54 C :   -0.012813
  55 N :   -0.029747
  56 C :    0.004097
  57 C :   -0.178176
  58 S :    0.506623
  59 C :    0.040057
  60 C :   -0.083802
  61 C :    0.066452
  62 C :   -0.135474
  63 C :   -0.019631
  64 N :   -0.044000
  65 C :   -0.015899
  66 N :   -0.047327
  67 C :   -0.019687
  68 C :   -0.056444
  69 C :    0.083834
  70 O :   -0.141878
  71 C :    0.025321
  72 C :   -0.034871
  73 C :   -0.143738
  74 C :   -0.007552
  75 S :    0.433954
  76 C :   -0.148153
  77 C :   -0.057251
  78 H :    0.040909
  79 H :    0.041411
  80 H :    0.030460
  81 H :    0.035910
  82 H :    0.053999
  83 H :    0.048283
  84 H :    0.046216
  85 H :    0.088584
  86 H :    0.050018
  87 H :    0.042805
  88 H :    0.046708
  89 H :    0.041351
  90 H :    0.042755
  91 H :    0.030030
  92 H :    0.035772

  Mayer bond orders larger than 0.100000
B(  0-C ,  1-C ) :   1.6306 B(  0-C ,  6-C ) :   1.0021 B(  0-C , 17-C ) :   1.0692
B(  1-C ,  2-C ) :   1.1449 B(  1-C ,  4-C ) :   1.1450 B(  2-C ,  3-N ) :   2.9688
B(  4-C ,  5-N ) :   2.9620 B(  6-C ,  7-C ) :   1.2675 B(  6-C , 11-C ) :   1.4137
B(  7-C ,  8-C ) :   1.4183 B(  7-C , 15-C ) :   0.9700 B(  8-C ,  9-C ) :   1.2444
B(  8-C , 78-H ) :   1.0173 B(  9-C , 10-C ) :   1.3000 B(  9-C , 14-C ) :   1.1748
B( 10-C , 11-C ) :   1.3216 B( 10-C , 12-S ) :   1.1030 B( 11-C , 79-H ) :   0.9824
B( 12-S , 13-C ) :   1.1284 B( 13-C , 14-C ) :   1.6268 B( 13-C , 80-H ) :   0.9682
B( 14-C , 81-H ) :   0.9988 B( 15-C , 16-O ) :   2.1019 B( 15-C , 17-C ) :   0.9767
B( 17-C , 18-C ) :   1.5169 B( 18-C , 19-C ) :   1.2472 B( 18-C , 82-H ) :   0.9389
B( 19-C , 20-C ) :   1.3396 B( 19-C , 23-S ) :   1.0813 B( 20-C , 21-C ) :   1.3226
B( 20-C , 83-H ) :   1.0085 B( 21-C , 22-C ) :   1.3709 B( 21-C , 26-C ) :   0.9843
B( 22-C , 23-S ) :   1.1187 B( 22-C , 24-C ) :   1.1939 B( 24-C , 25-C ) :   1.4272
B( 24-C , 34-S ) :   1.1345 B( 25-C , 26-C ) :   0.9941 B( 25-C , 32-C ) :   1.2922
B( 26-C , 27-C ) :   1.7202 B( 27-C , 28-C ) :   1.1387 B( 27-C , 30-C ) :   1.1345
B( 28-C , 29-N ) :   2.9936 B( 30-C , 31-N ) :   2.9950 B( 32-C , 33-C ) :   1.4863
B( 32-C , 84-H ) :   0.9787 B( 33-C , 34-S ) :   1.0930 B( 33-C , 35-C ) :   1.0998
B( 35-C , 36-C ) :   1.5192 B( 35-C , 42-O ) :   1.2093 B( 36-C , 37-C ) :   0.8838
B( 36-C , 40-C ) :   1.1968 B( 37-C , 38-O ) :   2.1555 B( 37-C , 39-O ) :   1.2234
B( 39-O , 85-H ) :   0.9442 B( 40-C , 41-N ) :   1.7336 B( 40-C , 43-C ) :   1.0337
B( 41-N , 42-O ) :   0.9927 B( 43-C , 44-C ) :   1.4844 B( 43-C , 47-S ) :   1.1190
B( 44-C , 45-C ) :   1.2498 B( 44-C , 86-H ) :   1.0130 B( 45-C , 46-C ) :   1.4401
B( 45-C , 50-C ) :   0.9874 B( 46-C , 47-S ) :   1.1289 B( 46-C , 48-C ) :   1.1783
B( 48-C , 49-C ) :   1.4279 B( 48-C , 58-S ) :   1.1509 B( 49-C , 50-C ) :   0.9993
B( 49-C , 56-C ) :   1.3416 B( 50-C , 51-C ) :   1.7241 B( 51-C , 52-C ) :   1.1324
B( 51-C , 54-C ) :   1.1351 B( 52-C , 53-N ) :   2.9996 B( 54-C , 55-N ) :   2.9818
B( 56-C , 57-C ) :   1.4173 B( 56-C , 87-H ) :   0.9830 B( 57-C , 58-S ) :   1.0992
B( 57-C , 59-C ) :   1.1055 B( 59-C , 60-C ) :   1.7035 B( 59-C , 88-H ) :   0.9292
B( 60-C , 61-C ) :   1.0245 B( 60-C , 69-C ) :   0.9371 B( 61-C , 62-C ) :   1.6538
B( 61-C , 67-C ) :   1.0160 B( 62-C , 63-C ) :   1.1246 B( 62-C , 65-C ) :   1.1726
B( 63-C , 64-N ) :   2.9965 B( 65-C , 66-N ) :   2.9975 B( 67-C , 68-C ) :   1.2664
B( 67-C , 74-C ) :   1.4158 B( 68-C , 69-C ) :   0.9264 B( 68-C , 71-C ) :   1.4239
B( 69-C , 70-O ) :   2.2668 B( 71-C , 72-C ) :   1.2534 B( 71-C , 89-H ) :   1.0159
B( 72-C , 73-C ) :   1.3005 B( 72-C , 77-C ) :   1.1733 B( 73-C , 74-C ) :   1.3219
B( 73-C , 75-S ) :   1.0997 B( 74-C , 90-H ) :   0.9848 B( 75-S , 76-C ) :   1.1284
B( 76-C , 77-C ) :   1.6284 B( 76-C , 91-H ) :   0.9684 B( 77-C , 92-H ) :   0.9994

-----------------------------------------------------------------------------
         ABSORPTION SPECTRUM VIA TRANSITION ELECTRIC DIPOLE MOMENTS
-----------------------------------------------------------------------------
State   Energy  Wavelength   fosc         T2         TX        TY        TZ
        (cm-1)    (nm)                  (au**2)     (au)      (au)      (au)
-----------------------------------------------------------------------------
   0   15592.7    641.3   0.292465485   6.17489  -2.40271   0.15169   0.61552
   1   16397.9    609.8   0.249000556   4.99905  -2.22877   0.11348  -0.13702
   2   21878.3    457.1   1.088469472  16.37868   3.76371  -0.32140  -1.45255
   3   22882.3    437.0   0.925167020  13.31055  -3.58550  -0.15606  -0.65604
   4   24319.7    411.2   0.007439728   0.10071   0.31053   0.03451  -0.05557
   5   25074.8    398.8   0.008559356   0.11238   0.32950   0.03762   0.04888
   6   25484.6    392.4   0.040476955   0.52288   0.69008  -0.13446   0.16909
   7   26127.5    382.7   0.066947201   0.84355   0.48322   0.72106   0.30022
   8   27749.7    360.4   0.046479140   0.55141   0.55450  -0.45930  -0.18161
   9   27876.8    358.7   0.190804669   2.25331  -1.38782  -0.52618  -0.22452
  10   28556.2    350.2   0.053134308   0.61256  -0.64563  -0.41930  -0.14111
  11   28595.7    349.7   0.038824595   0.44697  -0.57945  -0.25222  -0.21815
  12   28828.2    346.9   0.008498502   0.09705  -0.01546   0.00904  -0.31101
  13   29447.8    339.6   0.019884679   0.22230  -0.43949   0.16605   0.03972
  14   29850.0    335.0   0.165482153   1.82508   1.12559   0.71842   0.20495
  15   30025.7    333.0   0.180907707   1.98353  -0.93048  -0.94546   0.47313
  16   30512.3    327.7   0.855889532   9.23461  -2.70925   1.27709   0.51344
  17   30698.0    325.8   0.239961169   2.57340  -0.97139  -1.25257  -0.24673
  18   31380.7    318.7   0.229521500   2.40789  -0.01195  -1.53378  -0.23507
  19   31902.3    313.5   0.075713474   0.78132  -0.24546  -0.80164  -0.28006
  20   31998.2    312.5   0.091762187   0.94409  -0.78252   0.50025   0.28549
  21   32130.5    311.2   0.743512641   7.61809  -0.04875   2.60295   0.91672
  22   32216.5    310.4   0.163746798   1.67328   1.10751  -0.66155  -0.09513
  23   32552.9    307.2   0.100451461   1.01588   0.23485  -0.92793  -0.31569
  24   32813.8    304.8   0.128922282   1.29344   0.05024   1.09930   0.28717
  25   33242.4    300.8   0.202060215   2.00108   1.35518  -0.20813  -0.34820
  26   33295.4    300.3   0.011770835   0.11639  -0.26202  -0.04058  -0.21467
  27   33392.9    299.5   0.536662235   5.29082  -2.28044  -0.15205  -0.25942
  28   33724.5    296.5   0.021740714   0.21223  -0.42073   0.16220  -0.09435
  29   34016.1    294.0   0.007066693   0.06839   0.13398  -0.21277  -0.07188
  30   34186.0    292.5   0.008717003   0.08394   0.24655   0.10346  -0.11158
  31   34309.9    291.5   0.329399896   3.16067  -1.77562   0.03528  -0.08126
  32   34685.1    288.3   0.155736500   1.47817   0.16943   1.20391  -0.00715
  33   34845.3    287.0   0.457351978   4.32097  -0.59737  -1.88709  -0.63484
  34   35812.9    279.2   0.066252186   0.60903  -0.70380   0.31062   0.13117
  35   35815.7    279.2   0.120528379   1.10788   0.42165  -0.93008  -0.25504
  36   36036.7    277.5   0.035166730   0.32126  -0.55048  -0.02850   0.13199
  37   36058.1    277.3   0.017216207   0.15718   0.38006  -0.03431  -0.10752
  38   36305.7    275.4   0.051935713   0.47094  -0.62806  -0.27617  -0.01468
  39   36721.9    272.3   0.016539837   0.14828  -0.36385  -0.12330   0.02627
  40   37027.1    270.1   0.127130428   1.13033  -1.06289   0.01734   0.01740
  41   37116.1    269.4   0.063010749   0.55889  -0.25224  -0.67826   0.18772
  42   37245.6    268.5   0.039405675   0.34830  -0.53899   0.23918   0.02418
  43   37896.6    263.9   0.011351084   0.09861  -0.30862   0.05746   0.00796
  44   38009.7    263.1   0.000451618   0.00391  -0.00813   0.03690  -0.04984
  45   38253.4    261.4   0.001294603   0.01114   0.02234  -0.07337   0.07252
  46   38279.3    261.2   0.003251775   0.02797  -0.14732   0.06383   0.04679
  47   38730.2    258.2   0.119765711   1.01803  -0.35933  -0.87015  -0.36297
  48   38851.4    257.4   0.005495159   0.04656   0.18129   0.09836   0.06343
  49   39013.9    256.3   0.092213249   0.77812  -0.64623  -0.54890  -0.24335
  50   39254.9    254.7   0.023296291   0.19537  -0.30946   0.29512   0.11184
  51   39699.6    251.9   0.046190600   0.38304   0.20176   0.41245   0.41499
  52   39709.0    251.8   0.093452039   0.77477  -0.03389   0.69999   0.53259
  53   40262.3    248.4   0.004301413   0.03517  -0.16827   0.08194  -0.01193

FINAL SINGLE POINT ENERGY     -5472.415918930356

DIPOLE MOMENT
-------------
                                X             Y             Z
Electronic contribution:      7.19874      -7.22431      -5.81394
Nuclear contribution   :     -8.94585      10.11370       5.64883
                        -----------------------------------------
Total Dipole Moment    :     -1.74711       2.88939      -0.16511
                        -----------------------------------------
Magnitude (a.u.)       :      3.38057
Magnitude (Debye)      :      8.59272

Rotational constants in cm-1:     0.002002     0.000156     0.000148
Rotational constants in MHz :    60.022112     4.684758     4.428696

                             ****ORCA TERMINATED NORMALLY****
TOTAL RUN TIME: 0 days 0 hours 9 minutes 42 seconds 374 msec
