                         Program Version 4.2.0 -  RELEASE  -
|  1> # ORCA input file
|  2> # SCF done       -201.330786234234          0.000241709374
|  3> ! CAM-B3LYP def2-SVP def2/J RIJCOSX Grid4 TightSCF
|  4> %maxcore 5000
|  5> %tddft
|  6>     Mode sTDDFT
|  7>     Ethresh 5.0
|  8>     maxcore 5000
|  9> end
| 10>
| 11> %pal
| 12>   nprocs 6
| 13>   end
| 14> * xyz 0 1
| 15>    C       -4.11654         6.36259         8.91053
| 16>    C       -5.03533         5.81162         9.76872
| 17>    C       -4.86435         5.72600        11.16576
| 18>    N       -4.79447         5.62892        12.30776
| 19>    C       -6.27637         5.26090         9.39065
| 20>    N       -7.29949         4.79014         9.16310
| 21>    C       -2.81626         6.90083         9.29167
| 22>    C       -2.16160         7.38582         8.13126
| 23>    C       -0.90916         7.94811         8.16749
| 24>    C       -0.26294         8.02362         9.40542
| 25>    C       -0.92318         7.53667        10.55892
| 26>    C       -2.19487         6.97737        10.52430
| 27>    S        0.06101         7.73205        11.97544
| 28>    C        1.32191         8.44558        11.03061
| 29>    C        1.02719         8.53836         9.71545
| 30>    C       -3.03422         7.19062         6.96032
| 31>    O       -2.86890         7.63950         5.84677
| 32>    C       -4.22919         6.46954         7.46977
| 33>    C       -5.28939         6.08735         6.69785
| 34>    C       -5.27098         5.96701         5.29352
| 35>    S       -6.77473         5.96109         4.37594
| 36>    C       -6.00214         5.68113         2.83096
| 37>    C       -4.64668         5.59749         3.06103
| 38>    C       -4.24558         5.74421         4.39676
| 39>    O       -2.91008         5.51898         4.46136
| 40>    C       -2.48265         5.28433         3.19101
| 41>    O       -1.36259         5.05479         2.88300
| 42>    O       -3.52942         5.32956         2.32110
| 43>    C       -6.74129         5.53185         1.61445
| 44>    C       -8.11887         5.53184         1.63787
| 45>    C       -8.83738         5.31200         0.45006
| 46>    C      -10.20157         5.21423         0.20980
| 47>    C      -11.34609         5.31838         1.16294
| 48>    C      -11.41798         4.05975         2.04943
| 49>    N      -11.67666         2.89575         1.21941
| 50>    C      -11.34191         6.61538         2.00588
| 51>    N      -10.48727         6.53988         3.17771
| 52>    C      -10.34887         4.89115        -1.19046
| 53>    C      -11.43642         4.59270        -1.92301
| 54>    C      -11.32952         4.17389        -3.35044
| 55>    C       -9.94817         4.27126        -3.92520
| 56>    C       -8.87071         4.57585        -3.17929
| 57>    C       -9.00955         4.84897        -1.79751
| 58>    C       -8.10082         5.09976        -0.79237
| 59>    C       -6.68527         5.14513        -0.78381
| 60>    C       -6.02556         5.34771         0.38253
| 61>    C      -12.28832         4.95293        -4.20351
| 62>    C      -13.25127         4.38016        -4.93426
| 63>    C      -14.16282         5.10440        -5.76398
| 64>    S      -15.39066         4.28590        -6.69514
| 65>    C      -16.04637         5.75374        -7.40008
| 66>    C      -15.31591         6.80595        -6.89164
| 67>    C      -14.29259         6.45136        -6.00023
| 68>    O      -13.69552         7.60235        -5.57146
| 69>    C      -14.34203         8.63296        -6.17423
| 70>    O      -14.09186         9.77799        -6.02014
| 71>    O      -15.34407         8.16295        -6.98113
| 72>    C      -17.17488         5.70402        -8.24850
| 73>    C      -17.69235         6.67488        -9.04581
| 74>    C      -17.19822         7.95461        -9.50640
| 75>    C      -15.89080         8.28042        -9.75620
| 76>    C      -15.47807         9.50972       -10.31170
| 77>    N      -15.09287        10.48982       -10.76666
| 78>    C      -14.82440         7.37986        -9.57924
| 79>    N      -13.94405         6.65435        -9.44715
| 80>    C      -18.35679         8.74182        -9.91286
| 81>    C      -19.49670         7.89563        -9.94164
| 82>    C      -19.11561         6.54858        -9.48927
| 83>    O      -19.79866         5.55322        -9.42936
| 84>    C      -20.73716         8.34576       -10.32700
| 85>    C      -20.86107         9.69099       -10.68652
| 86>    C      -19.72053        10.52995       -10.63817
| 87>    C      -18.46289        10.07428       -10.25827
| 88>    S      -20.11314        12.15149       -11.11029
| 89>    C      -21.76376        11.70353       -11.36811
| 90>    C      -22.01839        10.40164       -11.11272
| 91>    H       -0.43908         8.30839         7.26572
| 92>    H       -2.65565         6.62408        11.43161
| 93>    H        2.22045         8.75627        11.52742
| 94>    H        1.68953         8.95345         8.97751
| 95>    H       -6.23303         5.84191         7.16652
| 96>    H       -8.65732         5.70423         2.55921
| 97>    H      -12.26396         5.34534         0.56518
| 98>    H      -12.18929         4.21634         2.82408
| 99>    H      -10.45540         3.91339         2.54122
|100>    H      -12.62473         2.91996         0.85835
|101>    H      -11.57245         2.04458         1.75901
|102>    H      -12.38865         6.84314         2.26962
|103>    H      -10.97374         7.42904         1.37584
|104>    H      -10.89912         5.94820         3.89018
|105>    H      -10.35433         7.46126         3.57694
|106>    H      -12.43489         4.60866        -1.50904
|107>    H      -11.63375         3.11497        -3.38844
|108>    H       -9.86348         4.05935        -4.97967
|109>    H       -7.88673         4.60647        -3.62374
|110>    H       -6.14349         5.00533        -1.70719
|111>    H       -4.94787         5.37036         0.41002
|112>    H      -12.14697         6.02392        -4.22025
|113>    H      -13.38834         3.30723        -4.92806
|114>    H      -17.75542         4.78820        -8.19892
|115>    H      -21.58554         7.67952       -10.34869
|116>    H      -17.62337        10.74915       -10.22708
|117>    H      -22.45306        12.45556       -11.69975
|118>    H      -22.98594         9.94505       -11.21683
|119> *
|120>
|121>                          ****END OF INPUT****

CARTESIAN COORDINATES (ANGSTROEM)
---------------------------------
  C     -4.116540    6.362590    8.910530
  C     -5.035330    5.811620    9.768720
  C     -4.864350    5.726000   11.165760
  N     -4.794470    5.628920   12.307760
  C     -6.276370    5.260900    9.390650
  N     -7.299490    4.790140    9.163100
  C     -2.816260    6.900830    9.291670
  C     -2.161600    7.385820    8.131260
  C     -0.909160    7.948110    8.167490
  C     -0.262940    8.023620    9.405420
  C     -0.923180    7.536670   10.558920
  C     -2.194870    6.977370   10.524300
  S      0.061010    7.732050   11.975440
  C      1.321910    8.445580   11.030610
  C      1.027190    8.538360    9.715450
  C     -3.034220    7.190620    6.960320
  O     -2.868900    7.639500    5.846770
  C     -4.229190    6.469540    7.469770
  C     -5.289390    6.087350    6.697850
  C     -5.270980    5.967010    5.293520
  S     -6.774730    5.961090    4.375940
  C     -6.002140    5.681130    2.830960
  C     -4.646680    5.597490    3.061030
  C     -4.245580    5.744210    4.396760
  O     -2.910080    5.518980    4.461360
  C     -2.482650    5.284330    3.191010
  O     -1.362590    5.054790    2.883000
  O     -3.529420    5.329560    2.321100
  C     -6.741290    5.531850    1.614450
  C     -8.118870    5.531840    1.637870
  C     -8.837380    5.312000    0.450060
  C    -10.201570    5.214230    0.209800
  C    -11.346090    5.318380    1.162940
  C    -11.417980    4.059750    2.049430
  N    -11.676660    2.895750    1.219410
  C    -11.341910    6.615380    2.005880
  N    -10.487270    6.539880    3.177710
  C    -10.348870    4.891150   -1.190460
  C    -11.436420    4.592700   -1.923010
  C    -11.329520    4.173890   -3.350440
  C     -9.948170    4.271260   -3.925200
  C     -8.870710    4.575850   -3.179290
  C     -9.009550    4.848970   -1.797510
  C     -8.100820    5.099760   -0.792370
  C     -6.685270    5.145130   -0.783810
  C     -6.025560    5.347710    0.382530
  C    -12.288320    4.952930   -4.203510
  C    -13.251270    4.380160   -4.934260
  C    -14.162820    5.104400   -5.763980
  S    -15.390660    4.285900   -6.695140
  C    -16.046370    5.753740   -7.400080
  C    -15.315910    6.805950   -6.891640
  C    -14.292590    6.451360   -6.000230
  O    -13.695520    7.602350   -5.571460
  C    -14.342030    8.632960   -6.174230
  O    -14.091860    9.777990   -6.020140
  O    -15.344070    8.162950   -6.981130
  C    -17.174880    5.704020   -8.248500
  C    -17.692350    6.674880   -9.045810
  C    -17.198220    7.954610   -9.506400
  C    -15.890800    8.280420   -9.756200
  C    -15.478070    9.509720  -10.311700
  N    -15.092870   10.489820  -10.766660
  C    -14.824400    7.379860   -9.579240
  N    -13.944050    6.654350   -9.447150
  C    -18.356790    8.741820   -9.912860
  C    -19.496700    7.895630   -9.941640
  C    -19.115610    6.548580   -9.489270
  O    -19.798660    5.553220   -9.429360
  C    -20.737160    8.345760  -10.327000
  C    -20.861070    9.690990  -10.686520
  C    -19.720530   10.529950  -10.638170
  C    -18.462890   10.074280  -10.258270
  S    -20.113140   12.151490  -11.110290
  C    -21.763760   11.703530  -11.368110
  C    -22.018390   10.401640  -11.112720
  H     -0.439080    8.308390    7.265720
  H     -2.655650    6.624080   11.431610
  H      2.220450    8.756270   11.527420
  H      1.689530    8.953450    8.977510
  H     -6.233030    5.841910    7.166520
  H     -8.657320    5.704230    2.559210
  H    -12.263960    5.345340    0.565180
  H    -12.189290    4.216340    2.824080
  H    -10.455400    3.913390    2.541220
  H    -12.624730    2.919960    0.858350
  H    -11.572450    2.044580    1.759010
  H    -12.388650    6.843140    2.269620
  H    -10.973740    7.429040    1.375840
  H    -10.899120    5.948200    3.890180
  H    -10.354330    7.461260    3.576940
  H    -12.434890    4.608660   -1.509040
  H    -11.633750    3.114970   -3.388440
  H     -9.863480    4.059350   -4.979670
  H     -7.886730    4.606470   -3.623740
  H     -6.143490    5.005330   -1.707190
  H     -4.947870    5.370360    0.410020
  H    -12.146970    6.023920   -4.220250
  H    -13.388340    3.307230   -4.928060
  H    -17.755420    4.788200   -8.198920
  H    -21.585540    7.679520  -10.348690
  H    -17.623370   10.749150  -10.227080
  H    -22.453060   12.455560  -11.699750
  H    -22.985940    9.945050  -11.216830

 Total Charge           Charge          ....    0
 Multiplicity           Mult            ....    1
 Number of Electrons    NEL             ....  546
 Basis Dimension        Dim             .... 1220

ORBITAL ENERGIES
----------------

  NO   OCC          E(Eh)            E(eV)
   0   2.0000     -88.987308     -2421.4678
   1   2.0000     -88.972596     -2421.0674
   2   2.0000     -88.968379     -2420.9527
   3   2.0000     -88.962153     -2420.7832
   4   2.0000     -19.327123      -525.9177
   5   2.0000     -19.323611      -525.8222
   6   2.0000     -19.310714      -525.4712
   7   2.0000     -19.308575      -525.4130
   8   2.0000     -19.234628      -523.4008
   9   2.0000     -19.219892      -522.9999
  10   2.0000     -19.219463      -522.9882
  11   2.0000     -19.209552      -522.7185
  12   2.0000     -14.420260      -392.3952
  13   2.0000     -14.416722      -392.2990
  14   2.0000     -14.413467      -392.2104
  15   2.0000     -14.410283      -392.1237
  16   2.0000     -14.398034      -391.7904
  17   2.0000     -14.388073      -391.5194
  18   2.0000     -10.479405      -285.1591
  19   2.0000     -10.464767      -284.7608
  20   2.0000     -10.375700      -282.3371
  21   2.0000     -10.370254      -282.1890
  22   2.0000     -10.365637      -282.0633
  23   2.0000     -10.364399      -282.0296
  24   2.0000     -10.359930      -281.9080
  25   2.0000     -10.352709      -281.7115
  26   2.0000     -10.346561      -281.5442
  27   2.0000     -10.343723      -281.4670
  28   2.0000     -10.343372      -281.4575
  29   2.0000     -10.338886      -281.3354
  30   2.0000     -10.337597      -281.3003
  31   2.0000     -10.336784      -281.2782
  32   2.0000     -10.332492      -281.1614
  33   2.0000     -10.330138      -281.0973
  34   2.0000     -10.324171      -280.9350
  35   2.0000     -10.322751      -280.8963
  36   2.0000     -10.322116      -280.8791
  37   2.0000     -10.321656      -280.8665
  38   2.0000     -10.318785      -280.7884
  39   2.0000     -10.316632      -280.7298
  40   2.0000     -10.315650      -280.7031
  41   2.0000     -10.315303      -280.6937
  42   2.0000     -10.313534      -280.6455
  43   2.0000     -10.310088      -280.5518
  44   2.0000     -10.309162      -280.5266
  45   2.0000     -10.306204      -280.4461
  46   2.0000     -10.305809      -280.4353
  47   2.0000     -10.305767      -280.4342
  48   2.0000     -10.304843      -280.4090
  49   2.0000     -10.304170      -280.3907
  50   2.0000     -10.303258      -280.3659
  51   2.0000     -10.302958      -280.3577
  52   2.0000     -10.301916      -280.3294
  53   2.0000     -10.301334      -280.3135
  54   2.0000     -10.298647      -280.2404
  55   2.0000     -10.297036      -280.1966
  56   2.0000     -10.296531      -280.1829
  57   2.0000     -10.295225      -280.1473
  58   2.0000     -10.293428      -280.0984
  59   2.0000     -10.293409      -280.0979
  60   2.0000     -10.293249      -280.0935
  61   2.0000     -10.290557      -280.0203
  62   2.0000     -10.288156      -279.9549
  63   2.0000     -10.284964      -279.8681
  64   2.0000     -10.284669      -279.8601
  65   2.0000     -10.276844      -279.6472
  66   2.0000     -10.276677      -279.6426
  67   2.0000     -10.275653      -279.6147
  68   2.0000     -10.273513      -279.5565
  69   2.0000     -10.270240      -279.4674
  70   2.0000     -10.269190      -279.4389
  71   2.0000     -10.267896      -279.4036
  72   2.0000     -10.266658      -279.3700
  73   2.0000     -10.266057      -279.3536
  74   2.0000     -10.264578      -279.3134
  75   2.0000     -10.263977      -279.2970
  76   2.0000      -8.082442      -219.9344
  77   2.0000      -8.067091      -219.5167
  78   2.0000      -8.064575      -219.4482
  79   2.0000      -8.058426      -219.2809
  80   2.0000      -6.051925      -164.6813
  81   2.0000      -6.048104      -164.5773
  82   2.0000      -6.043807      -164.4604
  83   2.0000      -6.036737      -164.2680
  84   2.0000      -6.034103      -164.1963
  85   2.0000      -6.032796      -164.1607
  86   2.0000      -6.029760      -164.0781
  87   2.0000      -6.028367      -164.0402
  88   2.0000      -6.027949      -164.0288
  89   2.0000      -6.026279      -163.9834
  90   2.0000      -6.023642      -163.9116
  91   2.0000      -6.020075      -163.8146
  92   2.0000      -1.301069       -35.4039
  93   2.0000      -1.287489       -35.0344
  94   2.0000      -1.186306       -32.2810
  95   2.0000      -1.171731       -31.8844
  96   2.0000      -1.158506       -31.5246
  97   2.0000      -1.143372       -31.1127
  98   2.0000      -1.134981       -30.8844
  99   2.0000      -1.124494       -30.5990
 100   2.0000      -1.025150       -27.8957
 101   2.0000      -1.017323       -27.6828
 102   2.0000      -1.016103       -27.6496
 103   2.0000      -1.010324       -27.4923
 104   2.0000      -1.005490       -27.3608
 105   2.0000      -1.004187       -27.3253
 106   2.0000      -0.996999       -27.1297
 107   2.0000      -0.990444       -26.9513
 108   2.0000      -0.989909       -26.9368
 109   2.0000      -0.987712       -26.8770
 110   2.0000      -0.980166       -26.6717
 111   2.0000      -0.977047       -26.5868
 112   2.0000      -0.964121       -26.2351
 113   2.0000      -0.951541       -25.8927
 114   2.0000      -0.937010       -25.4973
 115   2.0000      -0.930230       -25.3128
 116   2.0000      -0.924317       -25.1519
 117   2.0000      -0.915027       -24.8992
 118   2.0000      -0.902711       -24.5640
 119   2.0000      -0.895510       -24.3681
 120   2.0000      -0.883556       -24.0428
 121   2.0000      -0.879797       -23.9405
 122   2.0000      -0.878818       -23.9139
 123   2.0000      -0.876183       -23.8422
 124   2.0000      -0.869248       -23.6534
 125   2.0000      -0.860653       -23.4196
 126   2.0000      -0.851501       -23.1705
 127   2.0000      -0.842582       -22.9278
 128   2.0000      -0.839767       -22.8512
 129   2.0000      -0.833687       -22.6858
 130   2.0000      -0.825437       -22.4613
 131   2.0000      -0.824186       -22.4272
 132   2.0000      -0.818325       -22.2677
 133   2.0000      -0.802205       -21.8291
 134   2.0000      -0.787826       -21.4378
 135   2.0000      -0.780770       -21.2458
 136   2.0000      -0.762667       -20.7532
 137   2.0000      -0.760838       -20.7035
 138   2.0000      -0.757685       -20.6177
 139   2.0000      -0.752869       -20.4866
 140   2.0000      -0.751349       -20.4453
 141   2.0000      -0.742165       -20.1953
 142   2.0000      -0.739288       -20.1170
 143   2.0000      -0.737313       -20.0633
 144   2.0000      -0.729782       -19.8584
 145   2.0000      -0.716702       -19.5024
 146   2.0000      -0.707700       -19.2575
 147   2.0000      -0.700325       -19.0568
 148   2.0000      -0.690744       -18.7961
 149   2.0000      -0.689308       -18.7570
 150   2.0000      -0.688809       -18.7435
 151   2.0000      -0.682417       -18.5695
 152   2.0000      -0.680474       -18.5166
 153   2.0000      -0.675697       -18.3866
 154   2.0000      -0.673641       -18.3307
 155   2.0000      -0.670993       -18.2586
 156   2.0000      -0.664299       -18.0765
 157   2.0000      -0.657253       -17.8848
 158   2.0000      -0.656961       -17.8768
 159   2.0000      -0.639497       -17.4016
 160   2.0000      -0.638051       -17.3623
 161   2.0000      -0.634862       -17.2755
 162   2.0000      -0.626401       -17.0452
 163   2.0000      -0.623390       -16.9633
 164   2.0000      -0.622798       -16.9472
 165   2.0000      -0.614696       -16.7267
 166   2.0000      -0.613934       -16.7060
 167   2.0000      -0.602386       -16.3918
 168   2.0000      -0.599280       -16.3072
 169   2.0000      -0.596570       -16.2335
 170   2.0000      -0.590849       -16.0778
 171   2.0000      -0.587524       -15.9874
 172   2.0000      -0.584662       -15.9095
 173   2.0000      -0.581135       -15.8135
 174   2.0000      -0.578151       -15.7323
 175   2.0000      -0.570439       -15.5224
 176   2.0000      -0.562262       -15.2999
 177   2.0000      -0.554506       -15.0889
 178   2.0000      -0.552899       -15.0451
 179   2.0000      -0.551342       -15.0028
 180   2.0000      -0.549711       -14.9584
 181   2.0000      -0.547550       -14.8996
 182   2.0000      -0.544802       -14.8248
 183   2.0000      -0.542032       -14.7494
 184   2.0000      -0.537538       -14.6272
 185   2.0000      -0.536361       -14.5951
 186   2.0000      -0.535524       -14.5724
 187   2.0000      -0.532064       -14.4782
 188   2.0000      -0.530593       -14.4382
 189   2.0000      -0.529451       -14.4071
 190   2.0000      -0.526577       -14.3289
 191   2.0000      -0.525197       -14.2913
 192   2.0000      -0.523708       -14.2508
 193   2.0000      -0.521756       -14.1977
 194   2.0000      -0.518889       -14.1197
 195   2.0000      -0.517147       -14.0723
 196   2.0000      -0.514403       -13.9976
 197   2.0000      -0.513742       -13.9796
 198   2.0000      -0.509937       -13.8761
 199   2.0000      -0.508897       -13.8478
 200   2.0000      -0.507854       -13.8194
 201   2.0000      -0.504746       -13.7348
 202   2.0000      -0.502202       -13.6656
 203   2.0000      -0.499109       -13.5814
 204   2.0000      -0.498055       -13.5528
 205   2.0000      -0.497605       -13.5405
 206   2.0000      -0.496203       -13.5024
 207   2.0000      -0.493308       -13.4236
 208   2.0000      -0.492876       -13.4118
 209   2.0000      -0.490964       -13.3598
 210   2.0000      -0.488336       -13.2883
 211   2.0000      -0.486202       -13.2302
 212   2.0000      -0.483355       -13.1528
 213   2.0000      -0.482805       -13.1378
 214   2.0000      -0.479823       -13.0566
 215   2.0000      -0.477015       -12.9802
 216   2.0000      -0.473216       -12.8769
 217   2.0000      -0.469439       -12.7741
 218   2.0000      -0.466136       -12.6842
 219   2.0000      -0.462783       -12.5930
 220   2.0000      -0.459773       -12.5111
 221   2.0000      -0.456058       -12.4100
 222   2.0000      -0.455233       -12.3875
 223   2.0000      -0.452625       -12.3166
 224   2.0000      -0.448807       -12.2127
 225   2.0000      -0.446513       -12.1502
 226   2.0000      -0.445976       -12.1356
 227   2.0000      -0.444532       -12.0963
 228   2.0000      -0.443993       -12.0817
 229   2.0000      -0.441789       -12.0217
 230   2.0000      -0.439750       -11.9662
 231   2.0000      -0.437531       -11.9058
 232   2.0000      -0.436932       -11.8895
 233   2.0000      -0.435056       -11.8385
 234   2.0000      -0.432910       -11.7801
 235   2.0000      -0.431099       -11.7308
 236   2.0000      -0.428770       -11.6674
 237   2.0000      -0.428552       -11.6615
 238   2.0000      -0.427324       -11.6281
 239   2.0000      -0.423079       -11.5126
 240   2.0000      -0.421874       -11.4798
 241   2.0000      -0.421411       -11.4672
 242   2.0000      -0.418790       -11.3959
 243   2.0000      -0.418162       -11.3788
 244   2.0000      -0.415116       -11.2959
 245   2.0000      -0.410975       -11.1832
 246   2.0000      -0.406683       -11.0664
 247   2.0000      -0.404919       -11.0184
 248   2.0000      -0.401419       -10.9232
 249   2.0000      -0.396144       -10.7796
 250   2.0000      -0.393922       -10.7192
 251   2.0000      -0.391768       -10.6606
 252   2.0000      -0.390228       -10.6186
 253   2.0000      -0.376828       -10.2540
 254   2.0000      -0.373766       -10.1707
 255   2.0000      -0.369718       -10.0605
 256   2.0000      -0.360685        -9.8147
 257   2.0000      -0.352985        -9.6052
 258   2.0000      -0.339075        -9.2267
 259   2.0000      -0.334067        -9.0904
 260   2.0000      -0.332025        -9.0349
 261   2.0000      -0.326743        -8.8911
 262   2.0000      -0.321898        -8.7593
 263   2.0000      -0.318296        -8.6613
 264   2.0000      -0.315032        -8.5725
 265   2.0000      -0.311509        -8.4766
 266   2.0000      -0.308989        -8.4080
 267   2.0000      -0.307968        -8.3802
 268   2.0000      -0.297180        -8.0867
 269   2.0000      -0.290743        -7.9115
 270   2.0000      -0.286243        -7.7891
 271   2.0000      -0.272826        -7.4240
 272   2.0000      -0.224025        -6.0960
 273   0.0000      -0.095889        -2.6093
 274   0.0000      -0.093085        -2.5330
 275   0.0000      -0.068654        -1.8682
 276   0.0000      -0.062899        -1.7116
 277   0.0000      -0.050912        -1.3854

MULLIKEN ATOMIC CHARGES
-----------------------
   0 C :    0.320033
   1 C :   -0.355818
   2 C :   -0.185341
   3 N :    0.144558
   4 C :   -0.186995
   5 N :    0.144825
   6 C :    0.013765
   7 C :   -0.010958
   8 C :   -0.066716
   9 C :    0.113181
  10 C :   -0.093568
  11 C :   -0.026079
  12 S :    0.138222
  13 C :   -0.049761
  14 C :    0.027123
  15 C :    0.136535
  16 O :   -0.149104
  17 C :   -0.095671
  18 C :    0.049060
  19 C :   -0.198312
  20 S :    0.136747
  21 C :   -0.146401
  22 C :    0.143542
  23 C :    0.232858
  24 O :   -0.187253
  25 C :    0.294997
  26 O :   -0.125482
  27 O :   -0.216936
  28 C :    0.152068
  29 C :   -0.115496
  30 C :    0.024697
  31 C :    0.018028
  32 C :   -0.045603
  33 C :    0.123188
  34 N :   -0.217194
  35 C :    0.134998
  36 N :   -0.210606
  37 C :    0.124891
  38 C :   -0.142427
  39 C :    0.134155
  40 C :   -0.046378
  41 C :    0.028611
  42 C :    0.008810
  43 C :    0.036845
  44 C :    0.002674
  45 C :   -0.028437
  46 C :   -0.051914
  47 C :    0.079568
  48 C :   -0.172576
  49 S :    0.171539
  50 C :   -0.203128
  51 C :    0.182294
  52 C :    0.175974
  53 O :   -0.208356
  54 C :    0.301524
  55 O :   -0.113122
  56 O :   -0.215862
  57 C :    0.112373
  58 C :   -0.132938
  59 C :    0.267081
  60 C :   -0.309308
  61 C :   -0.178531
  62 N :    0.164046
  63 C :   -0.209992
  64 N :    0.161833
  65 C :    0.005043
  66 C :   -0.002246
  67 C :    0.134511
  68 O :   -0.141203
  69 C :   -0.066786
  70 C :    0.108919
  71 C :   -0.091037
  72 C :   -0.023031
  73 S :    0.143875
  74 C :   -0.049793
  75 C :    0.025201
  76 H :   -0.011263
  77 H :   -0.007961
  78 H :    0.037424
  79 H :   -0.006308
  80 H :    0.013358
  81 H :   -0.033772
  82 H :   -0.029781
  83 H :   -0.014412
  84 H :    0.008239
  85 H :    0.083610
  86 H :    0.095578
  87 H :   -0.010082
  88 H :    0.012096
  89 H :    0.103307
  90 H :    0.107886
  91 H :   -0.017905
  92 H :    0.044137
  93 H :   -0.007883
  94 H :   -0.030806
  95 H :   -0.033996
  96 H :   -0.008660
  97 H :    0.033032
  98 H :   -0.017437
  99 H :    0.020125
 100 H :   -0.009742
 101 H :    0.000406
 102 H :    0.039545
 103 H :   -0.006568
Sum of atomic charges:   -0.0000000

LOEWDIN ATOMIC CHARGES
----------------------
   0 C :    0.077389
   1 C :   -0.145337
   2 C :   -0.018427
   3 N :   -0.056728
   4 C :   -0.019800
   5 N :   -0.058845
   6 C :   -0.023678
   7 C :   -0.050028
   8 C :    0.023392
   9 C :   -0.034115
  10 C :   -0.146282
  11 C :   -0.008879
  12 S :    0.427373
  13 C :   -0.149659
  14 C :   -0.057442
  15 C :    0.077800
  16 O :   -0.139490
  17 C :   -0.093729
  18 C :    0.046192
  19 C :   -0.205013
  20 S :    0.457220
  21 C :   -0.143705
  22 C :   -0.019050
  23 C :    0.031321
  24 O :   -0.005176
  25 C :    0.109120
  26 O :   -0.120924
  27 O :   -0.030802
  28 C :   -0.057405
  29 C :    0.000458
  30 C :   -0.018186
  31 C :   -0.014681
  32 C :   -0.042076
  33 C :    0.024705
  34 N :   -0.114629
  35 C :    0.027823
  36 N :   -0.088281
  37 C :   -0.006927
  38 C :    0.063128
  39 C :   -0.028614
  40 C :   -0.036517
  41 C :   -0.009499
  42 C :   -0.036796
  43 C :   -0.025390
  44 C :   -0.006699
  45 C :   -0.025571
  46 C :    0.024093
  47 C :   -0.059234
  48 C :   -0.166239
  49 S :    0.468756
  50 C :   -0.203265
  51 C :    0.016784
  52 C :   -0.007122
  53 O :   -0.024687
  54 C :    0.111585
  55 O :   -0.109574
  56 O :   -0.019476
  57 C :    0.039937
  58 C :   -0.081141
  59 C :    0.064603
  60 C :   -0.131068
  61 C :   -0.019042
  62 N :   -0.044137
  63 C :   -0.019675
  64 N :   -0.053348
  65 C :   -0.017631
  66 C :   -0.058431
  67 C :    0.084873
  68 O :   -0.141385
  69 C :    0.025513
  70 C :   -0.036686
  71 C :   -0.143770
  72 C :   -0.010027
  73 S :    0.432642
  74 C :   -0.149707
  75 C :   -0.057321
  76 H :    0.040967
  77 H :    0.040230
  78 H :    0.028991
  79 H :    0.035566
  80 H :    0.044198
  81 H :    0.009091
  82 H :    0.021906
  83 H :   -0.004891
  84 H :    0.022442
  85 H :    0.048841
  86 H :    0.057417
  87 H :    0.003714
  88 H :    0.024964
  89 H :    0.054958
  90 H :    0.062079
  91 H :    0.025121
  92 H :    0.061455
  93 H :    0.026457
  94 H :    0.031947
  95 H :    0.029172
  96 H :    0.029172
  97 H :    0.035641
  98 H :    0.031256
  99 H :    0.047959
 100 H :    0.041001
 101 H :    0.041836
 102 H :    0.029730
 103 H :    0.035422

  Mayer bond orders larger than 0.100000
B(  0-C ,  1-C ) :   1.6209 B(  0-C ,  6-C ) :   1.0036 B(  0-C , 17-C ) :   1.0850
B(  1-C ,  2-C ) :   1.1430 B(  1-C ,  4-C ) :   1.1459 B(  2-C ,  3-N ) :   2.9686
B(  4-C ,  5-N ) :   2.9652 B(  6-C ,  7-C ) :   1.2702 B(  6-C , 11-C ) :   1.4090
B(  7-C ,  8-C ) :   1.4278 B(  7-C , 15-C ) :   0.9338 B(  8-C ,  9-C ) :   1.2441
B(  8-C , 76-H ) :   1.0171 B(  9-C , 10-C ) :   1.3034 B(  9-C , 14-C ) :   1.1718
B( 10-C , 11-C ) :   1.3257 B( 10-C , 12-S ) :   1.0966 B( 11-C , 77-H ) :   0.9822
B( 12-S , 13-C ) :   1.1275 B( 13-C , 14-C ) :   1.6276 B( 13-C , 78-H ) :   0.9687
B( 14-C , 79-H ) :   0.9993 B( 15-C , 16-O ) :   2.2229 B( 15-C , 17-C ) :   0.9493
B( 17-C , 18-C ) :   1.5897 B( 18-C , 19-C ) :   1.1950 B( 18-C , 80-H ) :   0.9256
B( 19-C , 20-S ) :   1.0589 B( 19-C , 23-C ) :   1.4583 B( 20-S , 21-C ) :   1.1209
B( 21-C , 22-C ) :   1.4841 B( 21-C , 28-C ) :   1.1029 B( 22-C , 23-C ) :   1.2640
B( 22-C , 27-O ) :   1.0614 B( 23-C , 24-O ) :   1.1071 B( 24-O , 25-C ) :   1.0614
B( 25-C , 26-O ) :   2.2630 B( 25-C , 27-O ) :   1.0676 B( 28-C , 29-C ) :   1.4581
B( 28-C , 45-C ) :   1.1188 B( 29-C , 30-C ) :   1.1741 B( 29-C , 81-H ) :   0.9441
B( 30-C , 31-C ) :   1.4749 B( 30-C , 43-C ) :   1.1083 B( 31-C , 32-C ) :   1.0151
B( 31-C , 37-C ) :   1.1180 B( 32-C , 33-C ) :   1.0407 B( 32-C , 35-C ) :   1.0334
B( 32-C , 82-H ) :   0.8868 B( 33-C , 34-N ) :   1.0979 B( 33-C , 83-H ) :   0.9455
B( 33-C , 84-H ) :   0.9330 B( 34-N , 85-H ) :   0.9715 B( 34-N , 86-H ) :   0.9688
B( 35-C , 36-N ) :   1.0793 B( 35-C , 87-H ) :   0.9390 B( 35-C , 88-H ) :   0.9489
B( 36-N , 81-H ) :   0.1740 B( 36-N , 89-H ) :   0.9616 B( 36-N , 90-H ) :   0.9632
B( 37-C , 38-C ) :   1.6390 B( 37-C , 42-C ) :   1.0472 B( 38-C , 39-C ) :   0.9624
B( 38-C , 91-H ) :   0.9760 B( 39-C , 40-C ) :   0.9802 B( 39-C , 46-C ) :   0.9630
B( 39-C , 92-H ) :   0.8623 B( 40-C , 41-C ) :   1.7078 B( 40-C , 93-H ) :   0.9772
B( 41-C , 42-C ) :   1.1275 B( 41-C , 94-H ) :   0.9890 B( 42-C , 43-C ) :   1.4477
B( 43-C , 44-C ) :   1.1356 B( 44-C , 45-C ) :   1.6159 B( 44-C , 95-H ) :   0.9921
B( 45-C , 96-H ) :   0.9821 B( 46-C , 47-C ) :   1.7928 B( 46-C , 97-H ) :   0.9681
B( 47-C , 48-C ) :   1.0839 B( 47-C , 98-H ) :   0.9574 B( 48-C , 49-S ) :   1.1134
B( 48-C , 52-C ) :   1.5198 B( 49-S , 50-C ) :   1.0835 B( 50-C , 51-C ) :   1.4792
B( 50-C , 57-C ) :   1.1419 B( 51-C , 52-C ) :   1.2646 B( 51-C , 56-O ) :   1.0858
B( 52-C , 53-O ) :   1.0703 B( 53-O , 54-C ) :   1.0747 B( 54-C , 55-O ) :   2.2742
B( 54-C , 56-O ) :   1.0358 B( 57-C , 58-C ) :   1.6807 B( 57-C , 99-H ) :   0.9260
B( 58-C , 59-C ) :   1.0419 B( 58-C , 67-C ) :   0.9316 B( 59-C , 60-C ) :   1.6532
B( 59-C , 65-C ) :   1.0134 B( 60-C , 61-C ) :   1.1312 B( 60-C , 63-C ) :   1.1704
B( 61-C , 62-N ) :   2.9956 B( 63-C , 64-N ) :   2.9921 B( 65-C , 66-C ) :   1.2684
B( 65-C , 72-C ) :   1.4184 B( 66-C , 67-C ) :   0.9280 B( 66-C , 69-C ) :   1.4240
B( 67-C , 68-O ) :   2.2679 B( 69-C , 70-C ) :   1.2517 B( 69-C ,100-H ) :   1.0170
B( 70-C , 71-C ) :   1.3019 B( 70-C , 75-C ) :   1.1730 B( 71-C , 72-C ) :   1.3168
B( 71-C , 73-S ) :   1.1012 B( 72-C ,101-H ) :   0.9873 B( 73-S , 74-C ) :   1.1265
B( 74-C , 75-C ) :   1.6308 B( 74-C ,102-H ) :   0.9676 B( 75-C ,103-H ) :   0.9996

-----------------------------------------------------------------------------
         ABSORPTION SPECTRUM VIA TRANSITION ELECTRIC DIPOLE MOMENTS
-----------------------------------------------------------------------------
State   Energy  Wavelength   fosc         T2         TX        TY        TZ
        (cm-1)    (nm)                  (au**2)     (au)      (au)      (au)
-----------------------------------------------------------------------------
   0   13093.5    763.7   0.134811556   3.38959   1.54827   0.00367   0.99621
   1   17485.5    571.9   0.040614876   0.76469  -0.05409   0.46967   0.73564
   2   17879.2    559.3   0.787144706  14.49383   1.53064   0.18153   3.48110
   3   22655.1    441.4   0.927194351  13.47352  -1.78968  -0.16929  -3.20030
   4   24653.6    405.6   0.629689616   8.40857   1.68419  -1.35692   1.93153
   5   24949.8    400.8   0.042209260   0.55695   0.16755   0.70874   0.16297
   6   25783.3    387.8   0.116419142   1.48649  -0.66752   0.23449  -0.99293
   7   26875.6    372.1   0.178296188   2.18403  -1.29762  -0.53932  -0.45756
   8   27242.0    367.1   0.046418817   0.56096  -0.64383   0.38203   0.02223
   9   27770.2    360.1   0.333649262   3.95536  -1.80757  -0.30965  -0.76951
  10   28460.9    351.4   0.039852700   0.46098  -0.21599   0.01309   0.64355
  11   29143.7    343.1   0.025071489   0.28321  -0.21493   0.44922  -0.18766
  12   29230.0    342.1   0.025201087   0.28383  -0.35985  -0.29869   0.25520
  13   29263.9    341.7   0.036698112   0.41284  -0.54404  -0.30080   0.16245
  14   30104.9    332.2   0.076656762   0.83828   0.75936  -0.11590  -0.49822
  15   30477.3    328.1   0.023440887   0.25321  -0.16574   0.43827  -0.18346
  16   30589.9    326.9   0.056017811   0.60287   0.52708   0.13784   0.55322
  17   30695.9    325.8   0.029488948   0.31627   0.42452   0.02694   0.36786
  18   31013.6    322.4   0.138241902   1.46745   0.68200   0.57287   0.82106
  19   31235.7    320.1   0.041635541   0.43882   0.12225  -0.62382  -0.18634
  20   31277.4    319.7   0.205827673   2.16645   1.22251  -0.33549   0.74790
  21   31734.2    315.1   0.397932052   4.12816   1.67655  -0.15811   1.13681
  22   31988.9    312.6   0.008038599   0.08273   0.10421  -0.26107  -0.06092
  23   32953.4    303.5   0.638063409   6.37440  -2.32221  -0.56324  -0.81517
  24   33142.6    301.7   0.094327919   0.93698   0.15501   0.91699  -0.26847
  25   33235.3    300.9   0.557209087   5.51943   2.18532  -0.84663   0.16439
  26   33943.4    294.6   0.102041097   0.98968  -0.90258  -0.22680   0.35156
  27   33989.5    294.2   0.090173249   0.87339   0.64721  -0.63773   0.21866
  28   34499.3    289.9   0.013248697   0.12643  -0.14867  -0.02882   0.32170
  29   35887.7    278.6   0.007277253   0.06676  -0.21829  -0.13676  -0.02012
  30   36521.7    273.8   0.002321280   0.02092  -0.07462  -0.11431   0.04786
  31   36644.1    272.9   0.024260416   0.21796  -0.46029  -0.07452  -0.02309
  32   36739.2    272.2   0.108584207   0.97300  -0.82686  -0.52849  -0.09999
  33   37223.6    268.6   0.010788927   0.09542  -0.19378   0.09488   0.22105
  34   37497.0    266.7   0.000789080   0.00693  -0.06398  -0.02449   0.04728
  35   37797.5    264.6   0.002304899   0.02008  -0.13667  -0.00824   0.03646
  36   37955.1    263.5   0.018487374   0.16035  -0.24114  -0.16684  -0.27271
  37   38237.2    261.5   0.048261125   0.41552   0.18526   0.06650   0.61382
  38   38302.3    261.1   0.172619090   1.48368   0.03008   0.19893  -1.20133
  39   38392.9    260.5   0.043033540   0.36900   0.37052   0.28881  -0.38511
  40   38635.5    258.8   0.005071338   0.04321  -0.12307  -0.03162   0.16452
  41   39124.1    255.6   0.030222242   0.25431  -0.10678  -0.45339   0.19324
  42   39446.6    253.5   0.021569318   0.18001   0.24168  -0.02218   0.34801
  43   39607.3    252.5   0.020345310   0.16911   0.25555   0.30115  -0.11450
  44   39756.8    251.5   0.039818981   0.32973   0.04661   0.02253   0.57188
  45   39825.1    251.1   0.028532793   0.23586  -0.10625  -0.06325  -0.46965
  46   39983.7    250.1   0.156076528   1.28508  -0.77526  -0.40644   0.72032

FINAL SINGLE POINT ENERGY     -4745.545250502444

DIPOLE MOMENT
-------------
                                X             Y             Z
Electronic contribution:     10.18570      15.18806     -10.90680
Nuclear contribution   :    -13.35790     -15.19290      10.34077
                        -----------------------------------------
Total Dipole Moment    :     -3.17220      -0.00484      -0.56604
                        -----------------------------------------
Magnitude (a.u.)       :      3.22231
Magnitude (Debye)      :      8.19046

Rotational constants in cm-1:     0.002299     0.000159     0.000159
Rotational constants in MHz :    68.932541     4.780819     4.764823

                             ****ORCA TERMINATED NORMALLY****
TOTAL RUN TIME: 0 days 0 hours 11 minutes 44 seconds 970 msec
