                         Program Version 4.2.0 -  RELEASE  -
|  1> # ORCA input file
|  2> # SCF done       -197.557554525352          0.000485655639
|  3> ! CAM-B3LYP def2-SVP def2/J RIJCOSX Grid4 TightSCF
|  4> %maxcore 5000
|  5> %tddft
|  6>     Mode sTDDFT
|  7>     Ethresh 5.0
|  8>     maxcore 5000
|  9> end
| 10>
| 11> %pal
| 12>   nprocs 6
| 13>   end
| 14> * xyz 0 1
| 15>    C       -9.85137        -2.16145         7.27344
| 16>    C      -10.23723        -3.47367         7.22543
| 17>    C       -9.65202        -4.50127         7.99666
| 18>    N       -9.22526        -5.38307         8.59386
| 19>    C      -11.28570        -3.97380         6.42536
| 20>    N      -12.12280        -4.43916         5.79207
| 21>    C       -8.77952        -1.61095         8.08769
| 22>    C       -8.78290        -0.19602         7.96606
| 23>    C       -7.86681         0.60419         8.60657
| 24>    C       -6.89264        -0.01891         9.38835
| 25>    C       -6.89071        -1.43224         9.49607
| 26>    C       -7.82389        -2.24120         8.86180
| 27>    S       -5.58895        -1.98303        10.49552
| 28>    C       -5.06816        -0.35725        10.76005
| 29>    C       -5.82926         0.56496        10.12999
| 30>    C       -9.86104         0.20843         7.06264
| 31>    O      -10.27091         1.33336         6.85459
| 32>    C      -10.41755        -1.05948         6.50728
| 33>    C      -11.26398        -1.11710         5.44746
| 34>    C      -11.57642         0.00996         4.62402
| 35>    C      -12.82710         0.34923         4.20343
| 36>    C      -12.77350         1.68317         3.64760
| 37>    C      -13.87254         2.37911         3.12476
| 38>    N      -14.76641         2.95249         2.68955
| 39>    C      -11.49027         2.15613         3.72731
| 40>    C      -10.65547         1.11347         4.24997
| 41>    C       -9.28482         1.04751         4.29477
| 42>    C       -8.35341         2.17835         4.50145
| 43>    C       -7.24615         1.66627         5.10721
| 44>    C       -7.33658         0.22171         5.13387
| 45>    C       -8.54478        -0.15094         4.61404
| 46>    C       -6.36854        -0.62333         5.68894
| 47>    N       -5.59605        -1.30362         6.19815
| 48>    C       -8.61252         3.58293         4.33932
| 49>    C       -9.15855         4.18237         3.26429
| 50>    C       -9.54423         5.56597         3.25790
| 51>    C       -9.54697         6.44321         2.19205
| 52>    C       -9.13778         6.25498         0.77766
| 53>    N       -9.96545         7.65349         2.66028
| 54>    C      -10.24870         7.59857         3.98911
| 55>    C      -10.78866         8.78016         4.70839
| 56>    C      -10.00547         6.29881         4.41443
| 57>    C      -10.26055         5.68964         5.68052
| 58>    C      -10.31886         6.29260         6.89179
| 59>    C      -10.50444         5.55915         8.10119
| 60>    C      -10.33602         4.21825         8.29297
| 61>    C      -10.40861         3.94354         9.70703
| 62>    C      -10.25696         2.65743        10.24152
| 63>    N      -10.08757         1.59656        10.64795
| 64>    C      -10.59368         5.11698        10.40140
| 65>    C      -10.72658         6.16903         9.44636
| 66>    C      -11.14024         7.45335         9.69673
| 67>    C      -11.14574         8.15279        10.99562
| 68>    C      -11.81240         9.33639        10.82008
| 69>    C      -12.24068         9.42792         9.44738
| 70>    C      -11.81008         8.31562         8.76798
| 71>    C      -12.96233        10.49798         8.90226
| 72>    N      -13.53239        11.38198         8.44218
| 73>    C      -10.44648         7.73047        12.16147
| 74>    C      -10.73729         8.15045        13.41834
| 75>    C      -10.01315         7.72296        14.55578
| 76>    C      -10.37629         7.88005        15.85941
| 77>    C      -11.63029         8.29209        16.45101
| 78>    C      -12.88025         8.07925        15.92681
| 79>    C      -14.07513         8.46471        16.56769
| 80>    N      -15.07328         8.78198        17.03745
| 81>    C      -13.11773         7.34517        14.74581
| 82>    N      -13.36133         6.70540        13.82410
| 83>    C      -11.34107         8.74458        17.80679
| 84>    C       -9.99968         8.40194        18.12197
| 85>    C       -9.36491         7.77822        16.94533
| 86>    O       -8.24610         7.32553        16.85288
| 87>    C       -9.44722         8.65654        19.35398
| 88>    C      -10.24753         9.28578        20.31272
| 89>    C      -11.57868         9.63674        19.98199
| 90>    C      -12.14298         9.37228        18.73939
| 91>    S      -12.37400        10.41264        21.31454
| 92>    C      -10.95080        10.25840        22.28531
| 93>    C       -9.92249         9.65771        21.64780
| 94>    H       -7.89238         1.67702         8.49497
| 95>    H       -7.77867        -3.31196         8.97097
| 96>    H       -4.20996        -0.18693        11.38094
| 97>    H       -5.65794         1.62494        10.18193
| 98>    H      -11.76816        -2.04403         5.20561
| 99>    H      -13.72987        -0.21583         4.34314
|100>    H      -11.15950         3.11153         3.37438
|101>    H       -6.40484         2.22406         5.47511
|102>    H       -8.87662        -1.15398         4.42853
|103>    H       -8.27385         4.20654         5.15795
|104>    H       -9.31412         3.61987         2.35095
|105>    H       -9.14259         5.19944         0.52133
|106>    H       -8.13026         6.63894         0.60975
|107>    H       -9.81714         6.78236         0.10929
|108>    H      -10.06252         8.48049         2.09192
|109>    H      -11.13122         9.53169         4.00003
|110>    H      -10.02951         9.23552         5.34558
|111>    H      -11.62914         8.49035         5.33605
|112>    H      -10.42013         4.61998         5.64487
|113>    H      -10.14522         7.35421         6.97688
|114>    H      -10.15273         3.45840         7.55827
|115>    H      -10.76231         5.20028        11.45737
|116>    H      -11.96653        10.10967        11.54884
|117>    H      -12.05800         8.06706         7.75471
|118>    H       -9.65164         7.00886        12.02695
|119>    H      -11.56417         8.82984        13.56779
|120>    H       -9.03404         7.28492        14.39135
|121>    H       -8.42821         8.37671        19.57197
|122>    H      -13.15984         9.66084        18.52934
|123>    H      -10.97321        10.63404        23.28982
|124>    H       -8.96100         9.47671        22.09313
|125> *
|126>
|127>                          ****END OF INPUT****

CARTESIAN COORDINATES (ANGSTROEM)
---------------------------------
  C     -9.851370   -2.161450    7.273440
  C    -10.237230   -3.473670    7.225430
  C     -9.652020   -4.501270    7.996660
  N     -9.225260   -5.383070    8.593860
  C    -11.285700   -3.973800    6.425360
  N    -12.122800   -4.439160    5.792070
  C     -8.779520   -1.610950    8.087690
  C     -8.782900   -0.196020    7.966060
  C     -7.866810    0.604190    8.606570
  C     -6.892640   -0.018910    9.388350
  C     -6.890710   -1.432240    9.496070
  C     -7.823890   -2.241200    8.861800
  S     -5.588950   -1.983030   10.495520
  C     -5.068160   -0.357250   10.760050
  C     -5.829260    0.564960   10.129990
  C     -9.861040    0.208430    7.062640
  O    -10.270910    1.333360    6.854590
  C    -10.417550   -1.059480    6.507280
  C    -11.263980   -1.117100    5.447460
  C    -11.576420    0.009960    4.624020
  C    -12.827100    0.349230    4.203430
  C    -12.773500    1.683170    3.647600
  C    -13.872540    2.379110    3.124760
  N    -14.766410    2.952490    2.689550
  C    -11.490270    2.156130    3.727310
  C    -10.655470    1.113470    4.249970
  C     -9.284820    1.047510    4.294770
  C     -8.353410    2.178350    4.501450
  C     -7.246150    1.666270    5.107210
  C     -7.336580    0.221710    5.133870
  C     -8.544780   -0.150940    4.614040
  C     -6.368540   -0.623330    5.688940
  N     -5.596050   -1.303620    6.198150
  C     -8.612520    3.582930    4.339320
  C     -9.158550    4.182370    3.264290
  C     -9.544230    5.565970    3.257900
  C     -9.546970    6.443210    2.192050
  C     -9.137780    6.254980    0.777660
  N     -9.965450    7.653490    2.660280
  C    -10.248700    7.598570    3.989110
  C    -10.788660    8.780160    4.708390
  C    -10.005470    6.298810    4.414430
  C    -10.260550    5.689640    5.680520
  C    -10.318860    6.292600    6.891790
  C    -10.504440    5.559150    8.101190
  C    -10.336020    4.218250    8.292970
  C    -10.408610    3.943540    9.707030
  C    -10.256960    2.657430   10.241520
  N    -10.087570    1.596560   10.647950
  C    -10.593680    5.116980   10.401400
  C    -10.726580    6.169030    9.446360
  C    -11.140240    7.453350    9.696730
  C    -11.145740    8.152790   10.995620
  C    -11.812400    9.336390   10.820080
  C    -12.240680    9.427920    9.447380
  C    -11.810080    8.315620    8.767980
  C    -12.962330   10.497980    8.902260
  N    -13.532390   11.381980    8.442180
  C    -10.446480    7.730470   12.161470
  C    -10.737290    8.150450   13.418340
  C    -10.013150    7.722960   14.555780
  C    -10.376290    7.880050   15.859410
  C    -11.630290    8.292090   16.451010
  C    -12.880250    8.079250   15.926810
  C    -14.075130    8.464710   16.567690
  N    -15.073280    8.781980   17.037450
  C    -13.117730    7.345170   14.745810
  N    -13.361330    6.705400   13.824100
  C    -11.341070    8.744580   17.806790
  C     -9.999680    8.401940   18.121970
  C     -9.364910    7.778220   16.945330
  O     -8.246100    7.325530   16.852880
  C     -9.447220    8.656540   19.353980
  C    -10.247530    9.285780   20.312720
  C    -11.578680    9.636740   19.981990
  C    -12.142980    9.372280   18.739390
  S    -12.374000   10.412640   21.314540
  C    -10.950800   10.258400   22.285310
  C     -9.922490    9.657710   21.647800
  H     -7.892380    1.677020    8.494970
  H     -7.778670   -3.311960    8.970970
  H     -4.209960   -0.186930   11.380940
  H     -5.657940    1.624940   10.181930
  H    -11.768160   -2.044030    5.205610
  H    -13.729870   -0.215830    4.343140
  H    -11.159500    3.111530    3.374380
  H     -6.404840    2.224060    5.475110
  H     -8.876620   -1.153980    4.428530
  H     -8.273850    4.206540    5.157950
  H     -9.314120    3.619870    2.350950
  H     -9.142590    5.199440    0.521330
  H     -8.130260    6.638940    0.609750
  H     -9.817140    6.782360    0.109290
  H    -10.062520    8.480490    2.091920
  H    -11.131220    9.531690    4.000030
  H    -10.029510    9.235520    5.345580
  H    -11.629140    8.490350    5.336050
  H    -10.420130    4.619980    5.644870
  H    -10.145220    7.354210    6.976880
  H    -10.152730    3.458400    7.558270
  H    -10.762310    5.200280   11.457370
  H    -11.966530   10.109670   11.548840
  H    -12.058000    8.067060    7.754710
  H     -9.651640    7.008860   12.026950
  H    -11.564170    8.829840   13.567790
  H     -9.034040    7.284920   14.391350
  H     -8.428210    8.376710   19.571970
  H    -13.159840    9.660840   18.529340
  H    -10.973210   10.634040   23.289820
  H     -8.961000    9.476710   22.093130

 Total Charge           Charge          ....    0
 Multiplicity           Mult            ....    1
 Number of Electrons    NEL             ....  538
 Basis Dimension        Dim             .... 1269

ORBITAL ENERGIES
----------------

  NO   OCC          E(Eh)            E(eV)
   0   2.0000     -88.968080     -2420.9445
   1   2.0000     -88.962681     -2420.7976
   2   2.0000     -19.229184      -523.2527
   3   2.0000     -19.215389      -522.8773
   4   2.0000     -14.476094      -393.9145
   5   2.0000     -14.420482      -392.4013
   6   2.0000     -14.417391      -392.3172
   7   2.0000     -14.416926      -392.3045
   8   2.0000     -14.416875      -392.3031
   9   2.0000     -14.416188      -392.2844
  10   2.0000     -14.415946      -392.2778
  11   2.0000     -14.415140      -392.2559
  12   2.0000     -14.414903      -392.2494
  13   2.0000     -10.377493      -282.3859
  14   2.0000     -10.366552      -282.0882
  15   2.0000     -10.346782      -281.5503
  16   2.0000     -10.345895      -281.5261
  17   2.0000     -10.345416      -281.5131
  18   2.0000     -10.343118      -281.4506
  19   2.0000     -10.330750      -281.1140
  20   2.0000     -10.330066      -281.0954
  21   2.0000     -10.328635      -281.0565
  22   2.0000     -10.328193      -281.0444
  23   2.0000     -10.325951      -280.9834
  24   2.0000     -10.325647      -280.9751
  25   2.0000     -10.325218      -280.9635
  26   2.0000     -10.324318      -280.9390
  27   2.0000     -10.323346      -280.9125
  28   2.0000     -10.322784      -280.8972
  29   2.0000     -10.322193      -280.8812
  30   2.0000     -10.319641      -280.8117
  31   2.0000     -10.318396      -280.7778
  32   2.0000     -10.317650      -280.7575
  33   2.0000     -10.317384      -280.7503
  34   2.0000     -10.316891      -280.7369
  35   2.0000     -10.315576      -280.7011
  36   2.0000     -10.315322      -280.6942
  37   2.0000     -10.315252      -280.6923
  38   2.0000     -10.314551      -280.6732
  39   2.0000     -10.314535      -280.6728
  40   2.0000     -10.313805      -280.6529
  41   2.0000     -10.312984      -280.6305
  42   2.0000     -10.311602      -280.5929
  43   2.0000     -10.310921      -280.5744
  44   2.0000     -10.310778      -280.5705
  45   2.0000     -10.310647      -280.5670
  46   2.0000     -10.309612      -280.5388
  47   2.0000     -10.308447      -280.5071
  48   2.0000     -10.307119      -280.4710
  49   2.0000     -10.306296      -280.4486
  50   2.0000     -10.305516      -280.4274
  51   2.0000     -10.305450      -280.4255
  52   2.0000     -10.304835      -280.4088
  53   2.0000     -10.302969      -280.3580
  54   2.0000     -10.302653      -280.3494
  55   2.0000     -10.301930      -280.3298
  56   2.0000     -10.301696      -280.3234
  57   2.0000     -10.301115      -280.3076
  58   2.0000     -10.300575      -280.2929
  59   2.0000     -10.299231      -280.2563
  60   2.0000     -10.298813      -280.2449
  61   2.0000     -10.298096      -280.2254
  62   2.0000     -10.296990      -280.1953
  63   2.0000     -10.296352      -280.1780
  64   2.0000     -10.295755      -280.1617
  65   2.0000     -10.293315      -280.0954
  66   2.0000     -10.292982      -280.0863
  67   2.0000     -10.292367      -280.0695
  68   2.0000     -10.291983      -280.0591
  69   2.0000     -10.290296      -280.0132
  70   2.0000     -10.290041      -280.0063
  71   2.0000     -10.289773      -279.9989
  72   2.0000     -10.288336      -279.9598
  73   2.0000     -10.285531      -279.8835
  74   2.0000     -10.284833      -279.8645
  75   2.0000     -10.280398      -279.7439
  76   2.0000     -10.279314      -279.7143
  77   2.0000     -10.271972      -279.5146
  78   2.0000     -10.271787      -279.5095
  79   2.0000      -8.064299      -219.4407
  80   2.0000      -8.059006      -219.2967
  81   2.0000      -6.033825      -164.1887
  82   2.0000      -6.029491      -164.0708
  83   2.0000      -6.028503      -164.0439
  84   2.0000      -6.025979      -163.9752
  85   2.0000      -6.024168      -163.9260
  86   2.0000      -6.020708      -163.8318
  87   2.0000      -1.144066       -31.1316
  88   2.0000      -1.129933       -30.7470
  89   2.0000      -1.092681       -29.7334
  90   2.0000      -1.024054       -27.8659
  91   2.0000      -1.021648       -27.8005
  92   2.0000      -1.019597       -27.7446
  93   2.0000      -1.017077       -27.6761
  94   2.0000      -1.009251       -27.4631
  95   2.0000      -1.008892       -27.4534
  96   2.0000      -1.006502       -27.3883
  97   2.0000      -1.004910       -27.3450
  98   2.0000      -0.996482       -27.1157
  99   2.0000      -0.994963       -27.0743
 100   2.0000      -0.994818       -27.0704
 101   2.0000      -0.993036       -27.0219
 102   2.0000      -0.986883       -26.8545
 103   2.0000      -0.986446       -26.8426
 104   2.0000      -0.983604       -26.7652
 105   2.0000      -0.980571       -26.6827
 106   2.0000      -0.938071       -25.5262
 107   2.0000      -0.932934       -25.3864
 108   2.0000      -0.929745       -25.2997
 109   2.0000      -0.922353       -25.0985
 110   2.0000      -0.912851       -24.8399
 111   2.0000      -0.906399       -24.6644
 112   2.0000      -0.895751       -24.3746
 113   2.0000      -0.886975       -24.1358
 114   2.0000      -0.884064       -24.0566
 115   2.0000      -0.882771       -24.0214
 116   2.0000      -0.881696       -23.9922
 117   2.0000      -0.880050       -23.9474
 118   2.0000      -0.876257       -23.8442
 119   2.0000      -0.870038       -23.6749
 120   2.0000      -0.862776       -23.4773
 121   2.0000      -0.832085       -22.6422
 122   2.0000      -0.831311       -22.6211
 123   2.0000      -0.827499       -22.5174
 124   2.0000      -0.824460       -22.4347
 125   2.0000      -0.822027       -22.3685
 126   2.0000      -0.820931       -22.3387
 127   2.0000      -0.811603       -22.0848
 128   2.0000      -0.804028       -21.8787
 129   2.0000      -0.800934       -21.7945
 130   2.0000      -0.780292       -21.2328
 131   2.0000      -0.780184       -21.2299
 132   2.0000      -0.760616       -20.6974
 133   2.0000      -0.758435       -20.6381
 134   2.0000      -0.755704       -20.5637
 135   2.0000      -0.737023       -20.0554
 136   2.0000      -0.732529       -19.9331
 137   2.0000      -0.729232       -19.8434
 138   2.0000      -0.724779       -19.7222
 139   2.0000      -0.718677       -19.5562
 140   2.0000      -0.716767       -19.5042
 141   2.0000      -0.705318       -19.1927
 142   2.0000      -0.696973       -18.9656
 143   2.0000      -0.689970       -18.7750
 144   2.0000      -0.686214       -18.6728
 145   2.0000      -0.684030       -18.6134
 146   2.0000      -0.682742       -18.5784
 147   2.0000      -0.664590       -18.0844
 148   2.0000      -0.661635       -18.0040
 149   2.0000      -0.660730       -17.9794
 150   2.0000      -0.654940       -17.8218
 151   2.0000      -0.651492       -17.7280
 152   2.0000      -0.646225       -17.5847
 153   2.0000      -0.644060       -17.5258
 154   2.0000      -0.643550       -17.5119
 155   2.0000      -0.634212       -17.2578
 156   2.0000      -0.627339       -17.0708
 157   2.0000      -0.621680       -16.9168
 158   2.0000      -0.620971       -16.8975
 159   2.0000      -0.613443       -16.6926
 160   2.0000      -0.606437       -16.5020
 161   2.0000      -0.603563       -16.4238
 162   2.0000      -0.601481       -16.3671
 163   2.0000      -0.597663       -16.2632
 164   2.0000      -0.597516       -16.2592
 165   2.0000      -0.593018       -16.1368
 166   2.0000      -0.587324       -15.9819
 167   2.0000      -0.580103       -15.7854
 168   2.0000      -0.567368       -15.4389
 169   2.0000      -0.562266       -15.3000
 170   2.0000      -0.556369       -15.1396
 171   2.0000      -0.554811       -15.0972
 172   2.0000      -0.551796       -15.0151
 173   2.0000      -0.550279       -14.9738
 174   2.0000      -0.546723       -14.8771
 175   2.0000      -0.546015       -14.8578
 176   2.0000      -0.542544       -14.7634
 177   2.0000      -0.540993       -14.7212
 178   2.0000      -0.538588       -14.6557
 179   2.0000      -0.537066       -14.6143
 180   2.0000      -0.536270       -14.5927
 181   2.0000      -0.531165       -14.4537
 182   2.0000      -0.528474       -14.3805
 183   2.0000      -0.526420       -14.3246
 184   2.0000      -0.520576       -14.1656
 185   2.0000      -0.520318       -14.1586
 186   2.0000      -0.518282       -14.1032
 187   2.0000      -0.516374       -14.0513
 188   2.0000      -0.515247       -14.0206
 189   2.0000      -0.513170       -13.9641
 190   2.0000      -0.511159       -13.9094
 191   2.0000      -0.510372       -13.8879
 192   2.0000      -0.509790       -13.8721
 193   2.0000      -0.504403       -13.7255
 194   2.0000      -0.503058       -13.6889
 195   2.0000      -0.502875       -13.6839
 196   2.0000      -0.502145       -13.6641
 197   2.0000      -0.501780       -13.6541
 198   2.0000      -0.501056       -13.6344
 199   2.0000      -0.500343       -13.6150
 200   2.0000      -0.494932       -13.4678
 201   2.0000      -0.494504       -13.4561
 202   2.0000      -0.493449       -13.4274
 203   2.0000      -0.492484       -13.4012
 204   2.0000      -0.491503       -13.3745
 205   2.0000      -0.488856       -13.3025
 206   2.0000      -0.485379       -13.2078
 207   2.0000      -0.482347       -13.1253
 208   2.0000      -0.479010       -13.0345
 209   2.0000      -0.476669       -12.9708
 210   2.0000      -0.475211       -12.9311
 211   2.0000      -0.471415       -12.8278
 212   2.0000      -0.470769       -12.8103
 213   2.0000      -0.461641       -12.5619
 214   2.0000      -0.459403       -12.5010
 215   2.0000      -0.457370       -12.4457
 216   2.0000      -0.455053       -12.3826
 217   2.0000      -0.453074       -12.3288
 218   2.0000      -0.451035       -12.2733
 219   2.0000      -0.450740       -12.2652
 220   2.0000      -0.449809       -12.2399
 221   2.0000      -0.449096       -12.2205
 222   2.0000      -0.446695       -12.1552
 223   2.0000      -0.445415       -12.1204
 224   2.0000      -0.445074       -12.1111
 225   2.0000      -0.444439       -12.0938
 226   2.0000      -0.443815       -12.0768
 227   2.0000      -0.443596       -12.0709
 228   2.0000      -0.442795       -12.0491
 229   2.0000      -0.440671       -11.9913
 230   2.0000      -0.433906       -11.8072
 231   2.0000      -0.433653       -11.8003
 232   2.0000      -0.433135       -11.7862
 233   2.0000      -0.431745       -11.7484
 234   2.0000      -0.430238       -11.7074
 235   2.0000      -0.428469       -11.6592
 236   2.0000      -0.426691       -11.6109
 237   2.0000      -0.424665       -11.5557
 238   2.0000      -0.423248       -11.5172
 239   2.0000      -0.421118       -11.4592
 240   2.0000      -0.418636       -11.3917
 241   2.0000      -0.417440       -11.3591
 242   2.0000      -0.415772       -11.3137
 243   2.0000      -0.414537       -11.2801
 244   2.0000      -0.412812       -11.2332
 245   2.0000      -0.410262       -11.1638
 246   2.0000      -0.405935       -11.0460
 247   2.0000      -0.401801       -10.9336
 248   2.0000      -0.393179       -10.6989
 249   2.0000      -0.385819       -10.4987
 250   2.0000      -0.380675       -10.3587
 251   2.0000      -0.373954       -10.1758
 252   2.0000      -0.372447       -10.1348
 253   2.0000      -0.355426        -9.6716
 254   2.0000      -0.351637        -9.5685
 255   2.0000      -0.345573        -9.4035
 256   2.0000      -0.337336        -9.1794
 257   2.0000      -0.334349        -9.0981
 258   2.0000      -0.330868        -9.0034
 259   2.0000      -0.326861        -8.8943
 260   2.0000      -0.316291        -8.6067
 261   2.0000      -0.314874        -8.5681
 262   2.0000      -0.308818        -8.4034
 263   2.0000      -0.297001        -8.0818
 264   2.0000      -0.295925        -8.0525
 265   2.0000      -0.290849        -7.9144
 266   2.0000      -0.280688        -7.6379
 267   2.0000      -0.267906        -7.2901
 268   2.0000      -0.257051        -6.9947
 269   0.0000      -0.130424        -3.5490
 270   0.0000      -0.124266        -3.3815
 271   0.0000      -0.089016        -2.4222
 272   0.0000      -0.088322        -2.4034
 273   0.0000      -0.062670        -1.7053

MULLIKEN ATOMIC CHARGES
-----------------------
   0 C :    0.323282
   1 C :   -0.342979
   2 C :   -0.188513
   3 N :    0.163141
   4 C :   -0.192119
   5 N :    0.155074
   6 C :    0.028942
   7 C :    0.006064
   8 C :   -0.057670
   9 C :    0.121567
  10 C :   -0.072605
  11 C :   -0.021425
  12 S :    0.150777
  13 C :   -0.044206
  14 C :    0.025784
  15 C :    0.177583
  16 O :   -0.156023
  17 C :   -0.102128
  18 C :   -0.036931
  19 C :    0.053585
  20 C :    0.024972
  21 C :   -0.107939
  22 C :   -0.132988
  23 N :    0.144973
  24 C :    0.005715
  25 C :    0.109000
  26 C :   -0.001340
  27 C :    0.119946
  28 C :   -0.022047
  29 C :   -0.133210
  30 C :   -0.017141
  31 C :   -0.124574
  32 N :    0.153902
  33 C :   -0.103393
  34 C :   -0.029944
  35 C :    0.042071
  36 C :   -0.160750
  37 C :    0.134810
  38 N :   -0.028923
  39 C :   -0.163822
  40 C :    0.126853
  41 C :    0.061796
  42 C :   -0.048413
  43 C :   -0.059355
  44 C :    0.097412
  45 C :   -0.053104
  46 C :   -0.096347
  47 C :   -0.108035
  48 N :    0.133039
  49 C :   -0.052508
  50 C :    0.061553
  51 C :    0.054714
  52 C :    0.088921
  53 C :   -0.008056
  54 C :   -0.104262
  55 C :   -0.023141
  56 C :   -0.133841
  57 N :    0.140384
  58 C :   -0.005269
  59 C :    0.002543
  60 C :    0.031432
  61 C :   -0.109899
  62 C :    0.269585
  63 C :   -0.331116
  64 C :   -0.175412
  65 N :    0.154341
  66 C :   -0.214277
  67 N :    0.167060
  68 C :    0.008366
  69 C :   -0.006146
  70 C :    0.141826
  71 O :   -0.143474
  72 C :   -0.066647
  73 C :    0.108469
  74 C :   -0.092471
  75 C :   -0.022880
  76 S :    0.141393
  77 C :   -0.049965
  78 C :    0.028688
  79 H :   -0.025532
  80 H :   -0.004220
  81 H :    0.038563
  82 H :   -0.011533
  83 H :    0.028677
  84 H :    0.006187
  85 H :   -0.009738
  86 H :   -0.013671
  87 H :    0.003014
  88 H :    0.025216
  89 H :    0.005234
  90 H :    0.017852
  91 H :    0.036304
  92 H :    0.018037
  93 H :    0.118060
  94 H :    0.005050
  95 H :    0.046118
  96 H :    0.041142
  97 H :    0.022831
  98 H :   -0.019743
  99 H :   -0.017720
 100 H :    0.011168
 101 H :   -0.000687
 102 H :   -0.003322
 103 H :    0.012804
 104 H :    0.022685
 105 H :    0.016137
 106 H :   -0.010932
 107 H :   -0.004561
 108 H :    0.038721
 109 H :   -0.006415
Sum of atomic charges:   -0.0000000

LOEWDIN ATOMIC CHARGES
----------------------
   0 C :    0.074905
   1 C :   -0.133141
   2 C :   -0.018929
   3 N :   -0.043714
   4 C :   -0.019306
   5 N :   -0.049057
   6 C :   -0.019839
   7 C :   -0.049226
   8 C :    0.029843
   9 C :   -0.024917
  10 C :   -0.133852
  11 C :    0.001786
  12 S :    0.442605
  13 C :   -0.144630
  14 C :   -0.056366
  15 C :    0.095859
  16 O :   -0.142354
  17 C :   -0.067091
  18 C :    0.061052
  19 C :   -0.031694
  20 C :    0.037852
  21 C :   -0.055349
  22 C :   -0.031537
  23 N :   -0.039229
  24 C :    0.022494
  25 C :    0.045703
  26 C :    0.038452
  27 C :   -0.018553
  28 C :   -0.001034
  29 C :   -0.062212
  30 C :   -0.004110
  31 C :   -0.030246
  32 N :   -0.046657
  33 C :   -0.041181
  34 C :   -0.007786
  35 C :   -0.083615
  36 C :   -0.012184
  37 C :   -0.051449
  38 N :    0.099565
  39 C :   -0.001730
  40 C :   -0.052845
  41 C :   -0.079861
  42 C :    0.017172
  43 C :   -0.060703
  44 C :   -0.016548
  45 C :   -0.018565
  46 C :   -0.030598
  47 C :   -0.021128
  48 N :   -0.042339
  49 C :   -0.029638
  50 C :    0.058086
  51 C :    0.023394
  52 C :   -0.034626
  53 C :    0.030286
  54 C :   -0.061065
  55 C :    0.010010
  56 C :   -0.032105
  57 N :   -0.044859
  58 C :    0.028147
  59 C :   -0.023975
  60 C :    0.064785
  61 C :   -0.088513
  62 C :    0.070040
  63 C :   -0.138881
  64 C :   -0.020045
  65 N :   -0.048816
  66 C :   -0.023395
  67 N :   -0.049958
  68 C :   -0.020393
  69 C :   -0.055273
  70 C :    0.082411
  71 O :   -0.144318
  72 C :    0.024272
  73 C :   -0.035587
  74 C :   -0.144616
  75 C :   -0.011055
  76 S :    0.430308
  77 C :   -0.149017
  78 C :   -0.057507
  79 H :    0.034596
  80 H :    0.042020
  81 H :    0.029723
  82 H :    0.033835
  83 H :    0.050153
  84 H :    0.040290
  85 H :    0.037871
  86 H :    0.031721
  87 H :    0.034578
  88 H :    0.037435
  89 H :    0.026798
  90 H :    0.040387
  91 H :    0.039504
  92 H :    0.034901
  93 H :    0.089889
  94 H :    0.033767
  95 H :    0.039911
  96 H :    0.042177
  97 H :    0.035497
  98 H :    0.023828
  99 H :    0.024300
 100 H :    0.036301
 101 H :    0.034610
 102 H :    0.033508
 103 H :    0.035985
 104 H :    0.033029
 105 H :    0.045100
 106 H :    0.040799
 107 H :    0.040570
 108 H :    0.029649
 109 H :    0.035461

  Mayer bond orders larger than 0.100000
B(  0-C ,  1-C ) :   1.6500 B(  0-C ,  6-C ) :   1.0182 B(  0-C , 17-C ) :   1.0407
B(  1-C ,  2-C ) :   1.1358 B(  1-C ,  4-C ) :   1.1491 B(  2-C ,  3-N ) :   2.9792
B(  4-C ,  5-N ) :   2.9662 B(  6-C ,  7-C ) :   1.2596 B(  6-C , 11-C ) :   1.4041
B(  7-C ,  8-C ) :   1.4097 B(  7-C , 15-C ) :   0.9568 B(  8-C ,  9-C ) :   1.2580
B(  8-C , 79-H ) :   1.0138 B(  9-C , 10-C ) :   1.2933 B(  9-C , 14-C ) :   1.1775
B( 10-C , 11-C ) :   1.3309 B( 10-C , 12-S ) :   1.1034 B( 11-C , 80-H ) :   0.9790
B( 12-S , 13-C ) :   1.1326 B( 13-C , 14-C ) :   1.6217 B( 13-C , 81-H ) :   0.9682
B( 14-C , 82-H ) :   0.9996 B( 15-C , 16-O ) :   2.0950 B( 15-C , 17-C ) :   0.9286
B( 17-C , 18-C ) :   1.6726 B( 18-C , 19-C ) :   1.0689 B( 18-C , 83-H ) :   0.9421
B( 19-C , 20-C ) :   1.6066 B( 19-C , 25-C ) :   1.0393 B( 20-C , 21-C ) :   1.0987
B( 20-C , 84-H ) :   1.0199 B( 21-C , 22-C ) :   1.0586 B( 21-C , 24-C ) :   1.6259
B( 22-C , 23-N ) :   3.0422 B( 24-C , 25-C ) :   1.0828 B( 24-C , 85-H ) :   1.0190
B( 25-C , 26-C ) :   1.5274 B( 26-C , 27-C ) :   1.0749 B( 26-C , 30-C ) :   1.0749
B( 27-C , 28-C ) :   1.6068 B( 27-C , 33-C ) :   1.0445 B( 28-C , 29-C ) :   1.0953
B( 28-C , 86-H ) :   1.0264 B( 29-C , 30-C ) :   1.6314 B( 29-C , 31-C ) :   1.0791
B( 30-C , 87-H ) :   0.9992 B( 31-C , 32-N ) :   3.0264 B( 33-C , 34-C ) :   1.7479
B( 33-C , 88-H ) :   0.9716 B( 34-C , 35-C ) :   1.0911 B( 34-C , 89-H ) :   0.9539
B( 35-C , 36-C ) :   1.4534 B( 35-C , 41-C ) :   1.2204 B( 36-C , 37-C ) :   1.1162
B( 36-C , 38-N ) :   1.2183 B( 37-C , 90-H ) :   0.9392 B( 37-C , 91-H ) :   0.9443
B( 37-C , 92-H ) :   0.9398 B( 38-N , 39-C ) :   1.2408 B( 38-N , 93-H ) :   0.9340
B( 39-C , 40-C ) :   1.1106 B( 39-C , 41-C ) :   1.4431 B( 40-C , 94-H ) :   0.9312
B( 40-C , 95-H ) :   0.9363 B( 40-C , 96-H ) :   0.9427 B( 41-C , 42-C ) :   1.0850
B( 42-C , 43-C ) :   1.6810 B( 42-C , 97-H ) :   0.9621 B( 43-C , 44-C ) :   1.0828
B( 43-C , 98-H ) :   0.9726 B( 44-C , 45-C ) :   1.5923 B( 44-C , 50-C ) :   1.0111
B( 45-C , 46-C ) :   1.1151 B( 45-C , 99-H ) :   0.9985 B( 46-C , 47-C ) :   1.0671
B( 46-C , 49-C ) :   1.5889 B( 47-C , 48-N ) :   2.9855 B( 49-C , 50-C ) :   1.1053
B( 49-C ,100-H ) :   1.0119 B( 50-C , 51-C ) :   1.4782 B( 51-C , 52-C ) :   1.0568
B( 51-C , 55-C ) :   1.0987 B( 52-C , 53-C ) :   1.5811 B( 52-C , 58-C ) :   1.0696
B( 53-C , 54-C ) :   1.1187 B( 53-C ,101-H ) :   1.0124 B( 54-C , 55-C ) :   1.6066
B( 54-C , 56-C ) :   1.0553 B( 55-C ,102-H ) :   1.0127 B( 56-C , 57-N ) :   3.0420
B( 58-C , 59-C ) :   1.6683 B( 58-C ,103-H ) :   0.9706 B( 59-C , 60-C ) :   1.1240
B( 59-C ,104-H ) :   0.9617 B( 60-C , 61-C ) :   1.6214 B( 60-C ,105-H ) :   0.9582
B( 61-C , 62-C ) :   1.0410 B( 61-C , 70-C ) :   0.9370 B( 62-C , 63-C ) :   1.6411
B( 62-C , 68-C ) :   1.0178 B( 63-C , 64-C ) :   1.1296 B( 63-C , 66-C ) :   1.1589
B( 64-C , 65-N ) :   2.9869 B( 66-C , 67-N ) :   3.0099 B( 68-C , 69-C ) :   1.2694
B( 68-C , 75-C ) :   1.4165 B( 69-C , 70-C ) :   0.9241 B( 69-C , 72-C ) :   1.4284
B( 70-C , 71-O ) :   2.2700 B( 72-C , 73-C ) :   1.2514 B( 72-C ,106-H ) :   1.0155
B( 73-C , 74-C ) :   1.3052 B( 73-C , 78-C ) :   1.1732 B( 74-C , 75-C ) :   1.3192
B( 74-C , 76-S ) :   1.0980 B( 75-C ,107-H ) :   0.9856 B( 76-S , 77-C ) :   1.1274
B( 77-C , 78-C ) :   1.6289 B( 77-C ,108-H ) :   0.9684 B( 78-C ,109-H ) :   0.9991

-----------------------------------------------------------------------------
         ABSORPTION SPECTRUM VIA TRANSITION ELECTRIC DIPOLE MOMENTS
-----------------------------------------------------------------------------
State   Energy  Wavelength   fosc         T2         TX        TY        TZ
        (cm-1)    (nm)                  (au**2)     (au)      (au)      (au)
-----------------------------------------------------------------------------
   0    8627.6   1159.1   0.094480888   3.60522  -0.39449   0.53052   1.77993
   1   11817.4    846.2   0.033719530   0.93937  -0.13954  -0.91405   0.29053
   2   13293.8    752.2   0.005016502   0.12423   0.09362   0.22851  -0.25150
   3   14354.7    696.6   0.085358826   1.95763   0.08002  -0.44709  -1.32338
   4   15595.9    641.2   0.007945581   0.16772  -0.06840   0.40377  -0.00371
   5   17590.9    568.5   0.022787545   0.42647  -0.54072  -0.14512   0.33619
   6   20263.6    493.5   0.008323690   0.13523  -0.18120   0.31449  -0.05913
   7   21669.1    461.5   0.011229441   0.17061  -0.28227   0.18809  -0.23569
   8   22433.8    445.8   0.025899370   0.38007   0.08593  -0.43393   0.42941
   9   22605.2    442.4   0.005211018   0.07589  -0.06962  -0.04713   0.26234
  10   22868.7    437.3   0.074252041   1.06891   0.22212  -0.41541  -0.92033
  11   23047.6    433.9   0.270829452   3.86852   0.40762  -0.49495  -1.85941
  12   23337.6    428.5   0.061831495   0.87223   0.49671   0.67632   0.40999
  13   23795.7    420.2   0.027847828   0.38527   0.51042  -0.05521  -0.34885
  14   23845.7    419.4   0.025232549   0.34836  -0.24414  -0.29210  -0.45104
  15   24040.0    416.0   0.241389395   3.30567   0.60250  -0.01803  -1.71532
  16   24211.3    413.0   0.083346870   1.13331  -0.24283   0.42951   0.94333
  17   24349.2    410.7   0.004140702   0.05598   0.15793   0.07224  -0.16070
  18   24945.3    400.9   0.013420218   0.17711   0.35525  -0.12999  -0.18443
  19   26254.4    380.9   0.005594123   0.07015   0.07480  -0.12210   0.22281
  20   26345.9    379.6   0.099614713   1.24476   0.02149  -0.79437   0.78312
  21   26647.1    375.3   0.138599386   1.71233  -0.68400   0.56223  -0.96352
  22   26932.4    371.3   0.147376920   1.80149  -0.57584  -1.19262   0.21803
  23   26984.8    370.6   0.023171711   0.28269  -0.07542   0.28990  -0.43928
  24   27833.2    359.3   0.150452716   1.77956  -0.18649   1.31883   0.07392
  25   28101.6    355.9   0.123669601   1.44880   0.14292  -1.18415   0.16178
  26   28150.1    355.2   0.031265423   0.36565   0.10738   0.40526  -0.43575
  27   28445.2    351.6   0.006359036   0.07360  -0.13264  -0.22253  -0.08052
  28   28604.4    349.6   0.011752181   0.13526   0.08639  -0.24434  -0.26094
  29   28856.2    346.5   0.032102495   0.36625  -0.12007  -0.47931  -0.34942
  30   29387.1    340.3   0.506260671   5.67144   0.08712   1.63215   1.73203
  31   29688.3    336.8   0.049262043   0.54626  -0.18356  -0.63682  -0.32715
  32   29730.9    336.4   0.007451471   0.08251  -0.09512  -0.20865  -0.17300
  33   30020.8    333.1   0.042901586   0.47047   0.38737  -0.38155  -0.41812
  34   30495.2    327.9   0.186950238   2.01823   1.08686  -0.37791   0.83315
  35   30676.1    326.0   0.023555127   0.25279   0.35436   0.15212   0.32261
  36   30943.1    323.2   0.306016167   3.25578   0.54977  -0.55468   1.62661
  37   31055.2    322.0   0.008275255   0.08772   0.24770  -0.07501  -0.14402
  38   31218.2    320.3   0.055218866   0.58231  -0.65466   0.30784   0.24284
  39   31677.5    315.7   0.240955147   2.50416   1.14172   0.65233   0.88040
  40   31813.5    314.3   0.059748875   0.61829   0.08651   0.77486  -0.10198
  41   31937.3    313.1   0.385716953   3.97600  -1.72463  -0.45593  -0.89094
  42   32559.4    307.1   0.103738498   1.04891   0.89610  -0.08227   0.48902
  43   32643.2    306.3   0.060513639   0.61029  -0.07628   0.25793  -0.73345
  44   32721.0    305.6   0.280927075   2.82646  -1.14967   0.62770  -1.05391
  45   33209.9    301.1   0.130549277   1.29414  -0.82911  -0.06763  -0.77598
  46   33342.7    299.9   0.016220713   0.16016  -0.34431  -0.01042  -0.20372
  47   33925.9    294.8   0.235148214   2.28184   0.51724  -1.05838   0.94559
  48   34073.3    293.5   0.078446000   0.75793   0.01810   0.22268   0.84144
  49   34219.8    292.2   0.061917440   0.59568  -0.68860  -0.30013  -0.17728
  50   34281.7    291.7   0.083075115   0.79778   0.72114   0.39458  -0.34934
  51   34530.2    289.6   0.562720497   5.36499   1.14861   0.55928   1.93207
  52   34856.4    286.9   0.001114196   0.01052   0.07435  -0.05841   0.03980
  53   34929.6    286.3   0.004729365   0.04457   0.11150   0.08436   0.15819
  54   35233.1    283.8   0.257063649   2.40196   0.62381   1.39599  -0.25306
  55   35770.6    279.6   0.070709931   0.65077  -0.29379  -0.57878  -0.47903
  56   35821.6    279.2   0.105339469   0.96810  -0.70295   0.20673  -0.65668
  57   36441.8    274.4   0.111379544   1.00619  -0.83407   0.44564   0.33456
  58   36583.1    273.4   0.028334512   0.25498   0.12422  -0.30661   0.38150
  59   36767.8    272.0   0.060358293   0.54044  -0.72633   0.05123  -0.10128
  60   36805.0    271.7   0.085513367   0.76490  -0.78946   0.28918   0.24087
  61   37201.6    268.8   0.147619435   1.30634   0.38664  -0.77494   0.74587
  62   37447.3    267.0   0.009870123   0.08677  -0.02329  -0.24188   0.16650
  63   37479.8    266.8   0.040731662   0.35778   0.24375   0.40196  -0.36985
  64   37670.6    265.5   0.006463831   0.05649  -0.08591  -0.14313   0.16918
  65   37815.6    264.4   0.059982932   0.52219  -0.22311  -0.52540   0.44314
  66   38043.0    262.9   0.236673733   2.04810  -0.59685   0.97880  -0.85663
  67   38091.8    262.5   0.081383735   0.70337   0.40061  -0.68233   0.27804
  68   38176.4    261.9   0.052235590   0.45045   0.50072  -0.42039  -0.15167
  69   38664.1    258.6   0.024310457   0.20700  -0.14073   0.40819  -0.14342
  70   38748.1    258.1   0.000038555   0.00033  -0.00930  -0.01294  -0.00858
  71   38938.2    256.8   0.033575121   0.28387  -0.32574   0.41830   0.05277
  72   39046.0    256.1   0.036499193   0.30774   0.53745   0.06729   0.11980
  73   39217.3    255.0   0.038951297   0.32698   0.37961  -0.39299  -0.16862
  74   39613.6    252.4   0.000838182   0.00697   0.04859   0.02015  -0.06480
  75   39920.6    250.5   0.032145532   0.26509   0.01059  -0.33101   0.39423
  76   40035.8    249.8   0.564426216   4.64125  -0.27570   1.43501  -1.58303

FINAL SINGLE POINT ENERGY     -3968.652173968318

DIPOLE MOMENT
-------------
                                X             Y             Z
Electronic contribution:     -9.69272     -29.96098      38.07775
Nuclear contribution   :     13.34586      34.04763     -38.68623
                        -----------------------------------------
Total Dipole Moment    :      3.65314       4.08665      -0.60848
                        -----------------------------------------
Magnitude (a.u.)       :      5.51510
Magnitude (Debye)      :     14.01827

Rotational constants in cm-1:     0.001044     0.000368     0.000305
Rotational constants in MHz :    31.291765    11.021083     9.157136

                             ****ORCA TERMINATED NORMALLY****
TOTAL RUN TIME: 0 days 0 hours 26 minutes 34 seconds 751 msec
