                         Program Version 4.2.0 -  RELEASE  -
|  1> # ORCA input file
|  2> # SCF done       -204.956485735933          0.000602985949
|  3> ! CAM-B3LYP def2-SVP def2/J RIJCOSX Grid4 TightSCF
|  4> %maxcore 5000
|  5> %tddft
|  6>     Mode sTDDFT
|  7>     Ethresh 5.0
|  8>     maxcore 5000
|  9> end
| 10>
| 11> %pal
| 12>   nprocs 6
| 13>   end
| 14> * xyz 0 1
| 15>    C       -1.51297         2.06914        -3.01454
| 16>    C       -0.60724         1.44462        -2.19747
| 17>    C        0.55882         0.79697        -2.65893
| 18>    N        1.52228         0.25441        -2.96673
| 19>    C       -0.68693         1.35363        -0.79175
| 20>    N       -0.67453         1.23702         0.35068
| 21>    C       -1.40907         2.16804        -4.46649
| 22>    C       -2.51787         2.90591        -4.95424
| 23>    C       -2.70415         3.17488        -6.28901
| 24>    C       -1.75144         2.69090        -7.18995
| 25>    C       -0.64877         1.95215        -6.69653
| 26>    C       -0.46036         1.68179        -5.34580
| 27>    S        0.39875         1.45156        -7.98546
| 28>    C       -0.62499         2.21903        -9.14875
| 29>    C       -1.70400         2.82452        -8.60594
| 30>    C       -3.36987         3.29467        -3.82449
| 31>    O       -4.40399         3.94038        -3.88559
| 32>    C       -2.73293         2.75368        -2.61772
| 33>    C       -3.22204         2.86422        -1.34337
| 34>    C       -4.39274         3.48098        -0.86948
| 35>    C       -4.73894         3.45852         0.48643
| 36>    C       -5.93673         4.10199         0.73797
| 37>    C       -6.51405         4.63040        -0.43862
| 38>    S       -5.59298         4.33598        -1.83748
| 39>    C       -7.74188         5.25118        -0.08011
| 40>    C       -7.93468         5.11419         1.30042
| 41>    C       -6.80877         4.39461         1.86704
| 42>    C       -6.62773         4.06850         3.17916
| 43>    C       -5.49736         3.35916         3.63665
| 44>    N       -4.58194         2.78279         4.01532
| 45>    C       -7.57725         4.43075         4.15786
| 46>    N       -8.36203         4.73765         4.93593
| 47>    C       -9.14125         5.67965         1.73398
| 48>    C       -9.84404         6.23047         0.69462
| 49>    S       -9.03011         6.07732        -0.83626
| 50>    C      -11.19214         6.87461         0.81950
| 51>    C      -11.71173         7.42300        -0.50942
| 52>    N      -10.99008         8.03475         1.71199
| 53>    N      -11.49083         8.21064         2.78997
| 54>    C      -12.46547         7.33446         3.47282
| 55>    C      -12.69762         6.08374         2.70572
| 56>    C      -12.12185         5.88316         1.41961
| 57>    N      -12.52060         4.72353         0.98109
| 58>    O      -13.31396         4.21633         1.93368
| 59>    N      -13.42473         5.03975         2.98262
| 60>    C      -11.91244         7.05988         4.87275
| 61>    C      -13.74343         8.12170         3.50396
| 62>    C      -14.42690         8.62663         4.57364
| 63>    C      -15.59879         9.29066         4.17333
| 64>    C      -15.78123         9.28680         2.78591
| 65>    S      -14.52672         8.46862         1.97385
| 66>    C      -16.99066         9.96709         2.47612
| 67>    C      -17.57073        10.39639         3.68251
| 68>    C      -16.72135         9.97862         4.78803
| 69>    C      -16.96183        10.16705         6.11689
| 70>    C      -16.07228         9.71247         7.11319
| 71>    N      -15.34164         9.34984         7.91847
| 72>    C      -18.12225        10.83259         6.56628
| 73>    N      -19.06821        11.37860         6.91515
| 74>    C      -18.78511        11.04680         3.49603
| 75>    C      -19.14084        11.11760         2.15814
| 76>    S      -17.92340        10.38933         1.11948
| 77>    C      -20.28252        11.71268         1.57165
| 78>    C      -21.47487        12.01576         2.14936
| 79>    C      -22.09933        11.64331         3.40350
| 80>    C      -21.93017        10.46749         4.08733
| 81>    C      -22.68029        10.10589         5.22654
| 82>    N      -23.26604         9.75960         6.15023
| 83>    C      -21.06317         9.43571         3.67941
| 84>    N      -20.39194         8.55681         3.37049
| 85>    C      -23.15458        12.61536         3.66322
| 86>    C      -23.34551        13.40528         2.49922
| 87>    C      -22.36662        13.00623         1.47501
| 88>    O      -22.25654        13.41392         0.34175
| 89>    C      -24.30778        14.38396         2.42511
| 90>    C      -25.10694        14.60091         3.55162
| 91>    C      -24.89396        13.82004         4.71432
| 92>    C      -23.92728        12.82401         4.78857
| 93>    S      -25.98508        14.27244         5.98403
| 94>    C      -26.70707        15.47239         4.96943
| 95>    C      -26.16025        15.54022         3.73586
| 96>    H       -3.55925         3.74043        -6.62539
| 97>    H        0.39644         1.11433        -5.02370
| 98>    H       -0.35104         2.16872       -10.18465
| 99>    H       -2.44886         3.35124        -9.17451
|100>    H       -2.64248         2.40355        -0.55250
|101>    H       -4.12307         2.98003         1.22758
|102>    H       -9.48310         5.68403         2.75337
|103>    H      -11.02273         8.17545        -0.88404
|104>    H      -12.68886         7.88037        -0.36708
|105>    H      -11.80171         6.61123        -1.22705
|106>    H      -10.99270         6.48254         4.80339
|107>    H      -12.63838         6.49115         5.44684
|108>    H      -11.69343         8.00095         5.36843
|109>    H      -14.11011         8.51761         5.59356
|110>    H      -19.37138        11.48717         4.28182
|111>    H      -20.18212        12.02857         0.53749
|112>    H      -24.43921        14.96410         1.52498
|113>    H      -23.79236        12.26010         5.69681
|114>    H      -27.50956        16.06340         5.36618
|115>    H      -26.47991        16.22566         2.97202
|116> *
|117>
|118>                          ****END OF INPUT****

CARTESIAN COORDINATES (ANGSTROEM)
---------------------------------
  C     -1.512970    2.069140   -3.014540
  C     -0.607240    1.444620   -2.197470
  C      0.558820    0.796970   -2.658930
  N      1.522280    0.254410   -2.966730
  C     -0.686930    1.353630   -0.791750
  N     -0.674530    1.237020    0.350680
  C     -1.409070    2.168040   -4.466490
  C     -2.517870    2.905910   -4.954240
  C     -2.704150    3.174880   -6.289010
  C     -1.751440    2.690900   -7.189950
  C     -0.648770    1.952150   -6.696530
  C     -0.460360    1.681790   -5.345800
  S      0.398750    1.451560   -7.985460
  C     -0.624990    2.219030   -9.148750
  C     -1.704000    2.824520   -8.605940
  C     -3.369870    3.294670   -3.824490
  O     -4.403990    3.940380   -3.885590
  C     -2.732930    2.753680   -2.617720
  C     -3.222040    2.864220   -1.343370
  C     -4.392740    3.480980   -0.869480
  C     -4.738940    3.458520    0.486430
  C     -5.936730    4.101990    0.737970
  C     -6.514050    4.630400   -0.438620
  S     -5.592980    4.335980   -1.837480
  C     -7.741880    5.251180   -0.080110
  C     -7.934680    5.114190    1.300420
  C     -6.808770    4.394610    1.867040
  C     -6.627730    4.068500    3.179160
  C     -5.497360    3.359160    3.636650
  N     -4.581940    2.782790    4.015320
  C     -7.577250    4.430750    4.157860
  N     -8.362030    4.737650    4.935930
  C     -9.141250    5.679650    1.733980
  C     -9.844040    6.230470    0.694620
  S     -9.030110    6.077320   -0.836260
  C    -11.192140    6.874610    0.819500
  C    -11.711730    7.423000   -0.509420
  N    -10.990080    8.034750    1.711990
  N    -11.490830    8.210640    2.789970
  C    -12.465470    7.334460    3.472820
  C    -12.697620    6.083740    2.705720
  C    -12.121850    5.883160    1.419610
  N    -12.520600    4.723530    0.981090
  O    -13.313960    4.216330    1.933680
  N    -13.424730    5.039750    2.982620
  C    -11.912440    7.059880    4.872750
  C    -13.743430    8.121700    3.503960
  C    -14.426900    8.626630    4.573640
  C    -15.598790    9.290660    4.173330
  C    -15.781230    9.286800    2.785910
  S    -14.526720    8.468620    1.973850
  C    -16.990660    9.967090    2.476120
  C    -17.570730   10.396390    3.682510
  C    -16.721350    9.978620    4.788030
  C    -16.961830   10.167050    6.116890
  C    -16.072280    9.712470    7.113190
  N    -15.341640    9.349840    7.918470
  C    -18.122250   10.832590    6.566280
  N    -19.068210   11.378600    6.915150
  C    -18.785110   11.046800    3.496030
  C    -19.140840   11.117600    2.158140
  S    -17.923400   10.389330    1.119480
  C    -20.282520   11.712680    1.571650
  C    -21.474870   12.015760    2.149360
  C    -22.099330   11.643310    3.403500
  C    -21.930170   10.467490    4.087330
  C    -22.680290   10.105890    5.226540
  N    -23.266040    9.759600    6.150230
  C    -21.063170    9.435710    3.679410
  N    -20.391940    8.556810    3.370490
  C    -23.154580   12.615360    3.663220
  C    -23.345510   13.405280    2.499220
  C    -22.366620   13.006230    1.475010
  O    -22.256540   13.413920    0.341750
  C    -24.307780   14.383960    2.425110
  C    -25.106940   14.600910    3.551620
  C    -24.893960   13.820040    4.714320
  C    -23.927280   12.824010    4.788570
  S    -25.985080   14.272440    5.984030
  C    -26.707070   15.472390    4.969430
  C    -26.160250   15.540220    3.735860
  H     -3.559250    3.740430   -6.625390
  H      0.396440    1.114330   -5.023700
  H     -0.351040    2.168720  -10.184650
  H     -2.448860    3.351240   -9.174510
  H     -2.642480    2.403550   -0.552500
  H     -4.123070    2.980030    1.227580
  H     -9.483100    5.684030    2.753370
  H    -11.022730    8.175450   -0.884040
  H    -12.688860    7.880370   -0.367080
  H    -11.801710    6.611230   -1.227050
  H    -10.992700    6.482540    4.803390
  H    -12.638380    6.491150    5.446840
  H    -11.693430    8.000950    5.368430
  H    -14.110110    8.517610    5.593560
  H    -19.371380   11.487170    4.281820
  H    -20.182120   12.028570    0.537490
  H    -24.439210   14.964100    1.524980
  H    -23.792360   12.260100    5.696810
  H    -27.509560   16.063400    5.366180
  H    -26.479910   16.225660    2.972020

 Total Charge           Charge          ....    0
 Multiplicity           Mult            ....    1
 Number of Electrons    NEL             ....  584
 Basis Dimension        Dim             .... 1258

ORBITAL ENERGIES
----------------

  NO   OCC          E(Eh)            E(eV)
   0   2.0000     -89.003794     -2421.9164
   1   2.0000     -89.001026     -2421.8410
   2   2.0000     -89.000015     -2421.8135
   3   2.0000     -88.994745     -2421.6701
   4   2.0000     -88.971264     -2421.0312
   5   2.0000     -88.967956     -2420.9412
   6   2.0000     -19.357405      -526.7418
   7   2.0000     -19.229689      -523.2664
   8   2.0000     -19.218025      -522.9490
   9   2.0000     -14.494704      -394.4210
  10   2.0000     -14.494280      -394.4094
  11   2.0000     -14.486260      -394.1912
  12   2.0000     -14.485575      -394.1725
  13   2.0000     -14.439261      -392.9123
  14   2.0000     -14.436198      -392.8289
  15   2.0000     -14.435393      -392.8070
  16   2.0000     -14.434472      -392.7820
  17   2.0000     -14.420391      -392.3988
  18   2.0000     -14.419797      -392.3826
  19   2.0000     -14.417566      -392.3219
  20   2.0000     -14.415683      -392.2707
  21   2.0000     -10.377062      -282.3742
  22   2.0000     -10.371562      -282.2245
  23   2.0000     -10.371413      -282.2205
  24   2.0000     -10.369256      -282.1618
  25   2.0000     -10.363825      -282.0140
  26   2.0000     -10.360360      -281.9197
  27   2.0000     -10.359777      -281.9039
  28   2.0000     -10.358364      -281.8654
  29   2.0000     -10.346467      -281.5417
  30   2.0000     -10.346405      -281.5400
  31   2.0000     -10.345815      -281.5239
  32   2.0000     -10.345578      -281.5175
  33   2.0000     -10.345451      -281.5140
  34   2.0000     -10.343127      -281.4508
  35   2.0000     -10.342043      -281.4213
  36   2.0000     -10.340701      -281.3848
  37   2.0000     -10.340483      -281.3789
  38   2.0000     -10.339760      -281.3592
  39   2.0000     -10.338676      -281.3297
  40   2.0000     -10.337706      -281.3033
  41   2.0000     -10.336333      -281.2659
  42   2.0000     -10.336300      -281.2650
  43   2.0000     -10.335368      -281.2397
  44   2.0000     -10.334071      -281.2044
  45   2.0000     -10.331683      -281.1394
  46   2.0000     -10.331556      -281.1359
  47   2.0000     -10.331259      -281.1279
  48   2.0000     -10.327604      -281.0284
  49   2.0000     -10.325307      -280.9659
  50   2.0000     -10.322806      -280.8978
  51   2.0000     -10.322507      -280.8897
  52   2.0000     -10.321257      -280.8557
  53   2.0000     -10.320493      -280.8349
  54   2.0000     -10.318734      -280.7870
  55   2.0000     -10.317982      -280.7666
  56   2.0000     -10.317760      -280.7605
  57   2.0000     -10.316009      -280.7129
  58   2.0000     -10.315509      -280.6993
  59   2.0000     -10.315220      -280.6914
  60   2.0000     -10.313351      -280.6405
  61   2.0000     -10.311717      -280.5961
  62   2.0000     -10.311432      -280.5883
  63   2.0000     -10.311233      -280.5829
  64   2.0000     -10.310835      -280.5721
  65   2.0000     -10.310117      -280.5526
  66   2.0000     -10.309251      -280.5290
  67   2.0000     -10.307862      -280.4912
  68   2.0000     -10.306762      -280.4613
  69   2.0000     -10.305119      -280.4165
  70   2.0000     -10.305106      -280.4162
  71   2.0000     -10.304258      -280.3931
  72   2.0000     -10.303916      -280.3838
  73   2.0000     -10.303600      -280.3752
  74   2.0000     -10.301578      -280.3202
  75   2.0000     -10.300311      -280.2857
  76   2.0000     -10.296161      -280.1728
  77   2.0000     -10.293784      -280.1081
  78   2.0000     -10.293552      -280.1018
  79   2.0000     -10.290478      -280.0181
  80   2.0000     -10.287667      -279.9417
  81   2.0000      -8.098112      -220.3608
  82   2.0000      -8.095554      -220.2912
  83   2.0000      -8.094789      -220.2704
  84   2.0000      -8.087014      -220.0588
  85   2.0000      -8.067538      -219.5289
  86   2.0000      -8.064281      -219.4402
  87   2.0000      -6.067298      -165.0996
  88   2.0000      -6.064766      -165.0307
  89   2.0000      -6.063936      -165.0081
  90   2.0000      -6.063037      -164.9836
  91   2.0000      -6.060709      -164.9203
  92   2.0000      -6.060607      -164.9175
  93   2.0000      -6.059770      -164.8947
  94   2.0000      -6.058003      -164.8467
  95   2.0000      -6.057300      -164.8275
  96   2.0000      -6.056435      -164.8040
  97   2.0000      -6.051633      -164.6733
  98   2.0000      -6.049610      -164.6183
  99   2.0000      -6.037031      -164.2760
 100   2.0000      -6.033797      -164.1880
 101   2.0000      -6.032735      -164.1591
 102   2.0000      -6.029470      -164.0702
 103   2.0000      -6.029224      -164.0635
 104   2.0000      -6.025938      -163.9741
 105   2.0000      -1.314804       -35.7776
 106   2.0000      -1.171990       -31.8915
 107   2.0000      -1.144956       -31.1558
 108   2.0000      -1.133469       -30.8433
 109   2.0000      -1.055029       -28.7088
 110   2.0000      -1.054114       -28.6839
 111   2.0000      -1.031054       -28.0564
 112   2.0000      -1.028591       -27.9894
 113   2.0000      -1.027278       -27.9537
 114   2.0000      -1.024885       -27.8885
 115   2.0000      -1.023440       -27.8492
 116   2.0000      -1.014965       -27.6186
 117   2.0000      -1.013915       -27.5900
 118   2.0000      -1.013019       -27.5656
 119   2.0000      -1.012604       -27.5544
 120   2.0000      -1.010523       -27.4977
 121   2.0000      -1.008584       -27.4450
 122   2.0000      -0.997698       -27.1487
 123   2.0000      -0.997262       -27.1369
 124   2.0000      -0.995312       -27.0838
 125   2.0000      -0.990337       -26.9484
 126   2.0000      -0.987588       -26.8736
 127   2.0000      -0.975354       -26.5407
 128   2.0000      -0.966693       -26.3051
 129   2.0000      -0.953176       -25.9372
 130   2.0000      -0.937230       -25.5033
 131   2.0000      -0.935178       -25.4475
 132   2.0000      -0.926348       -25.2072
 133   2.0000      -0.919318       -25.0159
 134   2.0000      -0.908556       -24.7231
 135   2.0000      -0.901124       -24.5208
 136   2.0000      -0.896182       -24.3864
 137   2.0000      -0.886287       -24.1171
 138   2.0000      -0.883504       -24.0414
 139   2.0000      -0.882527       -24.0148
 140   2.0000      -0.880728       -23.9658
 141   2.0000      -0.867566       -23.6077
 142   2.0000      -0.865989       -23.5647
 143   2.0000      -0.865148       -23.5419
 144   2.0000      -0.862787       -23.4776
 145   2.0000      -0.828265       -22.5382
 146   2.0000      -0.825161       -22.4538
 147   2.0000      -0.817665       -22.2498
 148   2.0000      -0.810875       -22.0650
 149   2.0000      -0.800132       -21.7727
 150   2.0000      -0.798671       -21.7329
 151   2.0000      -0.785811       -21.3830
 152   2.0000      -0.780643       -21.2424
 153   2.0000      -0.777705       -21.1624
 154   2.0000      -0.775547       -21.1037
 155   2.0000      -0.769381       -20.9359
 156   2.0000      -0.763993       -20.7893
 157   2.0000      -0.758615       -20.6430
 158   2.0000      -0.736894       -20.0519
 159   2.0000      -0.730305       -19.8726
 160   2.0000      -0.716414       -19.4946
 161   2.0000      -0.712864       -19.3980
 162   2.0000      -0.705033       -19.1849
 163   2.0000      -0.699844       -19.0437
 164   2.0000      -0.696504       -18.9528
 165   2.0000      -0.693126       -18.8609
 166   2.0000      -0.691830       -18.8257
 167   2.0000      -0.688884       -18.7455
 168   2.0000      -0.685942       -18.6654
 169   2.0000      -0.678924       -18.4745
 170   2.0000      -0.671518       -18.2729
 171   2.0000      -0.666901       -18.1473
 172   2.0000      -0.664062       -18.0701
 173   2.0000      -0.660600       -17.9758
 174   2.0000      -0.653462       -17.7816
 175   2.0000      -0.646337       -17.5877
 176   2.0000      -0.641200       -17.4479
 177   2.0000      -0.638824       -17.3833
 178   2.0000      -0.638114       -17.3640
 179   2.0000      -0.631279       -17.1780
 180   2.0000      -0.627686       -17.0802
 181   2.0000      -0.623328       -16.9616
 182   2.0000      -0.622261       -16.9326
 183   2.0000      -0.618870       -16.8403
 184   2.0000      -0.613080       -16.6827
 185   2.0000      -0.603742       -16.4286
 186   2.0000      -0.602536       -16.3958
 187   2.0000      -0.600740       -16.3470
 188   2.0000      -0.591676       -16.1003
 189   2.0000      -0.585259       -15.9257
 190   2.0000      -0.582206       -15.8426
 191   2.0000      -0.573512       -15.6061
 192   2.0000      -0.565599       -15.3907
 193   2.0000      -0.560741       -15.2585
 194   2.0000      -0.555696       -15.1213
 195   2.0000      -0.555377       -15.1126
 196   2.0000      -0.551526       -15.0078
 197   2.0000      -0.547663       -14.9027
 198   2.0000      -0.546831       -14.8800
 199   2.0000      -0.546196       -14.8628
 200   2.0000      -0.542780       -14.7698
 201   2.0000      -0.541216       -14.7272
 202   2.0000      -0.539977       -14.6935
 203   2.0000      -0.535764       -14.5789
 204   2.0000      -0.535465       -14.5708
 205   2.0000      -0.532402       -14.4874
 206   2.0000      -0.527112       -14.3435
 207   2.0000      -0.525394       -14.2967
 208   2.0000      -0.522489       -14.2176
 209   2.0000      -0.517725       -14.0880
 210   2.0000      -0.513859       -13.9828
 211   2.0000      -0.512208       -13.9379
 212   2.0000      -0.511655       -13.9228
 213   2.0000      -0.510880       -13.9018
 214   2.0000      -0.509546       -13.8654
 215   2.0000      -0.506040       -13.7700
 216   2.0000      -0.504327       -13.7234
 217   2.0000      -0.503989       -13.7142
 218   2.0000      -0.502114       -13.6632
 219   2.0000      -0.500809       -13.6277
 220   2.0000      -0.499440       -13.5904
 221   2.0000      -0.495962       -13.4958
 222   2.0000      -0.495698       -13.4886
 223   2.0000      -0.491428       -13.3724
 224   2.0000      -0.490172       -13.3383
 225   2.0000      -0.489780       -13.3276
 226   2.0000      -0.487052       -13.2534
 227   2.0000      -0.486057       -13.2263
 228   2.0000      -0.483607       -13.1596
 229   2.0000      -0.479779       -13.0555
 230   2.0000      -0.477735       -12.9998
 231   2.0000      -0.475217       -12.9313
 232   2.0000      -0.470251       -12.7962
 233   2.0000      -0.469034       -12.7631
 234   2.0000      -0.466914       -12.7054
 235   2.0000      -0.465151       -12.6574
 236   2.0000      -0.463968       -12.6252
 237   2.0000      -0.463174       -12.6036
 238   2.0000      -0.460309       -12.5257
 239   2.0000      -0.456788       -12.4298
 240   2.0000      -0.455769       -12.4021
 241   2.0000      -0.452946       -12.3253
 242   2.0000      -0.451839       -12.2952
 243   2.0000      -0.451823       -12.2947
 244   2.0000      -0.450736       -12.2652
 245   2.0000      -0.447712       -12.1828
 246   2.0000      -0.446786       -12.1577
 247   2.0000      -0.446450       -12.1485
 248   2.0000      -0.445690       -12.1278
 249   2.0000      -0.445260       -12.1161
 250   2.0000      -0.444260       -12.0889
 251   2.0000      -0.443543       -12.0694
 252   2.0000      -0.442045       -12.0287
 253   2.0000      -0.440354       -11.9826
 254   2.0000      -0.436645       -11.8817
 255   2.0000      -0.435840       -11.8598
 256   2.0000      -0.435571       -11.8525
 257   2.0000      -0.432860       -11.7787
 258   2.0000      -0.432627       -11.7724
 259   2.0000      -0.432230       -11.7616
 260   2.0000      -0.430054       -11.7024
 261   2.0000      -0.428586       -11.6624
 262   2.0000      -0.428133       -11.6501
 263   2.0000      -0.422402       -11.4942
 264   2.0000      -0.420312       -11.4373
 265   2.0000      -0.415715       -11.3122
 266   2.0000      -0.412470       -11.2239
 267   2.0000      -0.410311       -11.1651
 268   2.0000      -0.410102       -11.1595
 269   2.0000      -0.407495       -11.0885
 270   2.0000      -0.406020       -11.0484
 271   2.0000      -0.402583       -10.9548
 272   2.0000      -0.393960       -10.7202
 273   2.0000      -0.389108       -10.5882
 274   2.0000      -0.384056       -10.4507
 275   2.0000      -0.376656       -10.2493
 276   2.0000      -0.372543       -10.1374
 277   2.0000      -0.356540        -9.7020
 278   2.0000      -0.355886        -9.6842
 279   2.0000      -0.346616        -9.4319
 280   2.0000      -0.345858        -9.4113
 281   2.0000      -0.341739        -9.2992
 282   2.0000      -0.336949        -9.1688
 283   2.0000      -0.329143        -8.9564
 284   2.0000      -0.327442        -8.9101
 285   2.0000      -0.319404        -8.6914
 286   2.0000      -0.315603        -8.5880
 287   2.0000      -0.309885        -8.4324
 288   2.0000      -0.299926        -8.1614
 289   2.0000      -0.297302        -8.0900
 290   2.0000      -0.277906        -7.5622
 291   2.0000      -0.275169        -7.4877
 292   0.0000      -0.114261        -3.1092
 293   0.0000      -0.113830        -3.0975
 294   0.0000      -0.091619        -2.4931
 295   0.0000      -0.090233        -2.4554
 296   0.0000      -0.066748        -1.8163

MULLIKEN ATOMIC CHARGES
-----------------------
   0 C :    0.330663
   1 C :   -0.352278
   2 C :   -0.184795
   3 N :    0.153431
   4 C :   -0.190455
   5 N :    0.151192
   6 C :    0.009670
   7 C :   -0.011189
   8 C :   -0.068452
   9 C :    0.114451
  10 C :   -0.095515
  11 C :   -0.021378
  12 S :    0.146075
  13 C :   -0.049630
  14 C :    0.025019
  15 C :    0.167780
  16 O :   -0.195999
  17 C :   -0.091527
  18 C :   -0.028387
  19 C :   -0.055914
  20 C :   -0.058579
  21 C :    0.046098
  22 C :   -0.072602
  23 S :    0.244253
  24 C :   -0.101692
  25 C :    0.007580
  26 C :    0.301606
  27 C :   -0.288014
  28 C :   -0.193600
  29 N :    0.188848
  30 C :   -0.187226
  31 N :    0.167464
  32 C :   -0.023209
  33 C :   -0.016234
  34 S :    0.206121
  35 C :   -0.126881
  36 C :    0.120428
  37 N :   -0.077885
  38 N :   -0.074297
  39 C :   -0.141987
  40 C :   -0.094877
  41 C :   -0.069691
  42 N :    0.066406
  43 O :   -0.118141
  44 N :    0.078090
  45 C :    0.137742
  46 C :   -0.033513
  47 C :   -0.016736
  48 C :   -0.001567
  49 C :   -0.087478
  50 S :    0.180986
  51 C :   -0.075101
  52 C :   -0.004992
  53 C :    0.306653
  54 C :   -0.284665
  55 C :   -0.186886
  56 N :    0.175425
  57 C :   -0.184183
  58 N :    0.172525
  59 C :    0.002175
  60 C :   -0.116218
  61 S :    0.215784
  62 C :    0.078999
  63 C :   -0.130183
  64 C :    0.266905
  65 C :   -0.330296
  66 C :   -0.174034
  67 N :    0.161813
  68 C :   -0.200188
  69 N :    0.167407
  70 C :   -0.004992
  71 C :    0.006167
  72 C :    0.131327
  73 O :   -0.145434
  74 C :   -0.064582
  75 C :    0.106007
  76 C :   -0.093494
  77 C :   -0.016800
  78 S :    0.145424
  79 C :   -0.049179
  80 C :    0.026073
  81 H :   -0.012456
  82 H :   -0.005579
  83 H :    0.040840
  84 H :   -0.005696
  85 H :    0.015315
  86 H :    0.029304
  87 H :   -0.005635
  88 H :    0.044407
  89 H :    0.023937
  90 H :    0.046973
  91 H :    0.038395
  92 H :    0.048288
  93 H :    0.043795
  94 H :    0.009150
  95 H :    0.025741
  96 H :    0.021384
  97 H :   -0.010265
  98 H :    0.002724
  99 H :    0.039794
 100 H :   -0.006051
Sum of atomic charges:   -0.0000000

LOEWDIN ATOMIC CHARGES
----------------------
   0 C :    0.076935
   1 C :   -0.139778
   2 C :   -0.017919
   3 N :   -0.051249
   4 C :   -0.022898
   5 N :   -0.046944
   6 C :   -0.021359
   7 C :   -0.054518
   8 C :    0.024140
   9 C :   -0.035200
  10 C :   -0.144900
  11 C :   -0.007049
  12 S :    0.434033
  13 C :   -0.148293
  14 C :   -0.057843
  15 C :    0.087293
  16 O :   -0.177942
  17 C :   -0.109291
  18 C :    0.056933
  19 C :   -0.184290
  20 C :    0.013007
  21 C :   -0.079205
  22 C :   -0.167430
  23 S :    0.551631
  24 C :   -0.186290
  25 C :   -0.054432
  26 C :    0.080190
  27 C :   -0.100264
  28 C :   -0.021498
  29 N :   -0.020602
  30 C :   -0.009255
  31 N :   -0.037662
  32 C :   -0.028759
  33 C :   -0.156192
  34 S :    0.506938
  35 C :   -0.050928
  36 C :   -0.037226
  37 N :   -0.012159
  38 N :   -0.011925
  39 C :   -0.051563
  40 C :   -0.082634
  41 C :   -0.074248
  42 N :   -0.008084
  43 O :    0.057486
  44 N :   -0.000852
  45 C :   -0.022247
  46 C :   -0.150809
  47 C :   -0.022380
  48 C :   -0.061248
  49 C :   -0.174575
  50 S :    0.479360
  51 C :   -0.164046
  52 C :   -0.063737
  53 C :    0.082353
  54 C :   -0.095083
  55 C :   -0.016868
  56 N :   -0.026748
  57 C :   -0.013277
  58 N :   -0.030164
  59 C :    0.006734
  60 C :   -0.180073
  61 S :    0.502100
  62 C :    0.040175
  63 C :   -0.086384
  64 C :    0.065957
  65 C :   -0.136042
  66 C :   -0.019645
  67 N :   -0.044425
  68 C :   -0.016074
  69 N :   -0.046784
  70 C :   -0.019331
  71 C :   -0.056450
  72 C :    0.083954
  73 O :   -0.144170
  74 C :    0.024720
  75 C :   -0.035192
  76 C :   -0.144032
  77 C :   -0.007708
  78 S :    0.433502
  79 C :   -0.148624
  80 C :   -0.057709
  81 H :    0.040183
  82 H :    0.041349
  83 H :    0.030222
  84 H :    0.035535
  85 H :    0.053782
  86 H :    0.048547
  87 H :    0.036656
  88 H :    0.034502
  89 H :    0.028887
  90 H :    0.035793
  91 H :    0.038203
  92 H :    0.042274
  93 H :    0.039134
  94 H :    0.044316
  95 H :    0.042774
  96 H :    0.045799
  97 H :    0.040992
  98 H :    0.042699
  99 H :    0.029841
 100 H :    0.035574

  Mayer bond orders larger than 0.100000
B(  0-C ,  1-C ) :   1.6292 B(  0-C ,  6-C ) :   1.0009 B(  0-C , 17-C ) :   1.0696
B(  1-C ,  2-C ) :   1.1441 B(  1-C ,  4-C ) :   1.1435 B(  2-C ,  3-N ) :   2.9688
B(  4-C ,  5-N ) :   2.9579 B(  6-C ,  7-C ) :   1.2681 B(  6-C , 11-C ) :   1.4175
B(  7-C ,  8-C ) :   1.4184 B(  7-C , 15-C ) :   0.9699 B(  8-C ,  9-C ) :   1.2457
B(  8-C , 81-H ) :   1.0169 B(  9-C , 10-C ) :   1.3015 B(  9-C , 14-C ) :   1.1715
B( 10-C , 11-C ) :   1.3203 B( 10-C , 12-S ) :   1.1020 B( 11-C , 82-H ) :   0.9812
B( 12-S , 13-C ) :   1.1281 B( 13-C , 14-C ) :   1.6272 B( 13-C , 83-H ) :   0.9688
B( 14-C , 84-H ) :   0.9994 B( 15-C , 16-O ) :   2.1005 B( 15-C , 17-C ) :   0.9813
B( 17-C , 18-C ) :   1.5066 B( 18-C , 19-C ) :   1.2550 B( 18-C , 85-H ) :   0.9392
B( 19-C , 20-C ) :   1.3384 B( 19-C , 23-S ) :   1.0737 B( 20-C , 21-C ) :   1.3222
B( 20-C , 86-H ) :   1.0102 B( 21-C , 22-C ) :   1.3700 B( 21-C , 26-C ) :   0.9833
B( 22-C , 23-S ) :   1.1310 B( 22-C , 24-C ) :   1.1874 B( 24-C , 25-C ) :   1.4494
B( 24-C , 34-S ) :   1.1241 B( 25-C , 26-C ) :   1.0064 B( 25-C , 32-C ) :   1.2892
B( 26-C , 27-C ) :   1.7171 B( 27-C , 28-C ) :   1.1332 B( 27-C , 30-C ) :   1.1286
B( 28-C , 29-N ) :   2.9980 B( 30-C , 31-N ) :   3.0033 B( 32-C , 33-C ) :   1.4994
B( 32-C , 87-H ) :   0.9950 B( 33-C , 34-S ) :   1.1422 B( 33-C , 35-C ) :   0.9695
B( 35-C , 36-C ) :   1.0937 B( 35-C , 37-N ) :   0.9506 B( 35-C , 41-C ) :   0.9223
B( 36-C , 88-H ) :   0.9468 B( 36-C , 89-H ) :   0.9460 B( 36-C , 90-H ) :   0.9488
B( 37-N , 38-N ) :   1.8452 B( 38-N , 39-C ) :   0.9349 B( 39-C , 40-C ) :   0.9095
B( 39-C , 45-C ) :   1.1122 B( 39-C , 46-C ) :   0.9311 B( 40-C , 41-C ) :   1.2067
B( 40-C , 44-N ) :   1.7400 B( 41-C , 42-N ) :   1.7335 B( 42-N , 43-O ) :   1.0500
B( 42-N , 44-N ) :   0.1527 B( 43-O , 44-N ) :   1.0530 B( 45-C , 91-H ) :   0.9442
B( 45-C , 92-H ) :   0.9457 B( 45-C , 93-H ) :   0.9391 B( 46-C , 47-C ) :   1.5993
B( 46-C , 50-S ) :   1.1112 B( 47-C , 48-C ) :   1.2193 B( 47-C , 94-H ) :   0.9990
B( 48-C , 49-C ) :   1.4780 B( 48-C , 53-C ) :   1.0054 B( 49-C , 50-S ) :   1.1336
B( 49-C , 51-C ) :   1.1724 B( 51-C , 52-C ) :   1.4326 B( 51-C , 61-S ) :   1.1523
B( 52-C , 53-C ) :   0.9945 B( 52-C , 59-C ) :   1.3479 B( 53-C , 54-C ) :   1.7169
B( 54-C , 55-C ) :   1.1306 B( 54-C , 57-C ) :   1.1344 B( 55-C , 56-N ) :   2.9909
B( 57-C , 58-N ) :   2.9828 B( 59-C , 60-C ) :   1.4106 B( 59-C , 95-H ) :   0.9816
B( 60-C , 61-S ) :   1.0969 B( 60-C , 62-C ) :   1.1154 B( 62-C , 63-C ) :   1.6955
B( 62-C , 96-H ) :   0.9284 B( 63-C , 64-C ) :   1.0289 B( 63-C , 72-C ) :   0.9377
B( 64-C , 65-C ) :   1.6520 B( 64-C , 70-C ) :   1.0138 B( 65-C , 66-C ) :   1.1252
B( 65-C , 68-C ) :   1.1728 B( 66-C , 67-N ) :   2.9953 B( 68-C , 69-N ) :   2.9965
B( 70-C , 71-C ) :   1.2669 B( 70-C , 77-C ) :   1.4183 B( 71-C , 72-C ) :   0.9272
B( 71-C , 74-C ) :   1.4235 B( 72-C , 73-O ) :   2.2634 B( 74-C , 75-C ) :   1.2553
B( 74-C , 97-H ) :   1.0156 B( 75-C , 76-C ) :   1.3008 B( 75-C , 80-C ) :   1.1712
B( 76-C , 77-C ) :   1.3221 B( 76-C , 78-S ) :   1.0990 B( 77-C , 98-H ) :   0.9852
B( 78-S , 79-C ) :   1.1279 B( 79-C , 80-C ) :   1.6287 B( 79-C , 99-H ) :   0.9686
B( 80-C ,100-H ) :   0.9997

-----------------------------------------------------------------------------
         ABSORPTION SPECTRUM VIA TRANSITION ELECTRIC DIPOLE MOMENTS
-----------------------------------------------------------------------------
State   Energy  Wavelength   fosc         T2         TX        TY        TZ
        (cm-1)    (nm)                  (au**2)     (au)      (au)      (au)
-----------------------------------------------------------------------------
   0   15878.1    629.8   0.146987045   3.04758  -1.61215   0.66971  -0.00478
   1   16467.4    607.3   0.142488446   2.84860   1.34458  -0.65706  -0.78036
   2   22149.9    451.5   0.770151214  11.44667   3.22452  -0.91315  -0.46400
   3   23266.8    429.8   0.983293115  13.91305   2.72122  -1.42251  -2.11766
   4   24564.3    407.1   0.019522425   0.26164  -0.46813   0.12245   0.16582
   5   25210.5    396.7   0.001521347   0.01987  -0.01754  -0.13847   0.01963
   6   25763.0    388.2   0.042187177   0.53909  -0.34279   0.64925   0.00785
   7   26671.3    374.9   0.045128705   0.55704  -0.02065   0.08270  -0.74147
   8   27026.2    370.0   0.001489914   0.01815   0.05970  -0.01852   0.11934
   9   27571.2    362.7   0.000183489   0.00219  -0.02653  -0.01569  -0.03523
  10   28029.5    356.8   0.056492935   0.66352  -0.52363   0.34433   0.52035
  11   28139.1    355.4   0.256271266   2.99823  -0.70904   0.21864   1.56451
  12   28901.7    346.0   0.018212932   0.20746  -0.25493   0.26422   0.26955
  13   28966.1    345.2   0.010875243   0.12360  -0.24990  -0.19691  -0.14961
  14   29077.6    343.9   0.002046447   0.02317  -0.01227  -0.11523  -0.09870
  15   29239.3    342.0   0.045228106   0.50923  -0.34728   0.11385   0.61292
  16   29679.1    336.9   0.019896267   0.22070   0.32729  -0.12961   0.31109
  17   30630.0    326.5   0.297967335   3.20256   1.03367  -0.45677   1.38761
  18   30806.1    324.6   0.574581052   6.14031   1.78549  -1.70695  -0.19665
  19   30944.7    323.2   0.478922736   5.09512  -0.25749  -0.15714   2.23699
  20   31320.2    319.3   0.022799781   0.23965  -0.35976   0.29000  -0.16163
  21   31684.5    315.6   0.279154898   2.90051   1.02192  -0.42052  -1.29590
  22   32263.1    310.0   0.377394474   3.85092   1.48747  -1.08053  -0.68617
  23   32583.8    306.9   0.565376981   5.71231   0.62755  -0.61542   2.22256
  24   32795.6    304.9   0.173090638   1.73753   0.04207   0.12364  -1.31167
  25   33024.8    302.8   0.003182362   0.03172   0.13959  -0.11058   0.00330
  26   33160.2    301.6   0.039673996   0.39388  -0.33429   0.52886  -0.04939
  27   33165.1    301.5   0.077437761   0.76868  -0.48165   0.73209  -0.02726
  28   33543.4    298.1   0.007524816   0.07385  -0.08286   0.06569  -0.25034
  29   34167.9    292.7   0.201297368   1.93953  -0.81447   0.09019   1.12607
  30   34255.3    291.9   0.315667190   3.03373   1.03410  -1.25892  -0.61603
  31   34420.4    290.5   0.002348027   0.02246   0.11478  -0.01678   0.09488
  32   34574.0    289.2   0.392762937   3.73987   1.09098  -1.18037   1.07534
  33   34670.8    288.4   0.067084685   0.63699  -0.14537   0.29734   0.72626
  34   34957.0    286.1   0.398037475   3.74857   0.37369  -0.36847   1.86364
  35   35084.2    285.0   0.001875425   0.01760   0.04091  -0.02275  -0.12412
  36   35340.0    283.0   0.016301218   0.15186   0.09052  -0.17859   0.33432
  37   35616.6    280.8   0.013071959   0.12083   0.10883  -0.15239   0.29285
  38   35683.1    280.2   0.024715111   0.22802   0.32640  -0.16904   0.30481
  39   36280.0    275.6   0.001747009   0.01585   0.06372  -0.09946  -0.04360
  40   36553.6    273.6   0.073162613   0.65892  -0.54609   0.30429   0.51780
  41   36739.2    272.2   0.000853684   0.00765   0.02964   0.08043   0.01736
  42   36786.4    271.8   0.004067377   0.03640  -0.06786   0.05883   0.16833
  43   37242.0    268.5   0.005037755   0.04453   0.17380  -0.09054  -0.07829
  44   37296.9    268.1   0.265976386   2.34772   1.32401  -0.76969  -0.04792
  45   38259.6    261.4   0.067862094   0.58393  -0.09313   0.15105  -0.74327
  46   38296.5    261.1   0.253611378   2.18014  -1.29967   0.69858  -0.05465
  47   38435.6    260.2   0.009808793   0.08402   0.20959  -0.11658  -0.16278
  48   38976.7    256.6   0.055697117   0.47044  -0.55718   0.39955  -0.01859
  49   39215.7    255.0   0.058683490   0.49264   0.00799   0.33789  -0.61515
  50   39373.9    254.0   0.001164526   0.00974  -0.08637   0.03703   0.03010
  51   39414.8    253.7   0.007619509   0.06364  -0.12111   0.12320  -0.18384
  52   39744.0    251.6   0.000825222   0.00684  -0.03175  -0.04526   0.06147
  53   39934.3    250.4   0.028048007   0.23122   0.46521  -0.08902   0.08296
  54   40265.4    248.4   0.003821424   0.03124   0.00046   0.12363  -0.12633
  55   40306.3    248.1   0.147691211   1.20630  -0.49362  -0.52702   0.82758

FINAL SINGLE POINT ENERGY     -5565.190172087483

DIPOLE MOMENT
-------------
                                X             Y             Z
Electronic contribution:      5.26773      -8.94243       4.36441
Nuclear contribution   :     -6.60082      12.10556      -9.20471
                        -----------------------------------------
Total Dipole Moment    :     -1.33309       3.16313      -4.84030
                        -----------------------------------------
Magnitude (a.u.)       :      5.93388
Magnitude (Debye)      :     15.08273

Rotational constants in cm-1:     0.002080     0.000156     0.000147
Rotational constants in MHz :    62.358368     4.662024     4.400006

                             ****ORCA TERMINATED NORMALLY****
TOTAL RUN TIME: 0 days 0 hours 11 minutes 26 seconds 336 msec
