                         Program Version 4.2.0 -  RELEASE  -
|  1> # ORCA input file
|  2> # SCF done       -192.896882403823          0.000980901515
|  3> ! CAM-B3LYP def2-SVP def2/J RIJCOSX Grid4 TightSCF
|  4> %maxcore 5000
|  5> %tddft
|  6>     Mode sTDDFT
|  7>     Ethresh 5.0
|  8>     maxcore 5000
|  9> end
| 10>
| 11> %pal
| 12>   nprocs 6
| 13>   end
| 14> * xyz 0 1
| 15>    C       -3.22593         0.22948         2.93301
| 16>    C       -2.58530        -0.96074         2.71613
| 17>    C       -1.84991        -1.64660         3.70640
| 18>    N       -1.24904        -2.24797         4.47719
| 19>    C       -2.49044        -1.61364         1.46667
| 20>    N       -2.31627        -2.16995         0.47842
| 21>    C       -3.16708         1.02222         4.15148
| 22>    C       -3.72698         2.29746         3.88460
| 23>    C       -3.78944         3.29019         4.83439
| 24>    C       -3.28599         3.00847         6.10708
| 25>    C       -2.73917         1.72726         6.36720
| 26>    C       -2.66891         0.72587         5.40573
| 27>    S       -2.18614         1.60104         8.00555
| 28>    C       -2.67656         3.22900         8.32253
| 29>    C       -3.23144         3.84605         7.25639
| 30>    C       -4.19449         2.35842         2.49087
| 31>    O       -4.65749         3.33779         1.94254
| 32>    C       -3.98597         0.98411         1.94611
| 33>    C       -4.53020         0.42575         0.82426
| 34>    C       -5.26418         1.08049        -0.18694
| 35>    O       -5.34881         2.41142        -0.24356
| 36>    C       -6.08776         2.76535        -1.31248
| 37>    C       -6.49118         1.63520        -1.99934
| 38>    C       -5.97221         0.53610        -1.28177
| 39>    C       -6.14554        -0.87568        -1.53886
| 40>    O       -5.79531        -1.78347        -0.82826
| 41>    C       -6.88728        -1.18613        -2.87330
| 42>    F       -6.27504        -0.62179        -3.92758
| 43>    F       -6.96846        -2.48983        -3.10885
| 44>    F       -8.14304        -0.70240        -2.85697
| 45>    C       -6.32288         4.15808        -1.47807
| 46>    N       -5.90452         5.02419        -0.49528
| 47>    C       -6.26016         6.27845        -0.86600
| 48>    C       -6.24025         7.61140        -0.48161
| 49>    C       -6.87094         8.32311        -1.51795
| 50>    N       -7.26239         7.44489        -2.50970
| 51>    C       -6.90929         6.19256        -2.13387
| 52>    C       -6.95073         4.85450        -2.51475
| 53>    C       -7.10313         9.71033        -1.55325
| 54>    C       -7.73850        10.39457        -2.54906
| 55>    C       -8.01020        11.77278        -2.46744
| 56>    O       -7.62882        12.49251        -1.40589
| 57>    C       -8.10316        13.76433        -1.55117
| 58>    C       -8.76934        13.87640        -2.75371
| 59>    C       -8.72739        12.60194        -3.36219
| 60>    C       -9.28042        12.17270        -4.61467
| 61>    O       -9.21711        11.06076        -5.09221
| 62>    C      -10.01264        13.29486        -5.40319
| 63>    F       -9.18664        14.32021        -5.68375
| 64>    F      -10.50039        12.85561        -6.55969
| 65>    F      -11.03876        13.81244        -4.70717
| 66>    C       -7.85218        14.75436        -0.56992
| 67>    C       -7.26263        14.61415         0.64720
| 68>    C       -6.85511        13.44412         1.39840
| 69>    C       -7.49384        12.23171         1.42498
| 70>    C       -7.00660        11.09466         2.09588
| 71>    N       -6.62128        10.11459         2.55472
| 72>    C       -8.75124        12.00417         0.82510
| 73>    N       -9.80649        11.79657         0.42473
| 74>    C       -5.79740        13.86344         2.30909
| 75>    C       -5.73518        15.28204         2.30915
| 76>    C       -6.69876        15.81572         1.32830
| 77>    O       -6.94865        16.97178         1.08021
| 78>    C       -4.87802        15.97931         3.12622
| 79>    C       -4.04031        15.24694         3.97312
| 80>    C       -4.10239        13.83229         3.95596
| 81>    C       -4.97386        13.12490         3.13639
| 82>    S       -2.97621        13.14058         5.08037
| 83>    C       -2.44741        14.71645         5.55880
| 84>    C       -3.07709        15.71923         4.90893
| 85>    H       -4.21455         4.25422         4.60152
| 86>    H       -2.24705        -0.23453         5.65089
| 87>    H       -2.51727         3.62972         9.30478
| 88>    H       -3.59466         4.85762         7.26741
| 89>    H       -4.43363        -0.64121         0.67177
| 90>    H       -7.09202         1.61583        -2.88395
| 91>    H       -5.45079         4.72259         0.35636
| 92>    H       -5.85067         8.04470         0.41747
| 93>    H       -7.74998         7.70726        -3.34883
| 94>    H       -7.36204         4.42184        -3.40305
| 95>    H       -6.75096        10.25799        -0.69032
| 96>    H       -8.10419         9.90779        -3.43888
| 97>    H       -9.23535        14.76462        -3.12804
| 98>    H       -8.08761        15.76885        -0.86900
| 99>    H       -4.85820        17.05793         3.11498
|100>    H       -4.98679        12.04734         3.15430
|101>    H       -1.68469        14.79450         6.30900
|102>    H       -2.87863        16.76244         5.07526
|103> *
|104>
|105>                          ****END OF INPUT****

CARTESIAN COORDINATES (ANGSTROEM)
---------------------------------
  C     -3.225930    0.229480    2.933010
  C     -2.585300   -0.960740    2.716130
  C     -1.849910   -1.646600    3.706400
  N     -1.249040   -2.247970    4.477190
  C     -2.490440   -1.613640    1.466670
  N     -2.316270   -2.169950    0.478420
  C     -3.167080    1.022220    4.151480
  C     -3.726980    2.297460    3.884600
  C     -3.789440    3.290190    4.834390
  C     -3.285990    3.008470    6.107080
  C     -2.739170    1.727260    6.367200
  C     -2.668910    0.725870    5.405730
  S     -2.186140    1.601040    8.005550
  C     -2.676560    3.229000    8.322530
  C     -3.231440    3.846050    7.256390
  C     -4.194490    2.358420    2.490870
  O     -4.657490    3.337790    1.942540
  C     -3.985970    0.984110    1.946110
  C     -4.530200    0.425750    0.824260
  C     -5.264180    1.080490   -0.186940
  O     -5.348810    2.411420   -0.243560
  C     -6.087760    2.765350   -1.312480
  C     -6.491180    1.635200   -1.999340
  C     -5.972210    0.536100   -1.281770
  C     -6.145540   -0.875680   -1.538860
  O     -5.795310   -1.783470   -0.828260
  C     -6.887280   -1.186130   -2.873300
  F     -6.275040   -0.621790   -3.927580
  F     -6.968460   -2.489830   -3.108850
  F     -8.143040   -0.702400   -2.856970
  C     -6.322880    4.158080   -1.478070
  N     -5.904520    5.024190   -0.495280
  C     -6.260160    6.278450   -0.866000
  C     -6.240250    7.611400   -0.481610
  C     -6.870940    8.323110   -1.517950
  N     -7.262390    7.444890   -2.509700
  C     -6.909290    6.192560   -2.133870
  C     -6.950730    4.854500   -2.514750
  C     -7.103130    9.710330   -1.553250
  C     -7.738500   10.394570   -2.549060
  C     -8.010200   11.772780   -2.467440
  O     -7.628820   12.492510   -1.405890
  C     -8.103160   13.764330   -1.551170
  C     -8.769340   13.876400   -2.753710
  C     -8.727390   12.601940   -3.362190
  C     -9.280420   12.172700   -4.614670
  O     -9.217110   11.060760   -5.092210
  C    -10.012640   13.294860   -5.403190
  F     -9.186640   14.320210   -5.683750
  F    -10.500390   12.855610   -6.559690
  F    -11.038760   13.812440   -4.707170
  C     -7.852180   14.754360   -0.569920
  C     -7.262630   14.614150    0.647200
  C     -6.855110   13.444120    1.398400
  C     -7.493840   12.231710    1.424980
  C     -7.006600   11.094660    2.095880
  N     -6.621280   10.114590    2.554720
  C     -8.751240   12.004170    0.825100
  N     -9.806490   11.796570    0.424730
  C     -5.797400   13.863440    2.309090
  C     -5.735180   15.282040    2.309150
  C     -6.698760   15.815720    1.328300
  O     -6.948650   16.971780    1.080210
  C     -4.878020   15.979310    3.126220
  C     -4.040310   15.246940    3.973120
  C     -4.102390   13.832290    3.955960
  C     -4.973860   13.124900    3.136390
  S     -2.976210   13.140580    5.080370
  C     -2.447410   14.716450    5.558800
  C     -3.077090   15.719230    4.908930
  H     -4.214550    4.254220    4.601520
  H     -2.247050   -0.234530    5.650890
  H     -2.517270    3.629720    9.304780
  H     -3.594660    4.857620    7.267410
  H     -4.433630   -0.641210    0.671770
  H     -7.092020    1.615830   -2.883950
  H     -5.450790    4.722590    0.356360
  H     -5.850670    8.044700    0.417470
  H     -7.749980    7.707260   -3.348830
  H     -7.362040    4.421840   -3.403050
  H     -6.750960   10.257990   -0.690320
  H     -8.104190    9.907790   -3.438880
  H     -9.235350   14.764620   -3.128040
  H     -8.087610   15.768850   -0.869000
  H     -4.858200   17.057930    3.114980
  H     -4.986790   12.047340    3.154300
  H     -1.684690   14.794500    6.309000
  H     -2.878630   16.762440    5.075260

 Total Charge           Charge          ....    0
 Multiplicity           Mult            ....    1
 Number of Electrons    NEL             ....  494
 Basis Dimension        Dim             .... 1078

ORBITAL ENERGIES
----------------

  NO   OCC          E(Eh)            E(eV)
   0   2.0000     -88.971896     -2421.0484
   1   2.0000     -88.970217     -2421.0027
   2   2.0000     -24.815461      -675.2630
   3   2.0000     -24.815157      -675.2547
   4   2.0000     -24.810406      -675.1255
   5   2.0000     -24.807749      -675.0532
   6   2.0000     -24.807606      -675.0493
   7   2.0000     -24.802852      -674.9199
   8   2.0000     -19.322190      -525.7835
   9   2.0000     -19.313762      -525.5542
  10   2.0000     -19.252428      -523.8852
  11   2.0000     -19.234479      -523.3968
  12   2.0000     -19.227546      -523.2081
  13   2.0000     -19.215264      -522.8739
  14   2.0000     -14.471042      -393.7771
  15   2.0000     -14.469223      -393.7276
  16   2.0000     -14.423793      -392.4914
  17   2.0000     -14.419178      -392.3658
  18   2.0000     -14.416656      -392.2972
  19   2.0000     -14.410969      -392.1424
  20   2.0000     -10.526259      -286.4341
  21   2.0000     -10.517458      -286.1946
  22   2.0000     -10.403157      -283.0843
  23   2.0000     -10.388407      -282.6829
  24   2.0000     -10.381205      -282.4870
  25   2.0000     -10.373188      -282.2688
  26   2.0000     -10.371203      -282.2148
  27   2.0000     -10.370313      -282.1906
  28   2.0000     -10.366494      -282.0866
  29   2.0000     -10.352656      -281.7101
  30   2.0000     -10.348454      -281.5957
  31   2.0000     -10.345538      -281.5164
  32   2.0000     -10.343171      -281.4520
  33   2.0000     -10.342576      -281.4358
  34   2.0000     -10.332004      -281.1481
  35   2.0000     -10.327302      -281.0202
  36   2.0000     -10.326914      -281.0096
  37   2.0000     -10.326372      -280.9949
  38   2.0000     -10.323968      -280.9295
  39   2.0000     -10.323468      -280.9159
  40   2.0000     -10.321413      -280.8599
  41   2.0000     -10.319893      -280.8186
  42   2.0000     -10.319429      -280.8059
  43   2.0000     -10.319232      -280.8006
  44   2.0000     -10.318561      -280.7823
  45   2.0000     -10.317201      -280.7453
  46   2.0000     -10.314911      -280.6830
  47   2.0000     -10.314595      -280.6744
  48   2.0000     -10.313955      -280.6570
  49   2.0000     -10.312525      -280.6181
  50   2.0000     -10.310228      -280.5556
  51   2.0000     -10.309675      -280.5405
  52   2.0000     -10.309422      -280.5336
  53   2.0000     -10.309015      -280.5226
  54   2.0000     -10.308570      -280.5105
  55   2.0000     -10.307588      -280.4837
  56   2.0000     -10.307440      -280.4797
  57   2.0000     -10.306390      -280.4511
  58   2.0000     -10.305473      -280.4262
  59   2.0000     -10.304298      -280.3942
  60   2.0000     -10.301530      -280.3189
  61   2.0000     -10.298573      -280.2384
  62   2.0000     -10.298287      -280.2306
  63   2.0000     -10.297183      -280.2006
  64   2.0000     -10.294015      -280.1144
  65   2.0000     -10.293264      -280.0940
  66   2.0000     -10.292147      -280.0636
  67   2.0000     -10.288645      -279.9683
  68   2.0000     -10.286576      -279.9120
  69   2.0000     -10.283497      -279.8282
  70   2.0000      -8.068135      -219.5451
  71   2.0000      -8.066454      -219.4994
  72   2.0000      -6.037641      -164.2926
  73   2.0000      -6.035954      -164.2467
  74   2.0000      -6.033321      -164.1750
  75   2.0000      -6.031683      -164.1304
  76   2.0000      -6.029833      -164.0801
  77   2.0000      -6.028152      -164.0344
  78   2.0000      -1.403627       -38.1946
  79   2.0000      -1.395650       -37.9776
  80   2.0000      -1.306310       -35.5465
  81   2.0000      -1.305843       -35.5338
  82   2.0000      -1.298375       -35.3306
  83   2.0000      -1.297942       -35.3188
  84   2.0000      -1.251322       -34.0502
  85   2.0000      -1.236783       -33.6546
  86   2.0000      -1.168238       -31.7894
  87   2.0000      -1.149472       -31.2787
  88   2.0000      -1.141619       -31.0650
  89   2.0000      -1.130931       -30.7742
  90   2.0000      -1.105855       -30.0918
  91   2.0000      -1.069133       -29.0926
  92   2.0000      -1.025213       -27.8975
  93   2.0000      -1.022706       -27.8292
  94   2.0000      -1.012448       -27.5501
  95   2.0000      -1.011466       -27.5234
  96   2.0000      -0.996451       -27.1148
  97   2.0000      -0.996075       -27.1046
  98   2.0000      -0.991057       -26.9680
  99   2.0000      -0.986608       -26.8470
 100   2.0000      -0.947115       -25.7723
 101   2.0000      -0.941513       -25.6199
 102   2.0000      -0.940927       -25.6039
 103   2.0000      -0.935849       -25.4658
 104   2.0000      -0.927805       -25.2468
 105   2.0000      -0.926097       -25.2004
 106   2.0000      -0.907447       -24.6929
 107   2.0000      -0.900373       -24.5004
 108   2.0000      -0.890886       -24.2422
 109   2.0000      -0.886785       -24.1306
 110   2.0000      -0.884124       -24.0582
 111   2.0000      -0.881172       -23.9779
 112   2.0000      -0.876003       -23.8373
 113   2.0000      -0.861000       -23.4290
 114   2.0000      -0.842057       -22.9135
 115   2.0000      -0.838274       -22.8106
 116   2.0000      -0.832184       -22.6449
 117   2.0000      -0.828602       -22.5474
 118   2.0000      -0.825743       -22.4696
 119   2.0000      -0.809264       -22.0212
 120   2.0000      -0.792780       -21.5726
 121   2.0000      -0.776608       -21.1326
 122   2.0000      -0.768050       -20.8997
 123   2.0000      -0.763547       -20.7772
 124   2.0000      -0.759120       -20.6567
 125   2.0000      -0.754855       -20.5406
 126   2.0000      -0.742986       -20.2177
 127   2.0000      -0.731447       -19.9037
 128   2.0000      -0.724274       -19.7085
 129   2.0000      -0.717893       -19.5348
 130   2.0000      -0.708936       -19.2911
 131   2.0000      -0.705422       -19.1955
 132   2.0000      -0.700622       -19.0649
 133   2.0000      -0.694515       -18.8987
 134   2.0000      -0.693352       -18.8671
 135   2.0000      -0.689982       -18.7754
 136   2.0000      -0.686816       -18.6892
 137   2.0000      -0.686626       -18.6841
 138   2.0000      -0.684195       -18.6179
 139   2.0000      -0.682574       -18.5738
 140   2.0000      -0.678854       -18.4725
 141   2.0000      -0.670625       -18.2486
 142   2.0000      -0.666075       -18.1248
 143   2.0000      -0.664382       -18.0787
 144   2.0000      -0.663555       -18.0562
 145   2.0000      -0.656943       -17.8763
 146   2.0000      -0.655202       -17.8289
 147   2.0000      -0.639786       -17.4095
 148   2.0000      -0.631037       -17.1714
 149   2.0000      -0.626296       -17.0424
 150   2.0000      -0.622873       -16.9492
 151   2.0000      -0.610410       -16.6101
 152   2.0000      -0.603847       -16.4315
 153   2.0000      -0.601113       -16.3571
 154   2.0000      -0.598624       -16.2894
 155   2.0000      -0.593637       -16.1537
 156   2.0000      -0.589694       -16.0464
 157   2.0000      -0.586575       -15.9615
 158   2.0000      -0.585619       -15.9355
 159   2.0000      -0.578137       -15.7319
 160   2.0000      -0.575016       -15.6470
 161   2.0000      -0.568197       -15.4614
 162   2.0000      -0.566995       -15.4287
 163   2.0000      -0.561926       -15.2908
 164   2.0000      -0.559602       -15.2275
 165   2.0000      -0.558510       -15.1978
 166   2.0000      -0.554262       -15.0822
 167   2.0000      -0.552560       -15.0359
 168   2.0000      -0.550637       -14.9836
 169   2.0000      -0.548594       -14.9280
 170   2.0000      -0.547026       -14.8853
 171   2.0000      -0.545172       -14.8349
 172   2.0000      -0.544043       -14.8042
 173   2.0000      -0.542548       -14.7635
 174   2.0000      -0.538284       -14.6475
 175   2.0000      -0.535605       -14.5746
 176   2.0000      -0.534364       -14.5408
 177   2.0000      -0.531786       -14.4706
 178   2.0000      -0.531369       -14.4593
 179   2.0000      -0.529436       -14.4067
 180   2.0000      -0.527646       -14.3580
 181   2.0000      -0.525178       -14.2908
 182   2.0000      -0.522818       -14.2266
 183   2.0000      -0.522390       -14.2150
 184   2.0000      -0.517733       -14.0882
 185   2.0000      -0.516502       -14.0547
 186   2.0000      -0.512479       -13.9453
 187   2.0000      -0.509075       -13.8526
 188   2.0000      -0.507975       -13.8227
 189   2.0000      -0.505087       -13.7441
 190   2.0000      -0.504812       -13.7366
 191   2.0000      -0.502934       -13.6855
 192   2.0000      -0.502310       -13.6686
 193   2.0000      -0.499012       -13.5788
 194   2.0000      -0.498272       -13.5587
 195   2.0000      -0.498193       -13.5565
 196   2.0000      -0.496664       -13.5149
 197   2.0000      -0.495841       -13.4925
 198   2.0000      -0.492674       -13.4064
 199   2.0000      -0.491355       -13.3704
 200   2.0000      -0.490091       -13.3361
 201   2.0000      -0.487711       -13.2713
 202   2.0000      -0.485687       -13.2162
 203   2.0000      -0.478205       -13.0126
 204   2.0000      -0.475075       -12.9275
 205   2.0000      -0.472854       -12.8670
 206   2.0000      -0.472055       -12.8453
 207   2.0000      -0.465150       -12.6574
 208   2.0000      -0.458718       -12.4823
 209   2.0000      -0.458231       -12.4691
 210   2.0000      -0.456355       -12.4181
 211   2.0000      -0.453837       -12.3495
 212   2.0000      -0.450824       -12.2675
 213   2.0000      -0.444823       -12.1042
 214   2.0000      -0.443996       -12.0817
 215   2.0000      -0.441245       -12.0069
 216   2.0000      -0.437365       -11.9013
 217   2.0000      -0.436525       -11.8784
 218   2.0000      -0.434970       -11.8361
 219   2.0000      -0.433112       -11.7856
 220   2.0000      -0.430618       -11.7177
 221   2.0000      -0.426106       -11.5949
 222   2.0000      -0.424416       -11.5489
 223   2.0000      -0.423768       -11.5313
 224   2.0000      -0.421748       -11.4763
 225   2.0000      -0.411226       -11.1900
 226   2.0000      -0.410763       -11.1774
 227   2.0000      -0.401395       -10.9225
 228   2.0000      -0.395799       -10.7702
 229   2.0000      -0.390001       -10.6125
 230   2.0000      -0.388514       -10.5720
 231   2.0000      -0.379628       -10.3302
 232   2.0000      -0.377414       -10.2700
 233   2.0000      -0.371953       -10.1214
 234   2.0000      -0.366090        -9.9618
 235   2.0000      -0.358627        -9.7587
 236   2.0000      -0.351394        -9.5619
 237   2.0000      -0.345536        -9.4025
 238   2.0000      -0.337221        -9.1762
 239   2.0000      -0.320634        -8.7249
 240   2.0000      -0.318130        -8.6568
 241   2.0000      -0.315013        -8.5720
 242   2.0000      -0.303429        -8.2567
 243   2.0000      -0.299925        -8.1614
 244   2.0000      -0.297333        -8.0908
 245   2.0000      -0.285667        -7.7734
 246   2.0000      -0.239800        -6.5253
 247   0.0000      -0.110736        -3.0133
 248   0.0000      -0.094394        -2.5686
 249   0.0000      -0.069770        -1.8985
 250   0.0000      -0.066459        -1.8084
 251   0.0000      -0.055443        -1.5087

MULLIKEN ATOMIC CHARGES
-----------------------
   0 C :    0.275568
   1 C :   -0.327720
   2 C :   -0.183821
   3 N :    0.154575
   4 C :   -0.203294
   5 N :    0.171573
   6 C :    0.023185
   7 C :   -0.015082
   8 C :   -0.066833
   9 C :    0.111816
  10 C :   -0.093775
  11 C :   -0.020248
  12 S :    0.145831
  13 C :   -0.048662
  14 C :    0.027337
  15 C :    0.156691
  16 O :   -0.161465
  17 C :   -0.060850
  18 C :   -0.056907
  19 C :    0.101410
  20 O :   -0.161858
  21 C :    0.196166
  22 C :   -0.040924
  23 C :   -0.004027
  24 C :    0.021839
  25 O :   -0.117416
  26 C :    0.482021
  27 F :   -0.164648
  28 F :   -0.128282
  29 F :   -0.169858
  30 C :    0.062484
  31 N :   -0.026427
  32 C :    0.126582
  33 C :   -0.139519
  34 C :    0.071405
  35 N :   -0.027037
  36 C :    0.115049
  37 C :   -0.148577
  38 C :    0.078721
  39 C :   -0.069500
  40 C :    0.155230
  41 O :   -0.213408
  42 C :    0.166997
  43 C :    0.019207
  44 C :   -0.036375
  45 C :    0.023484
  46 O :   -0.160135
  47 C :    0.472633
  48 F :   -0.171495
  49 F :   -0.134309
  50 F :   -0.166114
  51 C :    0.023713
  52 C :   -0.114322
  53 C :    0.264940
  54 C :   -0.331213
  55 C :   -0.166096
  56 N :    0.130671
  57 C :   -0.212020
  58 N :    0.168964
  59 C :    0.018362
  60 C :   -0.006335
  61 C :    0.133474
  62 O :   -0.142670
  63 C :   -0.066195
  64 C :    0.107559
  65 C :   -0.091479
  66 C :   -0.031581
  67 S :    0.133245
  68 C :   -0.052451
  69 C :    0.030281
  70 H :   -0.012800
  71 H :   -0.003279
  72 H :    0.040143
  73 H :   -0.005218
  74 H :    0.047498
  75 H :    0.007895
  76 H :    0.141871
  77 H :   -0.013010
  78 H :    0.135456
  79 H :   -0.027641
  80 H :    0.002290
  81 H :   -0.005767
  82 H :    0.013503
  83 H :    0.023479
  84 H :   -0.008534
  85 H :   -0.007988
  86 H :    0.039630
  87 H :   -0.005614
Sum of atomic charges:   -0.0000000

LOEWDIN ATOMIC CHARGES
----------------------
   0 C :    0.070416
   1 C :   -0.129970
   2 C :   -0.017616
   3 N :   -0.047545
   4 C :   -0.028746
   5 N :   -0.037243
   6 C :   -0.020874
   7 C :   -0.055432
   8 C :    0.024601
   9 C :   -0.034690
  10 C :   -0.143860
  11 C :   -0.008310
  12 S :    0.433949
  13 C :   -0.147716
  14 C :   -0.056973
  15 C :    0.089046
  16 O :   -0.154231
  17 C :   -0.072801
  18 C :    0.039824
  19 C :    0.048437
  20 O :    0.057299
  21 C :    0.055824
  22 C :   -0.041484
  23 C :   -0.083693
  24 C :    0.041268
  25 O :   -0.085299
  26 C :    0.142594
  27 F :   -0.058357
  28 F :   -0.029403
  29 F :   -0.061530
  30 C :   -0.007687
  31 N :    0.086851
  32 C :   -0.014983
  33 C :   -0.049690
  34 C :   -0.006950
  35 N :    0.073797
  36 C :   -0.000472
  37 C :   -0.082978
  38 C :    0.035637
  39 C :   -0.084436
  40 C :    0.117823
  41 O :    0.030795
  42 C :    0.010981
  43 C :    0.014735
  44 C :   -0.132117
  45 C :    0.035269
  46 O :   -0.126930
  47 C :    0.142841
  48 F :   -0.064371
  49 F :   -0.035496
  50 F :   -0.059733
  51 C :    0.051406
  52 C :   -0.094238
  53 C :    0.073002
  54 C :   -0.145666
  55 C :   -0.016499
  56 N :   -0.068521
  57 C :   -0.028912
  58 N :   -0.056559
  59 C :   -0.017902
  60 C :   -0.054529
  61 C :    0.082579
  62 O :   -0.143713
  63 C :    0.024082
  64 C :   -0.036271
  65 C :   -0.145022
  66 C :   -0.015807
  67 S :    0.424551
  68 C :   -0.150771
  69 C :   -0.056364
  70 H :    0.039822
  71 H :    0.041481
  72 H :    0.030135
  73 H :    0.036098
  74 H :    0.054817
  75 H :    0.036393
  76 H :    0.091378
  77 H :    0.035186
  78 H :    0.095171
  79 H :    0.029407
  80 H :    0.042764
  81 H :    0.031213
  82 H :    0.040020
  83 H :    0.055578
  84 H :    0.041319
  85 H :    0.038871
  86 H :    0.029384
  87 H :    0.035742

  Mayer bond orders larger than 0.100000
B(  0-C ,  1-C ) :   1.6557 B(  0-C ,  6-C ) :   1.0093 B(  0-C , 17-C ) :   1.0500
B(  1-C ,  2-C ) :   1.1378 B(  1-C ,  4-C ) :   1.1328 B(  2-C ,  3-N ) :   2.9783
B(  4-C ,  5-N ) :   3.0061 B(  6-C ,  7-C ) :   1.2663 B(  6-C , 11-C ) :   1.4136
B(  7-C ,  8-C ) :   1.4187 B(  7-C , 15-C ) :   0.9619 B(  8-C ,  9-C ) :   1.2532
B(  8-C , 70-H ) :   1.0157 B(  9-C , 10-C ) :   1.2972 B(  9-C , 14-C ) :   1.1726
B( 10-C , 11-C ) :   1.3226 B( 10-C , 12-S ) :   1.1021 B( 11-C , 71-H ) :   0.9827
B( 12-S , 13-C ) :   1.1274 B( 13-C , 14-C ) :   1.6286 B( 13-C , 72-H ) :   0.9683
B( 14-C , 73-H ) :   0.9993 B( 15-C , 16-O ) :   2.1677 B( 15-C , 17-C ) :   0.9297
B( 17-C , 18-C ) :   1.5562 B( 18-C , 19-C ) :   1.2332 B( 18-C , 74-H ) :   0.9208
B( 19-C , 20-O ) :   1.1811 B( 19-C , 21-C ) :   0.1023 B( 19-C , 23-C ) :   1.3343
B( 20-O , 21-C ) :   1.1771 B( 21-C , 22-C ) :   1.4341 B( 21-C , 30-C ) :   1.0117
B( 22-C , 23-C ) :   1.2709 B( 22-C , 75-H ) :   0.9880 B( 23-C , 24-C ) :   0.9411
B( 24-C , 25-O ) :   2.1892 B( 24-C , 26-C ) :   0.8847 B( 26-C , 27-F ) :   1.1363
B( 26-C , 28-F ) :   1.1967 B( 26-C , 29-F ) :   1.1197 B( 30-C , 31-N ) :   1.2416
B( 30-C , 37-C ) :   1.4119 B( 31-N , 32-C ) :   1.1725 B( 31-N , 76-H ) :   0.9071
B( 32-C , 33-C ) :   1.2677 B( 32-C , 36-C ) :   1.2768 B( 33-C , 34-C ) :   1.3205
B( 33-C , 77-H ) :   1.0401 B( 34-C , 35-N ) :   1.1836 B( 34-C , 38-C ) :   1.1983
B( 35-N , 36-C ) :   1.1871 B( 35-N , 78-H ) :   0.9274 B( 36-C , 37-C ) :   1.2795
B( 37-C , 79-H ) :   1.0237 B( 38-C , 39-C ) :   1.4861 B( 38-C , 80-H ) :   0.9656
B( 39-C , 40-C ) :   1.2870 B( 39-C , 81-H ) :   0.9382 B( 40-C , 41-O ) :   1.1921
B( 40-C , 44-C ) :   1.2928 B( 41-O , 42-C ) :   1.0624 B( 42-C , 43-C ) :   1.4230
B( 42-C , 51-C ) :   1.1478 B( 43-C , 44-C ) :   1.2334 B( 43-C , 82-H ) :   0.9941
B( 44-C , 45-C ) :   0.9849 B( 45-C , 46-O ) :   2.1440 B( 45-C , 47-C ) :   0.8902
B( 47-C , 48-F ) :   1.1271 B( 47-C , 49-F ) :   1.1919 B( 47-C , 50-F ) :   1.1329
B( 51-C , 52-C ) :   1.6033 B( 51-C , 83-H ) :   0.9461 B( 52-C , 53-C ) :   1.0407
B( 52-C , 61-C ) :   0.9387 B( 53-C , 54-C ) :   1.6437 B( 53-C , 59-C ) :   1.0293
B( 54-C , 55-C ) :   1.1346 B( 54-C , 57-C ) :   1.1606 B( 55-C , 56-N ) :   2.9390
B( 57-C , 58-N ) :   3.0092 B( 59-C , 60-C ) :   1.2678 B( 59-C , 66-C ) :   1.4174
B( 60-C , 61-C ) :   0.9235 B( 60-C , 63-C ) :   1.4329 B( 61-C , 62-O ) :   2.2694
B( 63-C , 64-C ) :   1.2535 B( 63-C , 84-H ) :   1.0144 B( 64-C , 65-C ) :   1.3052
B( 64-C , 69-C ) :   1.1729 B( 65-C , 66-C ) :   1.3224 B( 65-C , 67-S ) :   1.0950
B( 66-C , 85-H ) :   0.9841 B( 67-S , 68-C ) :   1.1245 B( 68-C , 69-C ) :   1.6291
B( 68-C , 86-H ) :   0.9688 B( 69-C , 87-H ) :   0.9996

-----------------------------------------------------------------------------
         ABSORPTION SPECTRUM VIA TRANSITION ELECTRIC DIPOLE MOMENTS
-----------------------------------------------------------------------------
State   Energy  Wavelength   fosc         T2         TX        TY        TZ
        (cm-1)    (nm)                  (au**2)     (au)      (au)      (au)
-----------------------------------------------------------------------------
   0   13538.9    738.6   0.893585708  21.72845   1.43455  -4.30254   1.07641
   1   16860.5    593.1   0.378022732   7.38113  -0.96727  -0.60757  -2.46503
   2   22544.7    443.6   0.576362483   8.41641  -0.70483   2.70870  -0.76327
   3   23429.9    426.8   0.015841692   0.22259  -0.12065   0.45611   0.00076
   4   24422.5    409.5   0.190299020   2.56520   0.82474  -0.85001   1.07818
   5   25441.7    393.1   0.226021708   2.92469   0.10160  -0.53773   1.62025
   6   25922.0    385.8   0.034384922   0.43669  -0.15753  -0.10991  -0.63229
   7   26186.7    381.9   0.033824639   0.42523   0.11343  -0.54149   0.34518
   8   26655.0    375.2   0.116025043   1.43301   0.50929   0.86500   0.65224
   9   27214.2    367.5   0.384656300   4.65321  -1.22631  -1.01190  -1.45788
  10   27530.2    363.2   0.120925767   1.44606  -0.70855   0.42882  -0.87185
  11   28118.4    355.6   0.033224430   0.38899   0.03144  -0.50607  -0.36318
  12   28990.9    344.9   0.037295557   0.42352  -0.17009  -0.56521  -0.27408
  13   30188.9    331.2   0.021204895   0.23124   0.20418   0.22467   0.37292
  14   30463.5    328.3   0.026752728   0.28911   0.29094   0.37449   0.25342
  15   30846.4    324.2   0.059475124   0.63476   0.21345  -0.61549   0.45866
  16   31300.4    319.5   0.010504447   0.11048   0.07270  -0.11103  -0.30475
  17   31989.7    312.6   0.003757417   0.03867   0.05565   0.09067   0.16538
  18   32341.5    309.2   0.415607568   4.23057   0.41340  -1.21488  -1.60740
  19   32545.3    307.3   0.286410079   2.89718   0.81325   1.16030   0.94314
  20   32773.3    305.1   0.186055874   1.86896  -0.32572  -0.60121  -1.18381
  21   33103.3    302.1   0.073694776   0.73289   0.55144   0.33483   0.56276
  22   33458.2    298.9   0.026953216   0.26521  -0.41696  -0.27301  -0.12968
  23   33982.9    294.3   0.249151848   2.41368   0.67716   1.15075   0.79430
  24   34108.6    293.2   0.226230318   2.18354  -0.94431  -0.76520  -0.84042
  25   34568.3    289.3   0.080616411   0.76775   0.56603   0.09882   0.66152
  26   34724.1    288.0   0.269209186   2.55232  -0.76843   1.38391  -0.21595
  27   35464.4    282.0   0.078508192   0.72878  -0.09528  -0.72903  -0.43384
  28   35654.2    280.5   0.158325816   1.46190   0.53606   0.32985   1.03234
  29   36302.9    275.5   0.354568519   3.21539   0.92225   0.92175   1.23095
  30   36595.3    273.3   0.111663482   1.00453  -0.39662   0.05709  -0.91867
  31   37201.6    268.8   0.082419757   0.72937  -0.49714   0.68852  -0.09029
  32   37246.6    268.5   0.035886928   0.31719   0.37404  -0.42029  -0.02538
  33   37419.5    267.2   0.075174542   0.66138   0.09117  -0.77966   0.21258
  34   37655.8    265.6   0.066051678   0.57747   0.41185  -0.52917   0.35754
  35   38963.0    256.7   0.139730862   1.18063  -0.65160   0.39714  -0.77352
  36   39100.3    255.8   0.092606745   0.77972  -0.24836   0.82081  -0.21048
  37   39814.5    251.2   0.064887797   0.53653   0.25135  -0.07570   0.68383
  38   40082.5    249.5   0.007760679   0.06374  -0.05416  -0.23246  -0.08228
  39   40244.7    248.5   0.014239316   0.11648   0.00284   0.02497   0.34037

FINAL SINGLE POINT ENERGY     -4087.197414539288

DIPOLE MOMENT
-------------
                                X             Y             Z
Electronic contribution:    -21.78499     -23.34156     -41.56330
Nuclear contribution   :     23.10820      25.96004      43.74024
                        -----------------------------------------
Total Dipole Moment    :      1.32321       2.61848       2.17694
                        -----------------------------------------
Magnitude (a.u.)       :      3.65327
Magnitude (Debye)      :      9.28588

Rotational constants in cm-1:     0.001002     0.000410     0.000298
Rotational constants in MHz :    30.036216    12.292284     8.930415

                             ****ORCA TERMINATED NORMALLY****
TOTAL RUN TIME: 0 days 0 hours 14 minutes 1 seconds 454 msec
