                         Program Version 4.2.0 -  RELEASE  -
|  1> # ORCA input file
|  2> # SCF done       -196.295625041948          0.000500909792
|  3> ! CAM-B3LYP def2-SVP def2/J RIJCOSX Grid4 TightSCF
|  4> %maxcore 5000
|  5> %tddft
|  6>     Mode sTDDFT
|  7>     Ethresh 5.0
|  8>     maxcore 5000
|  9> end
| 10>
| 11> %pal
| 12>   nprocs 6
| 13>   end
| 14> * xyz 0 1
| 15>    C        0.82716         5.63875         3.36122
| 16>    C        1.46159         4.44065         3.56369
| 17>    C        2.84240         4.31180         3.82466
| 18>    N        3.95589         4.13839         4.04291
| 19>    C        0.85335         3.16829         3.52514
| 20>    N        0.43780         2.09790         3.50026
| 21>    C        1.47496         6.94612         3.36222
| 22>    C        0.50792         7.93419         3.04564
| 23>    C        0.81033         9.27227         2.96530
| 24>    C        2.13095         9.65760         3.21338
| 25>    C        3.09002         8.66625         3.53267
| 26>    C        2.78394         7.31219         3.61066
| 27>    S        4.65261         9.36886         3.80493
| 28>    C        4.02320        10.94951         3.49505
| 29>    C        2.70466        10.95994         3.20058
| 30>    C       -0.79317         7.28475         2.84351
| 31>    O       -1.83986         7.83701         2.54449
| 32>    C       -0.58251         5.85180         3.08057
| 33>    C       -1.56267         4.89419         3.08993
| 34>    C       -2.94274         5.00495         2.85473
| 35>    C       -3.79997         3.90399         2.97552
| 36>    C       -5.11770         4.22653         2.71489
| 37>    C       -5.27494         5.59153         2.37436
| 38>    S       -3.81445         6.46700         2.39452
| 39>    C       -6.65117         5.82456         2.13928
| 40>    C       -7.36239         4.62578         2.33112
| 41>    C       -6.42163         3.57940         2.69518
| 42>    C       -6.70644         2.27404         2.96673
| 43>    C       -5.70570         1.34282         3.31798
| 44>    N       -4.89849         0.58232         3.60765
| 45>    C       -8.02142         1.76329         2.91804
| 46>    N       -9.08551         1.33820         2.88071
| 47>    C       -8.73494         4.76867         2.13710
| 48>    C       -9.08168         6.06262         1.79427
| 49>    S       -7.67434         7.11875         1.70854
| 50>    C      -10.38622         6.59273         1.53891
| 51>    C      -10.57074         7.90108         1.11343
| 52>    C      -11.82553         8.45139         0.88860
| 53>    C      -13.00467         7.74389         1.07856
| 54>    C      -12.87228         6.38723         1.49987
| 55>    C      -11.56581         5.81150         1.72486
| 56>    N      -11.59749         4.54399         2.11278
| 57>   Se      -13.25078         3.99449         2.21591
| 58>    N      -13.87452         5.54632         1.71552
| 59>    C      -14.28487         8.35039         0.87670
| 60>    C      -15.53614         7.81767         1.13173
| 61>    C      -16.56025         8.71655         0.84156
| 62>    C      -16.08663         9.94638         0.35161
| 63>    S      -14.38507         9.99482         0.25688
| 64>    C      -17.19340        10.79080         0.10378
| 65>    C      -18.37486        10.09734         0.43565
| 66>    C      -18.01371         8.77012         0.90811
| 67>    C      -18.85536         7.78261         1.32621
| 68>    C      -18.38575         6.52693         1.76870
| 69>    N      -18.01717         5.50268         2.12810
| 70>    C      -20.25735         7.94637         1.33734
| 71>    N      -21.39692         8.07079         1.34000
| 72>    C      -19.51977        10.85785         0.22252
| 73>    C      -19.22845        12.13485        -0.23368
| 74>    S      -17.49429        12.36770        -0.45526
| 75>    C      -20.17453        13.12334        -0.59127
| 76>    C      -19.99280        14.45509        -0.79746
| 77>    C      -18.91107        15.35717        -0.46083
| 78>    C      -18.12775        15.29099         0.66242
| 79>    C      -17.15142        16.25005         0.99651
| 80>    N      -16.33029        16.99251         1.29996
| 81>    C      -18.28218        14.29641         1.64968
| 82>    N      -18.40960        13.52242         2.48804
| 83>    C      -19.01082        16.50263        -1.35562
| 84>    C      -20.25784        16.44083        -2.03129
| 85>    C      -20.96787        15.20969        -1.63631
| 86>    O      -22.07447        14.84744        -1.96132
| 87>    C      -20.66083        17.41214        -2.91586
| 88>    C      -19.79115        18.48125        -3.15352
| 89>    C      -18.54354        18.52377        -2.48460
| 90>    C      -18.13843        17.54873        -1.58057
| 91>    S      -17.63114        19.92590        -2.94408
| 92>    C      -18.90177        20.43670        -4.00062
| 93>    C      -19.96262        19.60061        -4.01612
| 94>    H        0.05012         9.99778         2.72049
| 95>    H        3.55140         6.59880         3.85967
| 96>    H        4.69059        11.78725         3.55385
| 97>    H        2.14361        11.85003         2.98033
| 98>    H       -1.25870         3.88289         3.33193
| 99>    H       -3.44098         2.92718         3.24814
|100>    H       -9.46693         3.98924         2.23696
|101>    H       -9.70142         8.52231         0.95379
|102>    H      -11.88409         9.47993         0.56304
|103>    H      -15.66407         6.82260         1.51504
|104>    H      -20.52593        10.52951         0.41166
|105>    H      -21.17021        12.75157        -0.81508
|106>    H      -21.61808        17.34907        -3.40957
|107>    H      -17.17770        17.61531        -1.09666
|108>    H      -18.77253        21.34638        -4.55418
|109>    H      -20.84325        19.75619        -4.61254
|110> *
|111>
|112>                          ****END OF INPUT****

CARTESIAN COORDINATES (ANGSTROEM)
---------------------------------
  C      0.827160    5.638750    3.361220
  C      1.461590    4.440650    3.563690
  C      2.842400    4.311800    3.824660
  N      3.955890    4.138390    4.042910
  C      0.853350    3.168290    3.525140
  N      0.437800    2.097900    3.500260
  C      1.474960    6.946120    3.362220
  C      0.507920    7.934190    3.045640
  C      0.810330    9.272270    2.965300
  C      2.130950    9.657600    3.213380
  C      3.090020    8.666250    3.532670
  C      2.783940    7.312190    3.610660
  S      4.652610    9.368860    3.804930
  C      4.023200   10.949510    3.495050
  C      2.704660   10.959940    3.200580
  C     -0.793170    7.284750    2.843510
  O     -1.839860    7.837010    2.544490
  C     -0.582510    5.851800    3.080570
  C     -1.562670    4.894190    3.089930
  C     -2.942740    5.004950    2.854730
  C     -3.799970    3.903990    2.975520
  C     -5.117700    4.226530    2.714890
  C     -5.274940    5.591530    2.374360
  S     -3.814450    6.467000    2.394520
  C     -6.651170    5.824560    2.139280
  C     -7.362390    4.625780    2.331120
  C     -6.421630    3.579400    2.695180
  C     -6.706440    2.274040    2.966730
  C     -5.705700    1.342820    3.317980
  N     -4.898490    0.582320    3.607650
  C     -8.021420    1.763290    2.918040
  N     -9.085510    1.338200    2.880710
  C     -8.734940    4.768670    2.137100
  C     -9.081680    6.062620    1.794270
  S     -7.674340    7.118750    1.708540
  C    -10.386220    6.592730    1.538910
  C    -10.570740    7.901080    1.113430
  C    -11.825530    8.451390    0.888600
  C    -13.004670    7.743890    1.078560
  C    -12.872280    6.387230    1.499870
  C    -11.565810    5.811500    1.724860
  N    -11.597490    4.543990    2.112780
  Se   -13.250780    3.994490    2.215910
  N    -13.874520    5.546320    1.715520
  C    -14.284870    8.350390    0.876700
  C    -15.536140    7.817670    1.131730
  C    -16.560250    8.716550    0.841560
  C    -16.086630    9.946380    0.351610
  S    -14.385070    9.994820    0.256880
  C    -17.193400   10.790800    0.103780
  C    -18.374860   10.097340    0.435650
  C    -18.013710    8.770120    0.908110
  C    -18.855360    7.782610    1.326210
  C    -18.385750    6.526930    1.768700
  N    -18.017170    5.502680    2.128100
  C    -20.257350    7.946370    1.337340
  N    -21.396920    8.070790    1.340000
  C    -19.519770   10.857850    0.222520
  C    -19.228450   12.134850   -0.233680
  S    -17.494290   12.367700   -0.455260
  C    -20.174530   13.123340   -0.591270
  C    -19.992800   14.455090   -0.797460
  C    -18.911070   15.357170   -0.460830
  C    -18.127750   15.290990    0.662420
  C    -17.151420   16.250050    0.996510
  N    -16.330290   16.992510    1.299960
  C    -18.282180   14.296410    1.649680
  N    -18.409600   13.522420    2.488040
  C    -19.010820   16.502630   -1.355620
  C    -20.257840   16.440830   -2.031290
  C    -20.967870   15.209690   -1.636310
  O    -22.074470   14.847440   -1.961320
  C    -20.660830   17.412140   -2.915860
  C    -19.791150   18.481250   -3.153520
  C    -18.543540   18.523770   -2.484600
  C    -18.138430   17.548730   -1.580570
  S    -17.631140   19.925900   -2.944080
  C    -18.901770   20.436700   -4.000620
  C    -19.962620   19.600610   -4.016120
  H      0.050120    9.997780    2.720490
  H      3.551400    6.598800    3.859670
  H      4.690590   11.787250    3.553850
  H      2.143610   11.850030    2.980330
  H     -1.258700    3.882890    3.331930
  H     -3.440980    2.927180    3.248140
  H     -9.466930    3.989240    2.236960
  H     -9.701420    8.522310    0.953790
  H    -11.884090    9.479930    0.563040
  H    -15.664070    6.822600    1.515040
  H    -20.525930   10.529510    0.411660
  H    -21.170210   12.751570   -0.815080
  H    -21.618080   17.349070   -3.409570
  H    -17.177700   17.615310   -1.096660
  H    -18.772530   21.346380   -4.554180
  H    -20.843250   19.756190   -4.612540

 Total Charge           Charge          ....    0
 Multiplicity           Mult            ....    1
 Number of Electrons    NEL             ....  592
 Basis Dimension        Dim             .... 1228

ORBITAL ENERGIES
----------------

  NO   OCC          E(Eh)            E(eV)
   0   2.0000    -453.992474    -12353.7633
   1   2.0000     -88.997581     -2421.7473
   2   2.0000     -88.994931     -2421.6752
   3   2.0000     -88.993040     -2421.6237
   4   2.0000     -88.990796     -2421.5627
   5   2.0000     -88.970170     -2421.0014
   6   2.0000     -88.969514     -2420.9836
   7   2.0000     -58.206207     -1583.8714
   8   2.0000     -52.276931     -1422.5276
   9   2.0000     -52.274522     -1422.4621
  10   2.0000     -52.274083     -1422.4501
  11   2.0000     -19.226570      -523.1816
  12   2.0000     -19.216897      -522.9183
  13   2.0000     -14.448084      -393.1524
  14   2.0000     -14.448018      -393.1505
  15   2.0000     -14.433364      -392.7518
  16   2.0000     -14.432665      -392.7328
  17   2.0000     -14.430739      -392.6804
  18   2.0000     -14.430236      -392.6667
  19   2.0000     -14.419951      -392.3868
  20   2.0000     -14.417796      -392.3282
  21   2.0000     -14.417590      -392.3226
  22   2.0000     -14.415036      -392.2531
  23   2.0000     -10.374098      -282.2936
  24   2.0000     -10.369154      -282.1590
  25   2.0000     -10.368856      -282.1509
  26   2.0000     -10.366192      -282.0784
  27   2.0000     -10.356213      -281.8069
  28   2.0000     -10.353850      -281.7426
  29   2.0000     -10.347187      -281.5613
  30   2.0000     -10.346411      -281.5402
  31   2.0000     -10.346334      -281.5381
  32   2.0000     -10.343552      -281.4624
  33   2.0000     -10.342894      -281.4445
  34   2.0000     -10.340259      -281.3727
  35   2.0000     -10.340005      -281.3658
  36   2.0000     -10.337224      -281.2902
  37   2.0000     -10.335352      -281.2392
  38   2.0000     -10.334905      -281.2271
  39   2.0000     -10.333281      -281.1829
  40   2.0000     -10.332655      -281.1658
  41   2.0000     -10.331654      -281.1386
  42   2.0000     -10.330937      -281.1191
  43   2.0000     -10.330911      -281.1184
  44   2.0000     -10.330220      -281.0996
  45   2.0000     -10.330021      -281.0942
  46   2.0000     -10.328254      -281.0461
  47   2.0000     -10.327756      -281.0325
  48   2.0000     -10.326656      -281.0026
  49   2.0000     -10.324628      -280.9474
  50   2.0000     -10.323285      -280.9109
  51   2.0000     -10.322458      -280.8884
  52   2.0000     -10.320122      -280.8248
  53   2.0000     -10.319806      -280.8162
  54   2.0000     -10.319159      -280.7986
  55   2.0000     -10.318921      -280.7921
  56   2.0000     -10.318100      -280.7698
  57   2.0000     -10.317291      -280.7478
  58   2.0000     -10.316950      -280.7385
  59   2.0000     -10.315736      -280.7055
  60   2.0000     -10.313926      -280.6562
  61   2.0000     -10.310951      -280.5753
  62   2.0000     -10.310017      -280.5498
  63   2.0000     -10.309915      -280.5470
  64   2.0000     -10.308981      -280.5216
  65   2.0000     -10.308769      -280.5159
  66   2.0000     -10.307541      -280.4824
  67   2.0000     -10.307038      -280.4688
  68   2.0000     -10.306616      -280.4573
  69   2.0000     -10.306431      -280.4522
  70   2.0000     -10.305546      -280.4282
  71   2.0000     -10.305216      -280.4192
  72   2.0000     -10.304627      -280.4032
  73   2.0000     -10.302851      -280.3548
  74   2.0000     -10.302680      -280.3502
  75   2.0000     -10.301143      -280.3084
  76   2.0000     -10.300721      -280.2969
  77   2.0000     -10.299081      -280.2522
  78   2.0000     -10.297824      -280.2180
  79   2.0000     -10.294811      -280.1360
  80   2.0000     -10.293833      -280.1094
  81   2.0000     -10.292329      -280.0685
  82   2.0000     -10.292034      -280.0605
  83   2.0000      -8.091763      -220.1881
  84   2.0000      -8.089453      -220.1252
  85   2.0000      -8.087642      -220.0759
  86   2.0000      -8.083118      -219.9528
  87   2.0000      -8.066489      -219.5003
  88   2.0000      -8.065727      -219.4796
  89   2.0000      -7.981909      -217.1988
  90   2.0000      -6.061028      -164.9290
  91   2.0000      -6.058709      -164.8658
  92   2.0000      -6.056843      -164.8151
  93   2.0000      -6.056763      -164.8129
  94   2.0000      -6.054504      -164.7514
  95   2.0000      -6.054197      -164.7431
  96   2.0000      -6.052693      -164.7022
  97   2.0000      -6.052527      -164.6976
  98   2.0000      -6.051865      -164.6796
  99   2.0000      -6.050069      -164.6307
 100   2.0000      -6.047780      -164.5685
 101   2.0000      -6.045675      -164.5112
 102   2.0000      -6.036010      -164.2482
 103   2.0000      -6.035225      -164.2268
 104   2.0000      -6.031688      -164.1306
 105   2.0000      -6.030928      -164.1099
 106   2.0000      -6.028141      -164.0340
 107   2.0000      -6.027434      -164.0148
 108   2.0000      -5.932063      -161.4196
 109   2.0000      -5.925351      -161.2370
 110   2.0000      -5.921777      -161.1397
 111   2.0000      -2.286125       -62.2086
 112   2.0000      -2.285506       -62.1918
 113   2.0000      -2.281113       -62.0722
 114   2.0000      -2.275983       -61.9326
 115   2.0000      -2.275774       -61.9269
 116   2.0000      -1.141829       -31.0707
 117   2.0000      -1.132421       -30.8147
 118   2.0000      -1.104686       -30.0600
 119   2.0000      -1.051441       -28.6112
 120   2.0000      -1.047451       -28.5026
 121   2.0000      -1.026106       -27.9218
 122   2.0000      -1.024110       -27.8674
 123   2.0000      -1.022741       -27.8302
 124   2.0000      -1.022254       -27.8170
 125   2.0000      -1.012026       -27.5386
 126   2.0000      -1.010667       -27.5016
 127   2.0000      -1.010474       -27.4964
 128   2.0000      -1.008096       -27.4317
 129   2.0000      -1.006801       -27.3964
 130   2.0000      -1.003674       -27.3113
 131   2.0000      -0.997044       -27.1309
 132   2.0000      -0.995019       -27.0759
 133   2.0000      -0.989108       -26.9150
 134   2.0000      -0.988116       -26.8880
 135   2.0000      -0.981977       -26.7210
 136   2.0000      -0.976964       -26.5845
 137   2.0000      -0.962329       -26.1863
 138   2.0000      -0.956249       -26.0209
 139   2.0000      -0.935671       -25.4609
 140   2.0000      -0.934361       -25.4253
 141   2.0000      -0.923182       -25.1211
 142   2.0000      -0.918642       -24.9975
 143   2.0000      -0.904397       -24.6099
 144   2.0000      -0.900142       -24.4941
 145   2.0000      -0.885338       -24.0913
 146   2.0000      -0.884629       -24.0720
 147   2.0000      -0.883486       -24.0409
 148   2.0000      -0.879288       -23.9266
 149   2.0000      -0.877335       -23.8735
 150   2.0000      -0.869089       -23.6491
 151   2.0000      -0.866024       -23.5657
 152   2.0000      -0.859159       -23.3789
 153   2.0000      -0.855917       -23.2907
 154   2.0000      -0.854273       -23.2459
 155   2.0000      -0.826664       -22.4947
 156   2.0000      -0.826143       -22.4805
 157   2.0000      -0.820306       -22.3217
 158   2.0000      -0.806669       -21.9506
 159   2.0000      -0.791287       -21.5320
 160   2.0000      -0.782157       -21.2836
 161   2.0000      -0.779439       -21.2096
 162   2.0000      -0.769798       -20.9473
 163   2.0000      -0.762565       -20.7504
 164   2.0000      -0.759037       -20.6545
 165   2.0000      -0.752712       -20.4823
 166   2.0000      -0.737199       -20.0602
 167   2.0000      -0.725640       -19.7457
 168   2.0000      -0.713309       -19.4101
 169   2.0000      -0.711881       -19.3713
 170   2.0000      -0.705032       -19.1849
 171   2.0000      -0.702191       -19.1076
 172   2.0000      -0.694961       -18.9109
 173   2.0000      -0.693236       -18.8639
 174   2.0000      -0.690387       -18.7864
 175   2.0000      -0.687415       -18.7055
 176   2.0000      -0.685998       -18.6670
 177   2.0000      -0.680187       -18.5088
 178   2.0000      -0.669154       -18.2086
 179   2.0000      -0.665858       -18.1189
 180   2.0000      -0.664103       -18.0712
 181   2.0000      -0.652951       -17.7677
 182   2.0000      -0.645896       -17.5757
 183   2.0000      -0.645226       -17.5575
 184   2.0000      -0.635163       -17.2837
 185   2.0000      -0.629089       -17.1184
 186   2.0000      -0.625185       -17.0121
 187   2.0000      -0.623170       -16.9573
 188   2.0000      -0.621613       -16.9150
 189   2.0000      -0.617804       -16.8113
 190   2.0000      -0.610288       -16.6068
 191   2.0000      -0.608283       -16.5522
 192   2.0000      -0.601337       -16.3632
 193   2.0000      -0.598816       -16.2946
 194   2.0000      -0.595504       -16.2045
 195   2.0000      -0.593658       -16.1543
 196   2.0000      -0.581061       -15.8115
 197   2.0000      -0.577045       -15.7022
 198   2.0000      -0.572362       -15.5748
 199   2.0000      -0.564844       -15.3702
 200   2.0000      -0.556928       -15.1548
 201   2.0000      -0.555443       -15.1144
 202   2.0000      -0.552423       -15.0322
 203   2.0000      -0.552080       -15.0228
 204   2.0000      -0.546798       -14.8791
 205   2.0000      -0.545889       -14.8544
 206   2.0000      -0.543310       -14.7842
 207   2.0000      -0.542829       -14.7711
 208   2.0000      -0.541825       -14.7438
 209   2.0000      -0.537732       -14.6324
 210   2.0000      -0.534742       -14.5511
 211   2.0000      -0.532954       -14.5024
 212   2.0000      -0.529808       -14.4168
 213   2.0000      -0.523247       -14.2383
 214   2.0000      -0.519795       -14.1443
 215   2.0000      -0.516165       -14.0456
 216   2.0000      -0.513551       -13.9744
 217   2.0000      -0.511055       -13.9065
 218   2.0000      -0.509289       -13.8585
 219   2.0000      -0.507189       -13.8013
 220   2.0000      -0.505043       -13.7429
 221   2.0000      -0.503500       -13.7009
 222   2.0000      -0.501820       -13.6552
 223   2.0000      -0.501156       -13.6371
 224   2.0000      -0.499335       -13.5876
 225   2.0000      -0.499117       -13.5817
 226   2.0000      -0.496471       -13.5097
 227   2.0000      -0.494104       -13.4452
 228   2.0000      -0.492967       -13.4143
 229   2.0000      -0.488981       -13.3059
 230   2.0000      -0.487794       -13.2736
 231   2.0000      -0.487228       -13.2582
 232   2.0000      -0.485156       -13.2018
 233   2.0000      -0.481344       -13.0980
 234   2.0000      -0.478146       -13.0110
 235   2.0000      -0.475851       -12.9486
 236   2.0000      -0.474137       -12.9019
 237   2.0000      -0.470659       -12.8073
 238   2.0000      -0.463817       -12.6211
 239   2.0000      -0.461317       -12.5531
 240   2.0000      -0.460226       -12.5234
 241   2.0000      -0.459766       -12.5109
 242   2.0000      -0.457754       -12.4561
 243   2.0000      -0.457066       -12.4374
 244   2.0000      -0.455851       -12.4043
 245   2.0000      -0.452922       -12.3246
 246   2.0000      -0.451935       -12.2978
 247   2.0000      -0.449416       -12.2292
 248   2.0000      -0.448255       -12.1976
 249   2.0000      -0.447436       -12.1754
 250   2.0000      -0.444989       -12.1088
 251   2.0000      -0.444020       -12.0824
 252   2.0000      -0.442891       -12.0517
 253   2.0000      -0.441750       -12.0206
 254   2.0000      -0.441367       -12.0102
 255   2.0000      -0.440437       -11.9849
 256   2.0000      -0.439523       -11.9600
 257   2.0000      -0.439218       -11.9517
 258   2.0000      -0.437029       -11.8922
 259   2.0000      -0.436615       -11.8809
 260   2.0000      -0.435969       -11.8633
 261   2.0000      -0.432767       -11.7762
 262   2.0000      -0.430927       -11.7261
 263   2.0000      -0.428840       -11.6693
 264   2.0000      -0.428450       -11.6587
 265   2.0000      -0.426886       -11.6162
 266   2.0000      -0.426712       -11.6114
 267   2.0000      -0.421591       -11.4721
 268   2.0000      -0.417448       -11.3593
 269   2.0000      -0.417227       -11.3533
 270   2.0000      -0.410424       -11.1682
 271   2.0000      -0.407813       -11.0971
 272   2.0000      -0.405755       -11.0412
 273   2.0000      -0.402148       -10.9430
 274   2.0000      -0.396053       -10.7772
 275   2.0000      -0.387579       -10.5466
 276   2.0000      -0.386766       -10.5244
 277   2.0000      -0.376685       -10.2501
 278   2.0000      -0.374581       -10.1929
 279   2.0000      -0.369114       -10.0441
 280   2.0000      -0.356820        -9.7096
 281   2.0000      -0.353150        -9.6097
 282   2.0000      -0.351450        -9.5635
 283   2.0000      -0.343777        -9.3546
 284   2.0000      -0.342737        -9.3264
 285   2.0000      -0.340434        -9.2637
 286   2.0000      -0.335430        -9.1275
 287   2.0000      -0.327086        -8.9005
 288   2.0000      -0.323970        -8.8157
 289   2.0000      -0.317255        -8.6330
 290   2.0000      -0.317018        -8.6265
 291   2.0000      -0.309143        -8.4122
 292   2.0000      -0.298976        -8.1355
 293   2.0000      -0.296652        -8.0723
 294   2.0000      -0.277157        -7.5418
 295   2.0000      -0.250990        -6.8298
 296   0.0000      -0.121067        -3.2944
 297   0.0000      -0.110326        -3.0021
 298   0.0000      -0.090877        -2.4729
 299   0.0000      -0.088531        -2.4091
 300   0.0000      -0.083123        -2.2619

MULLIKEN ATOMIC CHARGES
-----------------------
   0 C :    0.322419
   1 C :   -0.349510
   2 C :   -0.186528
   3 N :    0.153964
   4 C :   -0.197261
   5 N :    0.153654
   6 C :    0.010673
   7 C :   -0.014596
   8 C :   -0.064793
   9 C :    0.112323
  10 C :   -0.098992
  11 C :   -0.018716
  12 S :    0.144260
  13 C :   -0.049105
  14 C :    0.027369
  15 C :    0.167132
  16 O :   -0.194073
  17 C :   -0.091067
  18 C :   -0.030173
  19 C :   -0.053155
  20 C :   -0.062371
  21 C :    0.046418
  22 C :   -0.067847
  23 S :    0.240846
  24 C :   -0.093970
  25 C :    0.030490
  26 C :    0.310028
  27 C :   -0.300704
  28 C :   -0.195772
  29 N :    0.183817
  30 C :   -0.182723
  31 N :    0.172187
  32 C :   -0.053908
  33 C :   -0.109212
  34 S :    0.166506
  35 C :    0.157992
  36 C :   -0.074127
  37 C :   -0.064951
  38 C :    0.150679
  39 C :    0.009474
  40 C :    0.005364
  41 N :   -0.285000
  42 Se:    0.581849
  43 N :   -0.286773
  44 C :   -0.107987
  45 C :   -0.051526
  46 C :    0.033372
  47 C :   -0.091580
  48 S :    0.166789
  49 C :   -0.077035
  50 C :    0.024418
  51 C :    0.304922
  52 C :   -0.296076
  53 C :   -0.182236
  54 N :    0.178074
  55 C :   -0.192643
  56 N :    0.176425
  57 C :    0.002274
  58 C :   -0.090699
  59 S :    0.201760
  60 C :    0.050494
  61 C :   -0.136658
  62 C :    0.237563
  63 C :   -0.325474
  64 C :   -0.175044
  65 N :    0.152374
  66 C :   -0.210044
  67 N :    0.175530
  68 C :    0.006880
  69 C :    0.000365
  70 C :    0.138379
  71 O :   -0.140590
  72 C :   -0.065845
  73 C :    0.107585
  74 C :   -0.092804
  75 C :   -0.022012
  76 S :    0.139530
  77 C :   -0.050470
  78 C :    0.027630
  79 H :   -0.013325
  80 H :   -0.006318
  81 H :    0.039889
  82 H :   -0.007365
  83 H :    0.017933
  84 H :    0.027350
  85 H :    0.021438
  86 H :   -0.004426
  87 H :   -0.004900
  88 H :    0.020546
  89 H :    0.018651
  90 H :    0.032033
  91 H :   -0.009521
  92 H :   -0.004572
  93 H :    0.039646
  94 H :   -0.004815
Sum of atomic charges:   -0.0000000

LOEWDIN ATOMIC CHARGES
----------------------
   0 C :    0.076772
   1 C :   -0.141245
   2 C :   -0.018170
   3 N :   -0.052907
   4 C :   -0.023708
   5 N :   -0.047796
   6 C :   -0.021061
   7 C :   -0.054255
   8 C :    0.023564
   9 C :   -0.035726
  10 C :   -0.145250
  11 C :   -0.007545
  12 S :    0.432803
  13 C :   -0.149016
  14 C :   -0.057863
  15 C :    0.086439
  16 O :   -0.177999
  17 C :   -0.111020
  18 C :    0.055438
  19 C :   -0.184186
  20 C :    0.011705
  21 C :   -0.077040
  22 C :   -0.167498
  23 S :    0.546793
  24 C :   -0.184094
  25 C :   -0.057838
  26 C :    0.077935
  27 C :   -0.099251
  28 C :   -0.020088
  29 N :   -0.024821
  30 C :   -0.016180
  31 N :   -0.031200
  32 C :   -0.020208
  33 C :   -0.147962
  34 S :    0.476812
  35 C :   -0.040874
  36 C :   -0.020774
  37 C :   -0.020588
  38 C :   -0.041138
  39 C :   -0.030111
  40 C :   -0.030121
  41 N :   -0.239925
  42 Se:    0.611635
  43 N :   -0.240381
  44 C :   -0.147914
  45 C :   -0.018273
  46 C :   -0.057276
  47 C :   -0.185098
  48 S :    0.477997
  49 C :   -0.151471
  50 C :   -0.072560
  51 C :    0.079911
  52 C :   -0.095634
  53 C :   -0.016206
  54 N :   -0.028587
  55 C :   -0.017133
  56 N :   -0.027840
  57 C :    0.014242
  58 C :   -0.178351
  59 S :    0.509693
  60 C :    0.050102
  61 C :   -0.100632
  62 C :    0.060561
  63 C :   -0.148078
  64 C :   -0.020675
  65 N :   -0.051801
  66 C :   -0.038209
  67 N :   -0.048262
  68 C :   -0.019845
  69 C :   -0.054752
  70 C :    0.083540
  71 O :   -0.141898
  72 C :    0.024816
  73 C :   -0.035451
  74 C :   -0.144821
  75 C :   -0.011948
  76 S :    0.429006
  77 C :   -0.149261
  78 C :   -0.056955
  79 H :    0.039908
  80 H :    0.041212
  81 H :    0.029829
  82 H :    0.035124
  83 H :    0.053739
  84 H :    0.047904
  85 H :    0.038977
  86 H :    0.025868
  87 H :    0.025528
  88 H :    0.039063
  89 H :    0.047371
  90 H :    0.055049
  91 H :    0.041451
  92 H :    0.040215
  93 H :    0.029776
  94 H :    0.035987

  Mayer bond orders larger than 0.100000
B(  0-C ,  1-C ) :   1.6259 B(  0-C ,  6-C ) :   1.0006 B(  0-C , 17-C ) :   1.0746
B(  1-C ,  2-C ) :   1.1444 B(  1-C ,  4-C ) :   1.1445 B(  2-C ,  3-N ) :   2.9691
B(  4-C ,  5-N ) :   2.9631 B(  6-C ,  7-C ) :   1.2685 B(  6-C , 11-C ) :   1.4178
B(  7-C ,  8-C ) :   1.4242 B(  7-C , 15-C ) :   0.9666 B(  8-C ,  9-C ) :   1.2447
B(  8-C , 79-H ) :   1.0155 B(  9-C , 10-C ) :   1.3029 B(  9-C , 14-C ) :   1.1730
B( 10-C , 11-C ) :   1.3206 B( 10-C , 12-S ) :   1.1014 B( 11-C , 80-H ) :   0.9805
B( 12-S , 13-C ) :   1.1277 B( 13-C , 14-C ) :   1.6265 B( 13-C , 81-H ) :   0.9689
B( 14-C , 82-H ) :   0.9993 B( 15-C , 16-O ) :   2.1052 B( 15-C , 17-C ) :   0.9830
B( 17-C , 18-C ) :   1.4965 B( 18-C , 19-C ) :   1.2656 B( 18-C , 83-H ) :   0.9402
B( 19-C , 20-C ) :   1.3279 B( 19-C , 23-S ) :   1.0702 B( 20-C , 21-C ) :   1.3327
B( 20-C , 84-H ) :   1.0091 B( 21-C , 22-C ) :   1.3540 B( 21-C , 26-C ) :   0.9836
B( 22-C , 23-S ) :   1.1240 B( 22-C , 24-C ) :   1.2002 B( 24-C , 25-C ) :   1.4270
B( 24-C , 34-S ) :   1.1199 B( 25-C , 26-C ) :   0.9994 B( 25-C , 32-C ) :   1.2425
B( 26-C , 27-C ) :   1.7152 B( 27-C , 28-C ) :   1.1347 B( 27-C , 30-C ) :   1.1356
B( 28-C , 29-N ) :   2.9945 B( 30-C , 31-N ) :   2.9856 B( 32-C , 33-C ) :   1.4737
B( 32-C , 85-H ) :   0.9819 B( 33-C , 34-S ) :   1.0986 B( 33-C , 35-C ) :   1.1259
B( 35-C , 36-C ) :   1.4346 B( 35-C , 38-C ) :   0.1176 B( 35-C , 40-C ) :   1.1652
B( 36-C , 37-C ) :   1.2586 B( 36-C , 86-H ) :   0.9849 B( 37-C , 38-C ) :   1.4406
B( 37-C , 87-H ) :   0.9824 B( 38-C , 39-C ) :   1.1622 B( 38-C , 44-C ) :   1.1275
B( 39-C , 40-C ) :   1.1205 B( 39-C , 43-N ) :   1.5882 B( 40-C , 41-N ) :   1.5897
B( 41-N , 42-Se) :   1.2374 B( 41-N , 43-N ) :   0.1224 B( 42-Se, 43-N ) :   1.2376
B( 44-C , 45-C ) :   1.4719 B( 44-C , 48-S ) :   1.0989 B( 45-C , 46-C ) :   1.2501
B( 45-C , 88-H ) :   0.9801 B( 46-C , 47-C ) :   1.4296 B( 46-C , 51-C ) :   0.9959
B( 47-C , 48-S ) :   1.1184 B( 47-C , 49-C ) :   1.2062 B( 49-C , 50-C ) :   1.3989
B( 49-C , 59-S ) :   1.1573 B( 50-C , 51-C ) :   0.9878 B( 50-C , 57-C ) :   1.3037
B( 51-C , 52-C ) :   1.7186 B( 52-C , 53-C ) :   1.1378 B( 52-C , 55-C ) :   1.1312
B( 53-C , 54-N ) :   2.9871 B( 55-C , 56-N ) :   2.9947 B( 57-C , 58-C ) :   1.3987
B( 57-C , 89-H ) :   1.0024 B( 58-C , 59-S ) :   1.0827 B( 58-C , 60-C ) :   1.1475
B( 60-C , 61-C ) :   1.6404 B( 60-C , 90-H ) :   0.9468 B( 61-C , 62-C ) :   1.0358
B( 61-C , 70-C ) :   0.9378 B( 62-C , 63-C ) :   1.6486 B( 62-C , 68-C ) :   1.0178
B( 63-C , 64-C ) :   1.1333 B( 63-C , 66-C ) :   1.1536 B( 64-C , 65-N ) :   2.9926
B( 66-C , 67-N ) :   3.0248 B( 68-C , 69-C ) :   1.2696 B( 68-C , 75-C ) :   1.4176
B( 69-C , 70-C ) :   0.9223 B( 69-C , 72-C ) :   1.4286 B( 70-C , 71-O ) :   2.2718
B( 72-C , 73-C ) :   1.2525 B( 72-C , 91-H ) :   1.0158 B( 73-C , 74-C ) :   1.3035
B( 73-C , 78-C ) :   1.1729 B( 74-C , 75-C ) :   1.3206 B( 74-C , 76-S ) :   1.0973
B( 75-C , 92-H ) :   0.9866 B( 76-S , 77-C ) :   1.1259 B( 77-C , 78-C ) :   1.6302
B( 77-C , 93-H ) :   0.9683 B( 78-C , 94-H ) :   0.9993

-----------------------------------------------------------------------------
         ABSORPTION SPECTRUM VIA TRANSITION ELECTRIC DIPOLE MOMENTS
-----------------------------------------------------------------------------
State   Energy  Wavelength   fosc         T2         TX        TY        TZ
        (cm-1)    (nm)                  (au**2)     (au)      (au)      (au)
-----------------------------------------------------------------------------
   0   12485.2    800.9   0.806418541  21.26379  -4.00031   2.15334  -0.79023
   1   14097.4    709.4   0.160655736   3.75174   1.88775   0.36266   0.23792
   2   18232.4    548.5   1.007524969  18.19233   3.76517  -1.86490   0.73346
   3   20790.1    481.0   0.472138743   7.47633   1.46654   2.30603   0.08840
   4   21180.3    472.1   0.018602094   0.28914  -0.20027  -0.49025   0.09320
   5   22197.5    450.5   0.358829462   5.32181  -2.26099  -0.36995  -0.26993
   6   23291.8    429.3   0.030497762   0.43106  -0.62061  -0.18864   0.10161
   7   25429.5    393.2   0.066632845   0.86263   0.09694   0.57081  -0.72623
   8   26091.8    383.3   0.007221224   0.09111   0.26023  -0.14442   0.05036
   9   26894.6    371.8   0.119446017   1.46212  -0.23432  -1.18172   0.10374
  10   27399.2    365.0   0.122623468   1.47337   1.08462   0.51417   0.18052
  11   27787.2    359.9   0.017623535   0.20880   0.26216  -0.33979   0.15687
  12   28316.7    353.1   0.153530447   1.78496  -0.38398   1.17891  -0.49767
  13   28654.3    349.0   0.082897727   0.95242   0.75560  -0.16552   0.59505
  14   28837.7    346.8   0.018064233   0.20622   0.13333  -0.42921   0.06500
  15   29078.1    343.9   0.111114805   1.25800   1.11181   0.14111  -0.04445
  16   29184.1    342.7   0.088178487   0.99470  -0.27603   0.86670  -0.40908
  17   29604.1    337.8   0.076992062   0.85619   0.60674   0.64266  -0.27394
  18   29890.7    334.6   0.134001060   1.47587   0.00848   1.14273  -0.41226
  19   30127.6    331.9   0.156081189   1.70554   0.77028   0.97270  -0.40751
  20   30440.6    328.5   0.042858601   0.46351  -0.08547  -0.67293   0.05807
  21   30478.5    328.1   0.348809077   3.76764  -1.03111  -1.62925   0.22361
  22   31252.4    320.0   0.540859244   5.69740   1.21643  -1.59662   1.29171
  23   31959.4    312.9   0.464618877   4.78601  -1.50170  -1.53762   0.40822
  24   32086.5    311.7   0.089890479   0.92229  -0.65646   0.68708   0.13879
  25   32201.1    310.5   0.267501136   2.73483   0.18085  -1.63755  -0.14337
  26   32635.9    306.4   0.010214070   0.10303  -0.06998   0.28126  -0.13794
  27   32770.6    305.2   0.358480860   3.60128  -0.09866   1.66603  -0.90327
  28   32908.2    303.9   0.244064946   2.44162  -1.29230  -0.82808  -0.29301
  29   33098.8    302.1   0.045303610   0.45061  -0.36179   0.54643  -0.14537
  30   33224.9    301.0   0.111066587   1.10051  -1.01875   0.22257  -0.11453
  31   33254.3    300.7   0.021924272   0.21705  -0.19026   0.40807  -0.11969
  32   33590.3    297.7   0.024364342   0.23879  -0.12895   0.43375   0.18445
  33   33744.0    296.3   0.045218722   0.44116   0.47407  -0.45466  -0.09852
  34   34017.2    294.0   0.046769195   0.45262   0.49142  -0.38092   0.25696
  35   34176.2    292.6   0.174038109   1.67647  -0.94112  -0.86963   0.18577
  36   34412.9    290.6   0.212778685   2.03556  -0.54788  -1.21189   0.51644
  37   34854.6    286.9   0.023046448   0.21768   0.42956  -0.10806  -0.14656
  38   34920.4    286.4   0.157601780   1.48579  -0.33485  -1.14006   0.27189
  39   35124.5    284.7   0.330772204   3.10024   0.65199   1.60641  -0.30755
  40   35341.7    283.0   0.040011598   0.37271   0.56780  -0.22236   0.02947
  41   35523.8    281.5   0.296254470   2.74550  -0.55024   0.83132  -1.32350
  42   35678.2    280.3   0.019225998   0.17740  -0.29541   0.30020   0.00388
  43   35959.2    278.1   0.093665751   0.85753   0.02379   0.88673  -0.26584
  44   36037.1    277.5   0.026768848   0.24454  -0.34881   0.34886  -0.03427
  45   36244.4    275.9   0.061500485   0.55862   0.35995   0.64799   0.09571
  46   36357.6    275.0   0.039922446   0.36149  -0.52842   0.28676   0.00588
  47   36837.6    271.5   0.343541435   3.07017  -1.47909   0.77465  -0.53140
  48   37175.6    269.0   0.030398073   0.26919   0.15308  -0.41374   0.27308
  49   37570.4    266.2   0.016824211   0.14742  -0.24629   0.29208  -0.03816
  50   37684.8    265.4   0.022246913   0.19435   0.43313   0.05794  -0.05820
  51   37790.7    264.6   0.007782214   0.06779  -0.01399  -0.25593  -0.04579
  52   37894.9    263.9   0.002512522   0.02183  -0.10298  -0.10411  -0.01957
  53   38313.0    261.0   0.037475480   0.32202  -0.17477  -0.53398   0.07958
  54   38403.6    260.4   0.019384203   0.16617   0.14252  -0.33048   0.19142
  55   38697.8    258.4   0.011094520   0.09438  -0.25275  -0.17438   0.00964
  56   38845.0    257.4   0.058254294   0.49371   0.64246   0.25714   0.12178
  57   38983.7    256.5   0.092372976   0.78008  -0.86297   0.06372  -0.17690
  58   39248.9    254.8   0.040195325   0.33715  -0.53914  -0.21509  -0.01467
  59   39375.8    254.0   0.044333949   0.37067   0.00807  -0.53987   0.28131
  60   39482.4    253.3   0.008257451   0.06885  -0.10576   0.21564  -0.10567
  61   39688.1    252.0   0.037480641   0.31090  -0.23856   0.44804  -0.23075
  62   39855.6    250.9   0.048719111   0.40243  -0.60745   0.18278  -0.00537
  63   40015.0    249.9   0.014497877   0.11928   0.06101   0.33144  -0.07552
  64   40132.0    249.2   0.077166114   0.63301   0.72254  -0.16256   0.29072
  65   40303.2    248.1   0.061443129   0.50189   0.23174   0.65650   0.13112
  66   40320.2    248.0   0.012956942   0.10579   0.08412  -0.31357  -0.01983

FINAL SINGLE POINT ENERGY     -7779.785090438809

DIPOLE MOMENT
-------------
                                X             Y             Z
Electronic contribution:    -34.30038     -75.87116      16.07789
Nuclear contribution   :     34.76860      80.76210     -18.91219
                        -----------------------------------------
Total Dipole Moment    :      0.46822       4.89094      -2.83430
                        -----------------------------------------
Magnitude (a.u.)       :      5.67220
Magnitude (Debye)      :     14.41758

Rotational constants in cm-1:     0.000889     0.000180     0.000151
Rotational constants in MHz :    26.660687     5.385777     4.534305

                             ****ORCA TERMINATED NORMALLY****
TOTAL RUN TIME: 0 days 0 hours 11 minutes 29 seconds 390 msec
