                         Program Version 4.2.0 -  RELEASE  -
|  1> # ORCA input file
|  2> # SCF done       -196.374102551142          0.000207482131
|  3> ! CAM-B3LYP def2-SVP def2/J RIJCOSX Grid4 TightSCF
|  4> %maxcore 5000
|  5> %tddft
|  6>     Mode sTDDFT
|  7>     Ethresh 5.0
|  8>     maxcore 5000
|  9> end
| 10>
| 11> %pal
| 12>   nprocs 6
| 13>   end
| 14> * xyz 0 1
| 15>    C        0.02313         2.01769        -1.31700
| 16>    C        0.72418         1.27939        -0.39916
| 17>    C        1.99239         0.71141        -0.64450
| 18>    N        3.02242         0.22275        -0.77878
| 19>    C        0.30913         0.99194         0.91817
| 20>    N        0.05097         0.72216         2.00432
| 21>    C        0.48287         2.34623        -2.66230
| 22>    C       -0.47836         3.18677        -3.27950
| 23>    C       -0.33135         3.67253        -4.55645
| 24>    C        0.81821         3.30825        -5.26346
| 25>    C        1.77122         2.46517        -4.64271
| 26>    C        1.62345         1.97702        -3.34918
| 27>    S        3.10649         2.14056        -5.70168
| 28>    C        2.39394         3.11569        -6.93947
| 29>    C        1.21070         3.66286        -6.58469
| 30>    C       -1.59029         3.40957        -2.34688
| 31>    O       -2.57879         4.09646        -2.54977
| 32>    C       -1.27805         2.63874        -1.13800
| 33>    C       -2.10485         2.48612        -0.05559
| 34>    C       -3.37988         3.01809         0.19482
| 35>    C       -4.10471         2.68214         1.34516
| 36>    C       -5.34062         3.29747         1.39216
| 37>    C       -5.56389         4.13164         0.27045
| 38>    S       -4.26965         4.13910        -0.83585
| 39>    C       -6.85347         4.70052         0.40222
| 40>    C       -7.44634         4.23172         1.58876
| 41>    C       -6.51243         3.33909         2.25483
| 42>    C       -6.70145         2.67998         3.43330
| 43>    C       -5.72081         1.82826         3.98538
| 44>    N       -4.93155         1.13191         4.43955
| 45>    C       -7.89134         2.80212         4.18253
| 46>    N       -8.85316         2.89458         4.79967
| 47>    C       -8.73421         4.72654         1.78690
| 48>    C       -9.12857         5.57300         0.76739
| 49>    S       -7.87801         5.76024        -0.45626
| 50>    C      -10.38406         6.24400         0.62291
| 51>    C      -10.62837         7.14750        -0.40440
| 52>    C      -11.85062         7.78361        -0.57588
| 53>    C      -12.94019         7.56424         0.25838
| 54>    C      -12.73311         6.65761         1.33331
| 55>    C      -11.46270         6.00687         1.51763
| 56>    N      -11.47394         5.19944         2.57725
| 57>    S      -12.91889         5.25216         3.27175
| 58>    N      -13.60973         6.29721         2.26965
| 59>    C      -14.20611         8.19528         0.04378
| 60>    C      -15.38907         7.96816         0.72239
| 61>    C      -16.43662         8.74053         0.22443
| 62>    C      -16.04769         9.57319        -0.84025
| 63>    S      -14.39689         9.39456        -1.22921
| 64>    C      -17.17823        10.30285        -1.28414
| 65>    C      -18.28557         9.92471        -0.49825
| 66>    C      -17.85783         8.92693         0.46762
| 67>    C      -18.64273         8.27824         1.37477
| 68>    C      -18.13116         7.30862         2.26309
| 69>    N      -17.72094         6.52363         2.99085
| 70>    C      -20.02523         8.54415         1.47081
| 71>    N      -21.14675         8.77312         1.54002
| 72>    C      -19.46180        10.55416        -0.88328
| 73>    C      -19.27183        11.41156        -1.95694
| 74>    S      -17.58787        11.45419        -2.46751
| 75>    C      -20.21671        12.23070        -2.61422
| 76>    C      -21.57282        12.11758        -2.62798
| 77>    C      -22.48651        11.05823        -2.25161
| 78>    C      -22.24868         9.70890        -2.30666
| 79>    C      -23.23212         8.72631        -2.06626
| 80>    N      -23.99211         7.88524        -1.88835
| 81>    C      -21.02694         9.13735        -2.71028
| 82>    N      -20.06217         8.62263        -3.06147
| 83>    C      -23.80086        11.66555        -2.07686
| 84>    C      -23.75788        12.99684        -2.56721
| 85>    C      -22.38867        13.30654        -3.01193
| 86>    O      -21.98052        14.31874        -3.53393
| 87>    C      -24.86394        13.81258        -2.57600
| 88>    C      -26.06017        13.29675        -2.06794
| 89>    C      -26.08609        11.97360        -1.56325
| 90>    C      -24.97073        11.14399        -1.56104
| 91>    S      -27.66324        11.55587        -0.97486
| 92>    C      -28.26487        13.11895        -1.40587
| 93>    C      -27.33347        13.92405        -1.96217
| 94>    H       -1.08178         4.31166        -4.99531
| 95>    H        2.37797         1.33658        -2.92434
| 96>    H        2.91370         3.22039        -7.87197
| 97>    H        0.62409         4.29683        -7.22462
| 98>    H       -1.75562         1.84101         0.74169
| 99>    H       -3.71599         2.00988         2.08970
|100>    H       -9.37643         4.49673         2.61698
|101>    H       -9.83350         7.36212        -1.10386
|102>    H      -11.96235         8.47030        -1.40247
|103>    H      -15.45548         7.26587         1.53282
|104>    H      -20.40968        10.43525        -0.39072
|105>    H      -19.82477        13.10330        -3.12807
|106>    H      -24.80740        14.81800        -2.96330
|107>    H      -25.03234        10.14670        -1.15768
|108>    H      -29.29601        13.34232        -1.21205
|109>    H      -27.52516        14.92928        -2.29120
|110> *
|111>
|112>                          ****END OF INPUT****

CARTESIAN COORDINATES (ANGSTROEM)
---------------------------------
  C      0.023130    2.017690   -1.317000
  C      0.724180    1.279390   -0.399160
  C      1.992390    0.711410   -0.644500
  N      3.022420    0.222750   -0.778780
  C      0.309130    0.991940    0.918170
  N      0.050970    0.722160    2.004320
  C      0.482870    2.346230   -2.662300
  C     -0.478360    3.186770   -3.279500
  C     -0.331350    3.672530   -4.556450
  C      0.818210    3.308250   -5.263460
  C      1.771220    2.465170   -4.642710
  C      1.623450    1.977020   -3.349180
  S      3.106490    2.140560   -5.701680
  C      2.393940    3.115690   -6.939470
  C      1.210700    3.662860   -6.584690
  C     -1.590290    3.409570   -2.346880
  O     -2.578790    4.096460   -2.549770
  C     -1.278050    2.638740   -1.138000
  C     -2.104850    2.486120   -0.055590
  C     -3.379880    3.018090    0.194820
  C     -4.104710    2.682140    1.345160
  C     -5.340620    3.297470    1.392160
  C     -5.563890    4.131640    0.270450
  S     -4.269650    4.139100   -0.835850
  C     -6.853470    4.700520    0.402220
  C     -7.446340    4.231720    1.588760
  C     -6.512430    3.339090    2.254830
  C     -6.701450    2.679980    3.433300
  C     -5.720810    1.828260    3.985380
  N     -4.931550    1.131910    4.439550
  C     -7.891340    2.802120    4.182530
  N     -8.853160    2.894580    4.799670
  C     -8.734210    4.726540    1.786900
  C     -9.128570    5.573000    0.767390
  S     -7.878010    5.760240   -0.456260
  C    -10.384060    6.244000    0.622910
  C    -10.628370    7.147500   -0.404400
  C    -11.850620    7.783610   -0.575880
  C    -12.940190    7.564240    0.258380
  C    -12.733110    6.657610    1.333310
  C    -11.462700    6.006870    1.517630
  N    -11.473940    5.199440    2.577250
  S    -12.918890    5.252160    3.271750
  N    -13.609730    6.297210    2.269650
  C    -14.206110    8.195280    0.043780
  C    -15.389070    7.968160    0.722390
  C    -16.436620    8.740530    0.224430
  C    -16.047690    9.573190   -0.840250
  S    -14.396890    9.394560   -1.229210
  C    -17.178230   10.302850   -1.284140
  C    -18.285570    9.924710   -0.498250
  C    -17.857830    8.926930    0.467620
  C    -18.642730    8.278240    1.374770
  C    -18.131160    7.308620    2.263090
  N    -17.720940    6.523630    2.990850
  C    -20.025230    8.544150    1.470810
  N    -21.146750    8.773120    1.540020
  C    -19.461800   10.554160   -0.883280
  C    -19.271830   11.411560   -1.956940
  S    -17.587870   11.454190   -2.467510
  C    -20.216710   12.230700   -2.614220
  C    -21.572820   12.117580   -2.627980
  C    -22.486510   11.058230   -2.251610
  C    -22.248680    9.708900   -2.306660
  C    -23.232120    8.726310   -2.066260
  N    -23.992110    7.885240   -1.888350
  C    -21.026940    9.137350   -2.710280
  N    -20.062170    8.622630   -3.061470
  C    -23.800860   11.665550   -2.076860
  C    -23.757880   12.996840   -2.567210
  C    -22.388670   13.306540   -3.011930
  O    -21.980520   14.318740   -3.533930
  C    -24.863940   13.812580   -2.576000
  C    -26.060170   13.296750   -2.067940
  C    -26.086090   11.973600   -1.563250
  C    -24.970730   11.143990   -1.561040
  S    -27.663240   11.555870   -0.974860
  C    -28.264870   13.118950   -1.405870
  C    -27.333470   13.924050   -1.962170
  H     -1.081780    4.311660   -4.995310
  H      2.377970    1.336580   -2.924340
  H      2.913700    3.220390   -7.871970
  H      0.624090    4.296830   -7.224620
  H     -1.755620    1.841010    0.741690
  H     -3.715990    2.009880    2.089700
  H     -9.376430    4.496730    2.616980
  H     -9.833500    7.362120   -1.103860
  H    -11.962350    8.470300   -1.402470
  H    -15.455480    7.265870    1.532820
  H    -20.409680   10.435250   -0.390720
  H    -19.824770   13.103300   -3.128070
  H    -24.807400   14.818000   -2.963300
  H    -25.032340   10.146700   -1.157680
  H    -29.296010   13.342320   -1.212050
  H    -27.525160   14.929280   -2.291200

 Total Charge           Charge          ....    0
 Multiplicity           Mult            ....    1
 Number of Electrons    NEL             ....  574
 Basis Dimension        Dim             .... 1214

ORBITAL ENERGIES
----------------

  NO   OCC          E(Eh)            E(eV)
   0   2.0000     -89.038832     -2422.8698
   1   2.0000     -88.997263     -2421.7387
   2   2.0000     -88.994921     -2421.6749
   3   2.0000     -88.994017     -2421.6503
   4   2.0000     -88.991050     -2421.5696
   5   2.0000     -88.969544     -2420.9844
   6   2.0000     -88.966882     -2420.9119
   7   2.0000     -19.226648      -523.1837
   8   2.0000     -19.215867      -522.8903
   9   2.0000     -14.452486      -393.2721
  10   2.0000     -14.452341      -393.2682
  11   2.0000     -14.433637      -392.7592
  12   2.0000     -14.431317      -392.6961
  13   2.0000     -14.430111      -392.6633
  14   2.0000     -14.429990      -392.6600
  15   2.0000     -14.418086      -392.3361
  16   2.0000     -14.417484      -392.3197
  17   2.0000     -14.415066      -392.2539
  18   2.0000     -14.413837      -392.2204
  19   2.0000     -10.374116      -282.2940
  20   2.0000     -10.368045      -282.1288
  21   2.0000     -10.367064      -282.1022
  22   2.0000     -10.366115      -282.0763
  23   2.0000     -10.354696      -281.7656
  24   2.0000     -10.353743      -281.7397
  25   2.0000     -10.344215      -281.4804
  26   2.0000     -10.343945      -281.4730
  27   2.0000     -10.343586      -281.4633
  28   2.0000     -10.343489      -281.4606
  29   2.0000     -10.342838      -281.4429
  30   2.0000     -10.340632      -281.3829
  31   2.0000     -10.340366      -281.3757
  32   2.0000     -10.337957      -281.3101
  33   2.0000     -10.335817      -281.2519
  34   2.0000     -10.335050      -281.2310
  35   2.0000     -10.333825      -281.1977
  36   2.0000     -10.331477      -281.1338
  37   2.0000     -10.331184      -281.1258
  38   2.0000     -10.330490      -281.1069
  39   2.0000     -10.329997      -281.0935
  40   2.0000     -10.329816      -281.0886
  41   2.0000     -10.328946      -281.0649
  42   2.0000     -10.328251      -281.0460
  43   2.0000     -10.327808      -281.0339
  44   2.0000     -10.325585      -280.9734
  45   2.0000     -10.323328      -280.9120
  46   2.0000     -10.321069      -280.8506
  47   2.0000     -10.320654      -280.8393
  48   2.0000     -10.320008      -280.8217
  49   2.0000     -10.319942      -280.8199
  50   2.0000     -10.319657      -280.8122
  51   2.0000     -10.318095      -280.7696
  52   2.0000     -10.316862      -280.7361
  53   2.0000     -10.316304      -280.7209
  54   2.0000     -10.314198      -280.6636
  55   2.0000     -10.313966      -280.6573
  56   2.0000     -10.312980      -280.6305
  57   2.0000     -10.309350      -280.5317
  58   2.0000     -10.308994      -280.5220
  59   2.0000     -10.308647      -280.5125
  60   2.0000     -10.308525      -280.5092
  61   2.0000     -10.307961      -280.4939
  62   2.0000     -10.307437      -280.4796
  63   2.0000     -10.307406      -280.4788
  64   2.0000     -10.306505      -280.4543
  65   2.0000     -10.305626      -280.4303
  66   2.0000     -10.304585      -280.4020
  67   2.0000     -10.303399      -280.3697
  68   2.0000     -10.302887      -280.3558
  69   2.0000     -10.302009      -280.3319
  70   2.0000     -10.301330      -280.3134
  71   2.0000     -10.300763      -280.2980
  72   2.0000     -10.299879      -280.2740
  73   2.0000     -10.299147      -280.2540
  74   2.0000     -10.298639      -280.2402
  75   2.0000     -10.293770      -280.1077
  76   2.0000     -10.292016      -280.0600
  77   2.0000     -10.291745      -280.0526
  78   2.0000     -10.289240      -279.9845
  79   2.0000      -8.130366      -221.2385
  80   2.0000      -8.092007      -220.1947
  81   2.0000      -8.089408      -220.1240
  82   2.0000      -8.088487      -220.0989
  83   2.0000      -8.083218      -219.9556
  84   2.0000      -8.065761      -219.4805
  85   2.0000      -8.063051      -219.4068
  86   2.0000      -6.101611      -166.0333
  87   2.0000      -6.093641      -165.8164
  88   2.0000      -6.092876      -165.7956
  89   2.0000      -6.061149      -164.9322
  90   2.0000      -6.058639      -164.8639
  91   2.0000      -6.057694      -164.8382
  92   2.0000      -6.057013      -164.8197
  93   2.0000      -6.054497      -164.7512
  94   2.0000      -6.054487      -164.7510
  95   2.0000      -6.053546      -164.7254
  96   2.0000      -6.052645      -164.7008
  97   2.0000      -6.051825      -164.6785
  98   2.0000      -6.050964      -164.6551
  99   2.0000      -6.047884      -164.5713
 100   2.0000      -6.045821      -164.5152
 101   2.0000      -6.035258      -164.2277
 102   2.0000      -6.032542      -164.1538
 103   2.0000      -6.030951      -164.1105
 104   2.0000      -6.028263      -164.0374
 105   2.0000      -6.027469      -164.0158
 106   2.0000      -6.024780      -163.9426
 107   2.0000      -1.141827       -31.0707
 108   2.0000      -1.139887       -31.0179
 109   2.0000      -1.131128       -30.7796
 110   2.0000      -1.050527       -28.5863
 111   2.0000      -1.047747       -28.5106
 112   2.0000      -1.024755       -27.8850
 113   2.0000      -1.022525       -27.8243
 114   2.0000      -1.022117       -27.8132
 115   2.0000      -1.021573       -27.7984
 116   2.0000      -1.010626       -27.5005
 117   2.0000      -1.010499       -27.4971
 118   2.0000      -1.009054       -27.4577
 119   2.0000      -1.007811       -27.4239
 120   2.0000      -1.006628       -27.3917
 121   2.0000      -1.005229       -27.3537
 122   2.0000      -0.994917       -27.0731
 123   2.0000      -0.994182       -27.0531
 124   2.0000      -0.991685       -26.9851
 125   2.0000      -0.988031       -26.8857
 126   2.0000      -0.985876       -26.8271
 127   2.0000      -0.980604       -26.6836
 128   2.0000      -0.963241       -26.2111
 129   2.0000      -0.957474       -26.0542
 130   2.0000      -0.934406       -25.4265
 131   2.0000      -0.933342       -25.3975
 132   2.0000      -0.923225       -25.1222
 133   2.0000      -0.918263       -24.9872
 134   2.0000      -0.904125       -24.6025
 135   2.0000      -0.899411       -24.4742
 136   2.0000      -0.886106       -24.1122
 137   2.0000      -0.883943       -24.0533
 138   2.0000      -0.881861       -23.9967
 139   2.0000      -0.881355       -23.9829
 140   2.0000      -0.877635       -23.8817
 141   2.0000      -0.875500       -23.8236
 142   2.0000      -0.865729       -23.5577
 143   2.0000      -0.859878       -23.3985
 144   2.0000      -0.856942       -23.3186
 145   2.0000      -0.855400       -23.2766
 146   2.0000      -0.826147       -22.4806
 147   2.0000      -0.823624       -22.4120
 148   2.0000      -0.819812       -22.3082
 149   2.0000      -0.805973       -21.9316
 150   2.0000      -0.792352       -21.5610
 151   2.0000      -0.781101       -21.2548
 152   2.0000      -0.779398       -21.2085
 153   2.0000      -0.769237       -20.9320
 154   2.0000      -0.762536       -20.7497
 155   2.0000      -0.758586       -20.6422
 156   2.0000      -0.753055       -20.4917
 157   2.0000      -0.736242       -20.0342
 158   2.0000      -0.728204       -19.8154
 159   2.0000      -0.723286       -19.6816
 160   2.0000      -0.713542       -19.4165
 161   2.0000      -0.703526       -19.1439
 162   2.0000      -0.700910       -19.0727
 163   2.0000      -0.694851       -18.9078
 164   2.0000      -0.692451       -18.8426
 165   2.0000      -0.689253       -18.7555
 166   2.0000      -0.686391       -18.6777
 167   2.0000      -0.685365       -18.6497
 168   2.0000      -0.679179       -18.4814
 169   2.0000      -0.670504       -18.2453
 170   2.0000      -0.664264       -18.0755
 171   2.0000      -0.662127       -18.0174
 172   2.0000      -0.652095       -17.7444
 173   2.0000      -0.647412       -17.6170
 174   2.0000      -0.645392       -17.5620
 175   2.0000      -0.635506       -17.2930
 176   2.0000      -0.631822       -17.1928
 177   2.0000      -0.625869       -17.0308
 178   2.0000      -0.620786       -16.8924
 179   2.0000      -0.620476       -16.8840
 180   2.0000      -0.617875       -16.8132
 181   2.0000      -0.612409       -16.6645
 182   2.0000      -0.610082       -16.6012
 183   2.0000      -0.605705       -16.4821
 184   2.0000      -0.599044       -16.3008
 185   2.0000      -0.597541       -16.2599
 186   2.0000      -0.587660       -15.9910
 187   2.0000      -0.587228       -15.9793
 188   2.0000      -0.576795       -15.6954
 189   2.0000      -0.572925       -15.5901
 190   2.0000      -0.565410       -15.3856
 191   2.0000      -0.563957       -15.3461
 192   2.0000      -0.557210       -15.1625
 193   2.0000      -0.552318       -15.0293
 194   2.0000      -0.550739       -14.9864
 195   2.0000      -0.549165       -14.9435
 196   2.0000      -0.546918       -14.8824
 197   2.0000      -0.543507       -14.7896
 198   2.0000      -0.542486       -14.7618
 199   2.0000      -0.540168       -14.6987
 200   2.0000      -0.538368       -14.6497
 201   2.0000      -0.534090       -14.5333
 202   2.0000      -0.531805       -14.4711
 203   2.0000      -0.525150       -14.2901
 204   2.0000      -0.524439       -14.2707
 205   2.0000      -0.521540       -14.1918
 206   2.0000      -0.516360       -14.0509
 207   2.0000      -0.513011       -13.9598
 208   2.0000      -0.509109       -13.8536
 209   2.0000      -0.507713       -13.8156
 210   2.0000      -0.507188       -13.8013
 211   2.0000      -0.504970       -13.7409
 212   2.0000      -0.503930       -13.7126
 213   2.0000      -0.501759       -13.6536
 214   2.0000      -0.500225       -13.6118
 215   2.0000      -0.498289       -13.5591
 216   2.0000      -0.497074       -13.5261
 217   2.0000      -0.494981       -13.4691
 218   2.0000      -0.493907       -13.4399
 219   2.0000      -0.492363       -13.3979
 220   2.0000      -0.490104       -13.3364
 221   2.0000      -0.488146       -13.2831
 222   2.0000      -0.487347       -13.2614
 223   2.0000      -0.485188       -13.2026
 224   2.0000      -0.482949       -13.1417
 225   2.0000      -0.477203       -12.9854
 226   2.0000      -0.476306       -12.9609
 227   2.0000      -0.474354       -12.9078
 228   2.0000      -0.468540       -12.7496
 229   2.0000      -0.464548       -12.6410
 230   2.0000      -0.463493       -12.6123
 231   2.0000      -0.460574       -12.5329
 232   2.0000      -0.459882       -12.5140
 233   2.0000      -0.458003       -12.4629
 234   2.0000      -0.457048       -12.4369
 235   2.0000      -0.454854       -12.3772
 236   2.0000      -0.454232       -12.3603
 237   2.0000      -0.450426       -12.2567
 238   2.0000      -0.449477       -12.2309
 239   2.0000      -0.448898       -12.2151
 240   2.0000      -0.447385       -12.1740
 241   2.0000      -0.443936       -12.0801
 242   2.0000      -0.442480       -12.0405
 243   2.0000      -0.441969       -12.0266
 244   2.0000      -0.441794       -12.0218
 245   2.0000      -0.440387       -11.9836
 246   2.0000      -0.439950       -11.9717
 247   2.0000      -0.439488       -11.9591
 248   2.0000      -0.438796       -11.9402
 249   2.0000      -0.437079       -11.8935
 250   2.0000      -0.434502       -11.8234
 251   2.0000      -0.432768       -11.7762
 252   2.0000      -0.432722       -11.7750
 253   2.0000      -0.428718       -11.6660
 254   2.0000      -0.428238       -11.6529
 255   2.0000      -0.426786       -11.6134
 256   2.0000      -0.426565       -11.6074
 257   2.0000      -0.425137       -11.5686
 258   2.0000      -0.420535       -11.4433
 259   2.0000      -0.417372       -11.3573
 260   2.0000      -0.417084       -11.3494
 261   2.0000      -0.410074       -11.1587
 262   2.0000      -0.408124       -11.1056
 263   2.0000      -0.407805       -11.0969
 264   2.0000      -0.405829       -11.0432
 265   2.0000      -0.403852       -10.9894
 266   2.0000      -0.388038       -10.5591
 267   2.0000      -0.382810       -10.4168
 268   2.0000      -0.379165       -10.3176
 269   2.0000      -0.376819       -10.2538
 270   2.0000      -0.371467       -10.1081
 271   2.0000      -0.357712        -9.7338
 272   2.0000      -0.354569        -9.6483
 273   2.0000      -0.351785        -9.5725
 274   2.0000      -0.348911        -9.4944
 275   2.0000      -0.343081        -9.3357
 276   2.0000      -0.342120        -9.3095
 277   2.0000      -0.335446        -9.1280
 278   2.0000      -0.326492        -8.8843
 279   2.0000      -0.323918        -8.8143
 280   2.0000      -0.317040        -8.6271
 281   2.0000      -0.314321        -8.5531
 282   2.0000      -0.309762        -8.4291
 283   2.0000      -0.297325        -8.0906
 284   2.0000      -0.295277        -8.0349
 285   2.0000      -0.276567        -7.5258
 286   2.0000      -0.251193        -6.8353
 287   0.0000      -0.118743        -3.2312
 288   0.0000      -0.109251        -2.9729
 289   0.0000      -0.090078        -2.4512
 290   0.0000      -0.087830        -2.3900
 291   0.0000      -0.079604        -2.1661

MULLIKEN ATOMIC CHARGES
-----------------------
   0 C :    0.326174
   1 C :   -0.356170
   2 C :   -0.186167
   3 N :    0.152061
   4 C :   -0.190965
   5 N :    0.153444
   6 C :    0.016400
   7 C :   -0.011960
   8 C :   -0.071343
   9 C :    0.119097
  10 C :   -0.096350
  11 C :   -0.025683
  12 S :    0.144024
  13 C :   -0.047876
  14 C :    0.021780
  15 C :    0.165341
  16 O :   -0.194284
  17 C :   -0.088127
  18 C :   -0.032427
  19 C :   -0.054667
  20 C :   -0.061800
  21 C :    0.048364
  22 C :   -0.068520
  23 S :    0.240979
  24 C :   -0.095347
  25 C :    0.032878
  26 C :    0.308459
  27 C :   -0.299071
  28 C :   -0.195307
  29 N :    0.182896
  30 C :   -0.186275
  31 N :    0.176603
  32 C :   -0.055594
  33 C :   -0.109119
  34 S :    0.169709
  35 C :    0.147562
  36 C :   -0.065772
  37 C :   -0.068328
  38 C :    0.153596
  39 C :    0.010800
  40 C :    0.010140
  41 N :   -0.283902
  42 S :    0.556985
  43 N :   -0.285663
  44 C :   -0.110976
  45 C :   -0.056521
  46 C :    0.033534
  47 C :   -0.093528
  48 S :    0.168059
  49 C :   -0.072119
  50 C :   -0.004262
  51 C :    0.307740
  52 C :   -0.288167
  53 C :   -0.185207
  54 N :    0.177150
  55 C :   -0.186185
  56 N :    0.169509
  57 C :    0.000145
  58 C :   -0.115938
  59 S :    0.212971
  60 C :    0.077986
  61 C :   -0.133470
  62 C :    0.270580
  63 C :   -0.334504
  64 C :   -0.173468
  65 N :    0.159760
  66 C :   -0.197806
  67 N :    0.164771
  68 C :   -0.004696
  69 C :    0.002713
  70 C :    0.132867
  71 O :   -0.145685
  72 C :   -0.065137
  73 C :    0.107218
  74 C :   -0.095892
  75 C :   -0.014937
  76 S :    0.144461
  77 C :   -0.050854
  78 C :    0.028709
  79 H :   -0.013429
  80 H :   -0.006393
  81 H :    0.039272
  82 H :   -0.006289
  83 H :    0.016773
  84 H :    0.028276
  85 H :    0.024514
  86 H :   -0.005888
  87 H :   -0.006149
  88 H :    0.025052
  89 H :    0.025839
  90 H :    0.021406
  91 H :   -0.011914
  92 H :    0.001393
  93 H :    0.039383
  94 H :   -0.007238
Sum of atomic charges:   -0.0000000

LOEWDIN ATOMIC CHARGES
----------------------
   0 C :    0.076665
   1 C :   -0.141361
   2 C :   -0.017996
   3 N :   -0.052962
   4 C :   -0.023405
   5 N :   -0.047854
   6 C :   -0.020927
   7 C :   -0.054286
   8 C :    0.023366
   9 C :   -0.035631
  10 C :   -0.145151
  11 C :   -0.007749
  12 S :    0.432928
  13 C :   -0.148978
  14 C :   -0.058175
  15 C :    0.086499
  16 O :   -0.178200
  17 C :   -0.110694
  18 C :    0.055434
  19 C :   -0.184159
  20 C :    0.011742
  21 C :   -0.076895
  22 C :   -0.167650
  23 S :    0.546542
  24 C :   -0.184206
  25 C :   -0.057069
  26 C :    0.077165
  27 C :   -0.098367
  28 C :   -0.019843
  29 N :   -0.024654
  30 C :   -0.017352
  31 N :   -0.028463
  32 C :   -0.020434
  33 C :   -0.149812
  34 S :    0.476848
  35 C :   -0.042322
  36 C :   -0.018699
  37 C :   -0.020899
  38 C :   -0.039212
  39 C :   -0.037446
  40 C :   -0.037108
  41 N :   -0.274411
  42 S :    0.676905
  43 N :   -0.274276
  44 C :   -0.153779
  45 C :   -0.017031
  46 C :   -0.060300
  47 C :   -0.180279
  48 S :    0.476432
  49 C :   -0.160234
  50 C :   -0.064631
  51 C :    0.081758
  52 C :   -0.095430
  53 C :   -0.017366
  54 N :   -0.026126
  55 C :   -0.013081
  56 N :   -0.032407
  57 C :    0.006882
  58 C :   -0.181128
  59 S :    0.498231
  60 C :    0.040502
  61 C :   -0.088837
  62 C :    0.066392
  63 C :   -0.137820
  64 C :   -0.019416
  65 N :   -0.046400
  66 C :   -0.015562
  67 N :   -0.049160
  68 C :   -0.019372
  69 C :   -0.056348
  70 C :    0.083364
  71 O :   -0.145539
  72 C :    0.024387
  73 C :   -0.035650
  74 C :   -0.144284
  75 C :   -0.007885
  76 S :    0.432643
  77 C :   -0.149366
  78 C :   -0.057622
  79 H :    0.039800
  80 H :    0.041172
  81 H :    0.029773
  82 H :    0.035204
  83 H :    0.053702
  84 H :    0.048128
  85 H :    0.039928
  86 H :    0.026500
  87 H :    0.026159
  88 H :    0.040146
  89 H :    0.042804
  90 H :    0.045721
  91 H :    0.040646
  92 H :    0.042519
  93 H :    0.029608
  94 H :    0.035200

  Mayer bond orders larger than 0.100000
B(  0-C ,  1-C ) :   1.6254 B(  0-C ,  6-C ) :   0.9997 B(  0-C , 17-C ) :   1.0747
B(  1-C ,  2-C ) :   1.1470 B(  1-C ,  4-C ) :   1.1446 B(  2-C ,  3-N ) :   2.9687
B(  4-C ,  5-N ) :   2.9633 B(  6-C ,  7-C ) :   1.2672 B(  6-C , 11-C ) :   1.4156
B(  7-C ,  8-C ) :   1.4196 B(  7-C , 15-C ) :   0.9671 B(  8-C ,  9-C ) :   1.2435
B(  8-C , 79-H ) :   1.0177 B(  9-C , 10-C ) :   1.3005 B(  9-C , 14-C ) :   1.1715
B( 10-C , 11-C ) :   1.3197 B( 10-C , 12-S ) :   1.1021 B( 11-C , 80-H ) :   0.9828
B( 12-S , 13-C ) :   1.1278 B( 13-C , 14-C ) :   1.6266 B( 13-C , 81-H ) :   0.9690
B( 14-C , 82-H ) :   1.0002 B( 15-C , 16-O ) :   2.1044 B( 15-C , 17-C ) :   0.9834
B( 17-C , 18-C ) :   1.4948 B( 18-C , 19-C ) :   1.2656 B( 18-C , 83-H ) :   0.9411
B( 19-C , 20-C ) :   1.3276 B( 19-C , 23-S ) :   1.0702 B( 20-C , 21-C ) :   1.3316
B( 20-C , 84-H ) :   1.0090 B( 21-C , 22-C ) :   1.3569 B( 21-C , 26-C ) :   0.9821
B( 22-C , 23-S ) :   1.1234 B( 22-C , 24-C ) :   1.1991 B( 24-C , 25-C ) :   1.4298
B( 24-C , 34-S ) :   1.1190 B( 25-C , 26-C ) :   0.9975 B( 25-C , 32-C ) :   1.2464
B( 26-C , 27-C ) :   1.7164 B( 27-C , 28-C ) :   1.1347 B( 27-C , 30-C ) :   1.1364
B( 28-C , 29-N ) :   2.9945 B( 30-C , 31-N ) :   2.9867 B( 32-C , 33-C ) :   1.4758
B( 32-C , 85-H ) :   0.9822 B( 33-C , 34-S ) :   1.0981 B( 33-C , 35-C ) :   1.1235
B( 35-C , 36-C ) :   1.4277 B( 35-C , 38-C ) :   0.1182 B( 35-C , 40-C ) :   1.1898
B( 36-C , 37-C ) :   1.2730 B( 36-C , 86-H ) :   0.9844 B( 37-C , 38-C ) :   1.4281
B( 37-C , 87-H ) :   0.9848 B( 38-C , 39-C ) :   1.1896 B( 38-C , 44-C ) :   1.1232
B( 39-C , 40-C ) :   1.1649 B( 39-C , 43-N ) :   1.5223 B( 40-C , 41-N ) :   1.5254
B( 41-N , 42-S ) :   1.2689 B( 41-N , 43-N ) :   0.1434 B( 42-S , 43-N ) :   1.2702
B( 44-C , 45-C ) :   1.4781 B( 44-C , 48-S ) :   1.0951 B( 45-C , 46-C ) :   1.2477
B( 45-C , 88-H ) :   0.9829 B( 46-C , 47-C ) :   1.4362 B( 46-C , 51-C ) :   0.9942
B( 47-C , 48-S ) :   1.1219 B( 47-C , 49-C ) :   1.1922 B( 49-C , 50-C ) :   1.4142
B( 49-C , 59-S ) :   1.1512 B( 50-C , 51-C ) :   0.9955 B( 50-C , 57-C ) :   1.3554
B( 51-C , 52-C ) :   1.7191 B( 52-C , 53-C ) :   1.1343 B( 52-C , 55-C ) :   1.1337
B( 53-C , 54-N ) :   2.9878 B( 55-C , 56-N ) :   2.9822 B( 57-C , 58-C ) :   1.4023
B( 57-C , 89-H ) :   0.9812 B( 58-C , 59-S ) :   1.0899 B( 58-C , 60-C ) :   1.1249
B( 60-C , 61-C ) :   1.6818 B( 60-C , 90-H ) :   0.9293 B( 61-C , 62-C ) :   1.0333
B( 61-C , 70-C ) :   0.9407 B( 62-C , 63-C ) :   1.6481 B( 62-C , 68-C ) :   1.0116
B( 63-C , 64-C ) :   1.1272 B( 63-C , 66-C ) :   1.1721 B( 64-C , 65-N ) :   2.9941
B( 66-C , 67-N ) :   2.9970 B( 68-C , 69-C ) :   1.2689 B( 68-C , 75-C ) :   1.4184
B( 69-C , 70-C ) :   0.9249 B( 69-C , 72-C ) :   1.4265 B( 70-C , 71-O ) :   2.2639
B( 72-C , 73-C ) :   1.2523 B( 72-C , 91-H ) :   1.0153 B( 73-C , 74-C ) :   1.3024
B( 73-C , 78-C ) :   1.1738 B( 74-C , 75-C ) :   1.3210 B( 74-C , 76-S ) :   1.0995
B( 75-C , 92-H ) :   0.9850 B( 76-S , 77-C ) :   1.1279 B( 77-C , 78-C ) :   1.6296
B( 77-C , 93-H ) :   0.9679 B( 78-C , 94-H ) :   0.9985

-----------------------------------------------------------------------------
         ABSORPTION SPECTRUM VIA TRANSITION ELECTRIC DIPOLE MOMENTS
-----------------------------------------------------------------------------
State   Energy  Wavelength   fosc         T2         TX        TY        TZ
        (cm-1)    (nm)                  (au**2)     (au)      (au)      (au)
-----------------------------------------------------------------------------
   0   12913.1    774.4   0.882330128  22.49441   4.34449  -1.87253   0.33680
   1   14228.8    702.8   0.125448285   2.90250   1.50003  -0.50938  -0.62684
   2   18645.5    536.3   1.487222486  26.25890   4.77235  -1.84189   0.30174
   3   21006.2    476.0   0.163275697   2.55888   0.58168  -0.53941  -1.38909
   4   21638.8    462.1   0.008385997   0.12758   0.05396  -0.07147  -0.34578
   5   22811.7    438.4   0.236462914   3.41257   1.57928  -0.07918  -0.95507
   6   23575.1    424.2   0.048374943   0.67553  -0.79510  -0.01968   0.20726
   7   25594.9    390.7   0.034560884   0.44454  -0.46749   0.42914   0.20451
   8   26166.8    382.2   0.005637132   0.07092   0.25538  -0.06985   0.02868
   9   27093.1    369.1   0.169037833   2.05400   0.44287   0.32992  -1.32250
  10   27662.8    361.5   0.029780450   0.35441  -0.49999   0.20835   0.24701
  11   28076.4    356.2   0.095896948   1.12445   1.00447  -0.13235  -0.31301
  12   28538.0    350.4   0.109649645   1.26491  -0.41962   0.70372  -0.77046
  13   28913.3    345.9   0.085229764   0.97044  -0.80976   0.53705   0.16219
  14   28981.5    345.0   0.007862242   0.08931  -0.02820   0.01281  -0.29724
  15   29317.3    341.1   0.034981643   0.39282  -0.11813  -0.19109   0.58510
  16   29374.8    340.4   0.091516079   1.02565   0.21277  -0.91117   0.38748
  17   29973.6    333.6   0.115028710   1.26341   1.05733  -0.07846  -0.37323
  18   30044.7    332.8   0.257574266   2.82234  -0.34080  -0.88154   1.38891
  19   30216.0    331.0   0.092738283   1.01041   0.80589  -0.58173   0.15016
  20   30485.4    328.0   0.470210382   5.07780  -1.98269   0.37841   1.00176
  21   30802.1    324.7   0.064160932   0.68575  -0.61893  -0.05812  -0.54708
  22   30879.3    323.8   0.168236850   1.79361  -0.33987   1.03338  -0.78117
  23   32028.8    312.2   0.187213313   1.92429   0.91989   0.18560  -1.02160
  24   32173.8    310.8   0.310709332   3.17927   1.48402  -0.24497  -0.95757
  25   32220.4    310.4   0.540642013   5.52401   1.28827  -1.14555   1.59752
  26   32621.5    306.5   0.007041229   0.07106   0.01379  -0.17386   0.20160
  27   33050.4    302.6   0.347800845   3.46442   1.05867   0.24549  -1.51108
  28   33643.5    297.2   0.242333170   2.37131   1.14260  -1.00945   0.21630
  29   33856.0    295.4   0.029412943   0.28601  -0.13047  -0.16978  -0.49006
  30   33907.6    294.9   0.089381083   0.86781  -0.75681   0.53640  -0.08554
  31   33980.0    294.3   0.008223801   0.07968  -0.08171   0.17152   0.20876
  32   34299.8    291.5   0.073012756   0.70078   0.79125  -0.06873  -0.26453
  33   34543.1    289.5   0.308595427   2.94106   0.56858   0.64217  -1.48506
  34   34629.9    288.8   0.270079663   2.56753   1.09779  -1.16604   0.05235
  35   34801.5    287.3   0.011150343   0.10548   0.01171  -0.31469   0.07945
  36   34961.6    286.0   0.125528069   1.18202   0.40667   0.59721  -0.81239
  37   35235.5    283.8   0.025460072   0.23788  -0.30154   0.24384  -0.29579
  38   35372.3    282.7   0.310999972   2.89450  -0.29403  -0.95321   1.37820
  39   35617.7    280.8   0.058718467   0.54273   0.31994  -0.23769   0.61958
  40   35699.1    280.1   0.103423351   0.95376  -0.87884   0.28482   0.31666
  41   35997.8    277.8   0.020702159   0.18933   0.14303  -0.17695   0.37089
  42   36228.0    276.0   0.084294895   0.76601  -0.05074  -0.53155   0.69346
  43   36339.1    275.2   0.058511884   0.53008   0.11380   0.23384  -0.68004
  44   36589.9    273.3   0.051603444   0.46429   0.62715  -0.26632   0.00661
  45   37151.6    269.2   0.172236244   1.52624   0.98097  -0.74808   0.06567
  46   37413.5    267.3   0.039939004   0.35143  -0.37353   0.39771  -0.23181
  47   37707.8    265.2   0.038187239   0.33340  -0.33556   0.43203  -0.18480
  48   37766.0    264.8   0.044011802   0.38366  -0.53234  -0.27570   0.15578
  49   37882.5    264.0   0.111862763   0.97213   0.80420  -0.53915   0.18630
  50   38239.8    261.5   0.003760900   0.03238  -0.02816   0.15169  -0.09260
  51   38304.6    261.1   0.023008662   0.19775   0.44011  -0.02063   0.06019
  52   38628.1    258.9   0.024136500   0.20571  -0.17951  -0.25715   0.32765
  53   38870.5    257.3   0.052160602   0.44177  -0.00667   0.62730  -0.21961
  54   39109.9    255.7   0.013834266   0.11645  -0.21115   0.26312  -0.05134
  55   39176.1    255.3   0.114779311   0.96454  -0.84563  -0.10827   0.48757
  56   39325.6    254.3   0.029721180   0.24881   0.47938   0.01709  -0.13677
  57   39493.1    253.2   0.019797486   0.16503   0.21486  -0.33946   0.06027
  58   39694.3    251.9   0.037344766   0.30973  -0.14795   0.53384  -0.05342
  59   39906.3    250.6   0.045133926   0.37234  -0.43135  -0.42434  -0.07879
  60   40084.1    249.5   0.011196634   0.09196  -0.26066  -0.11450   0.10442
  61   40311.6    248.1   0.079449699   0.64884   0.61161  -0.41952   0.31428

FINAL SINGLE POINT ENERGY     -5776.490191448952

DIPOLE MOMENT
-------------
                                X             Y             Z
Electronic contribution:      4.03103      -8.90520      13.71174
Nuclear contribution   :     -4.60725      13.02145     -17.22794
                        -----------------------------------------
Total Dipole Moment    :     -0.57622       4.11625      -3.51620
                        -----------------------------------------
Magnitude (a.u.)       :      5.44419
Magnitude (Debye)      :     13.83803

Rotational constants in cm-1:     0.001817     0.000147     0.000138
Rotational constants in MHz :    54.460686     4.414230     4.143789

                             ****ORCA TERMINATED NORMALLY****
TOTAL RUN TIME: 0 days 0 hours 10 minutes 28 seconds 334 msec
