                         Program Version 4.2.0 -  RELEASE  -
|  1> # ORCA input file
|  2> # SCF done       -193.804132285636          0.000538645301
|  3> ! CAM-B3LYP def2-SVP def2/J RIJCOSX Grid4 TightSCF
|  4> %maxcore 5000
|  5> %tddft
|  6>     Mode sTDDFT
|  7>     Ethresh 5.0
|  8>     maxcore 5000
|  9> end
| 10>
| 11> %pal
| 12>   nprocs 6
| 13>   end
| 14> * xyz 0 1
| 15>    C       -6.97104        -2.72033        -0.11816
| 16>    C       -6.22335        -3.20230        -1.15925
| 17>    C       -6.11110        -4.57176        -1.47816
| 18>    N       -5.98647        -5.67122        -1.78441
| 19>    C       -5.41802        -2.41537        -2.01130
| 20>    N       -4.70992        -1.85839        -2.72324
| 21>    C       -7.69732        -3.52372         0.85312
| 22>    C       -8.14397        -2.67159         1.89314
| 23>    C       -8.86102        -3.13439         2.97051
| 24>    C       -9.15754        -4.49961         3.01972
| 25>    C       -8.71342        -5.34157         1.97157
| 26>    C       -7.98289        -4.87552         0.88499
| 27>    S       -9.20252        -6.98555         2.23607
| 28>    C       -9.97805        -6.54209         3.71729
| 29>    C       -9.88098        -5.22626         4.00722
| 30>    C       -7.72745        -1.28416         1.61615
| 31>    O       -7.90850        -0.33454         2.35105
| 32>    C       -7.09626        -1.32158         0.27115
| 33>    C       -6.88579        -0.28887        -0.59296
| 34>    C       -6.94565         1.12310        -0.38261
| 35>    C       -7.21797         1.95394        -1.50645
| 36>    O       -7.44427         1.32909        -2.68026
| 37>    C       -7.64012         2.11113        -3.84226
| 38>    C       -7.27292         3.32435        -1.34209
| 39>    C       -7.06452         3.92284        -0.09380
| 40>    C       -6.75265         3.09671         1.01518
| 41>    C       -6.68979         1.72828         0.85184
| 42>    O       -6.53875         3.73741         2.19098
| 43>    C       -6.35345         2.97122         3.36116
| 44>    C       -7.17647         5.33821         0.06050
| 45>    C       -7.57756         6.26933        -0.90896
| 46>    C       -7.60365         7.62419        -0.41100
| 47>    N       -7.97793         8.63061        -1.20453
| 48>    C       -8.31633         8.34579        -2.44362
| 49>    C       -8.73276         9.47574        -3.30383
| 50>    O       -8.77957        10.62340        -2.90513
| 51>    C       -9.09457         9.10362        -4.68271
| 52>    C       -9.07372         7.84734        -5.14194
| 53>    C       -8.68229         6.68584        -4.32473
| 54>    O       -8.67954         5.55151        -4.76308
| 55>    C       -8.29351         7.00691        -2.93394
| 56>    N       -7.92959         6.00073        -2.16788
| 57>    C       -7.21098         7.72037         0.93211
| 58>    S       -6.84217         6.14815         1.55049
| 59>    C       -7.09560         8.90955         1.71620
| 60>    C       -6.63998         8.85063         3.05815
| 61>    O       -6.37055         7.60989         3.53912
| 62>    C       -5.74963         7.47632         4.79514
| 63>    C       -6.50013        10.01624         3.77939
| 64>    C       -6.79365        11.26747         3.22258
| 65>    C       -7.28648        11.32474         1.89422
| 66>    C       -7.41918        10.15430         1.16881
| 67>    O       -7.56571        12.54910         1.40900
| 68>    C       -8.00825        12.66615         0.07076
| 69>    C       -6.66749        12.47856         3.97458
| 70>    C       -5.84966        12.75676         5.02227
| 71>    C       -4.69317        12.07650         5.56979
| 72>    C       -3.80733        11.29094         4.87740
| 73>    C       -2.67891        10.67864         5.45674
| 74>    N       -1.77310        10.11845         5.88672
| 75>    C       -3.88105        11.04803         3.48996
| 76>    N       -3.84261        10.85073         2.35978
| 77>    C       -4.49391        12.57750         6.92479
| 78>    C       -5.34512        13.69499         7.12515
| 79>    C       -6.16614        13.90569         5.91717
| 80>    O       -6.96525        14.78906         5.70825
| 81>    C       -5.35313        14.41232         8.29687
| 82>    C       -4.49186        14.00381         9.32015
| 83>    C       -3.65635        12.87977         9.11432
| 84>    C       -3.64033        12.15787         7.92672
| 85>    S       -2.68538        12.55308        10.51529
| 86>    C       -3.38773        13.89822        11.34570
| 87>    C       -4.30807        14.56487        10.61559
| 88>    H       -9.18547        -2.46180         3.74959
| 89>    H       -7.67140        -5.55356         0.10784
| 90>    H      -10.46744        -7.30736         4.28785
| 91>    H      -10.30227        -4.77022         4.88492
| 92>    H       -6.70468        -0.55331        -1.62879
| 93>    H       -7.76077         1.39610        -4.65383
| 94>    H       -6.77527         2.74781        -4.04289
| 95>    H       -8.53409         2.73458        -3.76716
| 96>    H       -7.49521         3.97236        -2.17209
| 97>    H       -6.42937         1.09621         1.68082
| 98>    H       -6.36314         3.68568         4.18262
| 99>    H       -5.39149         2.45041         3.34371
|100>    H       -7.15940         2.24485         3.49329
|101>    H       -9.38948         9.92834        -5.31764
|102>    H       -9.35101         7.61781        -6.16209
|103>    H       -5.54639         6.41298         4.90853
|104>    H       -6.40667         7.80748         5.60541
|105>    H       -4.80670         8.03016         4.83549
|106>    H       -6.19179         9.98083         4.81235
|107>    H       -7.76975        10.17240         0.15118
|108>    H       -8.15936        13.73169        -0.09132
|109>    H       -8.94899        12.13460        -0.09175
|110>    H       -7.26050        12.29152        -0.63167
|111>    H       -7.35753        13.27086         3.70258
|112>    H       -6.00378        15.26420         8.41937
|113>    H       -2.98935        11.30620         7.81599
|114>    H       -3.06140        14.10934        12.34551
|115>    H       -4.84706        15.42585        10.96728
|116> *
|117>
|118>                          ****END OF INPUT****

CARTESIAN COORDINATES (ANGSTROEM)
---------------------------------
  C     -6.971040   -2.720330   -0.118160
  C     -6.223350   -3.202300   -1.159250
  C     -6.111100   -4.571760   -1.478160
  N     -5.986470   -5.671220   -1.784410
  C     -5.418020   -2.415370   -2.011300
  N     -4.709920   -1.858390   -2.723240
  C     -7.697320   -3.523720    0.853120
  C     -8.143970   -2.671590    1.893140
  C     -8.861020   -3.134390    2.970510
  C     -9.157540   -4.499610    3.019720
  C     -8.713420   -5.341570    1.971570
  C     -7.982890   -4.875520    0.884990
  S     -9.202520   -6.985550    2.236070
  C     -9.978050   -6.542090    3.717290
  C     -9.880980   -5.226260    4.007220
  C     -7.727450   -1.284160    1.616150
  O     -7.908500   -0.334540    2.351050
  C     -7.096260   -1.321580    0.271150
  C     -6.885790   -0.288870   -0.592960
  C     -6.945650    1.123100   -0.382610
  C     -7.217970    1.953940   -1.506450
  O     -7.444270    1.329090   -2.680260
  C     -7.640120    2.111130   -3.842260
  C     -7.272920    3.324350   -1.342090
  C     -7.064520    3.922840   -0.093800
  C     -6.752650    3.096710    1.015180
  C     -6.689790    1.728280    0.851840
  O     -6.538750    3.737410    2.190980
  C     -6.353450    2.971220    3.361160
  C     -7.176470    5.338210    0.060500
  C     -7.577560    6.269330   -0.908960
  C     -7.603650    7.624190   -0.411000
  N     -7.977930    8.630610   -1.204530
  C     -8.316330    8.345790   -2.443620
  C     -8.732760    9.475740   -3.303830
  O     -8.779570   10.623400   -2.905130
  C     -9.094570    9.103620   -4.682710
  C     -9.073720    7.847340   -5.141940
  C     -8.682290    6.685840   -4.324730
  O     -8.679540    5.551510   -4.763080
  C     -8.293510    7.006910   -2.933940
  N     -7.929590    6.000730   -2.167880
  C     -7.210980    7.720370    0.932110
  S     -6.842170    6.148150    1.550490
  C     -7.095600    8.909550    1.716200
  C     -6.639980    8.850630    3.058150
  O     -6.370550    7.609890    3.539120
  C     -5.749630    7.476320    4.795140
  C     -6.500130   10.016240    3.779390
  C     -6.793650   11.267470    3.222580
  C     -7.286480   11.324740    1.894220
  C     -7.419180   10.154300    1.168810
  O     -7.565710   12.549100    1.409000
  C     -8.008250   12.666150    0.070760
  C     -6.667490   12.478560    3.974580
  C     -5.849660   12.756760    5.022270
  C     -4.693170   12.076500    5.569790
  C     -3.807330   11.290940    4.877400
  C     -2.678910   10.678640    5.456740
  N     -1.773100   10.118450    5.886720
  C     -3.881050   11.048030    3.489960
  N     -3.842610   10.850730    2.359780
  C     -4.493910   12.577500    6.924790
  C     -5.345120   13.694990    7.125150
  C     -6.166140   13.905690    5.917170
  O     -6.965250   14.789060    5.708250
  C     -5.353130   14.412320    8.296870
  C     -4.491860   14.003810    9.320150
  C     -3.656350   12.879770    9.114320
  C     -3.640330   12.157870    7.926720
  S     -2.685380   12.553080   10.515290
  C     -3.387730   13.898220   11.345700
  C     -4.308070   14.564870   10.615590
  H     -9.185470   -2.461800    3.749590
  H     -7.671400   -5.553560    0.107840
  H    -10.467440   -7.307360    4.287850
  H    -10.302270   -4.770220    4.884920
  H     -6.704680   -0.553310   -1.628790
  H     -7.760770    1.396100   -4.653830
  H     -6.775270    2.747810   -4.042890
  H     -8.534090    2.734580   -3.767160
  H     -7.495210    3.972360   -2.172090
  H     -6.429370    1.096210    1.680820
  H     -6.363140    3.685680    4.182620
  H     -5.391490    2.450410    3.343710
  H     -7.159400    2.244850    3.493290
  H     -9.389480    9.928340   -5.317640
  H     -9.351010    7.617810   -6.162090
  H     -5.546390    6.412980    4.908530
  H     -6.406670    7.807480    5.605410
  H     -4.806700    8.030160    4.835490
  H     -6.191790    9.980830    4.812350
  H     -7.769750   10.172400    0.151180
  H     -8.159360   13.731690   -0.091320
  H     -8.948990   12.134600   -0.091750
  H     -7.260500   12.291520   -0.631670
  H     -7.357530   13.270860    3.702580
  H     -6.003780   15.264200    8.419370
  H     -2.989350   11.306200    7.815990
  H     -3.061400   14.109340   12.345510
  H     -4.847060   15.425850   10.967280

 Total Charge           Charge          ....    0
 Multiplicity           Mult            ....    1
 Number of Electrons    NEL             ....  518
 Basis Dimension        Dim             .... 1174

ORBITAL ENERGIES
----------------

  NO   OCC          E(Eh)            E(eV)
   0   2.0000     -88.982758     -2421.3440
   1   2.0000     -88.965412     -2420.8719
   2   2.0000     -88.964127     -2420.8370
   3   2.0000     -19.263535      -524.1874
   4   2.0000     -19.258738      -524.0569
   5   2.0000     -19.247811      -523.7596
   6   2.0000     -19.247752      -523.7580
   7   2.0000     -19.229570      -523.2632
   8   2.0000     -19.229551      -523.2627
   9   2.0000     -19.213714      -522.8317
  10   2.0000     -19.208254      -522.6832
  11   2.0000     -14.443258      -393.0210
  12   2.0000     -14.443120      -393.0173
  13   2.0000     -14.414637      -392.2422
  14   2.0000     -14.408509      -392.0755
  15   2.0000     -14.407961      -392.0605
  16   2.0000     -14.405477      -391.9930
  17   2.0000     -10.377833      -282.3952
  18   2.0000     -10.377730      -282.3924
  19   2.0000     -10.365774      -282.0671
  20   2.0000     -10.359396      -281.8935
  21   2.0000     -10.339606      -281.3550
  22   2.0000     -10.338427      -281.3229
  23   2.0000     -10.337856      -281.3074
  24   2.0000     -10.337306      -281.2924
  25   2.0000     -10.337051      -281.2855
  26   2.0000     -10.336162      -281.2613
  27   2.0000     -10.335760      -281.2503
  28   2.0000     -10.335472      -281.2425
  29   2.0000     -10.335367      -281.2396
  30   2.0000     -10.334509      -281.2163
  31   2.0000     -10.332961      -281.1742
  32   2.0000     -10.328826      -281.0617
  33   2.0000     -10.325332      -280.9666
  34   2.0000     -10.325083      -280.9598
  35   2.0000     -10.319308      -280.8026
  36   2.0000     -10.317667      -280.7580
  37   2.0000     -10.317636      -280.7571
  38   2.0000     -10.314116      -280.6614
  39   2.0000     -10.313639      -280.6484
  40   2.0000     -10.313477      -280.6440
  41   2.0000     -10.313050      -280.6324
  42   2.0000     -10.312863      -280.6273
  43   2.0000     -10.311875      -280.6004
  44   2.0000     -10.311482      -280.5897
  45   2.0000     -10.311276      -280.5841
  46   2.0000     -10.310573      -280.5650
  47   2.0000     -10.310308      -280.5577
  48   2.0000     -10.308541      -280.5097
  49   2.0000     -10.306820      -280.4628
  50   2.0000     -10.306646      -280.4581
  51   2.0000     -10.304732      -280.4060
  52   2.0000     -10.301917      -280.3294
  53   2.0000     -10.301746      -280.3248
  54   2.0000     -10.300027      -280.2780
  55   2.0000     -10.299394      -280.2608
  56   2.0000     -10.299331      -280.2590
  57   2.0000     -10.299112      -280.2531
  58   2.0000     -10.298846      -280.2458
  59   2.0000     -10.296905      -280.1930
  60   2.0000     -10.295926      -280.1664
  61   2.0000     -10.290987      -280.0320
  62   2.0000     -10.288811      -279.9728
  63   2.0000     -10.288028      -279.9515
  64   2.0000     -10.288001      -279.9507
  65   2.0000     -10.287387      -279.9340
  66   2.0000     -10.287088      -279.9259
  67   2.0000     -10.286667      -279.9144
  68   2.0000     -10.285609      -279.8857
  69   2.0000     -10.282803      -279.8093
  70   2.0000     -10.275639      -279.6143
  71   2.0000     -10.266085      -279.3544
  72   2.0000     -10.264415      -279.3089
  73   2.0000      -8.074439      -219.7167
  74   2.0000      -8.061782      -219.3723
  75   2.0000      -8.060335      -219.3329
  76   2.0000      -6.043361      -164.4482
  77   2.0000      -6.038658      -164.3202
  78   2.0000      -6.038063      -164.3040
  79   2.0000      -6.031305      -164.1202
  80   2.0000      -6.029853      -164.0806
  81   2.0000      -6.027002      -164.0031
  82   2.0000      -6.025546      -163.9634
  83   2.0000      -6.023403      -163.9051
  84   2.0000      -6.022019      -163.8675
  85   2.0000      -1.168693       -31.8017
  86   2.0000      -1.163856       -31.6701
  87   2.0000      -1.153580       -31.3905
  88   2.0000      -1.152860       -31.3709
  89   2.0000      -1.144365       -31.1397
  90   2.0000      -1.140248       -31.0277
  91   2.0000      -1.128109       -30.6974
  92   2.0000      -1.123430       -30.5701
  93   2.0000      -1.093966       -29.7683
  94   2.0000      -1.020889       -27.7798
  95   2.0000      -1.017183       -27.6790
  96   2.0000      -1.014309       -27.6008
  97   2.0000      -1.005822       -27.3698
  98   2.0000      -1.002881       -27.2898
  99   2.0000      -0.994596       -27.0643
 100   2.0000      -0.990157       -26.9435
 101   2.0000      -0.985653       -26.8210
 102   2.0000      -0.981298       -26.7025
 103   2.0000      -0.979699       -26.6590
 104   2.0000      -0.961339       -26.1594
 105   2.0000      -0.954865       -25.9832
 106   2.0000      -0.939262       -25.5586
 107   2.0000      -0.927856       -25.2483
 108   2.0000      -0.925522       -25.1847
 109   2.0000      -0.908783       -24.7292
 110   2.0000      -0.899324       -24.4718
 111   2.0000      -0.887021       -24.1371
 112   2.0000      -0.880559       -23.9612
 113   2.0000      -0.879161       -23.9232
 114   2.0000      -0.877060       -23.8660
 115   2.0000      -0.868136       -23.6232
 116   2.0000      -0.853435       -23.2232
 117   2.0000      -0.850613       -23.1464
 118   2.0000      -0.847266       -23.0553
 119   2.0000      -0.834424       -22.7058
 120   2.0000      -0.821140       -22.3444
 121   2.0000      -0.819647       -22.3037
 122   2.0000      -0.816784       -22.2258
 123   2.0000      -0.812991       -22.1226
 124   2.0000      -0.810214       -22.0470
 125   2.0000      -0.793515       -21.5926
 126   2.0000      -0.783645       -21.3241
 127   2.0000      -0.780227       -21.2310
 128   2.0000      -0.777031       -21.1441
 129   2.0000      -0.764266       -20.7967
 130   2.0000      -0.757227       -20.6052
 131   2.0000      -0.753082       -20.4924
 132   2.0000      -0.752006       -20.4631
 133   2.0000      -0.739082       -20.1114
 134   2.0000      -0.731519       -19.9056
 135   2.0000      -0.707124       -19.2418
 136   2.0000      -0.697383       -18.9768
 137   2.0000      -0.693476       -18.8704
 138   2.0000      -0.690355       -18.7855
 139   2.0000      -0.685129       -18.6433
 140   2.0000      -0.683658       -18.6033
 141   2.0000      -0.674967       -18.3668
 142   2.0000      -0.671055       -18.2603
 143   2.0000      -0.666444       -18.1349
 144   2.0000      -0.663141       -18.0450
 145   2.0000      -0.660415       -17.9708
 146   2.0000      -0.658613       -17.9218
 147   2.0000      -0.656073       -17.8526
 148   2.0000      -0.644589       -17.5402
 149   2.0000      -0.639510       -17.4019
 150   2.0000      -0.627164       -17.0660
 151   2.0000      -0.618366       -16.8266
 152   2.0000      -0.616003       -16.7623
 153   2.0000      -0.614611       -16.7244
 154   2.0000      -0.612763       -16.6741
 155   2.0000      -0.610121       -16.6022
 156   2.0000      -0.603824       -16.4309
 157   2.0000      -0.598289       -16.2803
 158   2.0000      -0.595241       -16.1973
 159   2.0000      -0.591724       -16.1016
 160   2.0000      -0.589289       -16.0354
 161   2.0000      -0.584826       -15.9139
 162   2.0000      -0.572793       -15.5865
 163   2.0000      -0.571060       -15.5393
 164   2.0000      -0.566772       -15.4226
 165   2.0000      -0.565178       -15.3793
 166   2.0000      -0.563327       -15.3289
 167   2.0000      -0.560473       -15.2512
 168   2.0000      -0.560337       -15.2475
 169   2.0000      -0.550246       -14.9730
 170   2.0000      -0.549872       -14.9628
 171   2.0000      -0.549639       -14.9564
 172   2.0000      -0.546228       -14.8636
 173   2.0000      -0.544658       -14.8209
 174   2.0000      -0.541975       -14.7479
 175   2.0000      -0.537790       -14.6340
 176   2.0000      -0.536839       -14.6081
 177   2.0000      -0.534433       -14.5427
 178   2.0000      -0.532020       -14.4770
 179   2.0000      -0.528291       -14.3755
 180   2.0000      -0.527973       -14.3669
 181   2.0000      -0.526161       -14.3176
 182   2.0000      -0.525742       -14.3062
 183   2.0000      -0.522636       -14.2216
 184   2.0000      -0.517508       -14.0821
 185   2.0000      -0.515627       -14.0309
 186   2.0000      -0.512496       -13.9457
 187   2.0000      -0.511559       -13.9202
 188   2.0000      -0.508730       -13.8432
 189   2.0000      -0.503941       -13.7129
 190   2.0000      -0.499197       -13.5838
 191   2.0000      -0.499115       -13.5816
 192   2.0000      -0.497875       -13.5479
 193   2.0000      -0.495922       -13.4947
 194   2.0000      -0.494014       -13.4428
 195   2.0000      -0.493201       -13.4207
 196   2.0000      -0.492344       -13.3973
 197   2.0000      -0.489688       -13.3251
 198   2.0000      -0.488989       -13.3061
 199   2.0000      -0.488353       -13.2888
 200   2.0000      -0.484280       -13.1779
 201   2.0000      -0.482391       -13.1265
 202   2.0000      -0.480913       -13.0863
 203   2.0000      -0.478031       -13.0079
 204   2.0000      -0.477227       -12.9860
 205   2.0000      -0.465992       -12.6803
 206   2.0000      -0.464237       -12.6325
 207   2.0000      -0.458535       -12.4774
 208   2.0000      -0.452859       -12.3229
 209   2.0000      -0.451650       -12.2900
 210   2.0000      -0.450751       -12.2656
 211   2.0000      -0.448862       -12.2142
 212   2.0000      -0.446998       -12.1634
 213   2.0000      -0.445269       -12.1164
 214   2.0000      -0.441162       -12.0046
 215   2.0000      -0.439809       -11.9678
 216   2.0000      -0.438310       -11.9270
 217   2.0000      -0.435203       -11.8425
 218   2.0000      -0.432557       -11.7705
 219   2.0000      -0.430451       -11.7132
 220   2.0000      -0.430016       -11.7013
 221   2.0000      -0.429889       -11.6979
 222   2.0000      -0.428743       -11.6667
 223   2.0000      -0.428335       -11.6556
 224   2.0000      -0.424850       -11.5608
 225   2.0000      -0.422691       -11.5020
 226   2.0000      -0.419286       -11.4094
 227   2.0000      -0.419004       -11.4017
 228   2.0000      -0.415358       -11.3025
 229   2.0000      -0.410873       -11.1804
 230   2.0000      -0.408071       -11.1042
 231   2.0000      -0.406024       -11.0485
 232   2.0000      -0.403626       -10.9832
 233   2.0000      -0.397916       -10.8278
 234   2.0000      -0.397386       -10.8134
 235   2.0000      -0.389520       -10.5994
 236   2.0000      -0.383955       -10.4480
 237   2.0000      -0.380615       -10.3571
 238   2.0000      -0.378953       -10.3118
 239   2.0000      -0.376434       -10.2433
 240   2.0000      -0.375317       -10.2129
 241   2.0000      -0.372471       -10.1355
 242   2.0000      -0.362902        -9.8751
 243   2.0000      -0.362083        -9.8528
 244   2.0000      -0.353327        -9.6145
 245   2.0000      -0.349202        -9.5023
 246   2.0000      -0.337478        -9.1833
 247   2.0000      -0.335871        -9.1395
 248   2.0000      -0.330840        -9.0026
 249   2.0000      -0.329067        -8.9544
 250   2.0000      -0.318220        -8.6592
 251   2.0000      -0.311476        -8.4757
 252   2.0000      -0.310120        -8.4388
 253   2.0000      -0.304865        -8.2958
 254   2.0000      -0.292803        -7.9676
 255   2.0000      -0.290320        -7.9000
 256   2.0000      -0.288733        -7.8568
 257   2.0000      -0.272912        -7.4263
 258   2.0000      -0.241048        -6.5593
 259   0.0000      -0.099782        -2.7152
 260   0.0000      -0.093282        -2.5383
 261   0.0000      -0.077187        -2.1004
 262   0.0000      -0.071066        -1.9338
 263   0.0000      -0.051840        -1.4106

MULLIKEN ATOMIC CHARGES
-----------------------
   0 C :    0.280257
   1 C :   -0.338962
   2 C :   -0.189698
   3 N :    0.147299
   4 C :   -0.207032
   5 N :    0.163980
   6 C :    0.021959
   7 C :   -0.012747
   8 C :   -0.071480
   9 C :    0.115533
  10 C :   -0.095872
  11 C :   -0.023492
  12 S :    0.139310
  13 C :   -0.048836
  14 C :    0.023379
  15 C :    0.151446
  16 O :   -0.165332
  17 C :   -0.072202
  18 C :   -0.010588
  19 C :   -0.001029
  20 C :    0.265758
  21 O :   -0.307866
  22 C :    0.183236
  23 C :   -0.188327
  24 C :    0.086906
  25 C :    0.189049
  26 C :   -0.095628
  27 O :   -0.343585
  28 C :    0.175238
  29 C :   -0.139975
  30 C :    0.041757
  31 C :    0.045640
  32 N :    0.056357
  33 C :   -0.114885
  34 C :    0.145078
  35 O :   -0.121996
  36 C :   -0.015421
  37 C :   -0.014807
  38 C :    0.144977
  39 O :   -0.121322
  40 C :   -0.116826
  41 N :    0.056529
  42 C :   -0.143101
  43 S :    0.263937
  44 C :    0.100784
  45 C :    0.206920
  46 O :   -0.339886
  47 C :    0.180746
  48 C :   -0.134536
  49 C :   -0.013237
  50 C :    0.275622
  51 C :   -0.187595
  52 O :   -0.300983
  53 C :    0.182876
  54 C :    0.048882
  55 C :   -0.110072
  56 C :    0.265881
  57 C :   -0.360246
  58 C :   -0.183291
  59 N :    0.149047
  60 C :   -0.196759
  61 N :    0.179517
  62 C :    0.004217
  63 C :    0.004642
  64 C :    0.130540
  65 O :   -0.143369
  66 C :   -0.073636
  67 C :    0.110901
  68 C :   -0.089063
  69 C :   -0.032418
  70 S :    0.135610
  71 C :   -0.049916
  72 C :    0.025535
  73 H :   -0.015772
  74 H :   -0.006154
  75 H :    0.037786
  76 H :   -0.008555
  77 H :    0.038882
  78 H :    0.037280
  79 H :    0.030802
  80 H :    0.040357
  81 H :   -0.016810
  82 H :   -0.021550
  83 H :    0.030039
  84 H :    0.030344
  85 H :    0.049927
  86 H :    0.016958
  87 H :    0.017085
  88 H :    0.036263
  89 H :    0.030349
  90 H :    0.036797
  91 H :   -0.023198
  92 H :   -0.017533
  93 H :    0.035557
  94 H :    0.033674
  95 H :    0.039842
  96 H :    0.031963
  97 H :   -0.010970
  98 H :   -0.007471
  99 H :    0.037772
 100 H :   -0.006997
Sum of atomic charges:   -0.0000000

LOEWDIN ATOMIC CHARGES
----------------------
   0 C :    0.076595
   1 C :   -0.140695
   2 C :   -0.017735
   3 N :   -0.056921
   4 C :   -0.027100
   5 N :   -0.049857
   6 C :   -0.021563
   7 C :   -0.053067
   8 C :    0.020784
   9 C :   -0.036210
  10 C :   -0.145435
  11 C :   -0.009481
  12 S :    0.428398
  13 C :   -0.150741
  14 C :   -0.058778
  15 C :    0.086955
  16 O :   -0.152509
  17 C :   -0.098147
  18 C :    0.088037
  19 C :   -0.058096
  20 C :    0.069476
  21 O :   -0.091793
  22 C :    0.083752
  23 C :   -0.059293
  24 C :   -0.031125
  25 C :    0.036071
  26 C :   -0.022545
  27 O :   -0.111150
  28 C :    0.080787
  29 C :   -0.180223
  30 C :   -0.037267
  31 C :   -0.037008
  32 N :    0.008588
  33 C :   -0.049015
  34 C :    0.060405
  35 O :   -0.114876
  36 C :   -0.011554
  37 C :   -0.011435
  38 C :    0.060518
  39 O :   -0.114744
  40 C :   -0.049373
  41 N :    0.008486
  42 C :   -0.178468
  43 S :    0.601223
  44 C :   -0.029815
  45 C :    0.044667
  46 O :   -0.107847
  47 C :    0.080933
  48 C :   -0.041089
  49 C :   -0.057899
  50 C :    0.070845
  51 C :   -0.048266
  52 O :   -0.090113
  53 C :    0.083784
  54 C :    0.091412
  55 C :   -0.098289
  56 C :    0.067057
  57 C :   -0.147135
  58 C :   -0.021843
  59 N :   -0.059688
  60 C :   -0.021598
  61 N :   -0.044725
  62 C :   -0.021016
  63 C :   -0.054132
  64 C :    0.082975
  65 O :   -0.143013
  66 C :    0.022907
  67 C :   -0.036186
  68 C :   -0.145757
  69 C :   -0.014537
  70 S :    0.425729
  71 C :   -0.150737
  72 C :   -0.057422
  73 H :    0.038475
  74 H :    0.040688
  75 H :    0.028901
  76 H :    0.034464
  77 H :    0.046527
  78 H :    0.030299
  79 H :    0.021441
  80 H :    0.022421
  81 H :    0.030341
  82 H :    0.032106
  83 H :    0.024999
  84 H :    0.020065
  85 H :    0.027246
  86 H :    0.045389
  87 H :    0.045354
  88 H :    0.028769
  89 H :    0.018385
  90 H :    0.022771
  91 H :    0.030454
  92 H :    0.030779
  93 H :    0.029467
  94 H :    0.020737
  95 H :    0.024413
  96 H :    0.048429
  97 H :    0.040602
  98 H :    0.039225
  99 H :    0.028954
 100 H :    0.035225

  Mayer bond orders larger than 0.100000
B(  0-C ,  1-C ) :   1.6474 B(  0-C ,  6-C ) :   1.0057 B(  0-C , 17-C ) :   1.0547
B(  1-C ,  2-C ) :   1.1415 B(  1-C ,  4-C ) :   1.1359 B(  2-C ,  3-N ) :   2.9769
B(  4-C ,  5-N ) :   3.0071 B(  6-C ,  7-C ) :   1.2670 B(  6-C , 11-C ) :   1.4122
B(  7-C ,  8-C ) :   1.4243 B(  7-C , 15-C ) :   0.9537 B(  8-C ,  9-C ) :   1.2475
B(  8-C , 73-H ) :   1.0155 B(  9-C , 10-C ) :   1.3022 B(  9-C , 14-C ) :   1.1711
B( 10-C , 11-C ) :   1.3229 B( 10-C , 12-S ) :   1.0979 B( 11-C , 74-H ) :   0.9836
B( 12-S , 13-C ) :   1.1256 B( 13-C , 14-C ) :   1.6304 B( 13-C , 75-H ) :   0.9684
B( 14-C , 76-H ) :   0.9991 B( 15-C , 16-O ) :   2.1789 B( 15-C , 17-C ) :   0.9410
B( 17-C , 18-C ) :   1.5787 B( 18-C , 19-C ) :   1.1600 B( 18-C , 77-H ) :   0.9370
B( 19-C , 20-C ) :   1.2731 B( 19-C , 26-C ) :   1.2984 B( 20-C , 21-O ) :   1.1859
B( 20-C , 23-C ) :   1.2867 B( 21-O , 22-C ) :   0.9385 B( 22-C , 78-H ) :   0.9757
B( 22-C , 79-H ) :   0.9708 B( 22-C , 80-H ) :   0.9684 B( 23-C , 24-C ) :   1.3086
B( 23-C , 81-H ) :   0.9736 B( 24-C , 25-C ) :   1.2787 B( 24-C , 29-C ) :   1.1449
B( 25-C , 26-C ) :   1.3448 B( 25-C , 27-O ) :   1.1158 B( 26-C , 82-H ) :   0.9809
B( 27-O , 28-C ) :   0.9425 B( 28-C , 83-H ) :   0.9760 B( 28-C , 84-H ) :   0.9719
B( 28-C , 85-H ) :   0.9681 B( 29-C , 30-C ) :   1.3131 B( 29-C , 42-C ) :   0.1305
B( 29-C , 43-S ) :   1.1566 B( 30-C , 31-C ) :   1.1875 B( 30-C , 41-N ) :   1.4426
B( 31-C , 32-N ) :   1.4383 B( 31-C , 42-C ) :   1.3139 B( 32-N , 33-C ) :   1.6936
B( 33-C , 34-C ) :   0.9042 B( 33-C , 40-C ) :   1.1016 B( 34-C , 35-O ) :   2.2043
B( 34-C , 36-C ) :   1.0286 B( 36-C , 37-C ) :   1.6868 B( 36-C , 86-H ) :   0.9981
B( 37-C , 38-C ) :   1.0294 B( 37-C , 87-H ) :   0.9980 B( 38-C , 39-O ) :   2.2028
B( 38-C , 40-C ) :   0.9035 B( 40-C , 41-N ) :   1.6900 B( 42-C , 43-S ) :   1.1556
B( 42-C , 44-C ) :   1.1464 B( 44-C , 45-C ) :   1.2799 B( 44-C , 51-C ) :   1.3181
B( 45-C , 46-O ) :   1.1208 B( 45-C , 48-C ) :   1.3568 B( 46-O , 47-C ) :   0.9495
B( 47-C , 88-H ) :   0.9758 B( 47-C , 89-H ) :   0.9689 B( 47-C , 90-H ) :   0.9703
B( 48-C , 49-C ) :   1.2811 B( 48-C , 91-H ) :   0.9900 B( 49-C , 50-C ) :   1.3145
B( 49-C , 54-C ) :   1.0899 B( 50-C , 51-C ) :   1.2631 B( 50-C , 52-O ) :   1.2219
B( 51-C , 92-H ) :   0.9682 B( 52-O , 53-C ) :   0.9395 B( 53-C , 93-H ) :   0.9760
B( 53-C , 94-H ) :   0.9698 B( 53-C , 95-H ) :   0.9704 B( 54-C , 55-C ) :   1.6490
B( 54-C , 96-H ) :   0.9386 B( 55-C , 56-C ) :   1.0336 B( 55-C , 64-C ) :   0.9402
B( 56-C , 57-C ) :   1.6430 B( 56-C , 62-C ) :   1.0170 B( 57-C , 58-C ) :   1.1329
B( 57-C , 60-C ) :   1.1625 B( 58-C , 59-N ) :   2.9794 B( 60-C , 61-N ) :   3.0106
B( 62-C , 63-C ) :   1.2707 B( 62-C , 69-C ) :   1.4120 B( 63-C , 64-C ) :   0.9194
B( 63-C , 66-C ) :   1.4254 B( 64-C , 65-O ) :   2.2705 B( 66-C , 67-C ) :   1.2495
B( 66-C , 97-H ) :   1.0173 B( 67-C , 68-C ) :   1.3044 B( 67-C , 72-C ) :   1.1701
B( 68-C , 69-C ) :   1.3195 B( 68-C , 70-S ) :   1.0952 B( 69-C , 98-H ) :   0.9873
B( 70-S , 71-C ) :   1.1252 B( 71-C , 72-C ) :   1.6311 B( 71-C , 99-H ) :   0.9683
B( 72-C ,100-H ) :   1.0002

-----------------------------------------------------------------------------
         ABSORPTION SPECTRUM VIA TRANSITION ELECTRIC DIPOLE MOMENTS
-----------------------------------------------------------------------------
State   Energy  Wavelength   fosc         T2         TX        TY        TZ
        (cm-1)    (nm)                  (au**2)     (au)      (au)      (au)
-----------------------------------------------------------------------------
   0   14335.7    697.6   0.941725685  21.62628  -0.72378  -4.26952  -1.69519
   1   16902.4    591.6   0.331243244   6.45170  -0.91131   1.13799  -2.07995
   2   19825.3    504.4   0.146227440   2.42820  -0.98854  -0.43856  -1.12189
   3   20907.9    478.3   0.255623993   4.02500  -0.24731   1.81949  -0.80827
   4   22104.0    452.4   0.164181723   2.44529  -0.07259   1.51246   0.39050
   5   22965.1    435.4   0.099630241   1.42823   0.00064  -1.16764  -0.25467
   6   25137.0    397.8   0.024546288   0.32148   0.11661   0.51249   0.21267
   7   25429.0    393.3   0.001078271   0.01396  -0.03002  -0.11420  -0.00396
   8   25600.7    390.6   0.004766258   0.06129   0.22027   0.11237   0.01219
   9   25942.1    385.5   0.111120935   1.41016  -0.14450  -1.17549   0.08662
  10   26416.5    378.6   0.030459076   0.37959  -0.43817   0.24541  -0.35689
  11   26716.8    374.3   0.003601413   0.04438   0.18438   0.07445   0.06955
  12   26909.3    371.6   0.043737331   0.53509   0.03442  -0.58651  -0.43578
  13   27344.8    365.7   0.005971918   0.07190  -0.24014  -0.11237   0.04005
  14   27606.2    362.2   0.105763707   1.26126  -0.38558   0.32666   1.00294
  15   28010.0    357.0   0.212839429   2.50158  -0.30480  -1.12401  -1.07018
  16   28330.3    353.0   0.072926223   0.84744  -0.32255  -0.39250   0.76769
  17   28921.0    345.8   0.192834569   2.19506   0.13175   0.50318  -1.38727
  18   29314.8    341.1   0.045464714   0.51058   0.67837   0.09368   0.20401
  19   30003.4    333.3   0.080354773   0.88169  -0.46864  -0.12822  -0.80351
  20   30118.1    332.0   0.011902264   0.13010  -0.17527  -0.14259  -0.28115
  21   30593.1    326.9   0.001951002   0.02099   0.00390  -0.13591   0.05008
  22   30663.2    326.1   0.032723049   0.35133   0.06306   0.40203   0.43096
  23   31251.6    320.0   0.049364239   0.52002   0.22382   0.66960  -0.14683
  24   31959.0    312.9   0.146070203   1.50468   0.38177  -0.09381  -1.16195
  25   32347.6    309.1   0.139010651   1.41476   0.18724  -0.77167  -0.88557
  26   32664.1    306.1   0.134862178   1.35924   0.29999   1.12413   0.07470
  27   33109.6    302.0   0.259322480   2.57847  -0.32098  -1.39056  -0.73605
  28   33391.7    299.5   0.024642520   0.24295  -0.27570   0.38137   0.14663
  29   33500.1    298.5   0.147141360   1.44599   0.44746  -0.63458  -0.91819
  30   33851.6    295.4   0.601134297   5.84613  -1.22462  -0.59385   1.99844
  31   33926.6    294.8   0.071320790   0.69207  -0.21692  -0.76776  -0.23572
  32   34286.4    291.7   0.234340527   2.25009   0.13309  -0.26009   1.47130
  33   34395.2    290.7   0.054703097   0.52359  -0.12079   0.06503   0.71047
  34   34590.2    289.1   0.024923892   0.23721  -0.26986  -0.38362   0.13124
  35   34801.9    287.3   0.015873065   0.15015   0.32052  -0.03466  -0.21499
  36   35225.7    283.9   0.141956755   1.32670  -0.45213   0.02859  -1.05899
  37   35574.4    281.1   0.006346122   0.05873  -0.08875   0.19144  -0.11916
  38   35634.0    280.6   0.000365286   0.00337   0.01148  -0.05241  -0.02229
  39   35768.9    279.6   0.035774792   0.32927   0.43236  -0.37484  -0.04271
  40   35947.4    278.2   0.004688116   0.04293   0.14701   0.07004  -0.12813
  41   36228.0    276.0   0.077644815   0.70558   0.00514   0.83990   0.01110
  42   36554.6    273.6   0.015948174   0.14363  -0.11788   0.27133   0.23689
  43   36953.7    270.6   0.069800738   0.62184   0.56927  -0.21948   0.49960
  44   37410.8    267.3   0.005607406   0.04934   0.06972  -0.20628  -0.04393
  45   37667.0    265.5   0.009539810   0.08338   0.16281   0.03321  -0.23615
  46   38033.5    262.9   0.061304350   0.53064   0.55644  -0.35416  -0.30917
  47   38173.8    262.0   0.363966781   3.13886   0.77336  -0.93613  -1.29013
  48   38360.0    260.7   0.218295070   1.87345   0.09692  -1.04041   0.88408
  49   38548.4    259.4   0.002227430   0.01902  -0.00849  -0.08113  -0.11122
  50   38800.6    257.7   0.115138138   0.97691  -0.22610  -0.63859  -0.71972
  51   39294.1    254.5   0.015835425   0.13267   0.06854  -0.33610  -0.12252
  52   39472.1    253.3   0.055543621   0.46325   0.32455   0.31909   0.50606
  53   39512.9    253.1   0.031754442   0.26457  -0.33005   0.38595  -0.08173
  54   40184.2    248.9   0.075353308   0.61734   0.44665  -0.64309   0.06537

FINAL SINGLE POINT ENERGY     -4271.391615656760

DIPOLE MOMENT
-------------
                                X             Y             Z
Electronic contribution:      7.64926      -9.46696      -1.56910
Nuclear contribution   :    -10.14221      10.28874       4.73534
                        -----------------------------------------
Total Dipole Moment    :     -2.49294       0.82178       3.16624
                        -----------------------------------------
Magnitude (a.u.)       :      4.11280
Magnitude (Debye)      :     10.45392

Rotational constants in cm-1:     0.001206     0.000335     0.000276
Rotational constants in MHz :    36.157616    10.028704     8.281575

                             ****ORCA TERMINATED NORMALLY****
TOTAL RUN TIME: 0 days 0 hours 13 minutes 43 seconds 549 msec
