                         Program Version 4.2.0 -  RELEASE  -
|  1> # ORCA input file
|  2> # SCF done       -208.163085130273          0.000435780420
|  3> ! CAM-B3LYP def2-SVP def2/J RIJCOSX Grid4 TightSCF
|  4> %maxcore 5000
|  5> %tddft
|  6>     Mode sTDDFT
|  7>     Ethresh 5.0
|  8>     maxcore 5000
|  9> end
| 10>
| 11> %pal
| 12>   nprocs 6
| 13>   end
| 14> * xyz 0 1
| 15>    C       -0.43323         2.47597         4.64784
| 16>    C        0.21768         1.41535         4.07365
| 17>    C        1.48484         0.94965         4.48416
| 18>    N        2.51037         0.52077         4.77051
| 19>    C       -0.25435         0.65538         2.98268
| 20>    N       -0.56033        -0.00111         2.09132
| 21>    C        0.08666         3.29997         5.73322
| 22>    C       -0.82382         4.36016         5.97685
| 23>    C       -0.61349         5.31234         6.94513
| 24>    C        0.54903         5.21262         7.71514
| 25>    C        1.45151         4.14994         7.46798
| 26>    C        1.24019         3.18907         6.48556
| 27>    S        2.81341         4.22029         8.54010
| 28>    C        2.17776         5.64087         9.29409
| 29>    C        1.00050         6.05070         8.77306
| 30>    C       -1.96212         4.23661         5.05732
| 31>    O       -2.91602         4.99314         4.97681
| 32>    C       -1.72781         3.01819         4.27208
| 33>    C       -2.62101         2.44673         3.40541
| 34>    C       -3.89311         2.88085         2.99639
| 35>    C       -4.70496         2.09864         2.16686
| 36>    C       -5.91408         2.70506         1.88515
| 37>    C       -6.02541         3.98228         2.48642
| 38>    S       -4.66513         4.40922         3.41708
| 39>    C       -7.29325         4.51775         2.14525
| 40>    C       -7.97862         3.58397         1.34432
| 41>    C       -7.13622         2.41719         1.15105
| 42>    C       -7.44376         1.29480         0.43918
| 43>    C       -6.55111         0.20870         0.31911
| 44>    N       -5.83281        -0.67931         0.22133
| 45>    C       -8.68317         1.14485        -0.21832
| 46>    N       -9.69096         1.01917        -0.75139
| 47>    C       -9.24576         4.01639         0.96945
| 48>    C       -9.52993         5.27608         1.46937
| 49>    S       -8.20558         5.93249         2.41626
| 50>    C      -10.75493         5.98435         1.26704
| 51>    C      -10.99073         7.29167         1.67734
| 52>    F      -10.01544         7.96904         2.31162
| 53>    C      -12.19797         7.96705         1.46376
| 54>    F      -12.27412         9.23643         1.90615
| 55>    C      -13.30111         7.39956         0.83544
| 56>    C      -13.09403         6.06274         0.40994
| 57>    C      -11.85846         5.38143         0.61169
| 58>    N      -11.99620         4.15484         0.08884
| 59>    N      -13.21020         4.12847        -0.37847
| 60>    N      -13.91328         5.21353        -0.22608
| 61>    C      -13.74033         2.96343        -1.01523
| 62>    C      -14.54562         8.06911         0.62105
| 63>    C      -15.68640         7.48843         0.09101
| 64>    C      -16.73568         8.39618         0.00008
| 65>    C      -16.38875         9.68183         0.45650
| 66>    S      -14.77912         9.76321         1.01255
| 67>    C      -17.51775        10.52523         0.31069
| 68>    C      -18.57909         9.77189        -0.23253
| 69>    C      -18.12071         8.40878        -0.44241
| 70>    C      -18.82901         7.36069        -0.95212
| 71>    C      -18.25966         6.07979        -1.11624
| 72>    N      -17.80218         5.03759        -1.25597
| 73>    C      -20.17421         7.48865        -1.35903
| 74>    N      -21.26494         7.58745        -1.69771
| 75>    C      -19.72745        10.52853        -0.43311
| 76>    C      -19.57105        11.84628        -0.02624
| 77>    S      -17.94305        12.14946         0.57938
| 78>    C      -20.53746        12.86414        -0.19119
| 79>    C      -20.58064        14.13008         0.30316
| 80>    C      -19.86203        14.80261         1.36444
| 81>    C      -19.44797        14.23358         2.54099
| 82>    C      -18.84769        14.95495         3.59199
| 83>    N      -18.34043        15.49949         4.46577
| 84>    C      -19.68038        12.88037         2.85974
| 85>    N      -19.89691        11.79311         3.15826
| 86>    C      -19.93698        16.23354         1.09685
| 87>    C      -20.89041        16.45106         0.06774
| 88>    C      -21.40536        15.15280        -0.40380
| 89>    O      -22.26581        14.94296        -1.22679
| 90>    C      -21.21685        17.70988        -0.37621
| 91>    C      -20.56537        18.79892         0.21093
| 92>    C      -19.60512        18.56864         1.22621
| 93>    C      -19.28125        17.29675         1.68469
| 94>    S      -18.92108        20.05847         1.79344
| 95>    C      -19.90912        20.95890         0.69578
| 96>    C      -20.71469        20.18722        -0.06590
| 97>    H       -1.32573         6.10708         7.10413
| 98>    H        1.95675         2.39826         6.33979
| 99>    H        2.73407         6.08842        10.09465
|100>    H        0.45803         6.91331         9.11531
|101>    H       -2.34119         1.49575         2.96787
|102>    H       -4.39564         1.13282         1.80789
|103>    H       -9.94829         3.46918         0.36965
|104>    H      -12.92356         2.26161        -1.16906
|105>    H      -14.19554         3.24269        -1.96456
|106>    H      -14.50704         2.51164        -0.38441
|107>    H      -15.71551         6.45611        -0.20374
|108>    H      -20.65173        10.15595        -0.83663
|109>    H      -21.32443        12.62873        -0.90269
|110>    H      -21.95280        17.84970        -1.15266
|111>    H      -18.53975        17.16487         2.45564
|112>    H      -19.82298        22.02809         0.68832
|113>    H      -21.39615        20.57163        -0.80300
|114> *
|115>
|116>                          ****END OF INPUT****

CARTESIAN COORDINATES (ANGSTROEM)
---------------------------------
  C     -0.433230    2.475970    4.647840
  C      0.217680    1.415350    4.073650
  C      1.484840    0.949650    4.484160
  N      2.510370    0.520770    4.770510
  C     -0.254350    0.655380    2.982680
  N     -0.560330   -0.001110    2.091320
  C      0.086660    3.299970    5.733220
  C     -0.823820    4.360160    5.976850
  C     -0.613490    5.312340    6.945130
  C      0.549030    5.212620    7.715140
  C      1.451510    4.149940    7.467980
  C      1.240190    3.189070    6.485560
  S      2.813410    4.220290    8.540100
  C      2.177760    5.640870    9.294090
  C      1.000500    6.050700    8.773060
  C     -1.962120    4.236610    5.057320
  O     -2.916020    4.993140    4.976810
  C     -1.727810    3.018190    4.272080
  C     -2.621010    2.446730    3.405410
  C     -3.893110    2.880850    2.996390
  C     -4.704960    2.098640    2.166860
  C     -5.914080    2.705060    1.885150
  C     -6.025410    3.982280    2.486420
  S     -4.665130    4.409220    3.417080
  C     -7.293250    4.517750    2.145250
  C     -7.978620    3.583970    1.344320
  C     -7.136220    2.417190    1.151050
  C     -7.443760    1.294800    0.439180
  C     -6.551110    0.208700    0.319110
  N     -5.832810   -0.679310    0.221330
  C     -8.683170    1.144850   -0.218320
  N     -9.690960    1.019170   -0.751390
  C     -9.245760    4.016390    0.969450
  C     -9.529930    5.276080    1.469370
  S     -8.205580    5.932490    2.416260
  C    -10.754930    5.984350    1.267040
  C    -10.990730    7.291670    1.677340
  F    -10.015440    7.969040    2.311620
  C    -12.197970    7.967050    1.463760
  F    -12.274120    9.236430    1.906150
  C    -13.301110    7.399560    0.835440
  C    -13.094030    6.062740    0.409940
  C    -11.858460    5.381430    0.611690
  N    -11.996200    4.154840    0.088840
  N    -13.210200    4.128470   -0.378470
  N    -13.913280    5.213530   -0.226080
  C    -13.740330    2.963430   -1.015230
  C    -14.545620    8.069110    0.621050
  C    -15.686400    7.488430    0.091010
  C    -16.735680    8.396180    0.000080
  C    -16.388750    9.681830    0.456500
  S    -14.779120    9.763210    1.012550
  C    -17.517750   10.525230    0.310690
  C    -18.579090    9.771890   -0.232530
  C    -18.120710    8.408780   -0.442410
  C    -18.829010    7.360690   -0.952120
  C    -18.259660    6.079790   -1.116240
  N    -17.802180    5.037590   -1.255970
  C    -20.174210    7.488650   -1.359030
  N    -21.264940    7.587450   -1.697710
  C    -19.727450   10.528530   -0.433110
  C    -19.571050   11.846280   -0.026240
  S    -17.943050   12.149460    0.579380
  C    -20.537460   12.864140   -0.191190
  C    -20.580640   14.130080    0.303160
  C    -19.862030   14.802610    1.364440
  C    -19.447970   14.233580    2.540990
  C    -18.847690   14.954950    3.591990
  N    -18.340430   15.499490    4.465770
  C    -19.680380   12.880370    2.859740
  N    -19.896910   11.793110    3.158260
  C    -19.936980   16.233540    1.096850
  C    -20.890410   16.451060    0.067740
  C    -21.405360   15.152800   -0.403800
  O    -22.265810   14.942960   -1.226790
  C    -21.216850   17.709880   -0.376210
  C    -20.565370   18.798920    0.210930
  C    -19.605120   18.568640    1.226210
  C    -19.281250   17.296750    1.684690
  S    -18.921080   20.058470    1.793440
  C    -19.909120   20.958900    0.695780
  C    -20.714690   20.187220   -0.065900
  H     -1.325730    6.107080    7.104130
  H      1.956750    2.398260    6.339790
  H      2.734070    6.088420   10.094650
  H      0.458030    6.913310    9.115310
  H     -2.341190    1.495750    2.967870
  H     -4.395640    1.132820    1.807890
  H     -9.948290    3.469180    0.369650
  H    -12.923560    2.261610   -1.169060
  H    -14.195540    3.242690   -1.964560
  H    -14.507040    2.511640   -0.384410
  H    -15.715510    6.456110   -0.203740
  H    -20.651730   10.155950   -0.836630
  H    -21.324430   12.628730   -0.902690
  H    -21.952800   17.849700   -1.152660
  H    -18.539750   17.164870    2.455640
  H    -19.822980   22.028090    0.688320
  H    -21.396150   20.571630   -0.803000

 Total Charge           Charge          ....    0
 Multiplicity           Mult            ....    1
 Number of Electrons    NEL             ....  590
 Basis Dimension        Dim             .... 1257

ORBITAL ENERGIES
----------------

  NO   OCC          E(Eh)            E(eV)
   0   2.0000     -88.997774     -2421.7526
   1   2.0000     -88.996065     -2421.7061
   2   2.0000     -88.994799     -2421.6716
   3   2.0000     -88.991312     -2421.5767
   4   2.0000     -88.969477     -2420.9825
   5   2.0000     -88.969462     -2420.9821
   6   2.0000     -24.818787      -675.3535
   7   2.0000     -24.818027      -675.3328
   8   2.0000     -19.226721      -523.1857
   9   2.0000     -19.215988      -522.8936
  10   2.0000     -14.562659      -396.2701
  11   2.0000     -14.464942      -393.6111
  12   2.0000     -14.463973      -393.5847
  13   2.0000     -14.434094      -392.7717
  14   2.0000     -14.433799      -392.7636
  15   2.0000     -14.433572      -392.7575
  16   2.0000     -14.430948      -392.6860
  17   2.0000     -14.418828      -392.3562
  18   2.0000     -14.417638      -392.3239
  19   2.0000     -14.417214      -392.3123
  20   2.0000     -14.415305      -392.2604
  21   2.0000     -10.394186      -282.8402
  22   2.0000     -10.393636      -282.8252
  23   2.0000     -10.374324      -282.2997
  24   2.0000     -10.368981      -282.1543
  25   2.0000     -10.367832      -282.1231
  26   2.0000     -10.366644      -282.0907
  27   2.0000     -10.356584      -281.8170
  28   2.0000     -10.354959      -281.7728
  29   2.0000     -10.346714      -281.5484
  30   2.0000     -10.346630      -281.5461
  31   2.0000     -10.345769      -281.5227
  32   2.0000     -10.343712      -281.4667
  33   2.0000     -10.343131      -281.4509
  34   2.0000     -10.336132      -281.2604
  35   2.0000     -10.335760      -281.2503
  36   2.0000     -10.335739      -281.2498
  37   2.0000     -10.335448      -281.2418
  38   2.0000     -10.334305      -281.2107
  39   2.0000     -10.334235      -281.2088
  40   2.0000     -10.334150      -281.2065
  41   2.0000     -10.333553      -281.1903
  42   2.0000     -10.332442      -281.1601
  43   2.0000     -10.331569      -281.1363
  44   2.0000     -10.330814      -281.1157
  45   2.0000     -10.330791      -281.1151
  46   2.0000     -10.330693      -281.1125
  47   2.0000     -10.330176      -281.0984
  48   2.0000     -10.328993      -281.0662
  49   2.0000     -10.328628      -281.0563
  50   2.0000     -10.328005      -281.0393
  51   2.0000     -10.325822      -280.9799
  52   2.0000     -10.323578      -280.9188
  53   2.0000     -10.323357      -280.9128
  54   2.0000     -10.321269      -280.8560
  55   2.0000     -10.320129      -280.8250
  56   2.0000     -10.319034      -280.7952
  57   2.0000     -10.318276      -280.7746
  58   2.0000     -10.316778      -280.7338
  59   2.0000     -10.316383      -280.7230
  60   2.0000     -10.315527      -280.6997
  61   2.0000     -10.314222      -280.6642
  62   2.0000     -10.310037      -280.5504
  63   2.0000     -10.309930      -280.5474
  64   2.0000     -10.309898      -280.5466
  65   2.0000     -10.309103      -280.5250
  66   2.0000     -10.308745      -280.5152
  67   2.0000     -10.306835      -280.4632
  68   2.0000     -10.306573      -280.4561
  69   2.0000     -10.305769      -280.4342
  70   2.0000     -10.304607      -280.4026
  71   2.0000     -10.304130      -280.3896
  72   2.0000     -10.302915      -280.3566
  73   2.0000     -10.301746      -280.3248
  74   2.0000     -10.301404      -280.3155
  75   2.0000     -10.301092      -280.3070
  76   2.0000     -10.300360      -280.2870
  77   2.0000     -10.300269      -280.2846
  78   2.0000     -10.294069      -280.1158
  79   2.0000     -10.293764      -280.1076
  80   2.0000     -10.291849      -280.0554
  81   2.0000     -10.291295      -280.0404
  82   2.0000      -8.091947      -220.1931
  83   2.0000      -8.090125      -220.1435
  84   2.0000      -8.088859      -220.1090
  85   2.0000      -8.083633      -219.9668
  86   2.0000      -8.065711      -219.4791
  87   2.0000      -8.065631      -219.4770
  88   2.0000      -6.061157      -164.9325
  89   2.0000      -6.059421      -164.8852
  90   2.0000      -6.058127      -164.8500
  91   2.0000      -6.056953      -164.8181
  92   2.0000      -6.055018      -164.7654
  93   2.0000      -6.054417      -164.7491
  94   2.0000      -6.053741      -164.7307
  95   2.0000      -6.053038      -164.7115
  96   2.0000      -6.052584      -164.6992
  97   2.0000      -6.051364      -164.6660
  98   2.0000      -6.048288      -164.5823
  99   2.0000      -6.046211      -164.5258
 100   2.0000      -6.035216      -164.2266
 101   2.0000      -6.035180      -164.2256
 102   2.0000      -6.030895      -164.1090
 103   2.0000      -6.030809      -164.1067
 104   2.0000      -6.027412      -164.0142
 105   2.0000      -6.027346      -164.0124
 106   2.0000      -1.340710       -36.4826
 107   2.0000      -1.323573       -36.0163
 108   2.0000      -1.242709       -33.8158
 109   2.0000      -1.142021       -31.0760
 110   2.0000      -1.131607       -30.7926
 111   2.0000      -1.051649       -28.6168
 112   2.0000      -1.048341       -28.5268
 113   2.0000      -1.026357       -27.9286
 114   2.0000      -1.024409       -27.8756
 115   2.0000      -1.023798       -27.8590
 116   2.0000      -1.022513       -27.8240
 117   2.0000      -1.017818       -27.6962
 118   2.0000      -1.016318       -27.6554
 119   2.0000      -1.011091       -27.5132
 120   2.0000      -1.010690       -27.5023
 121   2.0000      -1.010615       -27.5002
 122   2.0000      -1.009491       -27.4697
 123   2.0000      -1.002748       -27.2862
 124   2.0000      -0.997596       -27.1460
 125   2.0000      -0.995313       -27.0839
 126   2.0000      -0.994982       -27.0748
 127   2.0000      -0.987905       -26.8823
 128   2.0000      -0.987577       -26.8733
 129   2.0000      -0.965620       -26.2758
 130   2.0000      -0.962842       -26.2003
 131   2.0000      -0.945341       -25.7240
 132   2.0000      -0.935307       -25.4510
 133   2.0000      -0.934616       -25.4322
 134   2.0000      -0.927117       -25.2281
 135   2.0000      -0.919803       -25.0291
 136   2.0000      -0.907833       -24.7034
 137   2.0000      -0.900782       -24.5115
 138   2.0000      -0.892780       -24.2938
 139   2.0000      -0.884375       -24.0651
 140   2.0000      -0.884147       -24.0589
 141   2.0000      -0.879137       -23.9225
 142   2.0000      -0.877919       -23.8894
 143   2.0000      -0.868898       -23.6439
 144   2.0000      -0.862531       -23.4707
 145   2.0000      -0.860034       -23.4027
 146   2.0000      -0.857509       -23.3340
 147   2.0000      -0.838851       -22.8263
 148   2.0000      -0.826155       -22.4808
 149   2.0000      -0.825705       -22.4686
 150   2.0000      -0.818501       -22.2726
 151   2.0000      -0.808171       -21.9914
 152   2.0000      -0.794533       -21.6204
 153   2.0000      -0.783943       -21.3322
 154   2.0000      -0.780180       -21.2298
 155   2.0000      -0.772230       -21.0135
 156   2.0000      -0.762819       -20.7574
 157   2.0000      -0.760193       -20.6859
 158   2.0000      -0.756719       -20.5914
 159   2.0000      -0.753421       -20.5016
 160   2.0000      -0.732515       -19.9327
 161   2.0000      -0.728234       -19.8163
 162   2.0000      -0.712359       -19.3843
 163   2.0000      -0.707469       -19.2512
 164   2.0000      -0.704679       -19.1753
 165   2.0000      -0.695940       -18.9375
 166   2.0000      -0.693885       -18.8816
 167   2.0000      -0.691049       -18.8044
 168   2.0000      -0.690662       -18.7939
 169   2.0000      -0.687425       -18.7058
 170   2.0000      -0.682529       -18.5726
 171   2.0000      -0.679134       -18.4802
 172   2.0000      -0.669902       -18.2290
 173   2.0000      -0.665243       -18.1022
 174   2.0000      -0.664132       -18.0720
 175   2.0000      -0.661333       -17.9958
 176   2.0000      -0.651882       -17.7386
 177   2.0000      -0.648967       -17.6593
 178   2.0000      -0.644351       -17.5337
 179   2.0000      -0.637884       -17.3577
 180   2.0000      -0.635518       -17.2933
 181   2.0000      -0.626442       -17.0464
 182   2.0000      -0.625468       -17.0198
 183   2.0000      -0.624849       -17.0030
 184   2.0000      -0.622016       -16.9259
 185   2.0000      -0.621638       -16.9156
 186   2.0000      -0.618398       -16.8275
 187   2.0000      -0.611060       -16.6278
 188   2.0000      -0.604439       -16.4476
 189   2.0000      -0.602777       -16.4024
 190   2.0000      -0.599978       -16.3262
 191   2.0000      -0.597420       -16.2566
 192   2.0000      -0.591531       -16.0964
 193   2.0000      -0.585529       -15.9331
 194   2.0000      -0.577561       -15.7162
 195   2.0000      -0.573173       -15.5968
 196   2.0000      -0.568668       -15.4743
 197   2.0000      -0.566748       -15.4220
 198   2.0000      -0.558940       -15.2095
 199   2.0000      -0.554541       -15.0898
 200   2.0000      -0.553149       -15.0519
 201   2.0000      -0.551471       -15.0063
 202   2.0000      -0.550215       -14.9721
 203   2.0000      -0.543754       -14.7963
 204   2.0000      -0.542603       -14.7650
 205   2.0000      -0.541166       -14.7259
 206   2.0000      -0.540156       -14.6984
 207   2.0000      -0.536394       -14.5960
 208   2.0000      -0.533531       -14.5181
 209   2.0000      -0.531123       -14.4526
 210   2.0000      -0.529929       -14.4201
 211   2.0000      -0.525132       -14.2896
 212   2.0000      -0.522365       -14.2143
 213   2.0000      -0.521103       -14.1799
 214   2.0000      -0.516087       -14.0434
 215   2.0000      -0.515417       -14.0252
 216   2.0000      -0.512618       -13.9490
 217   2.0000      -0.510281       -13.8854
 218   2.0000      -0.507984       -13.8229
 219   2.0000      -0.507354       -13.8058
 220   2.0000      -0.506043       -13.7701
 221   2.0000      -0.504647       -13.7321
 222   2.0000      -0.503510       -13.7012
 223   2.0000      -0.501019       -13.6334
 224   2.0000      -0.499521       -13.5926
 225   2.0000      -0.498576       -13.5669
 226   2.0000      -0.497342       -13.5334
 227   2.0000      -0.496758       -13.5175
 228   2.0000      -0.493667       -13.4334
 229   2.0000      -0.491481       -13.3739
 230   2.0000      -0.489178       -13.3112
 231   2.0000      -0.488328       -13.2881
 232   2.0000      -0.486868       -13.2483
 233   2.0000      -0.481800       -13.1104
 234   2.0000      -0.478879       -13.0310
 235   2.0000      -0.474618       -12.9150
 236   2.0000      -0.470304       -12.7976
 237   2.0000      -0.465049       -12.6546
 238   2.0000      -0.464373       -12.6362
 239   2.0000      -0.460643       -12.5347
 240   2.0000      -0.458856       -12.4861
 241   2.0000      -0.458239       -12.4693
 242   2.0000      -0.457657       -12.4535
 243   2.0000      -0.455060       -12.3828
 244   2.0000      -0.451294       -12.2803
 245   2.0000      -0.450795       -12.2668
 246   2.0000      -0.449543       -12.2327
 247   2.0000      -0.447591       -12.1796
 248   2.0000      -0.445282       -12.1167
 249   2.0000      -0.444271       -12.0892
 250   2.0000      -0.444125       -12.0853
 251   2.0000      -0.443847       -12.0777
 252   2.0000      -0.442630       -12.0446
 253   2.0000      -0.442387       -12.0380
 254   2.0000      -0.442292       -12.0354
 255   2.0000      -0.440805       -11.9949
 256   2.0000      -0.439648       -11.9634
 257   2.0000      -0.436953       -11.8901
 258   2.0000      -0.435712       -11.8563
 259   2.0000      -0.434963       -11.8360
 260   2.0000      -0.433217       -11.7884
 261   2.0000      -0.430608       -11.7174
 262   2.0000      -0.428816       -11.6687
 263   2.0000      -0.428595       -11.6627
 264   2.0000      -0.428084       -11.6488
 265   2.0000      -0.426729       -11.6119
 266   2.0000      -0.421722       -11.4756
 267   2.0000      -0.417856       -11.3705
 268   2.0000      -0.416620       -11.3368
 269   2.0000      -0.413713       -11.2577
 270   2.0000      -0.410310       -11.1651
 271   2.0000      -0.408417       -11.1136
 272   2.0000      -0.406208       -11.0535
 273   2.0000      -0.401861       -10.9352
 274   2.0000      -0.391945       -10.6654
 275   2.0000      -0.387403       -10.5418
 276   2.0000      -0.386658       -10.5215
 277   2.0000      -0.376118       -10.2347
 278   2.0000      -0.374403       -10.1880
 279   2.0000      -0.357520        -9.7286
 280   2.0000      -0.352004        -9.5785
 281   2.0000      -0.351482        -9.5643
 282   2.0000      -0.344324        -9.3695
 283   2.0000      -0.342307        -9.3146
 284   2.0000      -0.341176        -9.2839
 285   2.0000      -0.335244        -9.1225
 286   2.0000      -0.326988        -8.8978
 287   2.0000      -0.324704        -8.8356
 288   2.0000      -0.317170        -8.6306
 289   2.0000      -0.316349        -8.6083
 290   2.0000      -0.310970        -8.4619
 291   2.0000      -0.298348        -8.1185
 292   2.0000      -0.296850        -8.0777
 293   2.0000      -0.277627        -7.5546
 294   2.0000      -0.253856        -6.9078
 295   0.0000      -0.118682        -3.2295
 296   0.0000      -0.109967        -2.9923
 297   0.0000      -0.089977        -2.4484
 298   0.0000      -0.088407        -2.4057
 299   0.0000      -0.070815        -1.9270

MULLIKEN ATOMIC CHARGES
-----------------------
   0 C :    0.318883
   1 C :   -0.349146
   2 C :   -0.185346
   3 N :    0.155760
   4 C :   -0.198959
   5 N :    0.155057
   6 C :    0.012263
   7 C :   -0.016319
   8 C :   -0.067025
   9 C :    0.114352
  10 C :   -0.096889
  11 C :   -0.022281
  12 S :    0.145013
  13 C :   -0.049082
  14 C :    0.024648
  15 C :    0.167179
  16 O :   -0.191227
  17 C :   -0.089986
  18 C :   -0.030802
  19 C :   -0.055417
  20 C :   -0.055073
  21 C :    0.040824
  22 C :   -0.077214
  23 S :    0.245544
  24 C :   -0.095252
  25 C :    0.039862
  26 C :    0.312879
  27 C :   -0.304729
  28 C :   -0.193409
  29 N :    0.184102
  30 C :   -0.186638
  31 N :    0.172208
  32 C :   -0.074062
  33 C :   -0.127224
  34 S :    0.220397
  35 C :    0.093365
  36 C :    0.113348
  37 F :   -0.177530
  38 C :    0.110908
  39 F :   -0.176635
  40 C :    0.094395
  41 C :   -0.032216
  42 C :   -0.029384
  43 N :   -0.058247
  44 N :   -0.054503
  45 N :   -0.060805
  46 C :    0.136118
  47 C :   -0.131302
  48 C :   -0.065260
  49 C :    0.034250
  50 C :   -0.091372
  51 S :    0.219140
  52 C :   -0.084764
  53 C :    0.021889
  54 C :    0.310106
  55 C :   -0.301495
  56 C :   -0.183193
  57 N :    0.170255
  58 C :   -0.192557
  59 N :    0.181199
  60 C :   -0.004935
  61 C :   -0.078553
  62 S :    0.208975
  63 C :    0.040322
  64 C :   -0.132658
  65 C :    0.238749
  66 C :   -0.325623
  67 C :   -0.175659
  68 N :    0.156645
  69 C :   -0.212260
  70 N :    0.174176
  71 C :    0.007575
  72 C :   -0.000744
  73 C :    0.137925
  74 O :   -0.143354
  75 C :   -0.066091
  76 C :    0.107312
  77 C :   -0.090307
  78 C :   -0.023426
  79 S :    0.139895
  80 C :   -0.051881
  81 C :    0.026507
  82 H :   -0.011918
  83 H :   -0.004615
  84 H :    0.040166
  85 H :   -0.006716
  86 H :    0.018849
  87 H :    0.026436
  88 H :    0.021960
  89 H :    0.070758
  90 H :    0.062436
  91 H :    0.065062
  92 H :    0.019725
  93 H :    0.019495
  94 H :    0.032328
  95 H :   -0.008312
  96 H :   -0.002934
  97 H :    0.041047
  98 H :   -0.004959
Sum of atomic charges:   -0.0000000

LOEWDIN ATOMIC CHARGES
----------------------
   0 C :    0.076753
   1 C :   -0.141052
   2 C :   -0.018358
   3 N :   -0.052425
   4 C :   -0.023852
   5 N :   -0.048136
   6 C :   -0.021210
   7 C :   -0.054343
   8 C :    0.023851
   9 C :   -0.035515
  10 C :   -0.145277
  11 C :   -0.007697
  12 S :    0.433098
  13 C :   -0.148906
  14 C :   -0.057560
  15 C :    0.086318
  16 O :   -0.176175
  17 C :   -0.109741
  18 C :    0.055476
  19 C :   -0.184271
  20 C :    0.011568
  21 C :   -0.078127
  22 C :   -0.166571
  23 S :    0.549706
  24 C :   -0.188206
  25 C :   -0.059837
  26 C :    0.080062
  27 C :   -0.102893
  28 C :   -0.020553
  29 N :   -0.025839
  30 C :   -0.012181
  31 N :   -0.037554
  32 C :   -0.019340
  33 C :   -0.160376
  34 S :    0.498739
  35 C :   -0.063066
  36 C :    0.057695
  37 F :   -0.052590
  38 C :    0.058557
  39 F :   -0.052383
  40 C :   -0.064326
  41 C :   -0.040519
  42 C :   -0.043034
  43 N :   -0.074136
  44 N :    0.167225
  45 N :   -0.078458
  46 C :    0.036465
  47 C :   -0.160226
  48 C :   -0.018028
  49 C :   -0.059209
  50 C :   -0.189374
  51 S :    0.499636
  52 C :   -0.151236
  53 C :   -0.074241
  54 C :    0.080930
  55 C :   -0.099024
  56 C :   -0.014655
  57 N :   -0.033109
  58 C :   -0.018092
  59 N :   -0.028188
  60 C :    0.013173
  61 C :   -0.177982
  62 S :    0.514860
  63 C :    0.049183
  64 C :   -0.100651
  65 C :    0.061894
  66 C :   -0.147439
  67 C :   -0.021012
  68 N :   -0.050192
  69 C :   -0.039172
  70 N :   -0.047852
  71 C :   -0.019784
  72 C :   -0.054832
  73 C :    0.083962
  74 O :   -0.142741
  75 C :    0.024617
  76 C :   -0.035648
  77 C :   -0.144868
  78 C :   -0.011736
  79 S :    0.429692
  80 C :   -0.149582
  81 C :   -0.057002
  82 H :    0.040276
  83 H :    0.041324
  84 H :    0.029901
  85 H :    0.035349
  86 H :    0.053781
  87 H :    0.047760
  88 H :    0.037729
  89 H :    0.049055
  90 H :    0.046579
  91 H :    0.046711
  92 H :    0.038044
  93 H :    0.047247
  94 H :    0.055344
  95 H :    0.041514
  96 H :    0.040438
  97 H :    0.029956
  98 H :    0.035913

  Mayer bond orders larger than 0.100000
B(  0-C ,  1-C ) :   1.6330 B(  0-C ,  6-C ) :   1.0021 B(  0-C , 17-C ) :   1.0703
B(  1-C ,  2-C ) :   1.1426 B(  1-C ,  4-C ) :   1.1433 B(  2-C ,  3-N ) :   2.9715
B(  4-C ,  5-N ) :   2.9706 B(  6-C ,  7-C ) :   1.2672 B(  6-C , 11-C ) :   1.4165
B(  7-C ,  8-C ) :   1.4238 B(  7-C , 15-C ) :   0.9680 B(  8-C ,  9-C ) :   1.2439
B(  8-C , 82-H ) :   1.0170 B(  9-C , 10-C ) :   1.3017 B(  9-C , 14-C ) :   1.1728
B( 10-C , 11-C ) :   1.3204 B( 10-C , 12-S ) :   1.1020 B( 11-C , 83-H ) :   0.9820
B( 12-S , 13-C ) :   1.1275 B( 13-C , 14-C ) :   1.6272 B( 13-C , 84-H ) :   0.9686
B( 14-C , 85-H ) :   0.9997 B( 15-C , 16-O ) :   2.1091 B( 15-C , 17-C ) :   0.9816
B( 17-C , 18-C ) :   1.5013 B( 18-C , 19-C ) :   1.2609 B( 18-C , 86-H ) :   0.9430
B( 19-C , 20-C ) :   1.3321 B( 19-C , 23-S ) :   1.0728 B( 20-C , 21-C ) :   1.3294
B( 20-C , 87-H ) :   1.0084 B( 21-C , 22-C ) :   1.3640 B( 21-C , 26-C ) :   0.9820
B( 22-C , 23-S ) :   1.1288 B( 22-C , 24-C ) :   1.2009 B( 24-C , 25-C ) :   1.4199
B( 24-C , 34-S ) :   1.1080 B( 25-C , 26-C ) :   1.0008 B( 25-C , 32-C ) :   1.2556
B( 26-C , 27-C ) :   1.7142 B( 27-C , 28-C ) :   1.1315 B( 27-C , 30-C ) :   1.1395
B( 28-C , 29-N ) :   2.9977 B( 30-C , 31-N ) :   2.9894 B( 32-C , 33-C ) :   1.4686
B( 32-C , 88-H ) :   0.9787 B( 33-C , 34-S ) :   1.1019 B( 33-C , 35-C ) :   1.1411
B( 35-C , 36-C ) :   1.3639 B( 35-C , 40-C ) :   0.1292 B( 35-C , 42-C ) :   1.1771
B( 36-C , 37-F ) :   1.1374 B( 36-C , 38-C ) :   1.2025 B( 38-C , 39-F ) :   1.1361
B( 38-C , 40-C ) :   1.3618 B( 40-C , 41-C ) :   1.1754 B( 40-C , 47-C ) :   1.1424
B( 41-C , 42-C ) :   1.2233 B( 41-C , 45-N ) :   1.4708 B( 42-C , 43-N ) :   1.4680
B( 43-N , 44-N ) :   1.2483 B( 43-N , 45-N ) :   0.1565 B( 44-N , 45-N ) :   1.2309
B( 44-N , 46-C ) :   0.9464 B( 46-C , 89-H ) :   0.9630 B( 46-C , 90-H ) :   0.9672
B( 46-C , 91-H ) :   0.9680 B( 47-C , 48-C ) :   1.4669 B( 47-C , 51-S ) :   1.1041
B( 48-C , 49-C ) :   1.2609 B( 48-C , 92-H ) :   0.9778 B( 49-C , 50-C ) :   1.4231
B( 49-C , 54-C ) :   0.9991 B( 50-C , 51-S ) :   1.1050 B( 50-C , 52-C ) :   1.2064
B( 52-C , 53-C ) :   1.3989 B( 52-C , 62-S ) :   1.1649 B( 53-C , 54-C ) :   0.9891
B( 53-C , 60-C ) :   1.3047 B( 54-C , 55-C ) :   1.7144 B( 55-C , 56-C ) :   1.1395
B( 55-C , 58-C ) :   1.1337 B( 56-C , 57-N ) :   2.9835 B( 58-C , 59-N ) :   2.9954
B( 60-C , 61-C ) :   1.3953 B( 60-C , 93-H ) :   1.0019 B( 61-C , 62-S ) :   1.0819
B( 61-C , 63-C ) :   1.1571 B( 63-C , 64-C ) :   1.6354 B( 63-C , 94-H ) :   0.9441
B( 64-C , 65-C ) :   1.0348 B( 64-C , 73-C ) :   0.9381 B( 65-C , 66-C ) :   1.6493
B( 65-C , 71-C ) :   1.0182 B( 66-C , 67-C ) :   1.1318 B( 66-C , 69-C ) :   1.1553
B( 67-C , 68-N ) :   2.9951 B( 69-C , 70-N ) :   3.0230 B( 71-C , 72-C ) :   1.2697
B( 71-C , 78-C ) :   1.4167 B( 72-C , 73-C ) :   0.9255 B( 72-C , 75-C ) :   1.4303
B( 73-C , 74-O ) :   2.2644 B( 75-C , 76-C ) :   1.2512 B( 75-C , 95-H ) :   1.0168
B( 76-C , 77-C ) :   1.3030 B( 76-C , 81-C ) :   1.1735 B( 77-C , 78-C ) :   1.3193
B( 77-C , 79-S ) :   1.0976 B( 78-C , 96-H ) :   0.9879 B( 79-S , 80-C ) :   1.1261
B( 80-C , 81-C ) :   1.6304 B( 80-C , 97-H ) :   0.9678 B( 81-C , 98-H ) :   0.9995

-----------------------------------------------------------------------------
         ABSORPTION SPECTRUM VIA TRANSITION ELECTRIC DIPOLE MOMENTS
-----------------------------------------------------------------------------
State   Energy  Wavelength   fosc         T2         TX        TY        TZ
        (cm-1)    (nm)                  (au**2)     (au)      (au)      (au)
-----------------------------------------------------------------------------
   0   13282.6    752.9   0.730656794  18.10947   3.50477  -2.35555   0.52671
   1   14545.3    687.5   0.133883875   3.03026  -1.58091   0.21013  -0.69774
   2   19747.0    506.4   1.706652586  28.45251   4.35753  -3.01036   0.63416
   3   21510.5    464.9   0.631902851   9.67109   2.26680   1.09499   1.82584
   4   22212.6    450.2   0.017887793   0.26511   0.48922   0.02675   0.15832
   5   23835.8    419.5   0.018349660   0.25344   0.49373  -0.00184   0.09831
   6   25313.1    395.1   0.076915892   1.00034  -0.98280   0.17906   0.04882
   7   25872.1    386.5   0.133691895   1.70117  -0.62410   1.05866  -0.43693
   8   26551.9    376.6   0.091203482   1.13082  -0.77103   0.45290  -0.57551
   9   27466.5    364.1   0.186600435   2.23658   0.28064   1.11722   0.95375
  10   28033.5    356.7   0.036681171   0.43077   0.57399   0.01334   0.31801
  11   28604.8    349.6   0.030116186   0.34661   0.30973  -0.49939  -0.03575
  12   28915.0    345.8   0.073435987   0.83610   0.12602   0.84641   0.32221
  13   28970.3    345.2   0.002129924   0.02420  -0.08431  -0.10454   0.07853
  14   29334.3    340.9   0.026595876   0.29848  -0.29594   0.18070  -0.42219
  15   29694.1    336.8   0.026426225   0.29298  -0.03599   0.52395  -0.13101
  16   29936.3    334.0   0.178834136   1.96665  -1.02492  -0.93074  -0.22343
  17   30134.2    331.8   0.039619156   0.43283   0.46052  -0.00041   0.46985
  18   30463.0    328.3   0.634701642   6.85918  -0.46214  -2.34849  -1.06311
  19   30779.9    324.9   0.100062692   1.07024   0.40447  -0.95066   0.05373
  20   30897.0    323.7   0.071070152   0.75726   0.37530   0.67639   0.39864
  21   31423.8    318.2   0.394046669   4.12824  -0.86308   1.57138  -0.95607
  22   31903.8    313.4   0.056356352   0.58153   0.28828   0.43883   0.55305
  23   32345.3    309.2   0.207729089   2.11428  -1.36177  -0.25841  -0.43940
  24   32440.7    308.3   0.268953656   2.72937  -0.40879   1.19162   1.06878
  25   32744.5    305.4   0.240979191   2.42280  -0.63559  -0.90257  -1.09735
  26   32997.0    303.1   0.475596958   4.74504  -0.85321  -1.70359  -1.05586
  27   33161.7    301.6   0.205859559   2.04367   0.91395  -0.67244   0.86959
  28   33367.2    299.7   0.049566871   0.48904  -0.04142   0.69170   0.09419
  29   33660.4    297.1   0.003404069   0.03329  -0.04585  -0.07345   0.16061
  30   33869.9    295.2   0.000311030   0.00302  -0.04485   0.02034   0.02445
  31   34166.8    292.7   0.009247053   0.08910   0.24307   0.12990   0.11464
  32   34613.8    288.9   0.030855560   0.29347   0.09039  -0.45521   0.27943
  33   34713.3    288.1   0.147528715   1.39912  -0.17300  -0.90729  -0.73893
  34   34952.0    286.1   0.399943192   3.76706  -0.76453  -1.63517  -0.71327
  35   35259.1    283.6   0.005678497   0.05302  -0.14710   0.17701   0.00693
  36   35389.1    282.6   0.143690905   1.33670   0.26831   0.74543   0.84205
  37   35644.5    280.5   0.221143287   2.04248  -0.16650   1.20291  -0.75350
  38   35675.1    280.3   0.096213552   0.88786   0.54787  -0.74219   0.19199
  39   35973.3    278.0   0.096943223   0.88718   0.14783   0.87573   0.31374
  40   36083.2    277.1   0.083283391   0.75985  -0.23474  -0.12399  -0.83029
  41   36274.2    275.7   0.041487659   0.37653   0.51056  -0.31965   0.11694
  42   36627.2    273.0   0.008823034   0.07930   0.08286  -0.18567   0.19484
  43   36726.7    272.3   0.014450008   0.12953  -0.16970  -0.22319  -0.22564
  44   37096.1    269.6   0.010612500   0.09418   0.26191  -0.08190   0.13740
  45   37355.7    267.7   0.045514065   0.40111   0.52879  -0.34426   0.05460
  46   37625.1    265.8   0.032706523   0.28618   0.13587  -0.46542   0.22604
  47   37992.0    263.2   0.092976231   0.80567   0.55034  -0.69283  -0.15095
  48   38311.4    261.0   0.029616064   0.25449   0.42980  -0.23188   0.12648
  49   38452.4    260.1   0.017598075   0.15067   0.30191  -0.07771   0.23126
  50   38903.4    257.0   0.086132663   0.72888   0.77024  -0.25627   0.26446
  51   39247.6    254.8   0.111860464   0.93829   0.77189  -0.57931   0.08290
  52   39346.4    254.2   0.085955334   0.71919   0.39749   0.65870   0.35678
  53   39451.9    253.5   0.210580157   1.75721   1.23969  -0.34813   0.31492
  54   39659.0    252.1   0.194290715   1.61282   0.68255  -1.02014  -0.32597
  55   39872.7    250.8   0.025604108   0.21140  -0.35403  -0.22239  -0.19132
  56   40102.3    249.4   0.023840881   0.19572  -0.13704  -0.36759  -0.20448
  57   40193.8    248.8   0.095434159   0.78166   0.48831   0.28454   0.67990
  58   40310.0    248.1   0.012628528   0.10314   0.28430   0.00100   0.14936

FINAL SINGLE POINT ENERGY     -5671.242334234867

DIPOLE MOMENT
-------------
                                X             Y             Z
Electronic contribution:      3.91476      -2.70617       1.74340
Nuclear contribution   :     -3.46372       6.95097      -1.04689
                        -----------------------------------------
Total Dipole Moment    :      0.45104       4.24480       0.69651
                        -----------------------------------------
Magnitude (a.u.)       :      4.32515
Magnitude (Debye)      :     10.99366

Rotational constants in cm-1:     0.001123     0.000166     0.000147
Rotational constants in MHz :    33.679260     4.965191     4.397545

                             ****ORCA TERMINATED NORMALLY****
TOTAL RUN TIME: 0 days 0 hours 11 minutes 10 seconds 135 msec
