                         Program Version 4.2.0 -  RELEASE  -
|  1> # ORCA input file
|  2> # SCF done       -199.846095704170          0.001454540678
|  3> ! CAM-B3LYP def2-SVP def2/J RIJCOSX Grid4 TightSCF
|  4> %maxcore 5000
|  5> %tddft
|  6>     Mode sTDDFT
|  7>     Ethresh 5.0
|  8>     maxcore 5000
|  9> end
| 10>
| 11> %pal
| 12>   nprocs 6
| 13>   end
| 14> * xyz 0 1
| 15>    C       -2.50113        -0.41043        -4.51372
| 16>    C       -1.18721        -0.31261        -4.13840
| 17>    C       -0.13537        -1.02531        -4.75233
| 18>    N        0.76536        -1.56931        -5.21031
| 19>    C       -0.69725         0.47516        -3.07483
| 20>    N       -0.22621         1.07434        -2.21597
| 21>    C       -3.02241        -1.28548        -5.55713
| 22>    C       -4.43869        -1.20026        -5.55795
| 23>    C       -5.22532        -1.91413        -6.43001
| 24>    C       -4.58495        -2.74728        -7.35189
| 25>    C       -3.17070        -2.82225        -7.34907
| 26>    C       -2.37557        -2.10467        -6.46247
| 27>    S       -2.59684        -3.90382        -8.57763
| 28>    C       -4.21859        -4.24101        -9.07330
| 29>    C       -5.15354        -3.57834        -8.35749
| 30>    C       -4.86426        -0.25092        -4.52223
| 31>    O       -6.01188         0.03979        -4.22952
| 32>    C       -3.63304         0.28867        -3.92735
| 33>    C       -3.56490         1.35111        -3.06805
| 34>    C       -4.59422         2.12653        -2.50371
| 35>    C       -4.32063         3.28796        -1.77235
| 36>    C       -5.47031         3.92412        -1.34357
| 37>    C       -6.64186         3.22287        -1.71807
| 38>    S       -6.32431         1.81806        -2.62601
| 39>    C       -7.76363         3.96407        -1.27015
| 40>    C       -7.30125         5.13309        -0.62954
| 41>    C       -5.84810         5.13734        -0.63697
| 42>    C       -5.02437         6.08835        -0.11032
| 43>    C       -3.61858         5.99725        -0.19016
| 44>    N       -2.47630         5.92870        -0.25636
| 45>    C       -5.53238         7.23154         0.54228
| 46>    N       -5.94979         8.16131         1.06823
| 47>    C       -8.33773         5.95284        -0.21268
| 48>    C       -9.58896         5.41547        -0.50928
| 49>    S       -9.46398         3.84384        -1.28130
| 50>    C      -10.79998         6.13086        -0.31521
| 51>    C      -12.14781         5.82682        -0.54066
| 52>    N      -12.59165         4.55052        -0.93971
| 53>    O      -11.82622         3.60628        -0.78632
| 54>    O      -13.70328         4.43370        -1.41165
| 55>    C      -13.04526         6.91250        -0.32176
| 56>    C      -14.52855         6.81353        -0.38944
| 57>    C      -12.37424         8.05891         0.04285
| 58>    S      -10.65533         7.78986         0.16950
| 59>    C      -12.86182         9.38613         0.24167
| 60>    C      -13.98534         9.98222        -0.29656
| 61>    C      -14.05934        11.33919         0.02680
| 62>    C      -12.98323        11.77662         0.81560
| 63>    S      -11.88748        10.51897         1.16854
| 64>    C      -13.11071        13.17503         1.02450
| 65>    C      -14.27059        13.61610         0.36021
| 66>    C      -14.90622        12.47919        -0.28371
| 67>    C      -16.03214        12.49807        -1.05332
| 68>    C      -16.56157        11.32682        -1.63404
| 69>    N      -16.99000        10.36764        -2.09368
| 70>    C      -16.72848        13.69836        -1.30847
| 71>    N      -17.28089        14.68313        -1.50760
| 72>    C      -14.44174        14.99355         0.43010
| 73>    C      -13.42237        15.61161         1.13649
| 74>    S      -12.26151        14.44990         1.76332
| 75>    C      -13.24218        16.99270         1.39139
| 76>    C      -13.73814        18.04019         0.68220
| 77>    C      -14.35861        18.14464        -0.62484
| 78>    C      -14.11164        17.35686        -1.71877
| 79>    C      -14.64372        17.60427        -3.00224
| 80>    N      -15.04212        17.75495        -4.06768
| 81>    C      -13.22397        16.26343        -1.73073
| 82>    N      -12.49033        15.38365        -1.81271
| 83>    C      -15.07657        19.41260        -0.65837
| 84>    C      -14.70477        20.17908         0.47737
| 85>    C      -13.78845        19.39063         1.31789
| 86>    O      -13.22365        19.72630         2.33296
| 87>    C      -15.18435        21.44869         0.69479
| 88>    C      -16.07919        21.97820        -0.24008
| 89>    C      -16.46052        21.19486        -1.35736
| 90>    C      -15.96950        19.91471        -1.58450
| 91>    S      -17.58494        22.04466        -2.36740
| 92>    C      -17.53244        23.41533        -1.31413
| 93>    C      -16.71550        23.25131        -0.25057
| 94>    H       -6.30059        -1.82876        -6.40255
| 95>    H       -1.30291        -2.19394        -6.50344
| 96>    H       -4.37477        -4.92556        -9.88430
| 97>    H       -6.21202        -3.66373        -8.52394
| 98>    H       -2.57613         1.70181        -2.79606
| 99>    H       -3.31663         3.63014        -1.59305
|100>    H       -8.21291         6.90223         0.27738
|101>    H      -14.86361         5.83123        -0.06490
|102>    H      -14.87606         6.94205        -1.41429
|103>    H      -14.98574         7.57303         0.23930
|104>    H      -14.68166         9.47391        -0.93578
|105>    H      -15.27597        15.53055         0.01644
|106>    H      -12.68388        17.25716         2.28390
|107>    H      -14.87870        22.01526         1.56063
|108>    H      -16.29334        19.34922        -2.44270
|109>    H      -18.12687        24.27363        -1.56035
|110>    H      -16.55771        23.99605         0.50832
|111> *
|112>
|113>                          ****END OF INPUT****

CARTESIAN COORDINATES (ANGSTROEM)
---------------------------------
  C     -2.501130   -0.410430   -4.513720
  C     -1.187210   -0.312610   -4.138400
  C     -0.135370   -1.025310   -4.752330
  N      0.765360   -1.569310   -5.210310
  C     -0.697250    0.475160   -3.074830
  N     -0.226210    1.074340   -2.215970
  C     -3.022410   -1.285480   -5.557130
  C     -4.438690   -1.200260   -5.557950
  C     -5.225320   -1.914130   -6.430010
  C     -4.584950   -2.747280   -7.351890
  C     -3.170700   -2.822250   -7.349070
  C     -2.375570   -2.104670   -6.462470
  S     -2.596840   -3.903820   -8.577630
  C     -4.218590   -4.241010   -9.073300
  C     -5.153540   -3.578340   -8.357490
  C     -4.864260   -0.250920   -4.522230
  O     -6.011880    0.039790   -4.229520
  C     -3.633040    0.288670   -3.927350
  C     -3.564900    1.351110   -3.068050
  C     -4.594220    2.126530   -2.503710
  C     -4.320630    3.287960   -1.772350
  C     -5.470310    3.924120   -1.343570
  C     -6.641860    3.222870   -1.718070
  S     -6.324310    1.818060   -2.626010
  C     -7.763630    3.964070   -1.270150
  C     -7.301250    5.133090   -0.629540
  C     -5.848100    5.137340   -0.636970
  C     -5.024370    6.088350   -0.110320
  C     -3.618580    5.997250   -0.190160
  N     -2.476300    5.928700   -0.256360
  C     -5.532380    7.231540    0.542280
  N     -5.949790    8.161310    1.068230
  C     -8.337730    5.952840   -0.212680
  C     -9.588960    5.415470   -0.509280
  S     -9.463980    3.843840   -1.281300
  C    -10.799980    6.130860   -0.315210
  C    -12.147810    5.826820   -0.540660
  N    -12.591650    4.550520   -0.939710
  O    -11.826220    3.606280   -0.786320
  O    -13.703280    4.433700   -1.411650
  C    -13.045260    6.912500   -0.321760
  C    -14.528550    6.813530   -0.389440
  C    -12.374240    8.058910    0.042850
  S    -10.655330    7.789860    0.169500
  C    -12.861820    9.386130    0.241670
  C    -13.985340    9.982220   -0.296560
  C    -14.059340   11.339190    0.026800
  C    -12.983230   11.776620    0.815600
  S    -11.887480   10.518970    1.168540
  C    -13.110710   13.175030    1.024500
  C    -14.270590   13.616100    0.360210
  C    -14.906220   12.479190   -0.283710
  C    -16.032140   12.498070   -1.053320
  C    -16.561570   11.326820   -1.634040
  N    -16.990000   10.367640   -2.093680
  C    -16.728480   13.698360   -1.308470
  N    -17.280890   14.683130   -1.507600
  C    -14.441740   14.993550    0.430100
  C    -13.422370   15.611610    1.136490
  S    -12.261510   14.449900    1.763320
  C    -13.242180   16.992700    1.391390
  C    -13.738140   18.040190    0.682200
  C    -14.358610   18.144640   -0.624840
  C    -14.111640   17.356860   -1.718770
  C    -14.643720   17.604270   -3.002240
  N    -15.042120   17.754950   -4.067680
  C    -13.223970   16.263430   -1.730730
  N    -12.490330   15.383650   -1.812710
  C    -15.076570   19.412600   -0.658370
  C    -14.704770   20.179080    0.477370
  C    -13.788450   19.390630    1.317890
  O    -13.223650   19.726300    2.332960
  C    -15.184350   21.448690    0.694790
  C    -16.079190   21.978200   -0.240080
  C    -16.460520   21.194860   -1.357360
  C    -15.969500   19.914710   -1.584500
  S    -17.584940   22.044660   -2.367400
  C    -17.532440   23.415330   -1.314130
  C    -16.715500   23.251310   -0.250570
  H     -6.300590   -1.828760   -6.402550
  H     -1.302910   -2.193940   -6.503440
  H     -4.374770   -4.925560   -9.884300
  H     -6.212020   -3.663730   -8.523940
  H     -2.576130    1.701810   -2.796060
  H     -3.316630    3.630140   -1.593050
  H     -8.212910    6.902230    0.277380
  H    -14.863610    5.831230   -0.064900
  H    -14.876060    6.942050   -1.414290
  H    -14.985740    7.573030    0.239300
  H    -14.681660    9.473910   -0.935780
  H    -15.275970   15.530550    0.016440
  H    -12.683880   17.257160    2.283900
  H    -14.878700   22.015260    1.560630
  H    -16.293340   19.349220   -2.442700
  H    -18.126870   24.273630   -1.560350
  H    -16.557710   23.996050    0.508320

 Total Charge           Charge          ....    0
 Multiplicity           Mult            ....    1
 Number of Electrons    NEL             ....  578
 Basis Dimension        Dim             .... 1219

ORBITAL ENERGIES
----------------

  NO   OCC          E(Eh)            E(eV)
   0   2.0000     -89.001553     -2421.8554
   1   2.0000     -88.999831     -2421.8085
   2   2.0000     -88.998547     -2421.7736
   3   2.0000     -88.993647     -2421.6403
   4   2.0000     -88.993587     -2421.6386
   5   2.0000     -88.970563     -2421.0121
   6   2.0000     -88.968516     -2420.9564
   7   2.0000     -19.259542      -524.0788
   8   2.0000     -19.257618      -524.0264
   9   2.0000     -19.229073      -523.2497
  10   2.0000     -19.218031      -522.9492
  11   2.0000     -14.666574      -399.0978
  12   2.0000     -14.437622      -392.8677
  13   2.0000     -14.437563      -392.8661
  14   2.0000     -14.435603      -392.8127
  15   2.0000     -14.432819      -392.7370
  16   2.0000     -14.420291      -392.3961
  17   2.0000     -14.419216      -392.3668
  18   2.0000     -14.417158      -392.3108
  19   2.0000     -14.416299      -392.2874
  20   2.0000     -10.376609      -282.3619
  21   2.0000     -10.372664      -282.2545
  22   2.0000     -10.369382      -282.1652
  23   2.0000     -10.368970      -282.1540
  24   2.0000     -10.361200      -281.9426
  25   2.0000     -10.359783      -281.9040
  26   2.0000     -10.358007      -281.8557
  27   2.0000     -10.348829      -281.6059
  28   2.0000     -10.346751      -281.5494
  29   2.0000     -10.346142      -281.5328
  30   2.0000     -10.346128      -281.5325
  31   2.0000     -10.345878      -281.5257
  32   2.0000     -10.345232      -281.5081
  33   2.0000     -10.342740      -281.4403
  34   2.0000     -10.342661      -281.4381
  35   2.0000     -10.342334      -281.4292
  36   2.0000     -10.337792      -281.3056
  37   2.0000     -10.337701      -281.3031
  38   2.0000     -10.336673      -281.2752
  39   2.0000     -10.336419      -281.2682
  40   2.0000     -10.336092      -281.2594
  41   2.0000     -10.335179      -281.2345
  42   2.0000     -10.332746      -281.1683
  43   2.0000     -10.331309      -281.1292
  44   2.0000     -10.331248      -281.1275
  45   2.0000     -10.330818      -281.1158
  46   2.0000     -10.327808      -281.0340
  47   2.0000     -10.324604      -280.9468
  48   2.0000     -10.322926      -280.9011
  49   2.0000     -10.322207      -280.8815
  50   2.0000     -10.321801      -280.8705
  51   2.0000     -10.321630      -280.8658
  52   2.0000     -10.319915      -280.8192
  53   2.0000     -10.318701      -280.7861
  54   2.0000     -10.317758      -280.7605
  55   2.0000     -10.316011      -280.7129
  56   2.0000     -10.315901      -280.7099
  57   2.0000     -10.315785      -280.7068
  58   2.0000     -10.315184      -280.6904
  59   2.0000     -10.314911      -280.6830
  60   2.0000     -10.313331      -280.6400
  61   2.0000     -10.312482      -280.6169
  62   2.0000     -10.311126      -280.5800
  63   2.0000     -10.310788      -280.5708
  64   2.0000     -10.309947      -280.5479
  65   2.0000     -10.309581      -280.5380
  66   2.0000     -10.307263      -280.4749
  67   2.0000     -10.305919      -280.4383
  68   2.0000     -10.305519      -280.4274
  69   2.0000     -10.304351      -280.3956
  70   2.0000     -10.304343      -280.3954
  71   2.0000     -10.304232      -280.3924
  72   2.0000     -10.303949      -280.3847
  73   2.0000     -10.301808      -280.3265
  74   2.0000     -10.295626      -280.1582
  75   2.0000     -10.293882      -280.1108
  76   2.0000     -10.292719      -280.0791
  77   2.0000     -10.290770      -280.0261
  78   2.0000     -10.281012      -279.7606
  79   2.0000      -8.096315      -220.3119
  80   2.0000      -8.094547      -220.2638
  81   2.0000      -8.091237      -220.1737
  82   2.0000      -8.089252      -220.1197
  83   2.0000      -8.085981      -220.0307
  84   2.0000      -8.066794      -219.5086
  85   2.0000      -8.064721      -219.4522
  86   2.0000      -6.065588      -165.0530
  87   2.0000      -6.063699      -165.0016
  88   2.0000      -6.061351      -164.9378
  89   2.0000      -6.060733      -164.9209
  90   2.0000      -6.059532      -164.8882
  91   2.0000      -6.058686      -164.8652
  92   2.0000      -6.058643      -164.8641
  93   2.0000      -6.057049      -164.8207
  94   2.0000      -6.055964      -164.7912
  95   2.0000      -6.055342      -164.7742
  96   2.0000      -6.054439      -164.7497
  97   2.0000      -6.053691      -164.7293
  98   2.0000      -6.051029      -164.6569
  99   2.0000      -6.050608      -164.6454
 100   2.0000      -6.048594      -164.5906
 101   2.0000      -6.036301      -164.2561
 102   2.0000      -6.034231      -164.1998
 103   2.0000      -6.031967      -164.1382
 104   2.0000      -6.029916      -164.0823
 105   2.0000      -6.028510      -164.0441
 106   2.0000      -6.026429      -163.9875
 107   2.0000      -1.339501       -36.4497
 108   2.0000      -1.156393       -31.4671
 109   2.0000      -1.144551       -31.1448
 110   2.0000      -1.133491       -30.8439
 111   2.0000      -1.055749       -28.7284
 112   2.0000      -1.051837       -28.6219
 113   2.0000      -1.035387       -28.1743
 114   2.0000      -1.029275       -28.0080
 115   2.0000      -1.025955       -27.9177
 116   2.0000      -1.024209       -27.8701
 117   2.0000      -1.023746       -27.8575
 118   2.0000      -1.015308       -27.6279
 119   2.0000      -1.012101       -27.5407
 120   2.0000      -1.011906       -27.5354
 121   2.0000      -1.011317       -27.5193
 122   2.0000      -1.008109       -27.4320
 123   2.0000      -1.001311       -27.2471
 124   2.0000      -0.996808       -27.1245
 125   2.0000      -0.996048       -27.1038
 126   2.0000      -0.989651       -26.9298
 127   2.0000      -0.988064       -26.8866
 128   2.0000      -0.969809       -26.3898
 129   2.0000      -0.964794       -26.2534
 130   2.0000      -0.937408       -25.5082
 131   2.0000      -0.936635       -25.4871
 132   2.0000      -0.931245       -25.3405
 133   2.0000      -0.927004       -25.2250
 134   2.0000      -0.918964       -25.0063
 135   2.0000      -0.908639       -24.7253
 136   2.0000      -0.901738       -24.5375
 137   2.0000      -0.895783       -24.3755
 138   2.0000      -0.885531       -24.0965
 139   2.0000      -0.883787       -24.0491
 140   2.0000      -0.881602       -23.9896
 141   2.0000      -0.880638       -23.9634
 142   2.0000      -0.868941       -23.6451
 143   2.0000      -0.867108       -23.5952
 144   2.0000      -0.864008       -23.5108
 145   2.0000      -0.861773       -23.4500
 146   2.0000      -0.834096       -22.6969
 147   2.0000      -0.827426       -22.5154
 148   2.0000      -0.825539       -22.4641
 149   2.0000      -0.819866       -22.3097
 150   2.0000      -0.803852       -21.8739
 151   2.0000      -0.792812       -21.5735
 152   2.0000      -0.786065       -21.3899
 153   2.0000      -0.782213       -21.2851
 154   2.0000      -0.773771       -21.0554
 155   2.0000      -0.766574       -20.8595
 156   2.0000      -0.763491       -20.7757
 157   2.0000      -0.757305       -20.6073
 158   2.0000      -0.742982       -20.2176
 159   2.0000      -0.724505       -19.7148
 160   2.0000      -0.718052       -19.5392
 161   2.0000      -0.707722       -19.2581
 162   2.0000      -0.703963       -19.1558
 163   2.0000      -0.696655       -18.9570
 164   2.0000      -0.695921       -18.9370
 165   2.0000      -0.693044       -18.8587
 166   2.0000      -0.691485       -18.8163
 167   2.0000      -0.687535       -18.7088
 168   2.0000      -0.683578       -18.6011
 169   2.0000      -0.678765       -18.4701
 170   2.0000      -0.667261       -18.1571
 171   2.0000      -0.664951       -18.0942
 172   2.0000      -0.664378       -18.0786
 173   2.0000      -0.656263       -17.8578
 174   2.0000      -0.652387       -17.7524
 175   2.0000      -0.647160       -17.6101
 176   2.0000      -0.642752       -17.4902
 177   2.0000      -0.637853       -17.3569
 178   2.0000      -0.630424       -17.1547
 179   2.0000      -0.627627       -17.0786
 180   2.0000      -0.625551       -17.0221
 181   2.0000      -0.625189       -17.0123
 182   2.0000      -0.622563       -16.9408
 183   2.0000      -0.619240       -16.8504
 184   2.0000      -0.607878       -16.5412
 185   2.0000      -0.602231       -16.3876
 186   2.0000      -0.600619       -16.3437
 187   2.0000      -0.597099       -16.2479
 188   2.0000      -0.594051       -16.1649
 189   2.0000      -0.585463       -15.9312
 190   2.0000      -0.576531       -15.6882
 191   2.0000      -0.570880       -15.5344
 192   2.0000      -0.563155       -15.3242
 193   2.0000      -0.558159       -15.1883
 194   2.0000      -0.556246       -15.1362
 195   2.0000      -0.555025       -15.1030
 196   2.0000      -0.550926       -14.9915
 197   2.0000      -0.549100       -14.9418
 198   2.0000      -0.546085       -14.8597
 199   2.0000      -0.543490       -14.7891
 200   2.0000      -0.541346       -14.7308
 201   2.0000      -0.539715       -14.6864
 202   2.0000      -0.534978       -14.5575
 203   2.0000      -0.534608       -14.5474
 204   2.0000      -0.532249       -14.4832
 205   2.0000      -0.527920       -14.3654
 206   2.0000      -0.526824       -14.3356
 207   2.0000      -0.523566       -14.2470
 208   2.0000      -0.520210       -14.1556
 209   2.0000      -0.514367       -13.9966
 210   2.0000      -0.513491       -13.9728
 211   2.0000      -0.511590       -13.9211
 212   2.0000      -0.509791       -13.8721
 213   2.0000      -0.508349       -13.8329
 214   2.0000      -0.506001       -13.7690
 215   2.0000      -0.503970       -13.7137
 216   2.0000      -0.502778       -13.6813
 217   2.0000      -0.501967       -13.6592
 218   2.0000      -0.499950       -13.6043
 219   2.0000      -0.497984       -13.5508
 220   2.0000      -0.496124       -13.5002
 221   2.0000      -0.495710       -13.4889
 222   2.0000      -0.494368       -13.4524
 223   2.0000      -0.492182       -13.3930
 224   2.0000      -0.489959       -13.3325
 225   2.0000      -0.485322       -13.2063
 226   2.0000      -0.480710       -13.0808
 227   2.0000      -0.476368       -12.9626
 228   2.0000      -0.474516       -12.9122
 229   2.0000      -0.471973       -12.8430
 230   2.0000      -0.469475       -12.7751
 231   2.0000      -0.468255       -12.7419
 232   2.0000      -0.467136       -12.7114
 233   2.0000      -0.465564       -12.6686
 234   2.0000      -0.463539       -12.6135
 235   2.0000      -0.460718       -12.5368
 236   2.0000      -0.459084       -12.4923
 237   2.0000      -0.456486       -12.4216
 238   2.0000      -0.453667       -12.3449
 239   2.0000      -0.452892       -12.3238
 240   2.0000      -0.452564       -12.3149
 241   2.0000      -0.450905       -12.2697
 242   2.0000      -0.447600       -12.1798
 243   2.0000      -0.445971       -12.1355
 244   2.0000      -0.445769       -12.1300
 245   2.0000      -0.445117       -12.1123
 246   2.0000      -0.444510       -12.0957
 247   2.0000      -0.444430       -12.0936
 248   2.0000      -0.441318       -12.0089
 249   2.0000      -0.441093       -12.0028
 250   2.0000      -0.439733       -11.9657
 251   2.0000      -0.438482       -11.9317
 252   2.0000      -0.436575       -11.8798
 253   2.0000      -0.434799       -11.8315
 254   2.0000      -0.434363       -11.8196
 255   2.0000      -0.432567       -11.7707
 256   2.0000      -0.430603       -11.7173
 257   2.0000      -0.430223       -11.7070
 258   2.0000      -0.429125       -11.6771
 259   2.0000      -0.427085       -11.6216
 260   2.0000      -0.422810       -11.5053
 261   2.0000      -0.420362       -11.4386
 262   2.0000      -0.412774       -11.2321
 263   2.0000      -0.411062       -11.1856
 264   2.0000      -0.409169       -11.1341
 265   2.0000      -0.406711       -11.0672
 266   2.0000      -0.403704       -10.9853
 267   2.0000      -0.396894       -10.8000
 268   2.0000      -0.392867       -10.6904
 269   2.0000      -0.387365       -10.5407
 270   2.0000      -0.381401       -10.3785
 271   2.0000      -0.381354       -10.3772
 272   2.0000      -0.374512       -10.1910
 273   2.0000      -0.364618        -9.9217
 274   2.0000      -0.358152        -9.7458
 275   2.0000      -0.354698        -9.6518
 276   2.0000      -0.352074        -9.5804
 277   2.0000      -0.345680        -9.4064
 278   2.0000      -0.344008        -9.3609
 279   2.0000      -0.337613        -9.1869
 280   2.0000      -0.330317        -8.9884
 281   2.0000      -0.326923        -8.8960
 282   2.0000      -0.318491        -8.6666
 283   2.0000      -0.316562        -8.6141
 284   2.0000      -0.314167        -8.5489
 285   2.0000      -0.298768        -8.1299
 286   2.0000      -0.297128        -8.0853
 287   2.0000      -0.279833        -7.6146
 288   2.0000      -0.257007        -6.9935
 289   0.0000      -0.119089        -3.2406
 290   0.0000      -0.112882        -3.0717
 291   0.0000      -0.092811        -2.5255
 292   0.0000      -0.091510        -2.4901
 293   0.0000      -0.076851        -2.0912

MULLIKEN ATOMIC CHARGES
-----------------------
   0 C :    0.312015
   1 C :   -0.341936
   2 C :   -0.187977
   3 N :    0.156547
   4 C :   -0.202420
   5 N :    0.159410
   6 C :    0.013096
   7 C :   -0.013851
   8 C :   -0.065774
   9 C :    0.112597
  10 C :   -0.095842
  11 C :   -0.022415
  12 S :    0.145222
  13 C :   -0.049435
  14 C :    0.026280
  15 C :    0.165620
  16 O :   -0.187236
  17 C :   -0.086722
  18 C :   -0.030044
  19 C :   -0.052951
  20 C :   -0.059769
  21 C :    0.044366
  22 C :   -0.075983
  23 S :    0.253602
  24 C :   -0.090381
  25 C :    0.037255
  26 C :    0.306989
  27 C :   -0.295176
  28 C :   -0.194880
  29 N :    0.182687
  30 C :   -0.185879
  31 N :    0.169396
  32 C :   -0.077950
  33 C :   -0.060502
  34 S :    0.255014
  35 C :   -0.107774
  36 C :    0.109621
  37 N :    0.271789
  38 O :   -0.273534
  39 O :   -0.227194
  40 C :   -0.108618
  41 C :    0.146281
  42 C :   -0.105776
  43 S :    0.152123
  44 C :   -0.074062
  45 C :   -0.035812
  46 C :    0.005300
  47 C :   -0.101421
  48 S :    0.197896
  49 C :   -0.070588
  50 C :   -0.001152
  51 C :    0.305654
  52 C :   -0.285794
  53 C :   -0.186105
  54 N :    0.175558
  55 C :   -0.185091
  56 N :    0.171199
  57 C :   -0.005503
  58 C :   -0.120111
  59 S :    0.222321
  60 C :    0.080524
  61 C :   -0.127686
  62 C :    0.267695
  63 C :   -0.340248
  64 C :   -0.177840
  65 N :    0.163869
  66 C :   -0.194365
  67 N :    0.166564
  68 C :   -0.004981
  69 C :    0.002652
  70 C :    0.132945
  71 O :   -0.142947
  72 C :   -0.067134
  73 C :    0.109188
  74 C :   -0.093168
  75 C :   -0.016854
  76 S :    0.145274
  77 C :   -0.049843
  78 C :    0.025638
  79 H :   -0.009610
  80 H :   -0.004249
  81 H :    0.041050
  82 H :   -0.004950
  83 H :    0.022480
  84 H :    0.026590
  85 H :    0.025236
  86 H :    0.033467
  87 H :    0.049113
  88 H :    0.022635
  89 H :    0.009577
  90 H :    0.025842
  91 H :    0.023509
  92 H :   -0.010100
  93 H :    0.002918
  94 H :    0.040053
  95 H :   -0.005020
Sum of atomic charges:   -0.0000000

LOEWDIN ATOMIC CHARGES
----------------------
   0 C :    0.076254
   1 C :   -0.138897
   2 C :   -0.018709
   3 N :   -0.050346
   4 C :   -0.024428
   5 N :   -0.046346
   6 C :   -0.021239
   7 C :   -0.054492
   8 C :    0.024838
   9 C :   -0.034981
  10 C :   -0.144834
  11 C :   -0.007371
  12 S :    0.434030
  13 C :   -0.148282
  14 C :   -0.057271
  15 C :    0.086472
  16 O :   -0.173085
  17 C :   -0.105077
  18 C :    0.054626
  19 C :   -0.181180
  20 C :    0.009225
  21 C :   -0.074549
  22 C :   -0.170943
  23 S :    0.555899
  24 C :   -0.183946
  25 C :   -0.063010
  26 C :    0.078779
  27 C :   -0.103150
  28 C :   -0.020316
  29 N :   -0.024651
  30 C :   -0.015315
  31 N :   -0.035296
  32 C :   -0.024661
  33 C :   -0.195473
  34 S :    0.544393
  35 C :   -0.141399
  36 C :   -0.082577
  37 N :    0.289080
  38 O :   -0.235018
  39 O :   -0.181746
  40 C :   -0.030308
  41 C :   -0.047538
  42 C :   -0.194373
  43 S :    0.473605
  44 C :   -0.176401
  45 C :   -0.026522
  46 C :   -0.059567
  47 C :   -0.181275
  48 S :    0.478699
  49 C :   -0.161061
  50 C :   -0.066140
  51 C :    0.083451
  52 C :   -0.096819
  53 C :   -0.016232
  54 N :   -0.029580
  55 C :   -0.013549
  56 N :   -0.030298
  57 C :    0.003905
  58 C :   -0.181650
  59 S :    0.505053
  60 C :    0.041400
  61 C :   -0.085655
  62 C :    0.067096
  63 C :   -0.137096
  64 C :   -0.020030
  65 N :   -0.045680
  66 C :   -0.015673
  67 N :   -0.050050
  68 C :   -0.019522
  69 C :   -0.056334
  70 C :    0.083477
  71 O :   -0.142851
  72 C :    0.024864
  73 C :   -0.034798
  74 C :   -0.144098
  75 C :   -0.007514
  76 S :    0.433647
  77 C :   -0.148600
  78 C :   -0.057534
  79 H :    0.041029
  80 H :    0.041482
  81 H :    0.030271
  82 H :    0.035892
  83 H :    0.054161
  84 H :    0.047715
  85 H :    0.033202
  86 H :    0.039075
  87 H :    0.049338
  88 H :    0.033160
  89 H :    0.042542
  90 H :    0.042600
  91 H :    0.046544
  92 H :    0.041139
  93 H :    0.042689
  94 H :    0.029929
  95 H :    0.035773

  Mayer bond orders larger than 0.100000
B(  0-C ,  1-C ) :   1.6356 B(  0-C ,  6-C ) :   1.0043 B(  0-C , 17-C ) :   1.0656
B(  1-C ,  2-C ) :   1.1429 B(  1-C ,  4-C ) :   1.1427 B(  2-C ,  3-N ) :   2.9729
B(  4-C ,  5-N ) :   2.9763 B(  6-C ,  7-C ) :   1.2675 B(  6-C , 11-C ) :   1.4186
B(  7-C ,  8-C ) :   1.4220 B(  7-C , 15-C ) :   0.9668 B(  8-C ,  9-C ) :   1.2476
B(  8-C , 79-H ) :   1.0161 B(  9-C , 10-C ) :   1.3001 B(  9-C , 14-C ) :   1.1736
B( 10-C , 11-C ) :   1.3216 B( 10-C , 12-S ) :   1.1017 B( 11-C , 80-H ) :   0.9817
B( 12-S , 13-C ) :   1.1282 B( 13-C , 14-C ) :   1.6256 B( 13-C , 81-H ) :   0.9688
B( 14-C , 82-H ) :   0.9997 B( 15-C , 16-O ) :   2.1132 B( 15-C , 17-C ) :   0.9785
B( 17-C , 18-C ) :   1.5178 B( 18-C , 19-C ) :   1.2485 B( 18-C , 83-H ) :   0.9450
B( 19-C , 20-C ) :   1.3367 B( 19-C , 23-S ) :   1.0807 B( 20-C , 21-C ) :   1.3251
B( 20-C , 84-H ) :   1.0094 B( 21-C , 22-C ) :   1.3600 B( 21-C , 26-C ) :   0.9876
B( 22-C , 23-S ) :   1.1290 B( 22-C , 24-C ) :   1.1966 B( 24-C , 25-C ) :   1.3937
B( 24-C , 34-S ) :   1.1213 B( 25-C , 26-C ) :   0.9950 B( 25-C , 32-C ) :   1.3435
B( 26-C , 27-C ) :   1.7137 B( 27-C , 28-C ) :   1.1329 B( 27-C , 30-C ) :   1.1350
B( 28-C , 29-N ) :   2.9957 B( 30-C , 31-N ) :   2.9846 B( 32-C , 33-C ) :   1.3907
B( 32-C , 85-H ) :   0.9766 B( 33-C , 34-S ) :   1.1106 B( 33-C , 35-C ) :   1.1979
B( 35-C , 36-C ) :   1.4273 B( 35-C , 42-C ) :   0.1033 B( 35-C , 43-S ) :   1.1854
B( 36-C , 37-N ) :   0.9640 B( 36-C , 40-C ) :   1.2268 B( 37-N , 38-O ) :   1.4395
B( 37-N , 39-O ) :   1.5321 B( 38-O , 39-O ) :   0.2447 B( 40-C , 41-C ) :   1.1332
B( 40-C , 42-C ) :   1.5909 B( 41-C , 86-H ) :   0.9255 B( 41-C , 87-H ) :   0.9233
B( 41-C , 88-H ) :   0.9321 B( 42-C , 43-S ) :   1.0774 B( 42-C , 44-C ) :   1.0845
B( 44-C , 45-C ) :   1.4797 B( 44-C , 48-S ) :   1.1113 B( 45-C , 46-C ) :   1.2873
B( 45-C , 89-H ) :   0.9911 B( 46-C , 47-C ) :   1.4471 B( 46-C , 51-C ) :   0.9965
B( 47-C , 48-S ) :   1.1201 B( 47-C , 49-C ) :   1.1885 B( 49-C , 50-C ) :   1.4203
B( 49-C , 59-S ) :   1.1551 B( 50-C , 51-C ) :   0.9993 B( 50-C , 57-C ) :   1.3460
B( 51-C , 52-C ) :   1.7179 B( 52-C , 53-C ) :   1.1317 B( 52-C , 55-C ) :   1.1360
B( 53-C , 54-N ) :   2.9879 B( 55-C , 56-N ) :   2.9810 B( 57-C , 58-C ) :   1.4172
B( 57-C , 90-H ) :   0.9842 B( 58-C , 59-S ) :   1.0937 B( 58-C , 60-C ) :   1.1075
B( 60-C , 61-C ) :   1.6973 B( 60-C , 91-H ) :   0.9322 B( 61-C , 62-C ) :   1.0276
B( 61-C , 70-C ) :   0.9365 B( 62-C , 63-C ) :   1.6539 B( 62-C , 68-C ) :   1.0141
B( 63-C , 64-C ) :   1.1275 B( 63-C , 66-C ) :   1.1711 B( 64-C , 65-N ) :   2.9967
B( 66-C , 67-N ) :   2.9986 B( 68-C , 69-C ) :   1.2678 B( 68-C , 75-C ) :   1.4163
B( 69-C , 70-C ) :   0.9249 B( 69-C , 72-C ) :   1.4227 B( 70-C , 71-O ) :   2.2691
B( 72-C , 73-C ) :   1.2536 B( 72-C , 92-H ) :   1.0167 B( 73-C , 74-C ) :   1.2998
B( 73-C , 78-C ) :   1.1734 B( 74-C , 75-C ) :   1.3206 B( 74-C , 76-S ) :   1.0999
B( 75-C , 93-H ) :   0.9861 B( 76-S , 77-C ) :   1.1278 B( 77-C , 78-C ) :   1.6295
B( 77-C , 94-H ) :   0.9679 B( 78-C , 95-H ) :   0.9991

-----------------------------------------------------------------------------
         ABSORPTION SPECTRUM VIA TRANSITION ELECTRIC DIPOLE MOMENTS
-----------------------------------------------------------------------------
State   Energy  Wavelength   fosc         T2         TX        TY        TZ
        (cm-1)    (nm)                  (au**2)     (au)      (au)      (au)
-----------------------------------------------------------------------------
   0   13369.2    748.0   0.489058373  12.04290   1.64278  -3.00989  -0.53359
   1   14588.8    685.5   0.252726685   5.70306  -1.87194   1.22238   0.83947
   2   19310.5    517.9   1.356376961  23.12402   2.90337  -3.73812  -0.84909
   3   20809.8    480.5   0.300771332   4.75822   1.42708   1.03779  -1.28244
   4   22045.5    453.6   0.045856531   0.68479  -0.50560  -0.05203   0.65303
   5   23309.9    429.0   0.063668237   0.89920  -0.59478   0.66374   0.32386
   6   24290.6    411.7   0.178396198   2.41782  -0.21425   1.21707   0.94374
   7   25537.6    391.6   0.017376219   0.22400  -0.31261   0.32192   0.15048
   8   26179.6    382.0   0.020588354   0.25890   0.27331   0.12568   0.41038
   9   27478.3    363.9   0.118811374   1.42346  -0.15326   0.81544   0.85734
  10   27677.6    361.3   0.087969126   1.04635  -0.65210   0.76760  -0.17864
  11   28180.1    354.9   0.365072779   4.26494   0.05417  -2.00208  -0.50366
  12   28572.3    350.0   0.012252972   0.14118   0.23262   0.12260   0.26840
  13   28658.1    348.9   0.019656587   0.22581   0.35212  -0.26472   0.17815
  14   28766.2    347.6   0.229234768   2.62346  -0.50413   1.29212   0.83650
  15   28995.6    344.9   0.012441932   0.14126   0.33177  -0.02753   0.17447
  16   29393.0    340.2   0.029249933   0.32761   0.57072   0.01335   0.04133
  17   29927.6    334.1   0.127959637   1.40759   0.47923   0.92263   0.57156
  18   30048.8    332.8   0.005858154   0.06418   0.10848   0.16844  -0.15505
  19   30322.6    329.8   0.550261611   5.97418   1.48869  -1.93818   0.03777
  20   30471.6    328.2   0.334854379   3.61773   0.97036   1.58935   0.38741
  21   31118.7    321.4   0.340223264   3.59930  -1.44376   0.26325  -1.20231
  22   31598.6    316.5   0.002873953   0.02994  -0.01092   0.13740   0.10461
  23   31878.5    313.7   0.128405924   1.32606  -0.93308   0.33292  -0.58701
  24   32066.4    311.9   0.188296588   1.93316  -0.76440   1.00718   0.57832
  25   32151.4    311.0   0.206304411   2.11244   0.29037  -1.33981  -0.48273
  26   32503.4    307.7   0.653165823   6.61562   1.41908   1.38404   1.63898
  27   32851.5    304.4   0.103640241   1.03860  -0.27583   0.95246  -0.23523
  28   32965.8    303.3   0.089643761   0.89522  -0.23941   0.58801   0.70154
  29   33548.9    298.1   0.205057443   2.01221   0.41665  -1.21525  -0.60147
  30   33640.9    297.3   0.003603620   0.03527  -0.12893  -0.03756  -0.13127
  31   33864.4    295.3   0.039239789   0.38147   0.43850   0.36552   0.23576
  32   34069.3    293.5   0.146070538   1.41148  -0.87173  -0.75198  -0.29341
  33   34269.1    291.8   0.168709145   1.62074  -0.25679  -1.13897  -0.50749
  34   34378.9    290.9   0.019923519   0.19079  -0.42234   0.00246  -0.11142
  35   34408.2    290.6   0.444922571   4.25695  -0.22998   1.89504   0.78286
  36   34650.4    288.6   0.215579044   2.04821  -1.11770  -0.32428  -0.83295
  37   35320.0    283.1   0.049567592   0.46201   0.55127  -0.26442   0.29697
  38   35480.1    281.8   0.003864424   0.03586   0.04323  -0.06890   0.17100
  39   35616.6    280.8   0.077810095   0.71922   0.82874  -0.15535   0.09091
  40   35864.8    278.8   0.198861753   1.82540  -0.99035  -0.56464  -0.72511
  41   36143.0    276.7   0.033779119   0.30768   0.19260   0.46293   0.23723
  42   36169.0    276.5   0.004835196   0.04401   0.07075   0.08972  -0.17594
  43   36287.2    275.6   0.023008370   0.20874  -0.15051   0.24723   0.35351
  44   36624.8    273.0   0.083159317   0.74750   0.27671  -0.79163  -0.21038
  45   36799.6    271.7   0.028395521   0.25403   0.07704   0.49420   0.06214
  46   37049.9    269.9   0.058724901   0.52181  -0.25373  -0.49248  -0.46357
  47   37162.6    269.1   0.030100560   0.26665  -0.13659  -0.49491   0.05533
  48   37450.6    267.0   0.013160930   0.11569  -0.05111   0.07348  -0.32815
  49   37656.5    265.6   0.014955567   0.13075   0.19959  -0.30151  -0.00176
  50   37929.0    263.7   0.009363463   0.08127   0.26721  -0.06652  -0.07380
  51   37973.1    263.3   0.069898445   0.60599  -0.70304   0.32212   0.08923
  52   38213.5    261.7   0.141595629   1.21986   1.09644   0.09262  -0.09534
  53   38462.0    260.0   0.028936000   0.24767  -0.49512   0.04408  -0.02431
  54   38618.5    258.9   0.048690518   0.41507   0.28586   0.24609   0.52230
  55   38847.2    257.4   0.148090439   1.25500  -1.05093  -0.22651  -0.31501
  56   39014.6    256.3   0.109599113   0.92482  -0.09665  -0.33055  -0.89789
  57   39045.1    256.1   0.037462780   0.31587   0.54744   0.05406   0.11515
  58   39270.7    254.6   0.085536555   0.71707   0.70581  -0.30856  -0.35170
  59   39753.0    251.6   0.035053722   0.29029   0.46238   0.22941   0.15451
  60   39894.5    250.7   0.074765831   0.61697   0.11155   0.76532  -0.13719
  61   40192.3    248.8   0.067610390   0.55379   0.07843   0.41283   0.61417
  62   40221.9    248.6   0.057278786   0.46882  -0.50736   0.42455  -0.17655

FINAL SINGLE POINT ENERGY     -5834.530134511559

DIPOLE MOMENT
-------------
                                X             Y             Z
Electronic contribution:     12.71636      -6.74361       7.48515
Nuclear contribution   :    -15.46412       7.11062      -7.31029
                        -----------------------------------------
Total Dipole Moment    :     -2.74776       0.36702       0.17487
                        -----------------------------------------
Magnitude (a.u.)       :      2.77767
Magnitude (Debye)      :      7.06028

Rotational constants in cm-1:     0.001586     0.000163     0.000160
Rotational constants in MHz :    47.553347     4.877450     4.793599

                             ****ORCA TERMINATED NORMALLY****
TOTAL RUN TIME: 0 days 0 hours 10 minutes 8 seconds 655 msec
