                         Program Version 4.2.0 -  RELEASE  -
|  1> # ORCA input file
|  2> # SCF done       -201.371568649539          0.000341145754
|  3> ! CAM-B3LYP def2-SVP def2/J RIJCOSX Grid4 TightSCF
|  4> %maxcore 5000
|  5> %tddft
|  6>     Mode sTDDFT
|  7>     Ethresh 5.0
|  8>     maxcore 5000
|  9> end
| 10>
| 11> %pal
| 12>   nprocs 6
| 13>   end
| 14> * xyz 0 1
| 15>    C       -3.66166         4.49801        10.07031
| 16>    C       -2.65314         5.27165         9.55713
| 17>    C       -1.57963         5.77309        10.32278
| 18>    N       -0.68506         6.21142        10.89320
| 19>    C       -2.50408         5.62044         8.19771
| 20>    N       -2.29542         5.91931         7.10873
| 21>    C       -3.74379         4.01758        11.44240
| 22>    C       -4.79045         3.06613        11.52194
| 23>    C       -5.11534         2.41920        12.68998
| 24>    C       -4.37916         2.73311        13.83618
| 25>    C       -3.34018         3.69108        13.74878
| 26>    C       -3.00629         4.33991        12.56570
| 27>    S       -2.57355         3.92834        15.28719
| 28>    C       -3.62625         2.76703        16.01851
| 29>    C       -4.51366         2.22226        15.15789
| 30>    C       -5.42956         2.91870        10.20209
| 31>    O       -6.31222         2.13331         9.92695
| 32>    C       -4.77838         3.92939         9.33066
| 33>    C       -5.20609         4.41484         8.12556
| 34>    C       -6.25183         3.99342         7.27922
| 35>    C       -7.02246         2.84068         7.24253
| 36>    C       -7.93583         2.83316         6.19259
| 37>    C       -7.89325         4.00577         5.41754
| 38>    S       -6.67493         5.08448         5.96945
| 39>    C       -8.85869         4.19297         4.41400
| 40>    C       -9.70969         3.13166         4.09833
| 41>    C       -9.47744         1.78871         4.72078
| 42>    O       -8.81959         1.84038         5.98361
| 43>    C      -10.67226         3.48267         3.16945
| 44>    C      -10.57924         4.81158         2.76194
| 45>    S       -9.25716         5.63600         3.54671
| 46>    C      -11.43057         5.49704         1.86462
| 47>    C      -11.22703         6.86941         1.58557
| 48>    C      -12.10824         7.62214         0.73393
| 49>    N      -11.87085         8.92016         0.52363
| 50>    C      -10.83898         9.50053         1.08940
| 51>    C       -9.96100         8.75098         1.93471
| 52>    N      -10.18141         7.47524         2.15389
| 53>    C       -8.84823         9.37586         2.54930
| 54>    N       -7.95934         9.90935         3.03581
| 55>    C      -10.60558        10.87840         0.85555
| 56>    N      -10.39016        11.99064         0.68831
| 57>    C      -13.24017         7.04479         0.11385
| 58>    C      -13.42601         5.66143         0.35551
| 59>    C      -12.54019         4.90316         1.21397
| 60>    N      -12.91490         3.62793         1.30012
| 61>    S      -14.22877         3.39699         0.40389
| 62>    N      -14.39883         4.89852        -0.13881
| 63>    C      -14.12262         7.83754        -0.65957
| 64>    C      -15.28178         7.42534        -1.30378
| 65>    C      -15.93942         8.46478        -1.95155
| 66>    C      -15.28587         9.69617        -1.79194
| 67>    S      -13.83506         9.54566        -0.86093
| 68>    C      -15.90076        10.85498        -2.29178
| 69>    C      -17.06486        10.73024        -3.05486
| 70>    C      -17.54402         9.36722        -3.45114
| 71>    O      -17.11816         8.31819        -2.58656
| 72>    C      -17.59589        11.95187        -3.42590
| 73>    C      -16.85360        13.03797        -2.96668
| 74>    S      -15.48195        12.50021        -2.02281
| 75>    C      -17.09216        14.41938        -3.08437
| 76>    C      -17.94067        15.10290        -3.90818
| 77>    C      -18.66263        14.75681        -5.10879
| 78>    C      -18.28995        13.83038        -6.05203
| 79>    C      -18.99756        13.59574        -7.24746
| 80>    N      -19.54812        13.34514        -8.22346
| 81>    C      -17.11373        13.06114        -5.97393
| 82>    N      -16.15751        12.42518        -5.96722
| 83>    C      -19.71896        15.74982        -5.28343
| 84>    C      -19.50895        16.80352        -4.35697
| 85>    C      -18.34118        16.48388        -3.51645
| 86>    O      -17.83349        17.16478        -2.65475
| 87>    C      -20.32219        17.90925        -4.30222
| 88>    C      -21.39891        17.97293        -5.19249
| 89>    C      -21.60820        16.90932        -6.10264
| 90>    C      -20.77968        15.79433        -6.16610
| 91>    S      -23.00274        17.19629        -7.09439
| 92>    C      -23.28510        18.70828        -6.30293
| 93>    C      -22.38276        18.99134        -5.33851
| 94>    H       -5.91559         1.69596        12.71720
| 95>    H       -2.21034         5.06555        12.55069
| 96>    H       -3.51357         2.56136        17.06526
| 97>    H       -5.24503         1.48428        15.43368
| 98>    H       -4.69697         5.29955         7.75945
| 99>    H       -6.92926         2.04590         7.95851
|100>    H       -8.86925         1.17053         4.03818
|101>    H      -10.42191         1.26861         4.90216
|102>    H      -11.42875         2.82448         2.78449
|103>    H      -15.62478         6.40859        -1.28699
|104>    H      -17.18282         9.14798        -4.47038
|105>    H      -18.63681         9.31779        -3.45855
|106>    H      -18.51347        12.05905        -3.97568
|107>    H      -16.58295        15.04542        -2.35688
|108>    H      -20.13323        18.70072        -3.59380
|109>    H      -20.98123        15.00609        -6.87270
|110>    H      -24.12352        19.30041        -6.61446
|111>    H      -22.39922        19.88532        -4.74181
|112> *
|113>
|114>                          ****END OF INPUT****

CARTESIAN COORDINATES (ANGSTROEM)
---------------------------------
  C     -3.661660    4.498010   10.070310
  C     -2.653140    5.271650    9.557130
  C     -1.579630    5.773090   10.322780
  N     -0.685060    6.211420   10.893200
  C     -2.504080    5.620440    8.197710
  N     -2.295420    5.919310    7.108730
  C     -3.743790    4.017580   11.442400
  C     -4.790450    3.066130   11.521940
  C     -5.115340    2.419200   12.689980
  C     -4.379160    2.733110   13.836180
  C     -3.340180    3.691080   13.748780
  C     -3.006290    4.339910   12.565700
  S     -2.573550    3.928340   15.287190
  C     -3.626250    2.767030   16.018510
  C     -4.513660    2.222260   15.157890
  C     -5.429560    2.918700   10.202090
  O     -6.312220    2.133310    9.926950
  C     -4.778380    3.929390    9.330660
  C     -5.206090    4.414840    8.125560
  C     -6.251830    3.993420    7.279220
  C     -7.022460    2.840680    7.242530
  C     -7.935830    2.833160    6.192590
  C     -7.893250    4.005770    5.417540
  S     -6.674930    5.084480    5.969450
  C     -8.858690    4.192970    4.414000
  C     -9.709690    3.131660    4.098330
  C     -9.477440    1.788710    4.720780
  O     -8.819590    1.840380    5.983610
  C    -10.672260    3.482670    3.169450
  C    -10.579240    4.811580    2.761940
  S     -9.257160    5.636000    3.546710
  C    -11.430570    5.497040    1.864620
  C    -11.227030    6.869410    1.585570
  C    -12.108240    7.622140    0.733930
  N    -11.870850    8.920160    0.523630
  C    -10.838980    9.500530    1.089400
  C     -9.961000    8.750980    1.934710
  N    -10.181410    7.475240    2.153890
  C     -8.848230    9.375860    2.549300
  N     -7.959340    9.909350    3.035810
  C    -10.605580   10.878400    0.855550
  N    -10.390160   11.990640    0.688310
  C    -13.240170    7.044790    0.113850
  C    -13.426010    5.661430    0.355510
  C    -12.540190    4.903160    1.213970
  N    -12.914900    3.627930    1.300120
  S    -14.228770    3.396990    0.403890
  N    -14.398830    4.898520   -0.138810
  C    -14.122620    7.837540   -0.659570
  C    -15.281780    7.425340   -1.303780
  C    -15.939420    8.464780   -1.951550
  C    -15.285870    9.696170   -1.791940
  S    -13.835060    9.545660   -0.860930
  C    -15.900760   10.854980   -2.291780
  C    -17.064860   10.730240   -3.054860
  C    -17.544020    9.367220   -3.451140
  O    -17.118160    8.318190   -2.586560
  C    -17.595890   11.951870   -3.425900
  C    -16.853600   13.037970   -2.966680
  S    -15.481950   12.500210   -2.022810
  C    -17.092160   14.419380   -3.084370
  C    -17.940670   15.102900   -3.908180
  C    -18.662630   14.756810   -5.108790
  C    -18.289950   13.830380   -6.052030
  C    -18.997560   13.595740   -7.247460
  N    -19.548120   13.345140   -8.223460
  C    -17.113730   13.061140   -5.973930
  N    -16.157510   12.425180   -5.967220
  C    -19.718960   15.749820   -5.283430
  C    -19.508950   16.803520   -4.356970
  C    -18.341180   16.483880   -3.516450
  O    -17.833490   17.164780   -2.654750
  C    -20.322190   17.909250   -4.302220
  C    -21.398910   17.972930   -5.192490
  C    -21.608200   16.909320   -6.102640
  C    -20.779680   15.794330   -6.166100
  S    -23.002740   17.196290   -7.094390
  C    -23.285100   18.708280   -6.302930
  C    -22.382760   18.991340   -5.338510
  H     -5.915590    1.695960   12.717200
  H     -2.210340    5.065550   12.550690
  H     -3.513570    2.561360   17.065260
  H     -5.245030    1.484280   15.433680
  H     -4.696970    5.299550    7.759450
  H     -6.929260    2.045900    7.958510
  H     -8.869250    1.170530    4.038180
  H    -10.421910    1.268610    4.902160
  H    -11.428750    2.824480    2.784490
  H    -15.624780    6.408590   -1.286990
  H    -17.182820    9.147980   -4.470380
  H    -18.636810    9.317790   -3.458550
  H    -18.513470   12.059050   -3.975680
  H    -16.582950   15.045420   -2.356880
  H    -20.133230   18.700720   -3.593800
  H    -20.981230   15.006090   -6.872700
  H    -24.123520   19.300410   -6.614460
  H    -22.399220   19.885320   -4.741810

 Total Charge           Charge          ....    0
 Multiplicity           Mult            ....    1
 Number of Electrons    NEL             ....  580
 Basis Dimension        Dim             .... 1224

ORBITAL ENERGIES
----------------

  NO   OCC          E(Eh)            E(eV)
   0   2.0000     -89.055157     -2423.3140
   1   2.0000     -88.974744     -2421.1259
   2   2.0000     -88.974380     -2421.1160
   3   2.0000     -88.973571     -2421.0940
   4   2.0000     -88.968172     -2420.9470
   5   2.0000     -88.965514     -2420.8747
   6   2.0000     -88.964253     -2420.8404
   7   2.0000     -19.265456      -524.2397
   8   2.0000     -19.262225      -524.1518
   9   2.0000     -19.217701      -522.9402
  10   2.0000     -19.208764      -522.6970
  11   2.0000     -14.476074      -393.9140
  12   2.0000     -14.474857      -393.8809
  13   2.0000     -14.466120      -393.6431
  14   2.0000     -14.464812      -393.6075
  15   2.0000     -14.437153      -392.8549
  16   2.0000     -14.436505      -392.8373
  17   2.0000     -14.412422      -392.1819
  18   2.0000     -14.412263      -392.1776
  19   2.0000     -14.412084      -392.1727
  20   2.0000     -14.411756      -392.1638
  21   2.0000     -10.394016      -282.8356
  22   2.0000     -10.392941      -282.8063
  23   2.0000     -10.369178      -282.1597
  24   2.0000     -10.359825      -281.9052
  25   2.0000     -10.357408      -281.8394
  26   2.0000     -10.357134      -281.8320
  27   2.0000     -10.356054      -281.8025
  28   2.0000     -10.355592      -281.7900
  29   2.0000     -10.352883      -281.7163
  30   2.0000     -10.349775      -281.6317
  31   2.0000     -10.348447      -281.5956
  32   2.0000     -10.346581      -281.5448
  33   2.0000     -10.339411      -281.3497
  34   2.0000     -10.338765      -281.3321
  35   2.0000     -10.338528      -281.3257
  36   2.0000     -10.337735      -281.3041
  37   2.0000     -10.330510      -281.1075
  38   2.0000     -10.330238      -281.1001
  39   2.0000     -10.329799      -281.0881
  40   2.0000     -10.328475      -281.0521
  41   2.0000     -10.326934      -281.0102
  42   2.0000     -10.324185      -280.9354
  43   2.0000     -10.323926      -280.9283
  44   2.0000     -10.323603      -280.9195
  45   2.0000     -10.323153      -280.9073
  46   2.0000     -10.322756      -280.8965
  47   2.0000     -10.320255      -280.8284
  48   2.0000     -10.319320      -280.8030
  49   2.0000     -10.317803      -280.7617
  50   2.0000     -10.317230      -280.7461
  51   2.0000     -10.316774      -280.7337
  52   2.0000     -10.315501      -280.6991
  53   2.0000     -10.314905      -280.6828
  54   2.0000     -10.314710      -280.6775
  55   2.0000     -10.313955      -280.6570
  56   2.0000     -10.313302      -280.6392
  57   2.0000     -10.311415      -280.5879
  58   2.0000     -10.307552      -280.4827
  59   2.0000     -10.304657      -280.4040
  60   2.0000     -10.303473      -280.3718
  61   2.0000     -10.301814      -280.3266
  62   2.0000     -10.300657      -280.2951
  63   2.0000     -10.300323      -280.2860
  64   2.0000     -10.300145      -280.2812
  65   2.0000     -10.300138      -280.2810
  66   2.0000     -10.298400      -280.2337
  67   2.0000     -10.297829      -280.2182
  68   2.0000     -10.297348      -280.2051
  69   2.0000     -10.296374      -280.1786
  70   2.0000     -10.295707      -280.1604
  71   2.0000     -10.293916      -280.1117
  72   2.0000     -10.291349      -280.0418
  73   2.0000     -10.289144      -279.9818
  74   2.0000     -10.288296      -279.9588
  75   2.0000     -10.287267      -279.9308
  76   2.0000     -10.286914      -279.9212
  77   2.0000     -10.286583      -279.9121
  78   2.0000     -10.284382      -279.8523
  79   2.0000      -8.146461      -221.6765
  80   2.0000      -8.070164      -219.6003
  81   2.0000      -8.069859      -219.5920
  82   2.0000      -8.067004      -219.5143
  83   2.0000      -8.061807      -219.3729
  84   2.0000      -8.061487      -219.3642
  85   2.0000      -8.060471      -219.3366
  86   2.0000      -6.117647      -166.4696
  87   2.0000      -6.109689      -166.2531
  88   2.0000      -6.109174      -166.2391
  89   2.0000      -6.039415      -164.3408
  90   2.0000      -6.039048      -164.3309
  91   2.0000      -6.036663      -164.2660
  92   2.0000      -6.035433      -164.2325
  93   2.0000      -6.035027      -164.2214
  94   2.0000      -6.032128      -164.1425
  95   2.0000      -6.032009      -164.1393
  96   2.0000      -6.031945      -164.1376
  97   2.0000      -6.031333      -164.1209
  98   2.0000      -6.031255      -164.1188
  99   2.0000      -6.029979      -164.0841
 100   2.0000      -6.028992      -164.0572
 101   2.0000      -6.027004      -164.0031
 102   2.0000      -6.026597      -163.9920
 103   2.0000      -6.025687      -163.9673
 104   2.0000      -6.023467      -163.9069
 105   2.0000      -6.023225      -163.9003
 106   2.0000      -6.022156      -163.8712
 107   2.0000      -1.174089       -31.9486
 108   2.0000      -1.170167       -31.8419
 109   2.0000      -1.153162       -31.3791
 110   2.0000      -1.135312       -30.8934
 111   2.0000      -1.132656       -30.8211
 112   2.0000      -1.124182       -30.5905
 113   2.0000      -1.063545       -28.9405
 114   2.0000      -1.023133       -27.8409
 115   2.0000      -1.018377       -27.7114
 116   2.0000      -1.017851       -27.6971
 117   2.0000      -1.015071       -27.6215
 118   2.0000      -1.010190       -27.4887
 119   2.0000      -1.009381       -27.4666
 120   2.0000      -1.006665       -27.3927
 121   2.0000      -1.006187       -27.3797
 122   2.0000      -1.004467       -27.3329
 123   2.0000      -0.998613       -27.1736
 124   2.0000      -0.991279       -26.9741
 125   2.0000      -0.990552       -26.9543
 126   2.0000      -0.989221       -26.9181
 127   2.0000      -0.982922       -26.7467
 128   2.0000      -0.981154       -26.6986
 129   2.0000      -0.975934       -26.5565
 130   2.0000      -0.930540       -25.3213
 131   2.0000      -0.928612       -25.2688
 132   2.0000      -0.919883       -25.0313
 133   2.0000      -0.917992       -24.9798
 134   2.0000      -0.907795       -24.7024
 135   2.0000      -0.904192       -24.6043
 136   2.0000      -0.886542       -24.1240
 137   2.0000      -0.884404       -24.0658
 138   2.0000      -0.882388       -24.0110
 139   2.0000      -0.879549       -23.9337
 140   2.0000      -0.878260       -23.8987
 141   2.0000      -0.868261       -23.6266
 142   2.0000      -0.857520       -23.3343
 143   2.0000      -0.853795       -23.2329
 144   2.0000      -0.851164       -23.1613
 145   2.0000      -0.842663       -22.9300
 146   2.0000      -0.840074       -22.8596
 147   2.0000      -0.822474       -22.3807
 148   2.0000      -0.821788       -22.3620
 149   2.0000      -0.820050       -22.3147
 150   2.0000      -0.816014       -22.2049
 151   2.0000      -0.799273       -21.7493
 152   2.0000      -0.791067       -21.5260
 153   2.0000      -0.789059       -21.4714
 154   2.0000      -0.778890       -21.1947
 155   2.0000      -0.756596       -20.5880
 156   2.0000      -0.755729       -20.5644
 157   2.0000      -0.747876       -20.3507
 158   2.0000      -0.744634       -20.2625
 159   2.0000      -0.732288       -19.9266
 160   2.0000      -0.719375       -19.5752
 161   2.0000      -0.714995       -19.4560
 162   2.0000      -0.712193       -19.3798
 163   2.0000      -0.703563       -19.1449
 164   2.0000      -0.696385       -18.9496
 165   2.0000      -0.687353       -18.7038
 166   2.0000      -0.686343       -18.6763
 167   2.0000      -0.683615       -18.6021
 168   2.0000      -0.682800       -18.5799
 169   2.0000      -0.678884       -18.4734
 170   2.0000      -0.669119       -18.2077
 171   2.0000      -0.665604       -18.1120
 172   2.0000      -0.660559       -17.9747
 173   2.0000      -0.658887       -17.9292
 174   2.0000      -0.657778       -17.8991
 175   2.0000      -0.651694       -17.7335
 176   2.0000      -0.641898       -17.4669
 177   2.0000      -0.636156       -17.3107
 178   2.0000      -0.632814       -17.2198
 179   2.0000      -0.627033       -17.0624
 180   2.0000      -0.619235       -16.8502
 181   2.0000      -0.618081       -16.8188
 182   2.0000      -0.616186       -16.7673
 183   2.0000      -0.611771       -16.6471
 184   2.0000      -0.604027       -16.4364
 185   2.0000      -0.593903       -16.1609
 186   2.0000      -0.592640       -16.1266
 187   2.0000      -0.592114       -16.1122
 188   2.0000      -0.587837       -15.9959
 189   2.0000      -0.580779       -15.8038
 190   2.0000      -0.578378       -15.7385
 191   2.0000      -0.574240       -15.6259
 192   2.0000      -0.572715       -15.5844
 193   2.0000      -0.570345       -15.5199
 194   2.0000      -0.568373       -15.4662
 195   2.0000      -0.562376       -15.3030
 196   2.0000      -0.557432       -15.1685
 197   2.0000      -0.553973       -15.0744
 198   2.0000      -0.550375       -14.9765
 199   2.0000      -0.543875       -14.7996
 200   2.0000      -0.541164       -14.7258
 201   2.0000      -0.538649       -14.6574
 202   2.0000      -0.538227       -14.6459
 203   2.0000      -0.533751       -14.5241
 204   2.0000      -0.531277       -14.4568
 205   2.0000      -0.530057       -14.4236
 206   2.0000      -0.527050       -14.3418
 207   2.0000      -0.525544       -14.3008
 208   2.0000      -0.519166       -14.1272
 209   2.0000      -0.517770       -14.0892
 210   2.0000      -0.512402       -13.9432
 211   2.0000      -0.511861       -13.9284
 212   2.0000      -0.507950       -13.8220
 213   2.0000      -0.506122       -13.7723
 214   2.0000      -0.505814       -13.7639
 215   2.0000      -0.503662       -13.7054
 216   2.0000      -0.501067       -13.6347
 217   2.0000      -0.498943       -13.5769
 218   2.0000      -0.496928       -13.5221
 219   2.0000      -0.495838       -13.4924
 220   2.0000      -0.493780       -13.4364
 221   2.0000      -0.492595       -13.4042
 222   2.0000      -0.490604       -13.3500
 223   2.0000      -0.489787       -13.3278
 224   2.0000      -0.488328       -13.2881
 225   2.0000      -0.485843       -13.2205
 226   2.0000      -0.484193       -13.1756
 227   2.0000      -0.481650       -13.1064
 228   2.0000      -0.479942       -13.0599
 229   2.0000      -0.477479       -12.9929
 230   2.0000      -0.474843       -12.9211
 231   2.0000      -0.469212       -12.7679
 232   2.0000      -0.466682       -12.6991
 233   2.0000      -0.464837       -12.6489
 234   2.0000      -0.464535       -12.6406
 235   2.0000      -0.459762       -12.5107
 236   2.0000      -0.458577       -12.4785
 237   2.0000      -0.453933       -12.3521
 238   2.0000      -0.451969       -12.2987
 239   2.0000      -0.451139       -12.2761
 240   2.0000      -0.450283       -12.2528
 241   2.0000      -0.446206       -12.1419
 242   2.0000      -0.445248       -12.1158
 243   2.0000      -0.443240       -12.0612
 244   2.0000      -0.442453       -12.0397
 245   2.0000      -0.439717       -11.9653
 246   2.0000      -0.439577       -11.9615
 247   2.0000      -0.437301       -11.8996
 248   2.0000      -0.434262       -11.8169
 249   2.0000      -0.433410       -11.7937
 250   2.0000      -0.431929       -11.7534
 251   2.0000      -0.431300       -11.7363
 252   2.0000      -0.430851       -11.7240
 253   2.0000      -0.429694       -11.6926
 254   2.0000      -0.427295       -11.6273
 255   2.0000      -0.426918       -11.6170
 256   2.0000      -0.424080       -11.5398
 257   2.0000      -0.423366       -11.5204
 258   2.0000      -0.421082       -11.4582
 259   2.0000      -0.419298       -11.4097
 260   2.0000      -0.418610       -11.3910
 261   2.0000      -0.416715       -11.3394
 262   2.0000      -0.412779       -11.2323
 263   2.0000      -0.407356       -11.0847
 264   2.0000      -0.406203       -11.0533
 265   2.0000      -0.401743       -10.9320
 266   2.0000      -0.399961       -10.8835
 267   2.0000      -0.391136       -10.6433
 268   2.0000      -0.383695       -10.4409
 269   2.0000      -0.382185       -10.3998
 270   2.0000      -0.378984       -10.3127
 271   2.0000      -0.372150       -10.1267
 272   2.0000      -0.366737        -9.9794
 273   2.0000      -0.360090        -9.7985
 274   2.0000      -0.353596        -9.6218
 275   2.0000      -0.348242        -9.4761
 276   2.0000      -0.340589        -9.2679
 277   2.0000      -0.337023        -9.1709
 278   2.0000      -0.336256        -9.1500
 279   2.0000      -0.334482        -9.1017
 280   2.0000      -0.327823        -8.9205
 281   2.0000      -0.315847        -8.5946
 282   2.0000      -0.312857        -8.5133
 283   2.0000      -0.311002        -8.4628
 284   2.0000      -0.309405        -8.4193
 285   2.0000      -0.300928        -8.1887
 286   2.0000      -0.292870        -7.9694
 287   2.0000      -0.291798        -7.9402
 288   2.0000      -0.262277        -7.1369
 289   2.0000      -0.231547        -6.3007
 290   0.0000      -0.140129        -3.8131
 291   0.0000      -0.091443        -2.4883
 292   0.0000      -0.087783        -2.3887
 293   0.0000      -0.064172        -1.7462
 294   0.0000      -0.058840        -1.6011

MULLIKEN ATOMIC CHARGES
-----------------------
   0 C :    0.289834
   1 C :   -0.343291
   2 C :   -0.185845
   3 N :    0.150000
   4 C :   -0.206003
   5 N :    0.164343
   6 C :    0.018765
   7 C :   -0.011210
   8 C :   -0.073402
   9 C :    0.114239
  10 C :   -0.091559
  11 C :   -0.026014
  12 S :    0.140642
  13 C :   -0.049107
  14 C :    0.024369
  15 C :    0.155454
  16 O :   -0.157246
  17 C :   -0.086711
  18 C :    0.041638
  19 C :   -0.091333
  20 C :   -0.021423
  21 C :    0.199849
  22 C :   -0.165081
  23 S :    0.182658
  24 C :   -0.016446
  25 C :   -0.112948
  26 C :    0.356523
  27 O :   -0.290175
  28 C :   -0.033760
  29 C :   -0.174682
  30 S :    0.183319
  31 C :    0.203017
  32 C :   -0.058757
  33 C :   -0.053486
  34 N :    0.000109
  35 C :   -0.098824
  36 C :   -0.099685
  37 N :   -0.001893
  38 C :   -0.242972
  39 N :    0.255313
  40 C :   -0.239143
  41 N :    0.252715
  42 C :    0.193364
  43 C :   -0.015071
  44 C :   -0.012725
  45 N :   -0.291262
  46 S :    0.552464
  47 N :   -0.286377
  48 C :   -0.147307
  49 C :   -0.072328
  50 C :    0.230262
  51 C :   -0.134271
  52 S :    0.175170
  53 C :   -0.040690
  54 C :   -0.143762
  55 C :    0.354008
  56 O :   -0.295767
  57 C :    0.022429
  58 C :   -0.108131
  59 S :    0.190142
  60 C :    0.092284
  61 C :   -0.145744
  62 C :    0.272380
  63 C :   -0.351006
  64 C :   -0.177011
  65 N :    0.149238
  66 C :   -0.208482
  67 N :    0.169112
  68 C :    0.002053
  69 C :    0.005193
  70 C :    0.132949
  71 O :   -0.148358
  72 C :   -0.067848
  73 C :    0.106299
  74 C :   -0.093697
  75 C :   -0.026649
  76 S :    0.136344
  77 C :   -0.051773
  78 C :    0.028807
  79 H :   -0.011671
  80 H :   -0.004272
  81 H :    0.038589
  82 H :   -0.007094
  83 H :    0.019648
  84 H :    0.016257
  85 H :    0.033646
  86 H :    0.026773
  87 H :   -0.007629
  88 H :   -0.002711
  89 H :    0.042288
  90 H :    0.026943
  91 H :   -0.003639
  92 H :    0.022734
  93 H :   -0.010695
  94 H :   -0.005837
  95 H :    0.037467
  96 H :   -0.006830
Sum of atomic charges:   -0.0000000

LOEWDIN ATOMIC CHARGES
----------------------
   0 C :    0.075425
   1 C :   -0.141475
   2 C :   -0.018292
   3 N :   -0.053539
   4 C :   -0.027440
   5 N :   -0.049224
   6 C :   -0.022082
   7 C :   -0.052836
   8 C :    0.022414
   9 C :   -0.035314
  10 C :   -0.145293
  11 C :   -0.008962
  12 S :    0.429931
  13 C :   -0.149755
  14 C :   -0.058087
  15 C :    0.087508
  16 O :   -0.141975
  17 C :   -0.090205
  18 C :    0.040785
  19 C :   -0.163676
  20 C :   -0.028420
  21 C :    0.031332
  22 C :   -0.221570
  23 S :    0.465443
  24 C :   -0.182731
  25 C :   -0.077381
  26 C :    0.106981
  27 O :   -0.087759
  28 C :   -0.027459
  29 C :   -0.163802
  30 S :    0.484234
  31 C :   -0.038245
  32 C :   -0.014632
  33 C :   -0.011162
  34 N :   -0.014290
  35 C :   -0.018134
  36 C :   -0.022279
  37 N :   -0.014523
  38 C :   -0.040071
  39 N :    0.003272
  40 C :   -0.038594
  41 N :    0.003984
  42 C :   -0.046130
  43 C :   -0.034646
  44 C :   -0.037665
  45 N :   -0.276705
  46 S :    0.675078
  47 N :   -0.272943
  48 C :   -0.151539
  49 C :   -0.053323
  50 C :    0.035183
  51 C :   -0.239404
  52 S :    0.474228
  53 C :   -0.162183
  54 C :   -0.073483
  55 C :    0.107748
  56 O :   -0.091832
  57 C :   -0.007163
  58 C :   -0.181049
  59 S :    0.475130
  60 C :    0.044416
  61 C :   -0.101926
  62 C :    0.067249
  63 C :   -0.151727
  64 C :   -0.021793
  65 N :   -0.058006
  66 C :   -0.019105
  67 N :   -0.048862
  68 C :   -0.019888
  69 C :   -0.054494
  70 C :    0.082431
  71 O :   -0.147076
  72 C :    0.023115
  73 C :   -0.036959
  74 C :   -0.145836
  75 C :   -0.013740
  76 S :    0.426905
  77 C :   -0.151250
  78 C :   -0.057478
  79 H :    0.039909
  80 H :    0.040928
  81 H :    0.029340
  82 H :    0.035111
  83 H :    0.044451
  84 H :    0.041474
  85 H :    0.027068
  86 H :    0.035195
  87 H :    0.030961
  88 H :    0.035793
  89 H :    0.031259
  90 H :    0.035073
  91 H :    0.035604
  92 H :    0.045942
  93 H :    0.040682
  94 H :    0.039762
  95 H :    0.028878
  96 H :    0.035191

  Mayer bond orders larger than 0.100000
B(  0-C ,  1-C ) :   1.6336 B(  0-C ,  6-C ) :   1.0026 B(  0-C , 17-C ) :   1.0705
B(  1-C ,  2-C ) :   1.1432 B(  1-C ,  4-C ) :   1.1373 B(  2-C ,  3-N ) :   2.9757
B(  4-C ,  5-N ) :   2.9997 B(  6-C ,  7-C ) :   1.2695 B(  6-C , 11-C ) :   1.4113
B(  7-C ,  8-C ) :   1.4224 B(  7-C , 15-C ) :   0.9539 B(  8-C ,  9-C ) :   1.2453
B(  8-C , 79-H ) :   1.0179 B(  9-C , 10-C ) :   1.3018 B(  9-C , 14-C ) :   1.1718
B( 10-C , 11-C ) :   1.3218 B( 10-C , 12-S ) :   1.0983 B( 11-C , 80-H ) :   0.9847
B( 12-S , 13-C ) :   1.1267 B( 13-C , 14-C ) :   1.6283 B( 13-C , 81-H ) :   0.9687
B( 14-C , 82-H ) :   1.0000 B( 15-C , 16-O ) :   2.1753 B( 15-C , 17-C ) :   0.9392
B( 17-C , 18-C ) :   1.5985 B( 18-C , 19-C ) :   1.2136 B( 18-C , 83-H ) :   0.9231
B( 19-C , 20-C ) :   1.3921 B( 19-C , 23-S ) :   1.0922 B( 20-C , 21-C ) :   1.2822
B( 20-C , 84-H ) :   0.9960 B( 21-C , 22-C ) :   1.3725 B( 21-C , 27-O ) :   1.1742
B( 22-C , 23-S ) :   1.1146 B( 22-C , 24-C ) :   1.1881 B( 24-C , 25-C ) :   1.4593
B( 24-C , 30-S ) :   1.0786 B( 25-C , 26-C ) :   1.0236 B( 25-C , 28-C ) :   1.3134
B( 26-C , 27-O ) :   0.9445 B( 26-C , 85-H ) :   0.9323 B( 26-C , 86-H ) :   0.9364
B( 28-C , 29-C ) :   1.4014 B( 28-C , 87-H ) :   0.9909 B( 29-C , 30-S ) :   1.1032
B( 29-C , 31-C ) :   1.2318 B( 31-C , 32-C ) :   1.2318 B( 31-C , 42-C ) :   0.1158
B( 31-C , 44-C ) :   1.1874 B( 32-C , 33-C ) :   1.1108 B( 32-C , 37-N ) :   1.4132
B( 33-C , 34-N ) :   1.4037 B( 33-C , 42-C ) :   1.2443 B( 34-N , 35-C ) :   1.6925
B( 35-C , 36-C ) :   1.2245 B( 35-C , 40-C ) :   1.1660 B( 36-C , 37-N ) :   1.6828
B( 36-C , 38-C ) :   1.1675 B( 38-C , 39-N ) :   3.0396 B( 40-C , 41-N ) :   3.0384
B( 42-C , 43-C ) :   1.1871 B( 42-C , 48-C ) :   1.2257 B( 43-C , 44-C ) :   1.0984
B( 43-C , 47-N ) :   1.5271 B( 44-C , 45-N ) :   1.5231 B( 45-N , 46-S ) :   1.2726
B( 45-N , 47-N ) :   0.1461 B( 46-S , 47-N ) :   1.2736 B( 48-C , 49-C ) :   1.3901
B( 48-C , 52-S ) :   1.1083 B( 49-C , 50-C ) :   1.2614 B( 49-C , 88-H ) :   1.0059
B( 50-C , 51-C ) :   1.3925 B( 50-C , 56-O ) :   1.1703 B( 51-C , 52-S ) :   1.0312
B( 51-C , 53-C ) :   1.1951 B( 53-C , 54-C ) :   1.4533 B( 53-C , 59-S ) :   1.1535
B( 54-C , 55-C ) :   1.0251 B( 54-C , 57-C ) :   1.3817 B( 55-C , 56-O ) :   0.9434
B( 55-C , 89-H ) :   0.9323 B( 55-C , 90-H ) :   0.9353 B( 57-C , 58-C ) :   1.3814
B( 57-C , 91-H ) :   0.9894 B( 58-C , 59-S ) :   1.0946 B( 58-C , 60-C ) :   1.1739
B( 60-C , 61-C ) :   1.6242 B( 60-C , 92-H ) :   0.9254 B( 61-C , 62-C ) :   1.0596
B( 61-C , 70-C ) :   0.9476 B( 62-C , 63-C ) :   1.6203 B( 62-C , 68-C ) :   1.0100
B( 63-C , 64-C ) :   1.1284 B( 63-C , 66-C ) :   1.1751 B( 64-C , 65-N ) :   2.9867
B( 66-C , 67-N ) :   2.9937 B( 68-C , 69-C ) :   1.2715 B( 68-C , 75-C ) :   1.4189
B( 69-C , 70-C ) :   0.9215 B( 69-C , 72-C ) :   1.4308 B( 70-C , 71-O ) :   2.2568
B( 72-C , 73-C ) :   1.2479 B( 72-C , 93-H ) :   1.0161 B( 73-C , 74-C ) :   1.3072
B( 73-C , 78-C ) :   1.1739 B( 74-C , 75-C ) :   1.3177 B( 74-C , 76-S ) :   1.0962
B( 75-C , 94-H ) :   0.9860 B( 76-S , 77-C ) :   1.1261 B( 77-C , 78-C ) :   1.6281
B( 77-C , 95-H ) :   0.9687 B( 78-C , 96-H ) :   0.9990

-----------------------------------------------------------------------------
         ABSORPTION SPECTRUM VIA TRANSITION ELECTRIC DIPOLE MOMENTS
-----------------------------------------------------------------------------
State   Energy  Wavelength   fosc         T2         TX        TY        TZ
        (cm-1)    (nm)                  (au**2)     (au)      (au)      (au)
-----------------------------------------------------------------------------
   0    5510.2   1814.8   0.576787524  34.46084   3.55793  -2.95603   3.61439
   1   13082.1    764.4   0.047486716   1.19500   0.43626   0.57608   0.82026
   2   17019.5    587.6   1.020310444  19.73615  -2.45286   2.63250  -2.60568
   3   17915.2    558.2   0.604751683  11.11299  -2.13864   0.25250  -2.54469
   4   20014.7    499.6   0.009878581   0.16249   0.21700   0.01444   0.33940
   5   21159.2    472.6   0.108944178   1.69504  -0.67423   0.85402  -0.71491
   6   21844.2    457.8   0.134140701   2.02162   1.14134   0.57455   0.62358
   7   22928.3    436.1   0.014583380   0.20939   0.00151  -0.44823  -0.09209
   8   23654.4    422.8   0.028156938   0.39188  -0.56597  -0.17420  -0.20300
   9   24096.2    415.0   0.001912780   0.02613   0.06081  -0.10818  -0.10360
  10   24275.7    411.9   0.028552169   0.38721  -0.15895  -0.59975   0.04730
  11   24416.4    409.6   0.016520988   0.22276  -0.22833  -0.07922   0.40540
  12   25026.7    399.6   0.291768815   3.83805  -0.73134   1.72508  -0.57208
  13   25528.4    391.7   0.042392667   0.54669  -0.24868   0.14737   0.68054
  14   25864.9    386.6   0.007653922   0.09742  -0.23943   0.11698  -0.16251
  15   26048.5    383.9   0.134146990   1.69541  -0.77045   0.05288  -1.04834
  16   26662.4    375.1   0.041305423   0.51002   0.26018   0.66439   0.03017
  17   27287.1    366.5   0.004248385   0.05126  -0.03265  -0.21844  -0.04972
  18   27742.1    360.5   0.025020618   0.29692  -0.03017  -0.53546   0.09640
  19   28247.4    354.0   0.025921800   0.30211   0.26874  -0.44461   0.17947
  20   28761.4    347.7   0.060093287   0.68785   0.45369  -0.11267   0.68507
  21   28951.1    345.4   0.093973735   1.06861   0.27423  -0.61513  -0.78423
  22   29093.9    343.7   0.132103040   1.49481   0.71142  -0.99374  -0.03408
  23   29435.6    339.7   0.042286544   0.47294  -0.27715   0.13925  -0.61379
  24   29768.0    335.9   0.139382367   1.54147  -1.10155   0.55929   0.12343
  25   29790.1    335.7   0.184348419   2.03725   0.10614   0.80661  -1.17276
  26   30312.4    329.9   0.051713603   0.56164   0.53277   0.00028   0.52706
  27   30611.8    326.7   0.343763439   3.69698  -0.91105  -1.67225  -0.26560
  28   31298.8    319.5   0.007537489   0.07928   0.17780   0.15201   0.15673
  29   31361.8    318.9   0.005442033   0.05713  -0.16168  -0.09638  -0.14731
  30   31619.4    316.3   0.252626920   2.63027  -0.81126  -1.16983  -0.77694
  31   31682.6    315.6   0.008771862   0.09115  -0.01478  -0.14746   0.26303
  32   31877.0    313.7   0.068349909   0.70589   0.14287  -0.42695   0.70936
  33   32056.7    311.9   0.054259381   0.55723  -0.43887  -0.28456  -0.53259
  34   32231.2    310.3   0.006527737   0.06667   0.21408  -0.14049  -0.03330
  35   32284.3    309.7   0.001333750   0.01360   0.08837   0.06926  -0.03154
  36   32925.9    303.7   0.061885999   0.61877   0.46934  -0.61103  -0.15853
  37   33243.1    300.8   0.039355205   0.38974  -0.31664  -0.53507   0.05639
  38   33446.7    299.0   0.111790170   1.10034   0.50352   0.69219  -0.60636
  39   33996.8    294.1   0.088350102   0.85555   0.39663   0.55451   0.62510
  40   34013.6    294.0   0.165009436   1.59710   0.00162  -0.53654  -1.14421
  41   34341.0    291.2   0.043147616   0.41364  -0.00758   0.25488   0.59044
  42   34530.9    289.6   0.524949755   5.00478   0.30380   1.69025  -1.43371
  43   34808.6    287.3   0.064123426   0.60646  -0.26831   0.72845  -0.06196
  44   34872.4    286.8   0.451703741   4.26430  -1.72237   0.98286   0.57596
  45   35000.2    285.7   0.017672152   0.16622  -0.33434   0.11326   0.20399
  46   35427.3    282.3   0.076350168   0.70949  -0.73455  -0.34206  -0.23004
  47   35596.4    280.9   0.046835204   0.43315  -0.50689  -0.33341  -0.25505
  48   36795.5    271.8   0.029325898   0.26238   0.33076   0.39058   0.02056
  49   37305.2    268.1   0.084549280   0.74613   0.38030  -0.73148   0.25776
  50   37622.8    265.8   0.124936057   1.09323  -0.67923  -0.70136  -0.37413
  51   37737.8    265.0   0.058671933   0.51183   0.07881   0.61487  -0.35715
  52   38026.0    263.0   0.239477224   2.07329  -0.83436  -1.14975  -0.23498
  53   38212.2    261.7   0.034532970   0.29751   0.35439   0.37410   0.17882
  54   38506.5    259.7   0.095988000   0.82065   0.04152   0.87698  -0.22325
  55   38577.7    259.2   0.024573361   0.20970   0.07314   0.29859   0.33941
  56   38693.3    258.4   0.013717574   0.11671   0.09005   0.32456   0.05713
  57   38873.4    257.2   0.049036749   0.41528   0.20913   0.50476   0.34170
  58   38943.3    256.8   0.020950191   0.17711   0.16729   0.37751   0.08125
  59   39170.7    255.3   0.012208792   0.10261  -0.04134   0.18420   0.25879
  60   39315.5    254.4   0.100122367   0.83838   0.70233   0.55273  -0.19902
  61   39433.1    253.6   0.117041938   0.97714   0.79809   0.47384   0.34010
  62   39716.8    251.8   0.067672438   0.56094  -0.16238  -0.23667  -0.69178
  63   39902.9    250.6   0.024004732   0.19805  -0.12263   0.36977   0.21513

FINAL SINGLE POINT ENERGY     -5851.917324654553

DIPOLE MOMENT
-------------
                                X             Y             Z
Electronic contribution:     14.13905      -0.64671      -7.01082
Nuclear contribution   :    -18.52081      -2.42212       8.71258
                        -----------------------------------------
Total Dipole Moment    :     -4.38176      -3.06883       1.70176
                        -----------------------------------------
Magnitude (a.u.)       :      5.61369
Magnitude (Debye)      :     14.26886

Rotational constants in cm-1:     0.001799     0.000152     0.000145
Rotational constants in MHz :    53.928787     4.542460     4.348574

                             ****ORCA TERMINATED NORMALLY****
TOTAL RUN TIME: 0 days 0 hours 13 minutes 36 seconds 793 msec
