                         Program Version 4.2.0 -  RELEASE  -
|  1> # ORCA input file
|  2> # SCF done       -199.512864465612          0.001980109679
|  3> ! CAM-B3LYP def2-SVP def2/J RIJCOSX Grid4 TightSCF
|  4> %maxcore 5000
|  5> %tddft
|  6>     Mode sTDDFT
|  7>     Ethresh 5.0
|  8>     maxcore 5000
|  9> end
| 10>
| 11> %pal
| 12>   nprocs 6
| 13>   end
| 14> * xyz 0 1
| 15>    C       -3.81614         1.25239         3.55959
| 16>    C       -4.21023         0.87324         4.81421
| 17>    C       -3.50623        -0.04609         5.61974
| 18>    N       -2.98045        -0.79232         6.31526
| 19>    C       -5.34219         1.37680         5.49153
| 20>    N       -6.22085         1.75582         6.12522
| 21>    C       -2.59776         0.83806         2.88135
| 22>    C       -2.47098         1.57858         1.67926
| 23>    C       -1.41193         1.41298         0.81896
| 24>    C       -0.43437         0.47322         1.15795
| 25>    C       -0.57294        -0.26580         2.35786
| 26>    C       -1.64147        -0.09833         3.22951
| 27>    S        0.74507        -1.37556         2.56818
| 28>    C        1.45617        -0.85026         1.08118
| 29>    C        0.74638         0.11029         0.45044
| 30>    C       -3.62149         2.49063         1.52988
| 31>    O       -3.82102         3.24917         0.60687
| 32>    C       -4.50118         2.20739         2.69819
| 33>    C       -5.79729         2.58126         2.80755
| 34>    C       -6.48602         3.54460         1.97856
| 35>    C       -7.78215         3.22972         1.52842
| 36>    O       -8.28481         1.99027         1.84899
| 37>    C       -8.42407         1.08462         0.76836
| 38>    C       -7.07637         0.65855         0.19353
| 39>    C       -8.50379         4.14765         0.75886
| 40>    C       -7.90814         5.36537         0.43933
| 41>    C       -6.63737         5.68147         0.88607
| 42>    C       -5.92862         4.78200         1.65558
| 43>    C       -9.87601         3.85691         0.30965
| 44>    C      -10.80667         3.38157         1.19166
| 45>    C      -12.12400         3.10195         0.75242
| 46>    C      -13.23934         2.60942         1.41028
| 47>    C      -13.42915         2.14878         2.81798
| 48>    C      -13.08803         0.64584         2.92029
| 49>    N      -11.66272         0.42848         2.76035
| 50>    C      -12.66312         2.96978         3.86427
| 51>    N      -13.35088         2.86711         5.14624
| 52>    C      -14.29958         2.53358         0.42845
| 53>    C      -15.58911         2.16538         0.53969
| 54>    C      -16.52338         2.33998        -0.60565
| 55>    C      -15.85496         2.51316        -1.93473
| 56>    C      -14.56038         2.87773        -2.03070
| 57>    C      -13.76156         2.97021        -0.86813
| 58>    C      -12.44651         3.33206        -0.65343
| 59>    C      -11.46211         3.84212        -1.53061
| 60>    C      -10.21519         4.09727        -1.05856
| 61>    C      -17.16744         3.69162        -0.37671
| 62>    C      -18.46017         3.97972        -0.49170
| 63>    C      -18.97989         5.32974        -0.27608
| 64>    C      -18.22346         6.46820        -0.58390
| 65>    O      -17.03559         6.37830        -1.28097
| 66>    C      -17.16666         6.06302        -2.65929
| 67>    C      -15.77757         6.10327        -3.27253
| 68>    C      -18.66580         7.74402        -0.19126
| 69>    C      -19.92092         7.87313         0.40451
| 70>    C      -20.69864         6.75912         0.64599
| 71>    C      -20.22628         5.50038         0.32309
| 72>    C      -17.84161         8.90888        -0.43565
| 73>    C      -16.49393         8.96309        -0.38486
| 74>    C      -15.51566         7.98373         0.06863
| 75>    C      -15.66121         7.10285         1.10348
| 76>    C      -14.63986         6.23168         1.53216
| 77>    N      -13.83664         5.50317         1.90881
| 78>    C      -16.82087         7.01208         1.90059
| 79>    N      -17.71446         6.92779         2.61551
| 80>    C      -14.27552         8.26488        -0.63768
| 81>    C      -14.39382         9.52386        -1.28375
| 82>    C      -15.75186        10.06065        -1.06978
| 83>    O      -16.19712        11.12531        -1.43089
| 84>    C      -13.36342        10.07691        -2.00656
| 85>    C      -12.17102         9.35378        -2.10339
| 86>    C      -12.07374         8.08930        -1.47322
| 87>    C      -13.11024         7.52837        -0.73806
| 88>    S      -10.51592         7.37560        -1.73759
| 89>    C      -10.01381         8.75012        -2.66318
| 90>    C      -10.96608         9.70045        -2.77834
| 91>    H       -1.34196         1.99299        -0.08816
| 92>    H       -1.70677        -0.68777         4.12898
| 93>    H        2.37675        -1.30192         0.76644
| 94>    H        1.03476         0.55615        -0.48429
| 95>    H       -6.42747         2.08366         3.53533
| 96>    H       -9.04551         1.52155        -0.02370
| 97>    H       -8.94518         0.22673         1.19878
| 98>    H       -6.46916         0.18538         0.96267
| 99>    H       -6.53659         1.52293        -0.19048
|100>    H       -7.23099        -0.04748        -0.61826
|101>    H       -8.46948         6.07942        -0.14559
|102>    H       -6.20204         6.63764         0.63855
|103>    H       -4.95107         5.03556         2.03273
|104>    H      -10.53443         3.21614         2.22015
|105>    H      -14.49057         2.25458         3.06577
|106>    H      -13.69867         0.10358         2.17506
|107>    H      -13.37080         0.27874         3.91141
|108>    H      -11.35183         0.80369         1.87063
|109>    H      -11.44879        -0.56174         2.78204
|110>    H      -12.68069         4.01867         3.56357
|111>    H      -11.62402         2.61804         3.91268
|112>    H      -13.24515         1.92905         5.51954
|113>    H      -12.93228         3.50501         5.81424
|114>    H      -16.02168         1.84971         1.47871
|115>    H      -17.28892         1.55966        -0.63423
|116>    H      -16.48686         2.43002        -2.80559
|117>    H      -14.10793         3.05926        -2.99627
|118>    H      -11.71191         4.02055        -2.56713
|119>    H       -9.44326         4.46763        -1.71756
|120>    H      -16.45246         4.46936        -0.15373
|121>    H      -19.19197         3.20359        -0.67714
|122>    H      -17.82393         6.80099        -3.14159
|123>    H      -17.61396         5.06756        -2.77915
|124>    H      -15.36045         7.10434        -3.19103
|125>    H      -15.82972         5.82290        -4.32063
|126>    H      -15.12613         5.41041        -2.74570
|127>    H      -20.26067         8.85347         0.70141
|128>    H      -21.66777         6.86795         1.10793
|129>    H      -20.81472         4.62579         0.55816
|130>    H      -18.34998         9.80983        -0.76175
|131>    H      -13.47430        11.03881        -2.48277
|132>    H      -12.99575         6.55670        -0.28580
|133>    H       -9.02201         8.75992        -3.07179
|134>    H      -10.83589        10.62183        -3.31664
|135> *
|136>
|137>                          ****END OF INPUT****

CARTESIAN COORDINATES (ANGSTROEM)
---------------------------------
  C     -3.816140    1.252390    3.559590
  C     -4.210230    0.873240    4.814210
  C     -3.506230   -0.046090    5.619740
  N     -2.980450   -0.792320    6.315260
  C     -5.342190    1.376800    5.491530
  N     -6.220850    1.755820    6.125220
  C     -2.597760    0.838060    2.881350
  C     -2.470980    1.578580    1.679260
  C     -1.411930    1.412980    0.818960
  C     -0.434370    0.473220    1.157950
  C     -0.572940   -0.265800    2.357860
  C     -1.641470   -0.098330    3.229510
  S      0.745070   -1.375560    2.568180
  C      1.456170   -0.850260    1.081180
  C      0.746380    0.110290    0.450440
  C     -3.621490    2.490630    1.529880
  O     -3.821020    3.249170    0.606870
  C     -4.501180    2.207390    2.698190
  C     -5.797290    2.581260    2.807550
  C     -6.486020    3.544600    1.978560
  C     -7.782150    3.229720    1.528420
  O     -8.284810    1.990270    1.848990
  C     -8.424070    1.084620    0.768360
  C     -7.076370    0.658550    0.193530
  C     -8.503790    4.147650    0.758860
  C     -7.908140    5.365370    0.439330
  C     -6.637370    5.681470    0.886070
  C     -5.928620    4.782000    1.655580
  C     -9.876010    3.856910    0.309650
  C    -10.806670    3.381570    1.191660
  C    -12.124000    3.101950    0.752420
  C    -13.239340    2.609420    1.410280
  C    -13.429150    2.148780    2.817980
  C    -13.088030    0.645840    2.920290
  N    -11.662720    0.428480    2.760350
  C    -12.663120    2.969780    3.864270
  N    -13.350880    2.867110    5.146240
  C    -14.299580    2.533580    0.428450
  C    -15.589110    2.165380    0.539690
  C    -16.523380    2.339980   -0.605650
  C    -15.854960    2.513160   -1.934730
  C    -14.560380    2.877730   -2.030700
  C    -13.761560    2.970210   -0.868130
  C    -12.446510    3.332060   -0.653430
  C    -11.462110    3.842120   -1.530610
  C    -10.215190    4.097270   -1.058560
  C    -17.167440    3.691620   -0.376710
  C    -18.460170    3.979720   -0.491700
  C    -18.979890    5.329740   -0.276080
  C    -18.223460    6.468200   -0.583900
  O    -17.035590    6.378300   -1.280970
  C    -17.166660    6.063020   -2.659290
  C    -15.777570    6.103270   -3.272530
  C    -18.665800    7.744020   -0.191260
  C    -19.920920    7.873130    0.404510
  C    -20.698640    6.759120    0.645990
  C    -20.226280    5.500380    0.323090
  C    -17.841610    8.908880   -0.435650
  C    -16.493930    8.963090   -0.384860
  C    -15.515660    7.983730    0.068630
  C    -15.661210    7.102850    1.103480
  C    -14.639860    6.231680    1.532160
  N    -13.836640    5.503170    1.908810
  C    -16.820870    7.012080    1.900590
  N    -17.714460    6.927790    2.615510
  C    -14.275520    8.264880   -0.637680
  C    -14.393820    9.523860   -1.283750
  C    -15.751860   10.060650   -1.069780
  O    -16.197120   11.125310   -1.430890
  C    -13.363420   10.076910   -2.006560
  C    -12.171020    9.353780   -2.103390
  C    -12.073740    8.089300   -1.473220
  C    -13.110240    7.528370   -0.738060
  S    -10.515920    7.375600   -1.737590
  C    -10.013810    8.750120   -2.663180
  C    -10.966080    9.700450   -2.778340
  H     -1.341960    1.992990   -0.088160
  H     -1.706770   -0.687770    4.128980
  H      2.376750   -1.301920    0.766440
  H      1.034760    0.556150   -0.484290
  H     -6.427470    2.083660    3.535330
  H     -9.045510    1.521550   -0.023700
  H     -8.945180    0.226730    1.198780
  H     -6.469160    0.185380    0.962670
  H     -6.536590    1.522930   -0.190480
  H     -7.230990   -0.047480   -0.618260
  H     -8.469480    6.079420   -0.145590
  H     -6.202040    6.637640    0.638550
  H     -4.951070    5.035560    2.032730
  H    -10.534430    3.216140    2.220150
  H    -14.490570    2.254580    3.065770
  H    -13.698670    0.103580    2.175060
  H    -13.370800    0.278740    3.911410
  H    -11.351830    0.803690    1.870630
  H    -11.448790   -0.561740    2.782040
  H    -12.680690    4.018670    3.563570
  H    -11.624020    2.618040    3.912680
  H    -13.245150    1.929050    5.519540
  H    -12.932280    3.505010    5.814240
  H    -16.021680    1.849710    1.478710
  H    -17.288920    1.559660   -0.634230
  H    -16.486860    2.430020   -2.805590
  H    -14.107930    3.059260   -2.996270
  H    -11.711910    4.020550   -2.567130
  H     -9.443260    4.467630   -1.717560
  H    -16.452460    4.469360   -0.153730
  H    -19.191970    3.203590   -0.677140
  H    -17.823930    6.800990   -3.141590
  H    -17.613960    5.067560   -2.779150
  H    -15.360450    7.104340   -3.191030
  H    -15.829720    5.822900   -4.320630
  H    -15.126130    5.410410   -2.745700
  H    -20.260670    8.853470    0.701410
  H    -21.667770    6.867950    1.107930
  H    -20.814720    4.625790    0.558160
  H    -18.349980    9.809830   -0.761750
  H    -13.474300   11.038810   -2.482770
  H    -12.995750    6.556700   -0.285800
  H     -9.022010    8.759920   -3.071790
  H    -10.835890   10.621830   -3.316640

 Total Charge           Charge          ....    0
 Multiplicity           Mult            ....    1
 Number of Electrons    NEL             ....  534
 Basis Dimension        Dim             .... 1292

ORBITAL ENERGIES
----------------

  NO   OCC          E(Eh)            E(eV)
   0   2.0000     -88.965356     -2420.8704
   1   2.0000     -88.965286     -2420.8685
   2   2.0000     -19.236928      -523.4634
   3   2.0000     -19.228577      -523.2362
   4   2.0000     -19.211531      -522.7723
   5   2.0000     -19.208992      -522.7032
   6   2.0000     -14.411059      -392.1448
   7   2.0000     -14.408968      -392.0880
   8   2.0000     -14.407632      -392.0516
   9   2.0000     -14.401785      -391.8925
  10   2.0000     -14.365172      -390.8962
  11   2.0000     -14.352450      -390.5500
  12   2.0000     -10.363535      -282.0061
  13   2.0000     -10.360420      -281.9214
  14   2.0000     -10.337617      -281.3009
  15   2.0000     -10.335448      -281.2418
  16   2.0000     -10.331991      -281.1478
  17   2.0000     -10.331927      -281.1460
  18   2.0000     -10.331274      -281.1283
  19   2.0000     -10.327128      -281.0154
  20   2.0000     -10.319571      -280.8098
  21   2.0000     -10.318959      -280.7931
  22   2.0000     -10.317632      -280.7570
  23   2.0000     -10.313707      -280.6502
  24   2.0000     -10.313201      -280.6365
  25   2.0000     -10.313162      -280.6354
  26   2.0000     -10.311453      -280.5889
  27   2.0000     -10.310924      -280.5745
  28   2.0000     -10.310072      -280.5513
  29   2.0000     -10.308158      -280.4992
  30   2.0000     -10.304512      -280.4000
  31   2.0000     -10.304173      -280.3908
  32   2.0000     -10.303595      -280.3751
  33   2.0000     -10.301372      -280.3146
  34   2.0000     -10.300993      -280.3043
  35   2.0000     -10.300264      -280.2844
  36   2.0000     -10.298620      -280.2397
  37   2.0000     -10.297640      -280.2130
  38   2.0000     -10.296773      -280.1894
  39   2.0000     -10.295536      -280.1558
  40   2.0000     -10.294044      -280.1152
  41   2.0000     -10.291814      -280.0545
  42   2.0000     -10.288970      -279.9771
  43   2.0000     -10.288887      -279.9748
  44   2.0000     -10.288016      -279.9511
  45   2.0000     -10.287802      -279.9453
  46   2.0000     -10.287048      -279.9248
  47   2.0000     -10.286826      -279.9188
  48   2.0000     -10.284657      -279.8597
  49   2.0000     -10.281807      -279.7822
  50   2.0000     -10.278844      -279.7016
  51   2.0000     -10.277511      -279.6653
  52   2.0000     -10.276668      -279.6424
  53   2.0000     -10.275353      -279.6066
  54   2.0000     -10.272920      -279.5404
  55   2.0000     -10.272077      -279.5174
  56   2.0000     -10.271295      -279.4961
  57   2.0000     -10.271272      -279.4955
  58   2.0000     -10.270734      -279.4809
  59   2.0000     -10.270379      -279.4712
  60   2.0000     -10.268591      -279.4226
  61   2.0000     -10.267548      -279.3942
  62   2.0000     -10.266803      -279.3739
  63   2.0000     -10.263969      -279.2968
  64   2.0000     -10.263769      -279.2914
  65   2.0000     -10.263295      -279.2785
  66   2.0000     -10.263128      -279.2739
  67   2.0000     -10.258033      -279.1353
  68   2.0000     -10.256436      -279.0918
  69   2.0000     -10.255267      -279.0600
  70   2.0000     -10.254566      -279.0409
  71   2.0000     -10.253127      -279.0018
  72   2.0000     -10.252997      -278.9982
  73   2.0000     -10.252235      -278.9775
  74   2.0000     -10.247274      -278.8425
  75   2.0000     -10.245709      -278.7999
  76   2.0000      -8.061489      -219.3643
  77   2.0000      -8.060530      -219.3382
  78   2.0000      -6.031003      -164.1119
  79   2.0000      -6.030128      -164.0881
  80   2.0000      -6.026710      -163.9951
  81   2.0000      -6.025686      -163.9673
  82   2.0000      -6.023171      -163.8988
  83   2.0000      -6.022315      -163.8755
  84   2.0000      -1.143433       -31.1144
  85   2.0000      -1.135413       -30.8962
  86   2.0000      -1.126630       -30.6572
  87   2.0000      -1.123914       -30.5833
  88   2.0000      -1.015820       -27.6419
  89   2.0000      -1.013215       -27.5710
  90   2.0000      -1.004680       -27.3387
  91   2.0000      -1.001969       -27.2650
  92   2.0000      -0.987939       -26.8832
  93   2.0000      -0.985004       -26.8033
  94   2.0000      -0.980942       -26.6928
  95   2.0000      -0.977870       -26.6092
  96   2.0000      -0.975815       -26.5533
  97   2.0000      -0.958344       -26.0779
  98   2.0000      -0.955020       -25.9874
  99   2.0000      -0.951908       -25.9027
 100   2.0000      -0.938028       -25.5250
 101   2.0000      -0.926646       -25.2153
 102   2.0000      -0.926390       -25.2083
 103   2.0000      -0.924249       -25.1501
 104   2.0000      -0.909264       -24.7423
 105   2.0000      -0.899130       -24.4666
 106   2.0000      -0.893340       -24.3090
 107   2.0000      -0.881575       -23.9889
 108   2.0000      -0.879088       -23.9212
 109   2.0000      -0.876723       -23.8568
 110   2.0000      -0.872075       -23.7304
 111   2.0000      -0.868511       -23.6334
 112   2.0000      -0.860374       -23.4120
 113   2.0000      -0.851535       -23.1714
 114   2.0000      -0.846151       -23.0249
 115   2.0000      -0.835130       -22.7250
 116   2.0000      -0.826550       -22.4916
 117   2.0000      -0.820892       -22.3376
 118   2.0000      -0.819282       -22.2938
 119   2.0000      -0.818393       -22.2696
 120   2.0000      -0.815306       -22.1856
 121   2.0000      -0.812502       -22.1093
 122   2.0000      -0.805041       -21.9063
 123   2.0000      -0.778423       -21.1820
 124   2.0000      -0.770804       -20.9746
 125   2.0000      -0.770320       -20.9615
 126   2.0000      -0.752835       -20.4857
 127   2.0000      -0.749186       -20.3864
 128   2.0000      -0.746858       -20.3230
 129   2.0000      -0.733551       -19.9609
 130   2.0000      -0.720683       -19.6108
 131   2.0000      -0.716170       -19.4880
 132   2.0000      -0.713368       -19.4117
 133   2.0000      -0.708592       -19.2818
 134   2.0000      -0.705415       -19.1953
 135   2.0000      -0.690516       -18.7899
 136   2.0000      -0.687213       -18.7000
 137   2.0000      -0.685426       -18.6514
 138   2.0000      -0.683467       -18.5981
 139   2.0000      -0.680480       -18.5168
 140   2.0000      -0.669743       -18.2246
 141   2.0000      -0.663931       -18.0665
 142   2.0000      -0.661446       -17.9989
 143   2.0000      -0.658181       -17.9100
 144   2.0000      -0.655919       -17.8485
 145   2.0000      -0.654477       -17.8092
 146   2.0000      -0.650175       -17.6922
 147   2.0000      -0.648404       -17.6440
 148   2.0000      -0.643011       -17.4972
 149   2.0000      -0.619219       -16.8498
 150   2.0000      -0.618070       -16.8185
 151   2.0000      -0.616018       -16.7627
 152   2.0000      -0.614470       -16.7206
 153   2.0000      -0.603558       -16.4236
 154   2.0000      -0.601442       -16.3661
 155   2.0000      -0.596504       -16.2317
 156   2.0000      -0.592323       -16.1179
 157   2.0000      -0.589989       -16.0544
 158   2.0000      -0.583533       -15.8787
 159   2.0000      -0.580453       -15.7949
 160   2.0000      -0.573523       -15.6063
 161   2.0000      -0.571109       -15.5407
 162   2.0000      -0.568094       -15.4586
 163   2.0000      -0.563867       -15.3436
 164   2.0000      -0.561865       -15.2891
 165   2.0000      -0.558219       -15.1899
 166   2.0000      -0.554130       -15.0786
 167   2.0000      -0.550275       -14.9737
 168   2.0000      -0.548212       -14.9176
 169   2.0000      -0.546688       -14.8762
 170   2.0000      -0.544589       -14.8190
 171   2.0000      -0.540887       -14.7183
 172   2.0000      -0.539172       -14.6716
 173   2.0000      -0.538160       -14.6441
 174   2.0000      -0.534326       -14.5397
 175   2.0000      -0.528820       -14.3899
 176   2.0000      -0.527611       -14.3570
 177   2.0000      -0.526227       -14.3194
 178   2.0000      -0.525126       -14.2894
 179   2.0000      -0.524071       -14.2607
 180   2.0000      -0.522652       -14.2221
 181   2.0000      -0.516362       -14.0509
 182   2.0000      -0.514067       -13.9885
 183   2.0000      -0.511246       -13.9117
 184   2.0000      -0.511069       -13.9069
 185   2.0000      -0.508471       -13.8362
 186   2.0000      -0.507111       -13.7992
 187   2.0000      -0.502314       -13.6687
 188   2.0000      -0.499608       -13.5950
 189   2.0000      -0.497060       -13.5257
 190   2.0000      -0.495889       -13.4938
 191   2.0000      -0.494153       -13.4466
 192   2.0000      -0.491543       -13.3756
 193   2.0000      -0.490183       -13.3386
 194   2.0000      -0.488877       -13.3030
 195   2.0000      -0.487377       -13.2622
 196   2.0000      -0.485256       -13.2045
 197   2.0000      -0.484454       -13.1827
 198   2.0000      -0.481976       -13.1152
 199   2.0000      -0.481222       -13.0947
 200   2.0000      -0.477161       -12.9842
 201   2.0000      -0.471619       -12.8334
 202   2.0000      -0.470440       -12.8013
 203   2.0000      -0.467726       -12.7275
 204   2.0000      -0.465973       -12.6798
 205   2.0000      -0.463516       -12.6129
 206   2.0000      -0.460801       -12.5390
 207   2.0000      -0.456395       -12.4191
 208   2.0000      -0.455255       -12.3881
 209   2.0000      -0.451721       -12.2919
 210   2.0000      -0.451442       -12.2844
 211   2.0000      -0.450143       -12.2490
 212   2.0000      -0.447878       -12.1874
 213   2.0000      -0.447177       -12.1683
 214   2.0000      -0.444671       -12.1001
 215   2.0000      -0.443463       -12.0672
 216   2.0000      -0.441017       -12.0007
 217   2.0000      -0.437749       -11.9118
 218   2.0000      -0.436928       -11.8894
 219   2.0000      -0.435315       -11.8455
 220   2.0000      -0.433274       -11.7900
 221   2.0000      -0.431734       -11.7481
 222   2.0000      -0.431366       -11.7381
 223   2.0000      -0.429989       -11.7006
 224   2.0000      -0.429431       -11.6854
 225   2.0000      -0.427270       -11.6266
 226   2.0000      -0.425911       -11.5896
 227   2.0000      -0.422657       -11.5011
 228   2.0000      -0.421168       -11.4606
 229   2.0000      -0.420322       -11.4375
 230   2.0000      -0.417039       -11.3482
 231   2.0000      -0.416695       -11.3389
 232   2.0000      -0.414870       -11.2892
 233   2.0000      -0.413240       -11.2448
 234   2.0000      -0.409185       -11.1345
 235   2.0000      -0.405607       -11.0371
 236   2.0000      -0.403547       -10.9811
 237   2.0000      -0.401064       -10.9135
 238   2.0000      -0.398156       -10.8344
 239   2.0000      -0.391652       -10.6574
 240   2.0000      -0.388094       -10.5606
 241   2.0000      -0.384268       -10.4565
 242   2.0000      -0.381461       -10.3801
 243   2.0000      -0.376203       -10.2370
 244   2.0000      -0.374406       -10.1881
 245   2.0000      -0.373597       -10.1661
 246   2.0000      -0.369016       -10.0414
 247   2.0000      -0.357247        -9.7212
 248   2.0000      -0.352962        -9.6046
 249   2.0000      -0.348355        -9.4792
 250   2.0000      -0.346282        -9.4228
 251   2.0000      -0.342842        -9.3292
 252   2.0000      -0.334630        -9.1058
 253   2.0000      -0.328346        -8.9348
 254   2.0000      -0.324249        -8.8233
 255   2.0000      -0.312859        -8.5133
 256   2.0000      -0.310629        -8.4526
 257   2.0000      -0.308354        -8.3907
 258   2.0000      -0.297854        -8.1050
 259   2.0000      -0.296088        -8.0570
 260   2.0000      -0.294172        -8.0048
 261   2.0000      -0.289588        -7.8801
 262   2.0000      -0.287046        -7.8109
 263   2.0000      -0.284730        -7.7479
 264   2.0000      -0.281858        -7.6697
 265   2.0000      -0.271724        -7.3940
 266   2.0000      -0.212571        -5.7844
 267   0.0000      -0.078830        -2.1451
 268   0.0000      -0.075782        -2.0621
 269   0.0000      -0.059220        -1.6115
 270   0.0000      -0.050747        -1.3809
 271   0.0000      -0.046238        -1.2582

MULLIKEN ATOMIC CHARGES
-----------------------
   0 C :    0.293569
   1 C :   -0.333835
   2 C :   -0.185731
   3 N :    0.148996
   4 C :   -0.210921
   5 N :    0.169736
   6 C :    0.018265
   7 C :   -0.021985
   8 C :   -0.067052
   9 C :    0.114588
  10 C :   -0.094347
  11 C :   -0.023678
  12 S :    0.140034
  13 C :   -0.048876
  14 C :    0.024984
  15 C :    0.140603
  16 O :   -0.143094
  17 C :   -0.074414
  18 C :   -0.034618
  19 C :    0.021342
  20 C :    0.098378
  21 O :   -0.332421
  22 C :    0.171789
  23 C :   -0.021660
  24 C :    0.070830
  25 C :   -0.018742
  26 C :    0.028377
  27 C :    0.051972
  28 C :   -0.007227
  29 C :   -0.039798
  30 C :    0.029283
  31 C :    0.010936
  32 C :   -0.059031
  33 C :    0.159435
  34 N :   -0.234401
  35 C :    0.097892
  36 N :   -0.208527
  37 C :    0.075845
  38 C :   -0.109060
  39 C :    0.100372
  40 C :   -0.023520
  41 C :    0.008368
  42 C :    0.012397
  43 C :    0.038014
  44 C :   -0.044351
  45 C :    0.017204
  46 C :   -0.014408
  47 C :   -0.036970
  48 C :    0.101633
  49 C :    0.075715
  50 O :   -0.366864
  51 C :    0.191420
  52 C :    0.001434
  53 C :    0.059833
  54 C :   -0.007818
  55 C :    0.057553
  56 C :   -0.024739
  57 C :    0.016618
  58 C :   -0.109049
  59 C :    0.327235
  60 C :   -0.330459
  61 C :   -0.203121
  62 N :    0.183914
  63 C :   -0.210927
  64 N :    0.187342
  65 C :   -0.009836
  66 C :   -0.001033
  67 C :    0.130561
  68 O :   -0.142313
  69 C :   -0.075504
  70 C :    0.102143
  71 C :   -0.079690
  72 C :   -0.019910
  73 S :    0.127884
  74 C :   -0.043614
  75 C :    0.027035
  76 H :   -0.013994
  77 H :   -0.005782
  78 H :    0.037837
  79 H :   -0.007984
  80 H :    0.051845
  81 H :    0.028613
  82 H :    0.016742
  83 H :    0.020986
  84 H :    0.037585
  85 H :    0.018712
  86 H :   -0.040146
  87 H :   -0.020842
  88 H :   -0.020700
  89 H :   -0.025121
  90 H :   -0.017449
  91 H :   -0.028374
  92 H :   -0.015731
  93 H :    0.099281
  94 H :    0.091776
  95 H :    0.010033
  96 H :    0.021396
  97 H :    0.080198
  98 H :    0.089637
  99 H :    0.003680
 100 H :    0.001667
 101 H :   -0.012811
 102 H :   -0.034358
 103 H :   -0.043056
 104 H :   -0.032196
 105 H :    0.041843
 106 H :   -0.017969
 107 H :    0.004444
 108 H :    0.014101
 109 H :    0.024421
 110 H :    0.013624
 111 H :    0.026037
 112 H :   -0.019030
 113 H :   -0.012676
 114 H :   -0.023306
 115 H :    0.020221
 116 H :   -0.013086
 117 H :    0.002912
 118 H :    0.035198
 119 H :   -0.008171
Sum of atomic charges:   -0.0000000

LOEWDIN ATOMIC CHARGES
----------------------
   0 C :    0.075511
   1 C :   -0.136222
   2 C :   -0.017492
   3 N :   -0.054035
   4 C :   -0.026361
   5 N :   -0.043879
   6 C :   -0.022969
   7 C :   -0.053582
   8 C :    0.022187
   9 C :   -0.035062
  10 C :   -0.145314
  11 C :   -0.009103
  12 S :    0.428332
  13 C :   -0.149489
  14 C :   -0.058245
  15 C :    0.082392
  16 O :   -0.136700
  17 C :   -0.094345
  18 C :    0.095744
  19 C :   -0.058805
  20 C :    0.069335
  21 O :   -0.118223
  22 C :    0.082167
  23 C :   -0.075030
  24 C :   -0.038761
  25 C :   -0.000021
  26 C :   -0.033341
  27 C :    0.022100
  28 C :   -0.040411
  29 C :    0.002451
  30 C :   -0.029528
  31 C :   -0.010559
  32 C :   -0.039029
  33 C :    0.028446
  34 N :   -0.115666
  35 C :    0.021420
  36 N :   -0.119830
  37 C :   -0.016287
  38 C :    0.071669
  39 C :   -0.027146
  40 C :   -0.033270
  41 C :   -0.021187
  42 C :   -0.051982
  43 C :   -0.028278
  44 C :   -0.026213
  45 C :   -0.035063
  46 C :    0.022739
  47 C :   -0.046949
  48 C :   -0.033807
  49 C :    0.059320
  50 O :   -0.117295
  51 C :    0.088185
  52 C :   -0.064898
  53 C :   -0.054015
  54 C :    0.004812
  55 C :   -0.017489
  56 C :    0.000964
  57 C :    0.071692
  58 C :   -0.077176
  59 C :    0.082784
  60 C :   -0.135119
  61 C :   -0.010763
  62 N :   -0.038025
  63 C :   -0.022317
  64 N :   -0.045368
  65 C :   -0.015667
  66 C :   -0.056147
  67 C :    0.083859
  68 O :   -0.143992
  69 C :    0.020813
  70 C :   -0.037009
  71 C :   -0.143819
  72 C :   -0.007776
  73 S :    0.451089
  74 C :   -0.154149
  75 C :   -0.057517
  76 H :    0.039510
  77 H :    0.040760
  78 H :    0.029076
  79 H :    0.034848
  80 H :    0.048419
  81 H :    0.015480
  82 H :    0.021214
  83 H :    0.024580
  84 H :    0.030069
  85 H :    0.030978
  86 H :    0.018294
  87 H :    0.028876
  88 H :    0.030279
  89 H :    0.031184
  90 H :    0.028096
  91 H :   -0.004216
  92 H :    0.010512
  93 H :    0.049069
  94 H :    0.053661
  95 H :    0.018189
  96 H :    0.002732
  97 H :    0.046244
  98 H :    0.054377
  99 H :    0.033199
 100 H :    0.039965
 101 H :    0.021515
 102 H :    0.026673
 103 H :    0.023344
 104 H :    0.019527
 105 H :    0.029904
 106 H :    0.024800
 107 H :    0.011177
 108 H :    0.009726
 109 H :    0.026090
 110 H :    0.030160
 111 H :    0.029474
 112 H :    0.031999
 113 H :    0.031741
 114 H :    0.029822
 115 H :    0.044727
 116 H :    0.039897
 117 H :    0.043916
 118 H :    0.028124
 119 H :    0.034702

  Mayer bond orders larger than 0.100000
B(  0-C ,  1-C ) :   1.6632 B(  0-C ,  6-C ) :   1.0148 B(  0-C , 17-C ) :   1.0277
B(  1-C ,  2-C ) :   1.1347 B(  1-C ,  4-C ) :   1.1387 B(  2-C ,  3-N ) :   2.9759
B(  4-C ,  5-N ) :   3.0037 B(  6-C ,  7-C ) :   1.2643 B(  6-C , 11-C ) :   1.4063
B(  7-C ,  8-C ) :   1.4254 B(  7-C , 15-C ) :   0.9460 B(  8-C ,  9-C ) :   1.2491
B(  8-C , 76-H ) :   1.0160 B(  9-C , 10-C ) :   1.2999 B(  9-C , 14-C ) :   1.1703
B( 10-C , 11-C ) :   1.3281 B( 10-C , 12-S ) :   1.0968 B( 11-C , 77-H ) :   0.9830
B( 12-S , 13-C ) :   1.1258 B( 13-C , 14-C ) :   1.6302 B( 13-C , 78-H ) :   0.9685
B( 14-C , 79-H ) :   0.9992 B( 15-C , 16-O ) :   2.2219 B( 15-C , 17-C ) :   0.9316
B( 17-C , 18-C ) :   1.6749 B( 18-C , 19-C ) :   1.0401 B( 18-C , 80-H ) :   0.9469
B( 19-C , 20-C ) :   1.3415 B( 19-C , 27-C ) :   1.3549 B( 20-C , 21-O ) :   1.1383
B( 20-C , 24-C ) :   1.3754 B( 21-O , 22-C ) :   0.9359 B( 22-C , 23-C ) :   1.1020
B( 22-C , 81-H ) :   0.9468 B( 22-C , 82-H ) :   0.9558 B( 23-C , 83-H ) :   0.9633
B( 23-C , 84-H ) :   0.9644 B( 23-C , 85-H ) :   0.9593 B( 24-C , 25-C ) :   1.3871
B( 24-C , 28-C ) :   0.9182 B( 25-C , 26-C ) :   1.3470 B( 25-C , 86-H ) :   0.9926
B( 26-C , 27-C ) :   1.3829 B( 26-C , 87-H ) :   0.9937 B( 27-C , 88-H ) :   0.9881
B( 28-C , 29-C ) :   1.5749 B( 28-C , 45-C ) :   1.1440 B( 29-C , 30-C ) :   1.1183
B( 29-C , 89-H ) :   1.0000 B( 30-C , 31-C ) :   1.4616 B( 30-C , 43-C ) :   1.1285
B( 31-C , 32-C ) :   1.0360 B( 31-C , 37-C ) :   1.1111 B( 32-C , 33-C ) :   1.0446
B( 32-C , 35-C ) :   1.0366 B( 32-C , 90-H ) :   0.8698 B( 33-C , 34-N ) :   1.0882
B( 33-C , 91-H ) :   0.9308 B( 33-C , 92-H ) :   0.9343 B( 34-N , 93-H ) :   0.9518
B( 34-N , 94-H ) :   0.9657 B( 35-C , 36-N ) :   1.1048 B( 35-C , 95-H ) :   0.9417
B( 35-C , 96-H ) :   0.9194 B( 36-N , 97-H ) :   0.9722 B( 36-N , 98-H ) :   0.9683
B( 37-C , 38-C ) :   1.6658 B( 37-C , 42-C ) :   1.0513 B( 38-C , 39-C ) :   0.9778
B( 38-C , 99-H ) :   0.9705 B( 39-C , 40-C ) :   0.9938 B( 39-C , 46-C ) :   0.9550
B( 39-C ,100-H ) :   0.9063 B( 40-C , 41-C ) :   1.6898 B( 40-C ,101-H ) :   0.9699
B( 41-C , 42-C ) :   1.1479 B( 41-C ,102-H ) :   0.9794 B( 42-C , 43-C ) :   1.4174
B( 43-C , 44-C ) :   1.1374 B( 44-C , 45-C ) :   1.5790 B( 44-C ,103-H ) :   0.9980
B( 45-C ,104-H ) :   0.9830 B( 46-C , 47-C ) :   1.8467 B( 46-C ,105-H ) :   0.9485
B( 47-C , 48-C ) :   1.0086 B( 47-C ,106-H ) :   0.9694 B( 48-C , 49-C ) :   1.3513
B( 48-C , 56-C ) :   1.3602 B( 49-C , 50-O ) :   1.0738 B( 49-C , 53-C ) :   1.3566
B( 50-O , 51-C ) :   0.9137 B( 51-C , 52-C ) :   1.1124 B( 51-C ,107-H ) :   0.9436
B( 51-C ,108-H ) :   0.9422 B( 52-C ,109-H ) :   0.9637 B( 52-C ,110-H ) :   0.9568
B( 52-C ,111-H ) :   0.9655 B( 53-C , 54-C ) :   1.3390 B( 53-C , 57-C ) :   1.0119
B( 54-C , 55-C ) :   1.3747 B( 54-C ,112-H ) :   0.9983 B( 55-C , 56-C ) :   1.3562
B( 55-C ,113-H ) :   0.9904 B( 56-C ,114-H ) :   0.9957 B( 57-C , 58-C ) :   1.7596
B( 57-C ,115-H ) :   0.9481 B( 58-C , 59-C ) :   0.9955 B( 58-C , 67-C ) :   0.9360
B( 59-C , 60-C ) :   1.6766 B( 59-C , 65-C ) :   1.0242 B( 60-C , 61-C ) :   1.1388
B( 60-C , 63-C ) :   1.1602 B( 61-C , 62-N ) :   2.9564 B( 63-C , 64-N ) :   3.0159
B( 65-C , 66-C ) :   1.2664 B( 65-C , 72-C ) :   1.4071 B( 66-C , 67-C ) :   0.9196
B( 66-C , 69-C ) :   1.4173 B( 67-C , 68-O ) :   2.2775 B( 69-C , 70-C ) :   1.2536
B( 69-C ,116-H ) :   1.0159 B( 70-C , 71-C ) :   1.3032 B( 70-C , 75-C ) :   1.1721
B( 71-C , 72-C ) :   1.3238 B( 71-C , 73-S ) :   1.0998 B( 72-C ,117-H ) :   0.9898
B( 73-S , 74-C ) :   1.1221 B( 74-C , 75-C ) :   1.6323 B( 74-C ,118-H ) :   0.9679
B( 75-C ,119-H ) :   0.9986

-----------------------------------------------------------------------------
         ABSORPTION SPECTRUM VIA TRANSITION ELECTRIC DIPOLE MOMENTS
-----------------------------------------------------------------------------
State   Energy  Wavelength   fosc         T2         TX        TY        TZ
        (cm-1)    (nm)                  (au**2)     (au)      (au)      (au)
-----------------------------------------------------------------------------
   0   13491.1    741.2   0.017222573   0.42027  -0.07019  -0.30616  -0.56710
   1   14541.9    687.7   0.045827484   1.03748  -0.34828   0.38363  -0.87693
   2   17410.1    574.4   0.003823280   0.07230  -0.14845   0.20445  -0.09196
   3   21902.6    456.6   0.004783310   0.07190  -0.18988   0.18895  -0.01190
   4   23842.5    419.4   0.000852994   0.01178   0.02566   0.10013   0.03308
   5   26247.8    381.0   0.035775752   0.44872   0.55084  -0.33914   0.17401
   6   26402.9    378.7   0.437853598   5.45951   1.78474  -1.04113   1.09099
   7   26596.2    376.0   0.077465051   0.95887  -0.44335   0.63502  -0.59922
   8   27140.7    368.5   0.023312211   0.28277   0.39527   0.31848   0.15844
   9   27745.2    360.4   0.174686540   2.07275  -1.38071  -0.07079  -0.40172
  10   28101.6    355.9   0.032608069   0.38201   0.53506   0.07296   0.30065
  11   28905.6    346.0   0.111216566   1.26667   0.56062   0.25663  -0.94155
  12   29160.3    342.9   0.177144220   1.99991   1.22816  -0.59631  -0.36870
  13   29188.8    342.6   0.005612940   0.06331  -0.11726  -0.06456   0.21305
  14   29558.0    338.3   0.142788944   1.59036   1.03554  -0.16283  -0.70108
  15   29986.4    333.5   0.004853289   0.05328   0.22691  -0.04106   0.01050
  16   30102.1    332.2   0.083161356   0.90950  -0.94308  -0.11981   0.07576
  17   30297.6    330.1   0.080610369   0.87591   0.91595  -0.18256   0.06018
  18   30593.5    326.9   0.011151184   0.12000  -0.34469   0.03149   0.01396
  19   31185.6    320.7   0.029506035   0.31148  -0.52058  -0.12066  -0.16098
  20   31225.8    320.2   0.057502380   0.60625   0.33957   0.12527  -0.68938
  21   31451.0    318.0   0.005684735   0.05950   0.00432  -0.11462   0.21529
  22   31477.1    317.7   0.016826032   0.17598  -0.28814  -0.00926   0.30474
  23   31788.9    314.6   0.143844477   1.48968  -1.20217   0.18899  -0.09361
  24   33272.3    300.6   0.092782423   0.91803   0.42361  -0.46343   0.72376
  25   33338.2    300.0   0.094382620   0.93202  -0.59935   0.59493  -0.46782
  26   33587.0    297.7   0.536803669   5.26162   2.23709  -0.32732  -0.38721
  27   33699.5    296.7   0.072031114   0.70368  -0.82492   0.15197  -0.00913
  28   34013.9    294.0   0.035873347   0.34721  -0.38935  -0.20058  -0.39418
  29   34337.1    291.2   0.121965045   1.16936  -0.96147   0.36354   0.33582
  30   34718.0    288.0   0.021222323   0.20124  -0.16494   0.01686   0.41683
  31   34752.3    287.8   0.402817420   3.81593  -1.22522   0.32937   1.48536
  32   34946.0    286.2   0.563620408   5.30964  -1.85712  -0.88997   1.03378
  33   35151.3    284.5   0.084362021   0.79010   0.39854   0.06668  -0.79172
  34   35264.4    283.6   0.084532198   0.78915  -0.79804  -0.34480   0.18274
  35   35299.9    283.3   0.569121919   5.30771   1.95374   0.81547  -0.90862
  36   35521.4    281.5   0.013109869   0.12150   0.33125   0.10442  -0.02955
  37   36144.3    276.7   0.009391238   0.08554   0.16464   0.16609  -0.17563
  38   36234.2    276.0   0.026476124   0.24055  -0.08244   0.08490  -0.47597
  39   36408.4    274.7   0.015955867   0.14428   0.33265  -0.18059  -0.03173
  40   36438.0    274.4   0.139642249   1.26165  -1.01185   0.45819  -0.16692
  41   36527.5    273.8   0.044111745   0.39757   0.57518  -0.23751   0.10160
  42   36794.2    271.8   0.063329441   0.56663   0.41055   0.62973   0.03901
  43   37029.8    270.1   0.000523333   0.00465   0.01104   0.02848  -0.06099
  44   37045.5    269.9   0.000365174   0.00325   0.00797   0.05561   0.00947
  45   37210.3    268.7   0.001420859   0.01257   0.07208   0.08260  -0.02350
  46   37466.8    266.9   0.001394022   0.01225   0.07540   0.07536  -0.02976
  47   37611.6    265.9   0.028756634   0.25170  -0.45157   0.20662  -0.07141
  48   37683.1    265.4   0.058021212   0.50689   0.58197   0.35438   0.20644
  49   38307.9    261.0   0.000496491   0.00427  -0.05670  -0.03104   0.00939
  50   38546.5    259.4   0.024166224   0.20640   0.21948   0.24780   0.31115
  51   38899.9    257.1   0.070716749   0.59848  -0.76677  -0.10052  -0.02089
  52   39325.0    254.3   0.112662023   0.94316  -0.95977   0.05416   0.13810
  53   39501.9    253.2   0.126231619   1.05202  -0.34156  -0.86679   0.42900
  54   39677.4    252.0   0.281345417   2.33438  -0.81449   0.98884  -0.83258
  55   40279.2    248.3   0.021097200   0.17243   0.39387  -0.13152  -0.00063

FINAL SINGLE POINT ENERGY     -3886.748912390060

DIPOLE MOMENT
-------------
                                X             Y             Z
Electronic contribution:     47.29602      16.55142      16.55691
Nuclear contribution   :    -46.62934     -17.09466     -21.06008
                        -----------------------------------------
Total Dipole Moment    :      0.66669      -0.54324      -4.50317
                        -----------------------------------------
Magnitude (a.u.)       :      4.58455
Magnitude (Debye)      :     11.65301

Rotational constants in cm-1:     0.001984     0.000371     0.000342
Rotational constants in MHz :    59.472877    11.108974    10.244495

                             ****ORCA TERMINATED NORMALLY****
TOTAL RUN TIME: 0 days 0 hours 15 minutes 55 seconds 827 msec
