                         Program Version 4.2.0 -  RELEASE  -
|  1> # ORCA input file
|  2> # SCF done       -202.480746286225          0.000601057942
|  3> ! CAM-B3LYP def2-SVP def2/J RIJCOSX Grid4 TightSCF
|  4> %maxcore 5000
|  5> %tddft
|  6>     Mode sTDDFT
|  7>     Ethresh 5.0
|  8>     maxcore 5000
|  9> end
| 10>
| 11> %pal
| 12>   nprocs 6
| 13>   end
| 14> * xyz 0 1
| 15>    C       -5.08523         1.29420        15.86144
| 16>    C       -6.24801         1.37113        16.58861
| 17>    C       -6.39316         0.87664        17.90133
| 18>    N       -6.58576         0.50061        18.96932
| 19>    C       -7.46082         1.95560        16.17157
| 20>    N       -8.48607         2.41308        15.92292
| 21>    C       -3.84068         0.70918        16.34997
| 22>    C       -2.84732         0.87772        15.35467
| 23>    C       -1.55696         0.43162        15.50830
| 24>    C       -1.23023        -0.21918        16.70182
| 25>    C       -2.22878        -0.38670        17.68955
| 26>    C       -3.53351         0.06934        17.53480
| 27>    S       -1.60550        -1.22250        19.07722
| 28>    C       -0.04596        -1.33788        18.33784
| 29>    C        0.01359        -0.77868        17.10967
| 30>    C       -3.43252         1.56543        14.19561
| 31>    O       -2.81312         1.87104        13.18097
| 32>    C       -4.84710         1.78544        14.51541
| 33>    C       -5.83656         2.31546        13.71431
| 34>    C       -5.80097         2.81897        12.41143
| 35>    N       -4.67305         2.92151        11.62883
| 36>    C       -4.99412         3.42268        10.43993
| 37>    C       -6.37392         3.67486        10.39156
| 38>    C       -6.88818         3.29899        11.64721
| 39>    C       -8.31067         3.38583        12.06810
| 40>    C       -7.13117         4.17960         9.28046
| 41>    C       -6.60004         4.56836         8.10353
| 42>    C       -7.31456         5.02604         6.94907
| 43>    C       -8.65598         5.09108         6.80926
| 44>    C       -9.37927         5.47810         5.62446
| 45>    C      -10.74817         5.32946         5.60725
| 46>    C      -11.49195         5.60263         4.43856
| 47>    C      -12.84172         5.48298         4.14582
| 48>    C      -13.98544         5.06418         5.01116
| 49>    C      -14.12763         3.52838         5.05910
| 50>    N      -12.95852         2.91810         5.66601
| 51>    C      -13.92514         5.62185         6.44175
| 52>    N      -15.27434         5.69565         6.98405
| 53>    C      -12.99470         5.81115         2.74562
| 54>    C      -14.07147         5.78691         1.93884
| 55>    C      -13.96774         6.07960         0.48385
| 56>    C      -12.60562         6.51901         0.03210
| 57>    C      -11.54373         6.55701         0.85531
| 58>    C      -11.67566         6.18154         2.21428
| 59>    C      -10.77500         6.05316         3.24759
| 60>    C       -9.37506         6.25488         3.31100
| 61>    C       -8.70765         5.97832         4.45597
| 62>    C      -14.99797         7.06462        -0.00827
| 63>    C      -15.61339         7.95795         0.76584
| 64>    C      -16.58637         8.92385         0.32315
| 65>    N      -16.83143        10.04261         1.08436
| 66>    C      -17.76733        10.80695         0.49687
| 67>    C      -18.15943        10.19511        -0.68773
| 68>    C      -17.41198         8.98165        -0.78604
| 69>    C      -17.59652         7.91358        -1.80803
| 70>    C      -19.11451        10.76685        -1.58486
| 71>    C      -19.23466        10.49947        -2.90660
| 72>    C      -20.16192        11.13575        -3.77723
| 73>    C      -21.29997        11.78590        -3.41276
| 74>    C      -22.20372        12.38460        -4.32251
| 75>    C      -21.97829        12.85116        -5.58658
| 76>    C      -20.77209        13.19176        -6.30666
| 77>    C      -19.59548        13.65169        -5.76905
| 78>    C      -18.49358        14.07513        -6.53651
| 79>    N      -17.56140        14.41774        -7.11353
| 80>    C      -19.37672        13.83007        -4.38938
| 81>    N      -19.14941        14.03370        -3.28242
| 82>    C      -21.10905        13.22627        -7.72693
| 83>    C      -22.51861        13.14739        -7.86033
| 84>    C      -23.12325        13.00000        -6.52132
| 85>    O      -24.30125        12.95912        -6.24060
| 86>    C      -23.14453        13.18669        -9.08244
| 87>    C      -22.34361        13.29510       -10.22409
| 88>    C      -20.93764        13.35747       -10.07962
| 89>    C      -20.30290        13.32840        -8.84312
| 90>    S      -20.15123        13.47201       -11.62299
| 91>    C      -21.68051        13.44158       -12.43161
| 92>    C      -22.73442        13.34824       -11.59239
| 93>    H       -0.82407         0.57762        14.72983
| 94>    H       -4.25552        -0.08658        18.31841
| 95>    H        0.74199        -1.82572        18.87806
| 96>    H        0.89928        -0.75570        16.50074
| 97>    H       -6.82566         2.33582        14.14865
| 98>    H       -3.75751         2.61167        11.97674
| 99>    H       -4.25106         3.57619         9.68178
|100>    H       -8.72554         4.35458        11.79433
|101>    H       -8.42421         3.25406        13.14052
|102>    H       -8.89988         2.61714        11.56578
|103>    H       -8.19990         4.22436         9.42908
|104>    H       -5.52460         4.52952         7.98874
|105>    H       -6.68460         5.31140         6.11759
|106>    H       -9.28262         4.78603         7.63728
|107>    H      -11.25633         4.95372         6.48120
|108>    H      -14.90656         5.44560         4.55490
|109>    H      -14.32648         3.16373         4.03567
|110>    H      -14.99163         3.29475         5.68589
|111>    H      -12.14339         3.06738         5.07974
|112>    H      -13.09529         1.91859         5.76461
|113>    H      -13.40592         6.59478         6.43385
|114>    H      -13.36133         4.92769         7.06555
|115>    H      -15.80511         6.42395         6.51631
|116>    H      -15.24624         5.92095         7.97201
|117>    H      -15.05374         5.51007         2.29983
|118>    H      -14.18469         5.12641        -0.03183
|119>    H      -12.52135         6.79930        -1.00688
|120>    H      -10.57549         6.86780         0.48943
|121>    H       -8.85379         6.62123         2.43810
|122>    H       -7.64143         6.13553         4.49990
|123>    H      -15.16998         7.05006        -1.07272
|124>    H      -15.36660         8.00144         1.82093
|125>    H      -16.34152        10.26409         1.93602
|126>    H      -18.08593        11.74319         0.91064
|127>    H      -18.62353         7.91482        -2.16693
|128>    H      -17.38327         6.93951        -1.37172
|129>    H      -16.93357         8.05911        -2.66200
|130>    H      -19.73517        11.54206        -1.15539
|131>    H      -18.53854         9.81980        -3.37452
|132>    H      -19.95605        11.03294        -4.83662
|133>    H      -21.60923        11.76730        -2.37732
|134>    H      -23.24480        12.42019        -4.01443
|135>    H      -24.21968        13.13374        -9.15626
|136>    H      -19.22799        13.37248        -8.78078
|137>    H      -21.69385        13.49588       -13.50284
|138>    H      -23.75952        13.31613       -11.91461
|139> *
|140>
|141>                          ****END OF INPUT****

CARTESIAN COORDINATES (ANGSTROEM)
---------------------------------
  C     -5.085230    1.294200   15.861440
  C     -6.248010    1.371130   16.588610
  C     -6.393160    0.876640   17.901330
  N     -6.585760    0.500610   18.969320
  C     -7.460820    1.955600   16.171570
  N     -8.486070    2.413080   15.922920
  C     -3.840680    0.709180   16.349970
  C     -2.847320    0.877720   15.354670
  C     -1.556960    0.431620   15.508300
  C     -1.230230   -0.219180   16.701820
  C     -2.228780   -0.386700   17.689550
  C     -3.533510    0.069340   17.534800
  S     -1.605500   -1.222500   19.077220
  C     -0.045960   -1.337880   18.337840
  C      0.013590   -0.778680   17.109670
  C     -3.432520    1.565430   14.195610
  O     -2.813120    1.871040   13.180970
  C     -4.847100    1.785440   14.515410
  C     -5.836560    2.315460   13.714310
  C     -5.800970    2.818970   12.411430
  N     -4.673050    2.921510   11.628830
  C     -4.994120    3.422680   10.439930
  C     -6.373920    3.674860   10.391560
  C     -6.888180    3.298990   11.647210
  C     -8.310670    3.385830   12.068100
  C     -7.131170    4.179600    9.280460
  C     -6.600040    4.568360    8.103530
  C     -7.314560    5.026040    6.949070
  C     -8.655980    5.091080    6.809260
  C     -9.379270    5.478100    5.624460
  C    -10.748170    5.329460    5.607250
  C    -11.491950    5.602630    4.438560
  C    -12.841720    5.482980    4.145820
  C    -13.985440    5.064180    5.011160
  C    -14.127630    3.528380    5.059100
  N    -12.958520    2.918100    5.666010
  C    -13.925140    5.621850    6.441750
  N    -15.274340    5.695650    6.984050
  C    -12.994700    5.811150    2.745620
  C    -14.071470    5.786910    1.938840
  C    -13.967740    6.079600    0.483850
  C    -12.605620    6.519010    0.032100
  C    -11.543730    6.557010    0.855310
  C    -11.675660    6.181540    2.214280
  C    -10.775000    6.053160    3.247590
  C     -9.375060    6.254880    3.311000
  C     -8.707650    5.978320    4.455970
  C    -14.997970    7.064620   -0.008270
  C    -15.613390    7.957950    0.765840
  C    -16.586370    8.923850    0.323150
  N    -16.831430   10.042610    1.084360
  C    -17.767330   10.806950    0.496870
  C    -18.159430   10.195110   -0.687730
  C    -17.411980    8.981650   -0.786040
  C    -17.596520    7.913580   -1.808030
  C    -19.114510   10.766850   -1.584860
  C    -19.234660   10.499470   -2.906600
  C    -20.161920   11.135750   -3.777230
  C    -21.299970   11.785900   -3.412760
  C    -22.203720   12.384600   -4.322510
  C    -21.978290   12.851160   -5.586580
  C    -20.772090   13.191760   -6.306660
  C    -19.595480   13.651690   -5.769050
  C    -18.493580   14.075130   -6.536510
  N    -17.561400   14.417740   -7.113530
  C    -19.376720   13.830070   -4.389380
  N    -19.149410   14.033700   -3.282420
  C    -21.109050   13.226270   -7.726930
  C    -22.518610   13.147390   -7.860330
  C    -23.123250   13.000000   -6.521320
  O    -24.301250   12.959120   -6.240600
  C    -23.144530   13.186690   -9.082440
  C    -22.343610   13.295100  -10.224090
  C    -20.937640   13.357470  -10.079620
  C    -20.302900   13.328400   -8.843120
  S    -20.151230   13.472010  -11.622990
  C    -21.680510   13.441580  -12.431610
  C    -22.734420   13.348240  -11.592390
  H     -0.824070    0.577620   14.729830
  H     -4.255520   -0.086580   18.318410
  H      0.741990   -1.825720   18.878060
  H      0.899280   -0.755700   16.500740
  H     -6.825660    2.335820   14.148650
  H     -3.757510    2.611670   11.976740
  H     -4.251060    3.576190    9.681780
  H     -8.725540    4.354580   11.794330
  H     -8.424210    3.254060   13.140520
  H     -8.899880    2.617140   11.565780
  H     -8.199900    4.224360    9.429080
  H     -5.524600    4.529520    7.988740
  H     -6.684600    5.311400    6.117590
  H     -9.282620    4.786030    7.637280
  H    -11.256330    4.953720    6.481200
  H    -14.906560    5.445600    4.554900
  H    -14.326480    3.163730    4.035670
  H    -14.991630    3.294750    5.685890
  H    -12.143390    3.067380    5.079740
  H    -13.095290    1.918590    5.764610
  H    -13.405920    6.594780    6.433850
  H    -13.361330    4.927690    7.065550
  H    -15.805110    6.423950    6.516310
  H    -15.246240    5.920950    7.972010
  H    -15.053740    5.510070    2.299830
  H    -14.184690    5.126410   -0.031830
  H    -12.521350    6.799300   -1.006880
  H    -10.575490    6.867800    0.489430
  H     -8.853790    6.621230    2.438100
  H     -7.641430    6.135530    4.499900
  H    -15.169980    7.050060   -1.072720
  H    -15.366600    8.001440    1.820930
  H    -16.341520   10.264090    1.936020
  H    -18.085930   11.743190    0.910640
  H    -18.623530    7.914820   -2.166930
  H    -17.383270    6.939510   -1.371720
  H    -16.933570    8.059110   -2.662000
  H    -19.735170   11.542060   -1.155390
  H    -18.538540    9.819800   -3.374520
  H    -19.956050   11.032940   -4.836620
  H    -21.609230   11.767300   -2.377320
  H    -23.244800   12.420190   -4.014430
  H    -24.219680   13.133740   -9.156260
  H    -19.227990   13.372480   -8.780780
  H    -21.693850   13.495880  -13.502840
  H    -23.759520   13.316130  -11.914610

 Total Charge           Charge          ....    0
 Multiplicity           Mult            ....    1
 Number of Electrons    NEL             ....  546
 Basis Dimension        Dim             .... 1330

ORBITAL ENERGIES
----------------

  NO   OCC          E(Eh)            E(eV)
   0   2.0000     -88.963261     -2420.8134
   1   2.0000     -88.959475     -2420.7104
   2   2.0000     -19.221332      -523.0390
   3   2.0000     -19.201032      -522.4867
   4   2.0000     -14.467290      -393.6750
   5   2.0000     -14.458843      -393.4451
   6   2.0000     -14.411198      -392.1486
   7   2.0000     -14.405748      -392.0003
   8   2.0000     -14.404347      -391.9622
   9   2.0000     -14.403230      -391.9318
  10   2.0000     -14.373385      -391.1197
  11   2.0000     -14.371797      -391.0765
  12   2.0000     -10.369668      -282.1730
  13   2.0000     -10.352487      -281.7055
  14   2.0000     -10.334364      -281.2123
  15   2.0000     -10.331347      -281.1303
  16   2.0000     -10.330462      -281.1062
  17   2.0000     -10.328328      -281.0481
  18   2.0000     -10.317368      -280.7499
  19   2.0000     -10.316349      -280.7221
  20   2.0000     -10.315053      -280.6869
  21   2.0000     -10.314682      -280.6768
  22   2.0000     -10.312784      -280.6251
  23   2.0000     -10.310870      -280.5730
  24   2.0000     -10.309906      -280.5468
  25   2.0000     -10.307954      -280.4937
  26   2.0000     -10.307149      -280.4718
  27   2.0000     -10.305612      -280.4300
  28   2.0000     -10.305385      -280.4238
  29   2.0000     -10.301954      -280.3304
  30   2.0000     -10.301682      -280.3230
  31   2.0000     -10.300773      -280.2983
  32   2.0000     -10.298269      -280.2301
  33   2.0000     -10.297630      -280.2128
  34   2.0000     -10.297289      -280.2035
  35   2.0000     -10.296735      -280.1884
  36   2.0000     -10.295791      -280.1627
  37   2.0000     -10.295534      -280.1557
  38   2.0000     -10.294764      -280.1348
  39   2.0000     -10.293557      -280.1019
  40   2.0000     -10.293413      -280.0980
  41   2.0000     -10.290851      -280.0283
  42   2.0000     -10.290426      -280.0167
  43   2.0000     -10.288186      -279.9558
  44   2.0000     -10.286392      -279.9070
  45   2.0000     -10.286306      -279.9046
  46   2.0000     -10.285298      -279.8772
  47   2.0000     -10.283432      -279.8264
  48   2.0000     -10.282442      -279.7995
  49   2.0000     -10.282059      -279.7891
  50   2.0000     -10.281085      -279.7625
  51   2.0000     -10.280694      -279.7519
  52   2.0000     -10.280347      -279.7425
  53   2.0000     -10.272829      -279.5379
  54   2.0000     -10.272072      -279.5173
  55   2.0000     -10.270903      -279.4855
  56   2.0000     -10.270060      -279.4625
  57   2.0000     -10.269436      -279.4456
  58   2.0000     -10.269249      -279.4405
  59   2.0000     -10.269238      -279.4402
  60   2.0000     -10.268781      -279.4277
  61   2.0000     -10.268197      -279.4118
  62   2.0000     -10.267456      -279.3917
  63   2.0000     -10.266824      -279.3745
  64   2.0000     -10.266788      -279.3735
  65   2.0000     -10.265136      -279.3285
  66   2.0000     -10.264864      -279.3211
  67   2.0000     -10.264265      -279.3048
  68   2.0000     -10.264095      -279.3002
  69   2.0000     -10.263908      -279.2951
  70   2.0000     -10.262741      -279.2634
  71   2.0000     -10.261052      -279.2174
  72   2.0000     -10.260042      -279.1899
  73   2.0000     -10.258945      -279.1601
  74   2.0000     -10.258199      -279.1398
  75   2.0000     -10.257914      -279.1320
  76   2.0000     -10.257040      -279.1082
  77   2.0000     -10.254488      -279.0388
  78   2.0000      -8.059523      -219.3108
  79   2.0000      -8.055796      -219.2093
  80   2.0000      -6.029018      -164.0579
  81   2.0000      -6.025315      -163.9572
  82   2.0000      -6.024735      -163.9414
  83   2.0000      -6.021204      -163.8453
  84   2.0000      -6.021023      -163.8404
  85   2.0000      -6.017432      -163.7427
  86   2.0000      -1.133689       -30.8493
  87   2.0000      -1.115567       -30.3561
  88   2.0000      -1.084542       -29.5119
  89   2.0000      -1.081842       -29.4384
  90   2.0000      -1.014594       -27.6085
  91   2.0000      -1.009651       -27.4740
  92   2.0000      -1.003820       -27.3153
  93   2.0000      -0.998630       -27.1741
  94   2.0000      -0.987294       -26.8656
  95   2.0000      -0.982436       -26.7334
  96   2.0000      -0.979913       -26.6648
  97   2.0000      -0.978927       -26.6379
  98   2.0000      -0.974488       -26.5172
  99   2.0000      -0.959874       -26.1195
 100   2.0000      -0.942622       -25.6500
 101   2.0000      -0.940472       -25.5915
 102   2.0000      -0.927512       -25.2389
 103   2.0000      -0.926531       -25.2122
 104   2.0000      -0.917761       -24.9735
 105   2.0000      -0.916062       -24.9273
 106   2.0000      -0.909171       -24.7398
 107   2.0000      -0.901309       -24.5259
 108   2.0000      -0.899189       -24.4682
 109   2.0000      -0.887538       -24.1511
 110   2.0000      -0.882190       -24.0056
 111   2.0000      -0.879563       -23.9341
 112   2.0000      -0.877065       -23.8661
 113   2.0000      -0.873468       -23.7683
 114   2.0000      -0.872686       -23.7470
 115   2.0000      -0.862688       -23.4749
 116   2.0000      -0.854674       -23.2569
 117   2.0000      -0.840481       -22.8707
 118   2.0000      -0.830918       -22.6104
 119   2.0000      -0.825994       -22.4764
 120   2.0000      -0.822982       -22.3945
 121   2.0000      -0.819368       -22.2961
 122   2.0000      -0.814701       -22.1691
 123   2.0000      -0.811809       -22.0904
 124   2.0000      -0.802082       -21.8258
 125   2.0000      -0.794298       -21.6140
 126   2.0000      -0.788316       -21.4512
 127   2.0000      -0.773765       -21.0552
 128   2.0000      -0.768256       -20.9053
 129   2.0000      -0.761722       -20.7275
 130   2.0000      -0.754566       -20.5328
 131   2.0000      -0.751309       -20.4442
 132   2.0000      -0.746522       -20.3139
 133   2.0000      -0.739833       -20.1319
 134   2.0000      -0.726943       -19.7811
 135   2.0000      -0.716084       -19.4856
 136   2.0000      -0.712855       -19.3978
 137   2.0000      -0.705275       -19.1915
 138   2.0000      -0.695446       -18.9241
 139   2.0000      -0.685047       -18.6411
 140   2.0000      -0.683932       -18.6107
 141   2.0000      -0.679600       -18.4929
 142   2.0000      -0.677580       -18.4379
 143   2.0000      -0.672017       -18.2865
 144   2.0000      -0.668907       -18.2019
 145   2.0000      -0.661299       -17.9949
 146   2.0000      -0.657488       -17.8912
 147   2.0000      -0.654933       -17.8216
 148   2.0000      -0.652039       -17.7429
 149   2.0000      -0.650454       -17.6998
 150   2.0000      -0.649369       -17.6702
 151   2.0000      -0.639064       -17.3898
 152   2.0000      -0.635927       -17.3044
 153   2.0000      -0.632488       -17.2109
 154   2.0000      -0.629591       -17.1320
 155   2.0000      -0.625667       -17.0253
 156   2.0000      -0.615453       -16.7473
 157   2.0000      -0.610120       -16.6022
 158   2.0000      -0.608492       -16.5579
 159   2.0000      -0.599772       -16.3206
 160   2.0000      -0.592093       -16.1117
 161   2.0000      -0.591429       -16.0936
 162   2.0000      -0.587365       -15.9830
 163   2.0000      -0.583494       -15.8777
 164   2.0000      -0.582020       -15.8376
 165   2.0000      -0.579869       -15.7790
 166   2.0000      -0.573550       -15.6071
 167   2.0000      -0.568415       -15.4674
 168   2.0000      -0.562936       -15.3183
 169   2.0000      -0.555336       -15.1115
 170   2.0000      -0.553562       -15.0632
 171   2.0000      -0.547786       -14.9060
 172   2.0000      -0.546805       -14.8793
 173   2.0000      -0.543888       -14.8000
 174   2.0000      -0.542060       -14.7502
 175   2.0000      -0.539327       -14.6758
 176   2.0000      -0.538351       -14.6493
 177   2.0000      -0.537536       -14.6271
 178   2.0000      -0.533301       -14.5119
 179   2.0000      -0.532336       -14.4856
 180   2.0000      -0.529721       -14.4145
 181   2.0000      -0.527249       -14.3472
 182   2.0000      -0.526824       -14.3356
 183   2.0000      -0.525705       -14.3051
 184   2.0000      -0.523093       -14.2341
 185   2.0000      -0.520124       -14.1533
 186   2.0000      -0.518476       -14.1084
 187   2.0000      -0.518068       -14.0973
 188   2.0000      -0.515726       -14.0336
 189   2.0000      -0.511805       -13.9269
 190   2.0000      -0.509614       -13.8673
 191   2.0000      -0.506096       -13.7716
 192   2.0000      -0.505266       -13.7490
 193   2.0000      -0.499604       -13.5949
 194   2.0000      -0.497676       -13.5424
 195   2.0000      -0.496226       -13.5030
 196   2.0000      -0.495129       -13.4731
 197   2.0000      -0.493389       -13.4258
 198   2.0000      -0.491731       -13.3807
 199   2.0000      -0.491210       -13.3665
 200   2.0000      -0.490391       -13.3442
 201   2.0000      -0.486579       -13.2405
 202   2.0000      -0.484056       -13.1718
 203   2.0000      -0.483597       -13.1594
 204   2.0000      -0.482493       -13.1293
 205   2.0000      -0.481959       -13.1148
 206   2.0000      -0.480201       -13.0669
 207   2.0000      -0.479329       -13.0432
 208   2.0000      -0.476785       -12.9740
 209   2.0000      -0.471717       -12.8361
 210   2.0000      -0.469539       -12.7768
 211   2.0000      -0.467518       -12.7218
 212   2.0000      -0.466415       -12.6918
 213   2.0000      -0.461710       -12.5638
 214   2.0000      -0.459737       -12.5101
 215   2.0000      -0.455698       -12.4002
 216   2.0000      -0.450552       -12.2601
 217   2.0000      -0.448736       -12.2107
 218   2.0000      -0.447246       -12.1702
 219   2.0000      -0.444218       -12.0878
 220   2.0000      -0.442654       -12.0452
 221   2.0000      -0.441935       -12.0257
 222   2.0000      -0.440090       -11.9755
 223   2.0000      -0.439003       -11.9459
 224   2.0000      -0.437593       -11.9075
 225   2.0000      -0.436654       -11.8820
 226   2.0000      -0.433379       -11.7928
 227   2.0000      -0.432582       -11.7711
 228   2.0000      -0.431185       -11.7331
 229   2.0000      -0.429691       -11.6925
 230   2.0000      -0.428158       -11.6508
 231   2.0000      -0.427526       -11.6336
 232   2.0000      -0.423476       -11.5234
 233   2.0000      -0.422680       -11.5017
 234   2.0000      -0.421020       -11.4565
 235   2.0000      -0.420755       -11.4493
 236   2.0000      -0.419019       -11.4021
 237   2.0000      -0.415846       -11.3157
 238   2.0000      -0.414923       -11.2906
 239   2.0000      -0.413673       -11.2566
 240   2.0000      -0.409568       -11.1449
 241   2.0000      -0.408327       -11.1111
 242   2.0000      -0.407014       -11.0754
 243   2.0000      -0.404517       -11.0075
 244   2.0000      -0.399909       -10.8821
 245   2.0000      -0.396632       -10.7929
 246   2.0000      -0.396488       -10.7890
 247   2.0000      -0.389228       -10.5914
 248   2.0000      -0.385414       -10.4876
 249   2.0000      -0.380199       -10.3457
 250   2.0000      -0.375928       -10.2295
 251   2.0000      -0.372581       -10.1384
 252   2.0000      -0.367817       -10.0088
 253   2.0000      -0.359766        -9.7897
 254   2.0000      -0.356708        -9.7065
 255   2.0000      -0.353406        -9.6167
 256   2.0000      -0.348842        -9.4925
 257   2.0000      -0.346282        -9.4228
 258   2.0000      -0.326006        -8.8711
 259   2.0000      -0.325067        -8.8455
 260   2.0000      -0.314869        -8.5680
 261   2.0000      -0.311649        -8.4804
 262   2.0000      -0.307406        -8.3649
 263   2.0000      -0.304538        -8.2869
 264   2.0000      -0.297805        -8.1037
 265   2.0000      -0.293824        -7.9954
 266   2.0000      -0.292471        -7.9585
 267   2.0000      -0.287558        -7.8249
 268   2.0000      -0.275431        -7.4949
 269   2.0000      -0.274337        -7.4651
 270   2.0000      -0.248457        -6.7608
 271   2.0000      -0.247930        -6.7465
 272   2.0000      -0.215175        -5.8552
 273   0.0000      -0.081955        -2.2301
 274   0.0000      -0.078001        -2.1225
 275   0.0000      -0.064874        -1.7653
 276   0.0000      -0.056047        -1.5251
 277   0.0000      -0.047063        -1.2806

MULLIKEN ATOMIC CHARGES
-----------------------
   0 C :    0.320863
   1 C :   -0.380673
   2 C :   -0.186831
   3 N :    0.145036
   4 C :   -0.181784
   5 N :    0.148379
   6 C :    0.016030
   7 C :   -0.004833
   8 C :   -0.075013
   9 C :    0.116855
  10 C :   -0.096714
  11 C :   -0.026549
  12 S :    0.139895
  13 C :   -0.049272
  14 C :    0.023180
  15 C :    0.166771
  16 O :   -0.227037
  17 C :   -0.092767
  18 C :   -0.004863
  19 C :   -0.000627
  20 N :   -0.001444
  21 C :    0.033034
  22 C :    0.042666
  23 C :   -0.135330
  24 C :    0.113595
  25 C :    0.001804
  26 C :    0.010986
  27 C :    0.017138
  28 C :    0.005103
  29 C :    0.140977
  30 C :   -0.121717
  31 C :    0.040170
  32 C :   -0.057944
  33 C :   -0.037397
  34 C :    0.161044
  35 N :   -0.238030
  36 C :    0.118534
  37 N :   -0.220141
  38 C :    0.098854
  39 C :   -0.165154
  40 C :    0.175139
  41 C :   -0.035707
  42 C :    0.017597
  43 C :    0.017594
  44 C :    0.026461
  45 C :   -0.001902
  46 C :   -0.012582
  47 C :   -0.122828
  48 C :    0.029497
  49 C :    0.045608
  50 N :   -0.023869
  51 C :    0.015362
  52 C :    0.030213
  53 C :   -0.158254
  54 C :    0.106896
  55 C :    0.037690
  56 C :   -0.025629
  57 C :    0.050962
  58 C :   -0.006805
  59 C :    0.047562
  60 C :   -0.132522
  61 C :    0.267309
  62 C :   -0.343475
  63 C :   -0.181409
  64 N :    0.146208
  65 C :   -0.200225
  66 N :    0.164374
  67 C :   -0.005325
  68 C :    0.007137
  69 C :    0.131901
  70 O :   -0.153395
  71 C :   -0.072649
  72 C :    0.106099
  73 C :   -0.092084
  74 C :   -0.024263
  75 S :    0.132570
  76 C :   -0.054300
  77 C :    0.028746
  78 H :   -0.014778
  79 H :   -0.007400
  80 H :    0.036890
  81 H :   -0.008460
  82 H :   -0.027395
  83 H :    0.147087
  84 H :    0.008901
  85 H :    0.030642
  86 H :    0.033974
  87 H :    0.036234
  88 H :   -0.024807
  89 H :   -0.033139
  90 H :   -0.025559
  91 H :   -0.027345
  92 H :   -0.034600
  93 H :   -0.038019
  94 H :   -0.027306
  95 H :   -0.000789
  96 H :    0.101534
  97 H :    0.094397
  98 H :   -0.010612
  99 H :    0.020796
 100 H :    0.083688
 101 H :    0.090380
 102 H :   -0.003809
 103 H :    0.041214
 104 H :   -0.015090
 105 H :   -0.037662
 106 H :   -0.041364
 107 H :   -0.033002
 108 H :   -0.001738
 109 H :   -0.016231
 110 H :    0.123567
 111 H :    0.000186
 112 H :    0.021209
 113 H :    0.015189
 114 H :    0.029646
 115 H :   -0.002722
 116 H :   -0.019372
 117 H :    0.010734
 118 H :   -0.002059
 119 H :    0.022663
 120 H :   -0.012499
 121 H :   -0.006294
 122 H :    0.037242
 123 H :   -0.008609
Sum of atomic charges:   -0.0000000

LOEWDIN ATOMIC CHARGES
----------------------
   0 C :    0.081742
   1 C :   -0.155321
   2 C :   -0.018276
   3 N :   -0.062706
   4 C :   -0.020007
   5 N :   -0.063244
   6 C :   -0.020596
   7 C :   -0.051939
   8 C :    0.021741
   9 C :   -0.037603
  10 C :   -0.146033
  11 C :   -0.009043
  12 S :    0.429009
  13 C :   -0.151522
  14 C :   -0.058579
  15 C :    0.099561
  16 O :   -0.172290
  17 C :   -0.130884
  18 C :    0.070167
  19 C :   -0.046126
  20 N :    0.119798
  21 C :    0.055037
  22 C :   -0.083375
  23 C :   -0.008861
  24 C :   -0.048575
  25 C :   -0.014273
  26 C :   -0.035578
  27 C :   -0.039979
  28 C :   -0.007977
  29 C :   -0.025874
  30 C :   -0.020566
  31 C :   -0.023535
  32 C :   -0.045176
  33 C :   -0.040537
  34 C :    0.029833
  35 N :   -0.115482
  36 C :    0.022351
  37 N :   -0.118335
  38 C :   -0.016013
  39 C :    0.049708
  40 C :   -0.032028
  41 C :   -0.027599
  42 C :   -0.021053
  43 C :   -0.036405
  44 C :   -0.031337
  45 C :   -0.010537
  46 C :   -0.025449
  47 C :   -0.012930
  48 C :   -0.041007
  49 C :   -0.028751
  50 N :    0.103475
  51 C :    0.011618
  52 C :   -0.084612
  53 C :   -0.052733
  54 C :   -0.052273
  55 C :    0.044374
  56 C :   -0.065957
  57 C :    0.041482
  58 C :   -0.054148
  59 C :    0.071028
  60 C :   -0.105870
  61 C :    0.067647
  62 C :   -0.150177
  63 C :   -0.020946
  64 N :   -0.062902
  65 C :   -0.014262
  66 N :   -0.053537
  67 C :   -0.019660
  68 C :   -0.053683
  69 C :    0.081720
  70 O :   -0.152486
  71 C :    0.020787
  72 C :   -0.037667
  73 C :   -0.146127
  74 C :   -0.013723
  75 S :    0.423509
  76 C :   -0.153069
  77 C :   -0.058135
  78 H :    0.038813
  79 H :    0.040709
  80 H :    0.028714
  81 H :    0.034447
  82 H :    0.048224
  83 H :    0.067194
  84 H :    0.026439
  85 H :    0.039747
  86 H :    0.038309
  87 H :    0.043370
  88 H :    0.025765
  89 H :    0.022007
  90 H :    0.023670
  91 H :    0.025496
  92 H :    0.025946
  93 H :    0.020639
  94 H :   -0.005091
  95 H :    0.017864
  96 H :    0.053356
  97 H :    0.056445
  98 H :   -0.001576
  99 H :    0.018560
 100 H :    0.047658
 101 H :    0.053841
 102 H :    0.028284
 103 H :    0.064477
 104 H :    0.023650
 105 H :    0.029008
 106 H :    0.025907
 107 H :    0.023553
 108 H :    0.026085
 109 H :    0.025927
 110 H :    0.091934
 111 H :    0.024382
 112 H :    0.033539
 113 H :    0.030893
 114 H :    0.031528
 115 H :    0.033775
 116 H :    0.028273
 117 H :    0.033631
 118 H :    0.030530
 119 H :    0.044796
 120 H :    0.039706
 121 H :    0.039591
 122 H :    0.028331
 123 H :    0.034428

  Mayer bond orders larger than 0.100000
B(  0-C ,  1-C ) :   1.6013 B(  0-C ,  6-C ) :   0.9895 B(  0-C , 17-C ) :   1.1075
B(  1-C ,  2-C ) :   1.1527 B(  1-C ,  4-C ) :   1.1481 B(  2-C ,  3-N ) :   2.9658
B(  4-C ,  5-N ) :   2.9768 B(  6-C ,  7-C ) :   1.2716 B(  6-C , 11-C ) :   1.4220
B(  7-C ,  8-C ) :   1.4204 B(  7-C , 15-C ) :   0.9827 B(  8-C ,  9-C ) :   1.2402
B(  8-C , 78-H ) :   1.0173 B(  9-C , 10-C ) :   1.3083 B(  9-C , 14-C ) :   1.1709
B( 10-C , 11-C ) :   1.3138 B( 10-C , 12-S ) :   1.1001 B( 11-C , 79-H ) :   0.9821
B( 12-S , 13-C ) :   1.1271 B( 13-C , 14-C ) :   1.6281 B( 13-C , 80-H ) :   0.9689
B( 14-C , 81-H ) :   0.9993 B( 15-C , 16-O ) :   2.0312 B( 15-C , 17-C ) :   0.9865
B( 16-O , 83-H ) :   0.1550 B( 17-C , 18-C ) :   1.4281 B( 18-C , 19-C ) :   1.3103
B( 18-C , 82-H ) :   0.9231 B( 19-C , 20-N ) :   1.2089 B( 19-C , 23-C ) :   1.2747
B( 20-N , 21-C ) :   1.3716 B( 20-N , 83-H ) :   0.8459 B( 21-C , 22-C ) :   1.2827
B( 21-C , 84-H ) :   0.9883 B( 22-C , 23-C ) :   1.3952 B( 22-C , 25-C ) :   1.0906
B( 23-C , 24-C ) :   1.1242 B( 24-C , 85-H ) :   0.9360 B( 24-C , 86-H ) :   0.9347
B( 24-C , 87-H ) :   0.9369 B( 25-C , 26-C ) :   1.7285 B( 25-C , 88-H ) :   0.9655
B( 26-C , 27-C ) :   1.1209 B( 26-C , 89-H ) :   0.9721 B( 27-C , 28-C ) :   1.6862
B( 27-C , 90-H ) :   0.9678 B( 28-C , 29-C ) :   1.0948 B( 28-C , 91-H ) :   0.9784
B( 29-C , 30-C ) :   1.4881 B( 29-C , 46-C ) :   1.1091 B( 30-C , 31-C ) :   1.1102
B( 30-C , 92-H ) :   1.0042 B( 31-C , 32-C ) :   1.4853 B( 31-C , 44-C ) :   1.1154
B( 32-C , 33-C ) :   1.0121 B( 32-C , 38-C ) :   1.1121 B( 33-C , 34-C ) :   1.0362
B( 33-C , 36-C ) :   1.0309 B( 33-C , 93-H ) :   0.8914 B( 34-C , 35-N ) :   1.0875
B( 34-C , 94-H ) :   0.9357 B( 34-C , 95-H ) :   0.9309 B( 35-N , 96-H ) :   0.9591
B( 35-N , 97-H ) :   0.9681 B( 36-C , 37-N ) :   1.0901 B( 36-C , 98-H ) :   0.9584
B( 36-C , 99-H ) :   0.9169 B( 37-N ,100-H ) :   0.9721 B( 37-N ,101-H ) :   0.9696
B( 38-C , 39-C ) :   1.6483 B( 38-C , 43-C ) :   1.0524 B( 39-C , 40-C ) :   0.9682
B( 39-C ,102-H ) :   0.9710 B( 40-C , 41-C ) :   0.9873 B( 40-C , 47-C ) :   0.9567
B( 40-C ,103-H ) :   0.8415 B( 41-C , 42-C ) :   1.7364 B( 41-C ,104-H ) :   0.9683
B( 42-C , 43-C ) :   1.1228 B( 42-C ,105-H ) :   0.9877 B( 43-C , 44-C ) :   1.4559
B( 44-C , 45-C ) :   1.1319 B( 45-C , 46-C ) :   1.6326 B( 45-C ,106-H ) :   0.9876
B( 46-C ,107-H ) :   0.9828 B( 47-C , 48-C ) :   1.8629 B( 47-C ,108-H ) :   0.9733
B( 48-C , 49-C ) :   1.0426 B( 48-C ,109-H ) :   0.9361 B( 49-C , 50-N ) :   1.1876
B( 49-C , 53-C ) :   1.5088 B( 50-N , 51-C ) :   1.2670 B( 50-N ,110-H ) :   0.9365
B( 51-C , 52-C ) :   1.3762 B( 51-C ,111-H ) :   0.9928 B( 52-C , 53-C ) :   1.2876
B( 52-C , 55-C ) :   1.1236 B( 53-C , 54-C ) :   1.1221 B( 54-C ,112-H ) :   0.9413
B( 54-C ,113-H ) :   0.9396 B( 54-C ,114-H ) :   0.9317 B( 55-C , 56-C ) :   1.6612
B( 55-C ,115-H ) :   0.9589 B( 56-C , 57-C ) :   1.1746 B( 56-C ,116-H ) :   0.9720
B( 57-C , 58-C ) :   1.6257 B( 57-C ,117-H ) :   0.9631 B( 58-C , 59-C ) :   1.1835
B( 58-C ,118-H ) :   0.9569 B( 59-C , 60-C ) :   1.6226 B( 59-C ,119-H ) :   0.9330
B( 60-C , 61-C ) :   1.0495 B( 60-C , 69-C ) :   0.9551 B( 61-C , 62-C ) :   1.6346
B( 61-C , 67-C ) :   1.0076 B( 62-C , 63-C ) :   1.1327 B( 62-C , 65-C ) :   1.1643
B( 63-C , 64-N ) :   2.9875 B( 65-C , 66-N ) :   3.0075 B( 67-C , 68-C ) :   1.2743
B( 67-C , 74-C ) :   1.4183 B( 68-C , 69-C ) :   0.9173 B( 68-C , 71-C ) :   1.4286
B( 69-C , 70-O ) :   2.2585 B( 71-C , 72-C ) :   1.2491 B( 71-C ,120-H ) :   1.0163
B( 72-C , 73-C ) :   1.3088 B( 72-C , 77-C ) :   1.1724 B( 73-C , 74-C ) :   1.3193
B( 73-C , 75-S ) :   1.0932 B( 74-C ,121-H ) :   0.9866 B( 75-S , 76-C ) :   1.1248
B( 76-C , 77-C ) :   1.6289 B( 76-C ,122-H ) :   0.9690 B( 77-C ,123-H ) :   0.9997

-----------------------------------------------------------------------------
         ABSORPTION SPECTRUM VIA TRANSITION ELECTRIC DIPOLE MOMENTS
-----------------------------------------------------------------------------
State   Energy  Wavelength   fosc         T2         TX        TY        TZ
        (cm-1)    (nm)                  (au**2)     (au)      (au)      (au)
-----------------------------------------------------------------------------
   0   14793.2    676.0   0.046695447   1.03918   0.97430   0.12454  -0.27278
   1   18810.5    531.6   0.940948683  16.46800  -1.37705   1.85163  -3.33814
   2   19407.2    515.3   0.398543523   6.76064   0.69816  -0.80393   2.37211
   3   21211.4    471.4   0.011937631   0.18528   0.03597  -0.24604   0.35135
   4   23158.3    431.8   0.796736913  11.32621   1.47236  -0.99389   2.85841
   5   23861.3    419.1   0.137351720   1.89503  -1.11106   0.37259  -0.72232
   6   24843.1    402.5   0.173869368   2.30405  -0.24162  -0.63669   1.35658
   7   26201.4    381.7   0.030630430   0.38486  -0.40943   0.17349  -0.43258
   8   26620.0    375.7   0.310211871   3.83641   1.54176  -0.48833   1.10496
   9   26930.5    371.3   0.644320157   7.87649  -1.66040   0.47374  -2.21249
  10   26992.6    370.5   0.040099223   0.48906  -0.05459   0.67912  -0.15774
  11   27699.6    361.0   0.290033755   3.44708   1.26415  -0.54237   1.24693
  12   28357.0    352.6   0.627982277   7.29060  -1.97197   0.39854  -1.80086
  13   28527.1    350.5   0.081230041   0.93742   0.35773   0.12238  -0.89133
  14   29266.5    341.7   0.039404527   0.44325  -0.63028   0.07187  -0.20209
  15   29708.3    336.6   0.010443000   0.11572   0.25386  -0.05055   0.22074
  16   29851.6    335.0   0.219419888   2.41982   0.99770  -0.89227   0.79264
  17   29950.8    333.9   0.005519415   0.06067   0.20242  -0.07176   0.12061
  18   30015.0    333.2   0.057141475   0.62674   0.64974  -0.34456   0.29302
  19   30563.5    327.2   0.118305801   1.27432  -0.60402   0.08772  -0.94962
  20   31058.0    322.0   0.036615345   0.38812  -0.33641   0.31996  -0.41542
  21   31917.8    313.3   0.010834193   0.11175   0.03196  -0.10994   0.31407
  22   32197.3    310.6   0.001739703   0.01779   0.12569   0.00833   0.04383
  23   32401.3    308.6   0.077071690   0.78308  -0.59314  -0.23287  -0.61404
  24   32419.3    308.5   0.158931828   1.61392   1.06782  -0.35831   0.58762
  25   32768.4    305.2   0.004959316   0.04982  -0.19703  -0.08181  -0.06565
  26   33089.0    302.2   0.028517170   0.28373   0.26004  -0.29739   0.35730
  27   33561.9    298.0   0.001587042   0.01557  -0.10553   0.02841   0.06019
  28   34198.0    292.4   0.184610356   1.77718   0.76570  -0.42264  -1.00611
  29   34270.1    291.8   0.848257119   8.14868  -2.10381   0.29875  -1.90615
  30   34380.4    290.9   0.320180747   3.06591   1.62058  -0.61596  -0.24543
  31   34523.0    289.7   0.031244905   0.29795  -0.21144  -0.19996   0.46180
  32   35958.8    278.1   0.010787421   0.09876  -0.17607   0.13264  -0.22398
  33   36368.5    275.0   0.236443643   2.14032   0.98016  -0.40935   1.00599
  34   36600.8    273.2   0.105646593   0.95026   0.39585   0.03879  -0.88997
  35   36770.5    272.0   0.046591400   0.41714  -0.08098  -0.27436   0.57906
  36   37077.4    269.7   0.002742611   0.02435  -0.01195   0.00275  -0.15557
  37   37150.2    269.2   0.011994545   0.10629   0.19242   0.06479  -0.25509
  38   37189.3    268.9   0.019585668   0.17338  -0.25448  -0.03871   0.32729
  39   37288.3    268.2   0.007783568   0.06872  -0.04113   0.06194  -0.25138
  40   37501.9    266.7   0.093830427   0.82369   0.69409  -0.44054   0.38453
  41   37853.3    264.2   0.005550919   0.04828   0.15503  -0.08024   0.13343
  42   37889.7    263.9   0.041559548   0.36110   0.57467  -0.16583  -0.05794
  43   38236.2    261.5   0.002240061   0.01929   0.12807  -0.04255   0.03280
  44   38337.3    260.8   0.045464972   0.39042   0.20072  -0.35015   0.47700
  45   38370.0    260.6   0.128030412   1.09849  -0.45760  -0.26978   0.90350
  46   38572.2    259.3   0.106741568   0.91103  -0.59771  -0.19925   0.71699
  47   38709.3    258.3   0.000039276   0.00033  -0.00759  -0.00336   0.01628
  48   39135.9    255.5   0.123903396   1.04228   0.68841   0.55424  -0.51106
  49   39493.1    253.2   0.001748046   0.01457   0.11883   0.00278  -0.02103
  50   39862.4    250.9   0.000026835   0.00022   0.01450  -0.00238   0.00241

FINAL SINGLE POINT ENERGY     -3923.146166906696

DIPOLE MOMENT
-------------
                                X             Y             Z
Electronic contribution:     17.49817      15.48528       8.43108
Nuclear contribution   :    -15.68918     -17.19945     -10.08553
                        -----------------------------------------
Total Dipole Moment    :      1.80898      -1.71417      -1.65446
                        -----------------------------------------
Magnitude (a.u.)       :      2.99132
Magnitude (Debye)      :      7.60334

Rotational constants in cm-1:     0.003304     0.000102     0.000100
Rotational constants in MHz :    99.045515     3.056329     3.007126

                             ****ORCA TERMINATED NORMALLY****
TOTAL RUN TIME: 0 days 0 hours 25 minutes 15 seconds 965 msec
