                         Program Version 4.2.0 -  RELEASE  -
|  1> # ORCA input file
|  2> # SCF done       -191.549334359005          0.000611273698
|  3> ! CAM-B3LYP def2-SVP def2/J RIJCOSX Grid4 TightSCF
|  4> %maxcore 5000
|  5> %tddft
|  6>     Mode sTDDFT
|  7>     Ethresh 5.0
|  8>     maxcore 5000
|  9> end
| 10>
| 11> %pal
| 12>   nprocs 6
| 13>   end
| 14> * xyz 0 1
| 15>    C       -9.66052         9.11232        -2.64118
| 16>    C       -9.02322        10.28528        -2.94550
| 17>    C       -9.64597        11.38746        -3.57061
| 18>    N      -10.09111        12.31478        -4.07938
| 19>    C       -7.66704        10.56834        -2.67593
| 20>    N       -6.57678        10.87242        -2.48323
| 21>    C      -11.06613         8.81891        -2.87501
| 22>    C      -11.36193         7.53288        -2.35483
| 23>    C      -12.61615         6.97490        -2.42845
| 24>    C      -13.62795         7.72010        -3.03976
| 25>    C      -13.32345         9.00325        -3.55850
| 26>    C      -12.05590         9.56693        -3.48671
| 27>    S      -14.72120         9.73837        -4.27652
| 28>    C      -15.68093         8.35441        -3.88412
| 29>    C      -14.99484         7.38163        -3.24484
| 30>    C      -10.14826         6.93949        -1.77464
| 31>    O      -10.03182         5.82302        -1.32177
| 32>    C       -9.07444         7.96257        -1.96585
| 33>    C       -7.76348         7.75926        -1.68764
| 34>    C       -7.24584         6.68038        -0.91095
| 35>    C       -5.98516         5.97977        -1.19653
| 36>    N       -5.70478         5.02201        -0.36480
| 37>    C       -6.71022         5.02626         0.55432
| 38>    C       -7.70121         6.07712         0.23470
| 39>    C       -8.70931         6.13501         1.26574
| 40>    S       -9.90739         7.24233         1.43511
| 41>    C       -8.36210         5.05811         2.16014
| 42>    C       -7.12362         4.39346         1.69332
| 43>    N       -6.77969         3.37190         2.52786
| 44>    C       -7.68789         3.35417         3.45579
| 45>    C       -8.71862         4.38876         3.30328
| 46>    C       -9.79528         4.56291         4.21549
| 47>    O      -10.67316         5.59407         4.06397
| 48>    C      -11.53390         5.46795         5.09174
| 49>    C      -11.13309         4.32067         5.84616
| 50>    N      -10.02825         3.79775         5.24176
| 51>    C      -11.81843         3.90490         6.97686
| 52>    C      -12.90732         4.69237         7.31341
| 53>    C      -13.27981         5.84337         6.54852
| 54>    C      -12.61285         6.26660         5.41576
| 55>    O      -14.35974         6.38604         7.14137
| 56>    C      -14.61484         5.58029         8.21737
| 57>    N      -13.79063         4.58164         8.34633
| 58>    C      -15.71066         5.90067         9.06911
| 59>    C      -16.04425         5.12574        10.12645
| 60>    C      -17.10031         5.39787        11.03546
| 61>    C      -17.43904         4.49882        12.15426
| 62>    N      -18.39894         4.91827        12.91651
| 63>    C      -18.77856         6.12177        12.39495
| 64>    C      -17.99135         6.43988        11.18101
| 65>    C      -18.41395         7.71617        10.66292
| 66>    S      -18.01880         8.43553         9.23340
| 67>    C      -19.35519         8.20996        11.63500
| 68>    C      -19.61300         7.16933        12.65524
| 69>    N      -20.54838         7.59712        13.54874
| 70>    C      -20.86316         8.79965        13.18064
| 71>    C      -20.12901         9.28652        11.99957
| 72>    C      -20.30037        10.57969        11.43590
| 73>    C      -19.42293        11.31730        10.71370
| 74>    C      -18.00862        11.16962        10.43208
| 75>    C      -17.06126        10.62927        11.26203
| 76>    C      -15.68491        10.58105        10.95782
| 77>    N      -14.55952        10.49345        10.75135
| 78>    C      -17.34412        10.08092        12.52739
| 79>    N      -17.51777         9.63863        13.57274
| 80>    C      -17.73863        11.91676         9.21115
| 81>    C      -18.87383        12.70983         8.89637
| 82>    C      -19.93632        12.45199         9.88037
| 83>    O      -21.01595        12.98289         9.98453
| 84>    C      -18.90473        13.54689         7.80589
| 85>    C      -17.77434        13.59133         6.98485
| 86>    C      -16.65634        12.77856         7.29729
| 87>    C      -16.61812        11.94033         8.40494
| 88>    S      -15.38674        12.98194         6.13410
| 89>    C      -16.33671        14.13451         5.26162
| 90>    C      -17.55175        14.35966         5.80736
| 91>    H      -12.80741         5.99329        -2.02349
| 92>    H      -11.87369        10.54409        -3.90182
| 93>    H      -16.71708         8.35428        -4.16195
| 94>    H      -15.42675         6.45076        -2.92484
| 95>    H       -7.01726         8.43497        -2.08844
| 96>    H       -5.33921         6.19536        -2.03002
| 97>    H       -7.66824         2.63862         4.25771
| 98>    H      -11.52575         3.04269         7.54841
| 99>    H      -12.89960         7.13206         4.84447
|100>    H      -16.25753         6.79895         8.82165
|101>    H      -15.46252         4.23207        10.30928
|102>    H      -16.95204         3.55817        12.34651
|103>    H      -21.59112         9.37431        13.72632
|104>    H      -21.28649        11.02027        11.55716
|105>    H      -19.77615        14.14591         7.59160
|106>    H      -15.75256        11.32925         8.60038
|107>    H      -15.91959        14.57851         4.37866
|108>    H      -18.27668        15.04220         5.40239
|109> *
|110>
|111>                          ****END OF INPUT****

CARTESIAN COORDINATES (ANGSTROEM)
---------------------------------
  C     -9.660520    9.112320   -2.641180
  C     -9.023220   10.285280   -2.945500
  C     -9.645970   11.387460   -3.570610
  N    -10.091110   12.314780   -4.079380
  C     -7.667040   10.568340   -2.675930
  N     -6.576780   10.872420   -2.483230
  C    -11.066130    8.818910   -2.875010
  C    -11.361930    7.532880   -2.354830
  C    -12.616150    6.974900   -2.428450
  C    -13.627950    7.720100   -3.039760
  C    -13.323450    9.003250   -3.558500
  C    -12.055900    9.566930   -3.486710
  S    -14.721200    9.738370   -4.276520
  C    -15.680930    8.354410   -3.884120
  C    -14.994840    7.381630   -3.244840
  C    -10.148260    6.939490   -1.774640
  O    -10.031820    5.823020   -1.321770
  C     -9.074440    7.962570   -1.965850
  C     -7.763480    7.759260   -1.687640
  C     -7.245840    6.680380   -0.910950
  C     -5.985160    5.979770   -1.196530
  N     -5.704780    5.022010   -0.364800
  C     -6.710220    5.026260    0.554320
  C     -7.701210    6.077120    0.234700
  C     -8.709310    6.135010    1.265740
  S     -9.907390    7.242330    1.435110
  C     -8.362100    5.058110    2.160140
  C     -7.123620    4.393460    1.693320
  N     -6.779690    3.371900    2.527860
  C     -7.687890    3.354170    3.455790
  C     -8.718620    4.388760    3.303280
  C     -9.795280    4.562910    4.215490
  O    -10.673160    5.594070    4.063970
  C    -11.533900    5.467950    5.091740
  C    -11.133090    4.320670    5.846160
  N    -10.028250    3.797750    5.241760
  C    -11.818430    3.904900    6.976860
  C    -12.907320    4.692370    7.313410
  C    -13.279810    5.843370    6.548520
  C    -12.612850    6.266600    5.415760
  O    -14.359740    6.386040    7.141370
  C    -14.614840    5.580290    8.217370
  N    -13.790630    4.581640    8.346330
  C    -15.710660    5.900670    9.069110
  C    -16.044250    5.125740   10.126450
  C    -17.100310    5.397870   11.035460
  C    -17.439040    4.498820   12.154260
  N    -18.398940    4.918270   12.916510
  C    -18.778560    6.121770   12.394950
  C    -17.991350    6.439880   11.181010
  C    -18.413950    7.716170   10.662920
  S    -18.018800    8.435530    9.233400
  C    -19.355190    8.209960   11.635000
  C    -19.613000    7.169330   12.655240
  N    -20.548380    7.597120   13.548740
  C    -20.863160    8.799650   13.180640
  C    -20.129010    9.286520   11.999570
  C    -20.300370   10.579690   11.435900
  C    -19.422930   11.317300   10.713700
  C    -18.008620   11.169620   10.432080
  C    -17.061260   10.629270   11.262030
  C    -15.684910   10.581050   10.957820
  N    -14.559520   10.493450   10.751350
  C    -17.344120   10.080920   12.527390
  N    -17.517770    9.638630   13.572740
  C    -17.738630   11.916760    9.211150
  C    -18.873830   12.709830    8.896370
  C    -19.936320   12.451990    9.880370
  O    -21.015950   12.982890    9.984530
  C    -18.904730   13.546890    7.805890
  C    -17.774340   13.591330    6.984850
  C    -16.656340   12.778560    7.297290
  C    -16.618120   11.940330    8.404940
  S    -15.386740   12.981940    6.134100
  C    -16.336710   14.134510    5.261620
  C    -17.551750   14.359660    5.807360
  H    -12.807410    5.993290   -2.023490
  H    -11.873690   10.544090   -3.901820
  H    -16.717080    8.354280   -4.161950
  H    -15.426750    6.450760   -2.924840
  H     -7.017260    8.434970   -2.088440
  H     -5.339210    6.195360   -2.030020
  H     -7.668240    2.638620    4.257710
  H    -11.525750    3.042690    7.548410
  H    -12.899600    7.132060    4.844470
  H    -16.257530    6.798950    8.821650
  H    -15.462520    4.232070   10.309280
  H    -16.952040    3.558170   12.346510
  H    -21.591120    9.374310   13.726320
  H    -21.286490   11.020270   11.557160
  H    -19.776150   14.145910    7.591600
  H    -15.752560   11.329250    8.600380
  H    -15.919590   14.578510    4.378660
  H    -18.276680   15.042200    5.402390

 Total Charge           Charge          ....    0
 Multiplicity           Mult            ....    1
 Number of Electrons    NEL             ....  532
 Basis Dimension        Dim             .... 1170

ORBITAL ENERGIES
----------------

  NO   OCC          E(Eh)            E(eV)
   0   2.0000     -88.973649     -2421.0961
   1   2.0000     -88.971608     -2421.0405
   2   2.0000     -88.922270     -2419.6980
   3   2.0000     -88.912008     -2419.4187
   4   2.0000     -19.307061      -525.3718
   5   2.0000     -19.306076      -525.3450
   6   2.0000     -19.223663      -523.1025
   7   2.0000     -19.222499      -523.0708
   8   2.0000     -14.425741      -392.5444
   9   2.0000     -14.425196      -392.5296
  10   2.0000     -14.424539      -392.5117
  11   2.0000     -14.424243      -392.5036
  12   2.0000     -14.423447      -392.4819
  13   2.0000     -14.423362      -392.4796
  14   2.0000     -14.423336      -392.4789
  15   2.0000     -14.422450      -392.4548
  16   2.0000     -14.421057      -392.4169
  17   2.0000     -14.415779      -392.2733
  18   2.0000     -10.385299      -282.5984
  19   2.0000     -10.376539      -282.3600
  20   2.0000     -10.374183      -282.2959
  21   2.0000     -10.373978      -282.2903
  22   2.0000     -10.358665      -281.8736
  23   2.0000     -10.352345      -281.7016
  24   2.0000     -10.351792      -281.6866
  25   2.0000     -10.351035      -281.6660
  26   2.0000     -10.350950      -281.6637
  27   2.0000     -10.350239      -281.6443
  28   2.0000     -10.349403      -281.6216
  29   2.0000     -10.348728      -281.6032
  30   2.0000     -10.346674      -281.5473
  31   2.0000     -10.345348      -281.5112
  32   2.0000     -10.344935      -281.5000
  33   2.0000     -10.343850      -281.4705
  34   2.0000     -10.343435      -281.4592
  35   2.0000     -10.342550      -281.4351
  36   2.0000     -10.342038      -281.4212
  37   2.0000     -10.340334      -281.3748
  38   2.0000     -10.328129      -281.0427
  39   2.0000     -10.326494      -280.9982
  40   2.0000     -10.326223      -280.9908
  41   2.0000     -10.325987      -280.9844
  42   2.0000     -10.325648      -280.9752
  43   2.0000     -10.324795      -280.9519
  44   2.0000     -10.324458      -280.9428
  45   2.0000     -10.323446      -280.9152
  46   2.0000     -10.321311      -280.8572
  47   2.0000     -10.320571      -280.8370
  48   2.0000     -10.319219      -280.8002
  49   2.0000     -10.318713      -280.7865
  50   2.0000     -10.317885      -280.7639
  51   2.0000     -10.316510      -280.7265
  52   2.0000     -10.315745      -280.7057
  53   2.0000     -10.315385      -280.6959
  54   2.0000     -10.315100      -280.6881
  55   2.0000     -10.314219      -280.6642
  56   2.0000     -10.314160      -280.6626
  57   2.0000     -10.314076      -280.6603
  58   2.0000     -10.312707      -280.6230
  59   2.0000     -10.312250      -280.6106
  60   2.0000     -10.311739      -280.5967
  61   2.0000     -10.310688      -280.5681
  62   2.0000     -10.309493      -280.5356
  63   2.0000     -10.309308      -280.5305
  64   2.0000     -10.308214      -280.5008
  65   2.0000     -10.306865      -280.4641
  66   2.0000     -10.305865      -280.4369
  67   2.0000     -10.305019      -280.4138
  68   2.0000     -10.303689      -280.3776
  69   2.0000     -10.299784      -280.2714
  70   2.0000     -10.298931      -280.2482
  71   2.0000     -10.297572      -280.2112
  72   2.0000     -10.297303      -280.2039
  73   2.0000     -10.295891      -280.1654
  74   2.0000     -10.293609      -280.1033
  75   2.0000     -10.289870      -280.0016
  76   2.0000      -8.069921      -219.5937
  77   2.0000      -8.067840      -219.5371
  78   2.0000      -8.017253      -218.1605
  79   2.0000      -8.007478      -217.8946
  80   2.0000      -6.039437      -164.3414
  81   2.0000      -6.037342      -164.2844
  82   2.0000      -6.035107      -164.2236
  83   2.0000      -6.033043      -164.1674
  84   2.0000      -6.031597      -164.1281
  85   2.0000      -6.029544      -164.0722
  86   2.0000      -5.985975      -162.8867
  87   2.0000      -5.985731      -162.8800
  88   2.0000      -5.976751      -162.6357
  89   2.0000      -5.976749      -162.6356
  90   2.0000      -5.976040      -162.6163
  91   2.0000      -5.966311      -162.3516
  92   2.0000      -1.239362       -33.7247
  93   2.0000      -1.235755       -33.6266
  94   2.0000      -1.139187       -30.9989
  95   2.0000      -1.138189       -30.9717
  96   2.0000      -1.095457       -29.8089
  97   2.0000      -1.094513       -29.7832
  98   2.0000      -1.075927       -29.2775
  99   2.0000      -1.075078       -29.2544
 100   2.0000      -1.034264       -28.1437
 101   2.0000      -1.027987       -27.9730
 102   2.0000      -1.027267       -27.9534
 103   2.0000      -1.026778       -27.9400
 104   2.0000      -1.015903       -27.6441
 105   2.0000      -1.014015       -27.5928
 106   2.0000      -1.002189       -27.2710
 107   2.0000      -1.000588       -27.2274
 108   2.0000      -0.992630       -27.0108
 109   2.0000      -0.991753       -26.9870
 110   2.0000      -0.977116       -26.5887
 111   2.0000      -0.975277       -26.5386
 112   2.0000      -0.965307       -26.2673
 113   2.0000      -0.941211       -25.6116
 114   2.0000      -0.939718       -25.5710
 115   2.0000      -0.929050       -25.2807
 116   2.0000      -0.921821       -25.0840
 117   2.0000      -0.920471       -25.0473
 118   2.0000      -0.906405       -24.6645
 119   2.0000      -0.893658       -24.3177
 120   2.0000      -0.893323       -24.3086
 121   2.0000      -0.888445       -24.1758
 122   2.0000      -0.886980       -24.1360
 123   2.0000      -0.876897       -23.8616
 124   2.0000      -0.868326       -23.6283
 125   2.0000      -0.864842       -23.5336
 126   2.0000      -0.857329       -23.3291
 127   2.0000      -0.844649       -22.9841
 128   2.0000      -0.843805       -22.9611
 129   2.0000      -0.830445       -22.5976
 130   2.0000      -0.829574       -22.5739
 131   2.0000      -0.828568       -22.5465
 132   2.0000      -0.803938       -21.8763
 133   2.0000      -0.798315       -21.7233
 134   2.0000      -0.787827       -21.4379
 135   2.0000      -0.779852       -21.2208
 136   2.0000      -0.771352       -20.9895
 137   2.0000      -0.764594       -20.8057
 138   2.0000      -0.762675       -20.7534
 139   2.0000      -0.751254       -20.4427
 140   2.0000      -0.745179       -20.2773
 141   2.0000      -0.734469       -19.9859
 142   2.0000      -0.723015       -19.6742
 143   2.0000      -0.718339       -19.5470
 144   2.0000      -0.716008       -19.4836
 145   2.0000      -0.711783       -19.3686
 146   2.0000      -0.708216       -19.2715
 147   2.0000      -0.705122       -19.1874
 148   2.0000      -0.696745       -18.9594
 149   2.0000      -0.695379       -18.9222
 150   2.0000      -0.687944       -18.7199
 151   2.0000      -0.686390       -18.6776
 152   2.0000      -0.677520       -18.4363
 153   2.0000      -0.669253       -18.2113
 154   2.0000      -0.667849       -18.1731
 155   2.0000      -0.665486       -18.1088
 156   2.0000      -0.658740       -17.9252
 157   2.0000      -0.652397       -17.7526
 158   2.0000      -0.643390       -17.5075
 159   2.0000      -0.635240       -17.2858
 160   2.0000      -0.633052       -17.2262
 161   2.0000      -0.626684       -17.0529
 162   2.0000      -0.626077       -17.0364
 163   2.0000      -0.612472       -16.6662
 164   2.0000      -0.611662       -16.6442
 165   2.0000      -0.608543       -16.5593
 166   2.0000      -0.602210       -16.3870
 167   2.0000      -0.598476       -16.2854
 168   2.0000      -0.595737       -16.2108
 169   2.0000      -0.592750       -16.1296
 170   2.0000      -0.586216       -15.9518
 171   2.0000      -0.582681       -15.8556
 172   2.0000      -0.579317       -15.7640
 173   2.0000      -0.578695       -15.7471
 174   2.0000      -0.575157       -15.6508
 175   2.0000      -0.570740       -15.5306
 176   2.0000      -0.565911       -15.3992
 177   2.0000      -0.562411       -15.3040
 178   2.0000      -0.557761       -15.1774
 179   2.0000      -0.555195       -15.1076
 180   2.0000      -0.552171       -15.0253
 181   2.0000      -0.550891       -14.9905
 182   2.0000      -0.550709       -14.9856
 183   2.0000      -0.548113       -14.9149
 184   2.0000      -0.546134       -14.8611
 185   2.0000      -0.544896       -14.8274
 186   2.0000      -0.540627       -14.7112
 187   2.0000      -0.538143       -14.6436
 188   2.0000      -0.536802       -14.6071
 189   2.0000      -0.533682       -14.5222
 190   2.0000      -0.531927       -14.4745
 191   2.0000      -0.525816       -14.3082
 192   2.0000      -0.519081       -14.1249
 193   2.0000      -0.517880       -14.0922
 194   2.0000      -0.513634       -13.9767
 195   2.0000      -0.510212       -13.8836
 196   2.0000      -0.508739       -13.8435
 197   2.0000      -0.508404       -13.8344
 198   2.0000      -0.504111       -13.7175
 199   2.0000      -0.503532       -13.7018
 200   2.0000      -0.502104       -13.6629
 201   2.0000      -0.499959       -13.6046
 202   2.0000      -0.498180       -13.5562
 203   2.0000      -0.496417       -13.5082
 204   2.0000      -0.495911       -13.4944
 205   2.0000      -0.494133       -13.4460
 206   2.0000      -0.493877       -13.4391
 207   2.0000      -0.492605       -13.4045
 208   2.0000      -0.488159       -13.2835
 209   2.0000      -0.486656       -13.2426
 210   2.0000      -0.478031       -13.0079
 211   2.0000      -0.473637       -12.8883
 212   2.0000      -0.465103       -12.6561
 213   2.0000      -0.460618       -12.5341
 214   2.0000      -0.459419       -12.5014
 215   2.0000      -0.456225       -12.4145
 216   2.0000      -0.456192       -12.4136
 217   2.0000      -0.454533       -12.3685
 218   2.0000      -0.454333       -12.3630
 219   2.0000      -0.452922       -12.3246
 220   2.0000      -0.451494       -12.2858
 221   2.0000      -0.450889       -12.2693
 222   2.0000      -0.448816       -12.2129
 223   2.0000      -0.445545       -12.1239
 224   2.0000      -0.444760       -12.1025
 225   2.0000      -0.440670       -11.9913
 226   2.0000      -0.440158       -11.9773
 227   2.0000      -0.438646       -11.9362
 228   2.0000      -0.437223       -11.8974
 229   2.0000      -0.435786       -11.8583
 230   2.0000      -0.431974       -11.7546
 231   2.0000      -0.431073       -11.7301
 232   2.0000      -0.429307       -11.6820
 233   2.0000      -0.428525       -11.6608
 234   2.0000      -0.424869       -11.5613
 235   2.0000      -0.421967       -11.4823
 236   2.0000      -0.417466       -11.3598
 237   2.0000      -0.414259       -11.2726
 238   2.0000      -0.411889       -11.2081
 239   2.0000      -0.400336       -10.8937
 240   2.0000      -0.386434       -10.5154
 241   2.0000      -0.385004       -10.4765
 242   2.0000      -0.382152       -10.3989
 243   2.0000      -0.375108       -10.2072
 244   2.0000      -0.371562       -10.1107
 245   2.0000      -0.370968       -10.0945
 246   2.0000      -0.365822        -9.9545
 247   2.0000      -0.364435        -9.9168
 248   2.0000      -0.362992        -9.8775
 249   2.0000      -0.362868        -9.8741
 250   2.0000      -0.360424        -9.8076
 251   2.0000      -0.344654        -9.3785
 252   2.0000      -0.343810        -9.3555
 253   2.0000      -0.332260        -9.0413
 254   2.0000      -0.328420        -8.9367
 255   2.0000      -0.326274        -8.8784
 256   2.0000      -0.319229        -8.6867
 257   2.0000      -0.316939        -8.6244
 258   2.0000      -0.313804        -8.5390
 259   2.0000      -0.310965        -8.4618
 260   2.0000      -0.303425        -8.2566
 261   2.0000      -0.300543        -8.1782
 262   2.0000      -0.298236        -8.1154
 263   2.0000      -0.296693        -8.0734
 264   2.0000      -0.293172        -7.9776
 265   2.0000      -0.276038        -7.5114
 266   0.0000      -0.127198        -3.4612
 267   0.0000      -0.124677        -3.3926
 268   0.0000      -0.108132        -2.9424
 269   0.0000      -0.102038        -2.7766
 270   0.0000      -0.079940        -2.1753

MULLIKEN ATOMIC CHARGES
-----------------------
   0 C :    0.307314
   1 C :   -0.345741
   2 C :   -0.185191
   3 N :    0.156742
   4 C :   -0.189986
   5 N :    0.161672
   6 C :    0.024313
   7 C :   -0.027912
   8 C :   -0.059798
   9 C :    0.115074
  10 C :   -0.096095
  11 C :   -0.021955
  12 S :    0.144007
  13 C :   -0.048148
  14 C :    0.026698
  15 C :    0.152150
  16 O :   -0.138806
  17 C :   -0.046383
  18 C :   -0.052916
  19 C :   -0.012588
  20 C :    0.072807
  21 N :   -0.023878
  22 C :   -0.006557
  23 C :    0.053737
  24 C :   -0.004039
  25 S :   -0.094124
  26 C :    0.020318
  27 C :    0.024219
  28 N :   -0.018515
  29 C :    0.085160
  30 C :   -0.030272
  31 C :    0.056444
  32 O :   -0.167620
  33 C :    0.221662
  34 C :    0.022072
  35 N :   -0.046095
  36 C :   -0.078100
  37 C :    0.017260
  38 C :    0.213751
  39 C :   -0.154063
  40 O :   -0.189381
  41 C :    0.100204
  42 N :   -0.043952
  43 C :    0.028985
  44 C :   -0.000261
  45 C :    0.004751
  46 C :    0.069783
  47 N :   -0.016978
  48 C :    0.017329
  49 C :    0.012110
  50 C :   -0.013800
  51 S :   -0.095325
  52 C :   -0.001081
  53 C :    0.026111
  54 N :   -0.015914
  55 C :    0.078279
  56 C :   -0.007989
  57 C :    0.007176
  58 C :   -0.093632
  59 C :    0.272959
  60 C :   -0.339796
  61 C :   -0.176681
  62 N :    0.163687
  63 C :   -0.194390
  64 N :    0.179969
  65 C :    0.014303
  66 C :    0.005921
  67 C :    0.128357
  68 O :   -0.136378
  69 C :   -0.064594
  70 C :    0.106786
  71 C :   -0.091915
  72 C :   -0.023632
  73 S :    0.142543
  74 C :   -0.048204
  75 C :    0.026170
  76 H :   -0.010989
  77 H :   -0.007424
  78 H :    0.040974
  79 H :   -0.004790
  80 H :    0.030522
  81 H :    0.015118
  82 H :    0.027338
  83 H :   -0.020820
  84 H :   -0.008779
  85 H :   -0.004243
  86 H :    0.007855
  87 H :    0.014983
  88 H :    0.014278
  89 H :    0.024814
  90 H :   -0.009169
  91 H :   -0.003400
  92 H :    0.040497
  93 H :   -0.004902
Sum of atomic charges:   -0.0000000

LOEWDIN ATOMIC CHARGES
----------------------
   0 C :    0.075170
   1 C :   -0.130890
   2 C :   -0.017745
   3 N :   -0.046852
   4 C :   -0.020937
   5 N :   -0.045133
   6 C :   -0.021871
   7 C :   -0.051330
   8 C :    0.026189
   9 C :   -0.032872
  10 C :   -0.144218
  11 C :   -0.007758
  12 S :    0.432016
  13 C :   -0.146944
  14 C :   -0.057157
  15 C :    0.080116
  16 O :   -0.133422
  17 C :   -0.061667
  18 C :    0.057074
  19 C :   -0.054477
  20 C :    0.097843
  21 N :   -0.080168
  22 C :    0.041371
  23 C :    0.012135
  24 C :   -0.144553
  25 S :    0.097559
  26 C :   -0.008643
  27 C :    0.048235
  28 N :   -0.077549
  29 C :    0.116448
  30 C :   -0.062797
  31 C :    0.056642
  32 O :    0.011905
  33 C :    0.041147
  34 C :   -0.037778
  35 N :   -0.093594
  36 C :   -0.013619
  37 C :   -0.035112
  38 C :    0.041030
  39 C :   -0.060183
  40 O :   -0.001754
  41 C :    0.059574
  42 N :   -0.097216
  43 C :   -0.009550
  44 C :    0.006202
  45 C :   -0.031985
  46 C :    0.094732
  47 N :   -0.070008
  48 C :    0.047772
  49 C :   -0.029580
  50 C :   -0.140374
  51 S :    0.112220
  52 C :   -0.008079
  53 C :    0.042343
  54 N :   -0.065882
  55 C :    0.097604
  56 C :   -0.049647
  57 C :    0.048931
  58 C :   -0.056143
  59 C :    0.061818
  60 C :   -0.136716
  61 C :   -0.021711
  62 N :   -0.047258
  63 C :   -0.016682
  64 N :   -0.043905
  65 C :   -0.015722
  66 C :   -0.055451
  67 C :    0.086385
  68 O :   -0.135018
  69 C :    0.025913
  70 C :   -0.034973
  71 C :   -0.143237
  72 C :   -0.010291
  73 S :    0.431491
  74 C :   -0.148123
  75 C :   -0.056970
  76 H :    0.041240
  77 H :    0.040779
  78 H :    0.030452
  79 H :    0.036157
  80 H :    0.047912
  81 H :    0.029551
  82 H :    0.034871
  83 H :    0.043968
  84 H :    0.046256
  85 H :    0.015317
  86 H :    0.040268
  87 H :    0.029169
  88 H :    0.029602
  89 H :    0.049848
  90 H :    0.041498
  91 H :    0.040597
  92 H :    0.030163
  93 H :    0.036032

  Mayer bond orders larger than 0.100000
B(  0-C ,  1-C ) :   1.6487 B(  0-C ,  6-C ) :   1.0157 B(  0-C , 17-C ) :   1.0476
B(  1-C ,  2-C ) :   1.1399 B(  1-C ,  4-C ) :   1.1445 B(  2-C ,  3-N ) :   2.9729
B(  4-C ,  5-N ) :   2.9758 B(  6-C ,  7-C ) :   1.2653 B(  6-C , 11-C ) :   1.4006
B(  7-C ,  8-C ) :   1.4242 B(  7-C , 15-C ) :   0.9482 B(  8-C ,  9-C ) :   1.2485
B(  8-C , 76-H ) :   1.0158 B(  9-C , 10-C ) :   1.2947 B(  9-C , 14-C ) :   1.1729
B( 10-C , 11-C ) :   1.3325 B( 10-C , 12-S ) :   1.1005 B( 11-C , 77-H ) :   0.9814
B( 12-S , 13-C ) :   1.1264 B( 13-C , 14-C ) :   1.6280 B( 13-C , 78-H ) :   0.9684
B( 14-C , 79-H ) :   0.9992 B( 15-C , 16-O ) :   2.2285 B( 15-C , 17-C ) :   0.9174
B( 17-C , 18-C ) :   1.7010 B( 18-C , 19-C ) :   1.0716 B( 18-C , 80-H ) :   0.9317
B( 19-C , 20-C ) :   1.0214 B( 19-C , 23-C ) :   1.5494 B( 20-C , 21-N ) :   1.7116
B( 20-C , 81-H ) :   0.9939 B( 21-N , 22-C ) :   1.2719 B( 22-C , 23-C ) :   1.0705
B( 22-C , 27-C ) :   1.5124 B( 23-C , 24-C ) :   1.0167 B( 24-C , 25-S ) :   1.7265
B( 24-C , 26-C ) :   1.0169 B( 26-C , 27-C ) :   1.0508 B( 26-C , 30-C ) :   1.5549
B( 27-C , 28-N ) :   1.2727 B( 28-N , 29-C ) :   1.7149 B( 29-C , 30-C ) :   1.0352
B( 29-C , 82-H ) :   0.9927 B( 30-C , 31-C ) :   1.0170 B( 31-C , 32-O ) :   1.1960
B( 31-C , 35-N ) :   1.7815 B( 32-O , 33-C ) :   1.1171 B( 33-C , 34-C ) :   1.2316
B( 33-C , 39-C ) :   1.3151 B( 34-C , 35-N ) :   1.2912 B( 34-C , 36-C ) :   1.2769
B( 36-C , 37-C ) :   1.2878 B( 36-C , 39-C ) :   0.1473 B( 36-C , 83-H ) :   1.0503
B( 37-C , 38-C ) :   1.2351 B( 37-C , 42-N ) :   1.3023 B( 38-C , 39-C ) :   1.3128
B( 38-C , 40-O ) :   1.1216 B( 39-C , 84-H ) :   1.0477 B( 40-O , 41-C ) :   1.1322
B( 41-C , 42-N ) :   1.7377 B( 41-C , 43-C ) :   1.1140 B( 43-C , 44-C ) :   1.6686
B( 43-C , 85-H ) :   0.9242 B( 44-C , 45-C ) :   1.1065 B( 44-C , 86-H ) :   0.9739
B( 45-C , 46-C ) :   1.0106 B( 45-C , 49-C ) :   1.4876 B( 46-C , 47-N ) :   1.7317
B( 46-C , 87-H ) :   0.9909 B( 47-N , 48-C ) :   1.2632 B( 48-C , 49-C ) :   1.0707
B( 48-C , 53-C ) :   1.5225 B( 49-C , 50-C ) :   1.0414 B( 50-C , 51-S ) :   1.6657
B( 50-C , 52-C ) :   1.0355 B( 51-S , 85-H ) :   0.1041 B( 52-C , 53-C ) :   1.0599
B( 52-C , 56-C ) :   1.5227 B( 53-C , 54-N ) :   1.2746 B( 54-N , 55-C ) :   1.7288
B( 55-C , 56-C ) :   1.0145 B( 55-C , 88-H ) :   0.9941 B( 56-C , 57-C ) :   1.0559
B( 57-C , 58-C ) :   1.7316 B( 57-C , 89-H ) :   0.9383 B( 58-C , 59-C ) :   1.0179
B( 58-C , 67-C ) :   0.9226 B( 59-C , 60-C ) :   1.6500 B( 59-C , 65-C ) :   1.0178
B( 60-C , 61-C ) :   1.1275 B( 60-C , 63-C ) :   1.1716 B( 61-C , 62-N ) :   2.9964
B( 63-C , 64-N ) :   3.0059 B( 65-C , 66-C ) :   1.2676 B( 65-C , 72-C ) :   1.4163
B( 66-C , 67-C ) :   0.9272 B( 66-C , 69-C ) :   1.4182 B( 67-C , 68-O ) :   2.2743
B( 69-C , 70-C ) :   1.2583 B( 69-C , 90-H ) :   1.0154 B( 70-C , 71-C ) :   1.2990
B( 70-C , 75-C ) :   1.1712 B( 71-C , 72-C ) :   1.3204 B( 71-C , 73-S ) :   1.0991
B( 72-C , 91-H ) :   0.9865 B( 73-S , 74-C ) :   1.1256 B( 74-C , 75-C ) :   1.6303
B( 74-C , 92-H ) :   0.9683 B( 75-C , 93-H ) :   0.9998

-----------------------------------------------------------------------------
         ABSORPTION SPECTRUM VIA TRANSITION ELECTRIC DIPOLE MOMENTS
-----------------------------------------------------------------------------
State   Energy  Wavelength   fosc         T2         TX        TY        TZ
        (cm-1)    (nm)                  (au**2)     (au)      (au)      (au)
-----------------------------------------------------------------------------
   0   14500.0    689.7   0.003529410   0.08013  -0.04592  -0.13203   0.24615
   1   15741.6    635.3   0.040175345   0.84021   0.77116  -0.16182  -0.46834
   2   16526.0    605.1   0.007296985   0.14536  -0.20344   0.03685   0.32034
   3   16958.8    589.7   0.230716527   4.47877   1.32882  -0.67706  -1.50153
   4   17552.1    569.7   0.107553209   2.01730  -0.54005  -0.46320   1.22927
   5   17647.9    566.6   0.009317665   0.17382  -0.21595  -0.22562   0.27618
   6   19973.7    500.7   0.062145456   1.02430   0.76780  -0.65202  -0.09826
   7   20507.1    487.6   0.497158021   7.98117  -2.01816   0.72390   1.83960
   8   21113.4    473.6   0.164936947   2.57178   0.91318  -0.52422  -1.20957
   9   21509.4    464.9   0.047717155   0.73034   0.28226  -0.75969  -0.27119
  10   22501.7    444.4   0.078004781   1.14125  -0.11447   0.92843  -0.51592
  11   23224.1    430.6   0.032980117   0.46751   0.00085  -0.34353   0.59118
  12   23496.0    425.6   0.045429442   0.63653  -0.31558   0.49625  -0.53914
  13   23811.3    420.0   0.153696589   2.12499  -0.88016  -0.77081   0.86957
  14   24094.1    415.0   0.016588682   0.22666  -0.33305   0.32431  -0.10275
  15   24553.2    407.3   0.089461118   1.19950   0.31536  -0.31813   0.99942
  16   24641.5    405.8   0.167071572   2.23209  -0.23738  -1.27189   0.74701
  17   25281.3    395.5   0.082246141   1.07101  -0.69080  -0.10036   0.76402
  18   25535.2    391.6   0.096505713   1.24420   0.60417   0.80679  -0.47777
  19   25698.9    389.1   0.040826586   0.52300  -0.06934   0.71760  -0.05691
  20   25731.7    388.6   0.007168224   0.09171   0.22979  -0.19388   0.03630
  21   25844.8    386.9   0.034166209   0.43521   0.19287  -0.60438   0.18092
  22   25970.7    385.0   0.017035645   0.21595  -0.15232   0.12774   0.42004
  23   26721.9    374.2   0.015509413   0.19107  -0.08645   0.30453   0.30144
  24   26750.7    373.8   0.043215545   0.53184   0.52113  -0.50195  -0.09114
  25   27391.5    365.1   0.034573326   0.41553  -0.09188   0.52215  -0.36667
  26   27838.5    359.2   0.126130975   1.49160  -0.41846  -0.90914   0.69996
  27   27896.8    358.5   0.039180160   0.46237   0.67018  -0.03228   0.11038
  28   28006.9    357.1   0.300473467   3.53196  -0.34896   0.97452  -1.56860
  29   28089.7    356.0   0.027244189   0.31930  -0.34700   0.00240  -0.44597
  30   28498.4    350.9   0.020389564   0.23554   0.02423   0.37686  -0.30485
  31   28623.9    349.4   0.023330313   0.26833  -0.16540  -0.45226   0.19088
  32   28681.5    348.7   0.055698916   0.63932   0.74402   0.02950   0.29135
  33   29233.0    342.1   0.014746394   0.16607   0.19173  -0.30010  -0.19811
  34   29389.6    340.3   0.032911376   0.36866  -0.16101  -0.56702  -0.14570
  35   29495.0    339.0   0.015313358   0.17092  -0.29364  -0.16947   0.23660
  36   29601.2    337.8   0.065803465   0.73184   0.69355   0.26160   0.42708
  37   30055.9    332.7   0.127999041   1.40202  -0.37002   1.03253  -0.44607
  38   30268.5    330.4   0.046419838   0.50488  -0.60916   0.33023   0.15734
  39   30684.6    325.9   0.003715253   0.03986  -0.18809   0.06665   0.00642
  40   30843.5    324.2   0.020420351   0.21796   0.24852   0.38871   0.07145
  41   31012.4    322.5   0.084088040   0.89264  -0.70456   0.34853  -0.52417
  42   31205.1    320.5   0.028545225   0.30115   0.50683  -0.20285   0.05589
  43   31262.3    319.9   0.028609465   0.30128  -0.45186   0.01792  -0.31109
  44   31348.7    319.0   0.008824462   0.09267  -0.25134  -0.16366   0.05209
  45   31610.8    316.3   0.141190247   1.47043   0.81826  -0.19975   0.87235
  46   31841.2    314.1   0.001559849   0.01613   0.07564   0.05129   0.08818
  47   31896.1    313.5   0.427519464   4.41260   0.06166  -1.08729   1.79627
  48   32189.2    310.7   0.331612593   3.39154  -1.56939  -0.96360  -0.00536
  49   32586.5    306.9   0.020277569   0.20486  -0.13521  -0.08867   0.42275
  50   32688.4    305.9   0.024945484   0.25123   0.15286   0.35172  -0.32273
  51   32788.0    305.0   0.008649502   0.08685   0.14987   0.14447  -0.20860
  52   33047.7    302.6   0.011698320   0.11654   0.19540   0.20138  -0.19442
  53   33162.4    301.5   0.006710809   0.06662   0.23793  -0.09533   0.03040
  54   33505.6    298.5   0.046019947   0.45217  -0.08421  -0.08733   0.66140
  55   33625.4    297.4   0.005641157   0.05523   0.03380  -0.18045   0.14671
  56   33836.9    295.5   0.008969945   0.08727   0.19307  -0.14280  -0.17207
  57   33946.7    294.6   0.000642782   0.00623   0.06230   0.04359   0.02126
  58   33980.3    294.3   0.142321178   1.37885   0.27724  -0.96505   0.60882
  59   33995.3    294.2   0.043607291   0.42229   0.51879  -0.16976   0.35262
  60   34171.1    292.6   0.003325675   0.03204   0.15891   0.05364  -0.06254
  61   34261.8    291.9   0.031619762   0.30383  -0.34220   0.42712   0.06546
  62   34312.8    291.4   0.139786614   1.34117   0.96187   0.02049  -0.64463
  63   34508.3    289.8   0.049312788   0.47045   0.60030  -0.31074   0.11633
  64   34817.9    287.2   0.019925060   0.18840   0.37946   0.03643  -0.20755
  65   34885.2    286.7   0.085070491   0.80281   0.57560  -0.63158  -0.26945
  66   34976.5    285.9   0.012735270   0.11987  -0.12099  -0.02592  -0.32335
  67   35065.4    285.2   0.021422511   0.20113  -0.06354   0.36377   0.25448
  68   35168.6    284.3   0.041104887   0.38478   0.41705  -0.45909  -0.00945
  69   35200.0    284.1   0.021956018   0.20535  -0.35669   0.26283  -0.09508
  70   35421.0    282.3   0.109630476   1.01893  -0.60670   0.48310   0.64611
  71   35545.8    281.3   0.201220923   1.86363   1.21721   0.45053  -0.42316
  72   35876.9    278.7   0.000812080   0.00745   0.00601   0.03124   0.08025
  73   35948.1    278.2   0.056623436   0.51856   0.69826  -0.02508  -0.17422
  74   36059.4    277.3   0.040443772   0.36924  -0.43225  -0.02336   0.42644
  75   36253.0    275.8   0.137939820   1.25263   0.71909  -0.80620   0.29253
  76   36295.4    275.5   0.000319298   0.00290  -0.04910   0.01731  -0.01362
  77   36497.2    274.0   0.066216937   0.59729  -0.49343   0.00199   0.59482
  78   36607.2    273.2   0.019024100   0.17109  -0.22561   0.19517   0.28652
  79   36777.3    271.9   0.022826309   0.20433  -0.42748  -0.14690   0.00389
  80   36929.8    270.8   0.201352607   1.79496  -0.58350   0.67428  -0.99992
  81   37014.7    270.2   0.008995899   0.08001   0.28012  -0.01262   0.03716
  82   37075.3    269.7   0.258452321   2.29494   0.77297   1.12611  -0.65522
  83   37152.9    269.2   0.153969422   1.36432  -0.15244  -0.89347   0.73674
  84   37470.5    266.9   0.041039478   0.36057  -0.21112  -0.14609   0.54282
  85   37661.1    265.5   0.094976181   0.83023  -0.31015   0.78112   0.35197
  86   37946.0    263.5   0.135898659   1.17903   0.42811   0.47128  -0.87957
  87   38210.9    261.7   0.121455333   1.04642  -0.32128  -0.42104   0.87517
  88   38488.8    259.8   0.036554516   0.31267  -0.39582  -0.11684   0.37728
  89   38544.9    259.4   0.395678853   3.37950  -1.19382  -0.43705   1.32788
  90   38602.4    259.1   0.164117008   1.39963   0.47052  -0.71961   0.81266
  91   38741.4    258.1   0.011002706   0.09350  -0.19189  -0.08458   0.22254
  92   39220.4    255.0   0.106882485   0.89716   0.72703   0.04561  -0.60540
  93   39239.7    254.8   0.048093286   0.40349  -0.48634  -0.02652   0.40775
  94   39400.3    253.8   0.015416115   0.12881   0.24071   0.09479  -0.24876
  95   39616.1    252.4   0.061916094   0.51453  -0.59592   0.39490   0.05883
  96   39744.6    251.6   0.062016229   0.51369  -0.16321   0.00956   0.69783
  97   39848.1    251.0   0.005632797   0.04654   0.09008  -0.04891  -0.18981
  98   39924.3    250.5   0.015750778   0.12988  -0.12649  -0.07571   0.32886
  99   40048.8    249.7   0.021993195   0.18079   0.17030   0.32737  -0.21124
 100   40196.9    248.8   0.457168259   3.74420  -1.54915   1.09154  -0.39101

FINAL SINGLE POINT ENERGY     -4657.607877194471

DIPOLE MOMENT
-------------
                                X             Y             Z
Electronic contribution:     11.11191      -1.17664       1.25721
Nuclear contribution   :    -13.80759       1.06647      -3.48917
                        -----------------------------------------
Total Dipole Moment    :     -2.69568      -0.11018      -2.23196
                        -----------------------------------------
Magnitude (a.u.)       :      3.50149
Magnitude (Debye)      :      8.90009

Rotational constants in cm-1:     0.001108     0.000329     0.000279
Rotational constants in MHz :    33.213534     9.855338     8.375480

                             ****ORCA TERMINATED NORMALLY****
TOTAL RUN TIME: 0 days 0 hours 18 minutes 38 seconds 831 msec
