                         Program Version 4.2.0 -  RELEASE  -
|  1> # ORCA input file
|  2> # SCF done       -181.281165966869          0.000553439190
|  3> ! CAM-B3LYP def2-SVP def2/J RIJCOSX Grid4 TightSCF
|  4> %maxcore 5000
|  5> %tddft
|  6>     Mode sTDDFT
|  7>     Ethresh 5.0
|  8>     maxcore 5000
|  9> end
| 10>
| 11> %pal
| 12>   nprocs 6
| 13>   end
| 14> * xyz 0 1
| 15>    C      -12.36736         5.89606        -3.06508
| 16>    C      -12.64442         5.72563        -4.39359
| 17>    C      -13.94437         5.78406        -4.94002
| 18>    N      -14.97617         5.82756        -5.43995
| 19>    C      -11.66484         5.52875        -5.38967
| 20>    N      -10.90815         5.37240        -6.23849
| 21>    C      -13.32826         6.15451        -2.00553
| 22>    C      -12.63102         6.53027        -0.82507
| 23>    C      -13.28007         6.81743         0.35382
| 24>    C      -14.67206         6.70387         0.37743
| 25>    C      -15.35738         6.32108        -0.80417
| 26>    C      -14.70703         6.05194        -2.00117
| 27>    S      -17.06742         6.23165        -0.53435
| 28>    C      -16.86091         6.69480         1.11831
| 29>    C      -15.57132         6.91164         1.46042
| 30>    C      -11.18663         6.52265        -1.09748
| 31>    O      -10.30063         7.02978        -0.44625
| 32>    C      -11.05054         5.86711        -2.44010
| 33>    C       -9.92731         5.28414        -2.91919
| 34>    C       -8.77167         5.00703        -2.12711
| 35>    C       -7.38099         4.93619        -2.59624
| 36>    N       -6.51687         4.64254        -1.66972
| 37>    C       -7.24001         4.47049        -0.52670
| 38>    C       -8.68004         4.67660        -0.79952
| 39>    C       -9.44523         4.42318         0.39036
| 40>    S      -11.06053         4.12277         0.49670
| 41>    C       -8.45060         4.27196         1.41881
| 42>    C       -7.10285         4.20983         0.81026
| 43>    N       -6.16470         3.97256         1.77149
| 44>    C       -6.81487         3.90445         2.89656
| 45>    C       -8.25921         4.12151         2.76820
| 46>    C       -9.22950         4.26498         3.81498
| 47>    C      -10.33336         5.08101         3.62642
| 48>    C      -11.31775         5.21888         4.59908
| 49>    F      -12.28835         6.11202         4.35505
| 50>    C      -11.31648         4.53968         5.81298
| 51>    C      -10.16073         3.75422         6.05906
| 52>    C       -9.11823         3.62301         5.07360
| 53>    N       -8.13280         2.83416         5.49730
| 54>    S       -8.47766         2.31321         6.97586
| 55>    N       -9.89192         3.05194         7.15836
| 56>    C      -12.39398         4.63667         6.75478
| 57>    C      -12.25242         4.59164         8.21700
| 58>    N      -13.36210         4.77806         8.86617
| 59>    C      -14.32636         4.93038         7.91560
| 60>    C      -13.73843         4.82978         6.55739
| 61>    C      -14.78687         4.89691         5.56839
| 62>    S      -14.73178         4.61808         3.95024
| 63>    C      -15.97442         5.16104         6.34037
| 64>    C      -15.66993         5.14831         7.78015
| 65>    N      -16.80603         5.36552         8.50532
| 66>    C      -17.76543         5.46951         7.63784
| 67>    C      -17.32963         5.34917         6.23571
| 68>    C      -18.11438         5.49933         5.06041
| 69>    C      -19.42888         5.21983         4.89115
| 70>    C      -20.37357         4.49666         5.72218
| 71>    C      -20.06283         3.47922         6.58443
| 72>    C      -21.02355         2.76250         7.32834
| 73>    N      -21.77263         2.16847         7.96255
| 74>    C      -18.75843         2.96198         6.73827
| 75>    N      -17.72982         2.46320         6.84035
| 76>    C      -21.70876         4.88362         5.28910
| 77>    C      -21.59987         5.63456         4.08691
| 78>    C      -20.18099         5.80751         3.74470
| 79>    O      -19.70053         6.35888         2.78024
| 80>    C      -22.70207         6.10296         3.41110
| 81>    C      -23.96307         5.82970         3.94831
| 82>    C      -24.05924         5.09230         5.15518
| 83>    C      -22.94741         4.60978         5.83558
| 84>    S      -25.71199         4.88554         5.63545
| 85>    C      -26.25116         5.76335         4.24662
| 86>    C      -25.24613         6.19693         3.45451
| 87>    H      -12.73196         7.10070         1.23879
| 88>    H      -15.26873         5.76004        -2.87328
| 89>    H      -17.74118         6.77179         1.72823
| 90>    H      -15.24396         7.20207         2.44248
| 91>    H       -9.88903         4.93855        -3.94498
| 92>    H       -7.06340         5.12554        -3.60705
| 93>    H       -6.30677         3.71887         3.82595
| 94>    H      -10.43915         5.64754         2.71483
| 95>    H      -11.32194         4.43276         8.73158
| 96>    H      -18.77168         5.67833         7.95837
| 97>    H      -17.60649         5.94176         4.20818
| 98>    H      -22.59304         6.66208         2.49482
| 99>    H      -23.06595         4.05670         6.75288
|100>    H      -27.30541         5.90358         4.10685
|101>    H      -25.39171         6.75833         2.54959
|102> *
|103>
|104>                          ****END OF INPUT****

CARTESIAN COORDINATES (ANGSTROEM)
---------------------------------
  C    -12.367360    5.896060   -3.065080
  C    -12.644420    5.725630   -4.393590
  C    -13.944370    5.784060   -4.940020
  N    -14.976170    5.827560   -5.439950
  C    -11.664840    5.528750   -5.389670
  N    -10.908150    5.372400   -6.238490
  C    -13.328260    6.154510   -2.005530
  C    -12.631020    6.530270   -0.825070
  C    -13.280070    6.817430    0.353820
  C    -14.672060    6.703870    0.377430
  C    -15.357380    6.321080   -0.804170
  C    -14.707030    6.051940   -2.001170
  S    -17.067420    6.231650   -0.534350
  C    -16.860910    6.694800    1.118310
  C    -15.571320    6.911640    1.460420
  C    -11.186630    6.522650   -1.097480
  O    -10.300630    7.029780   -0.446250
  C    -11.050540    5.867110   -2.440100
  C     -9.927310    5.284140   -2.919190
  C     -8.771670    5.007030   -2.127110
  C     -7.380990    4.936190   -2.596240
  N     -6.516870    4.642540   -1.669720
  C     -7.240010    4.470490   -0.526700
  C     -8.680040    4.676600   -0.799520
  C     -9.445230    4.423180    0.390360
  S    -11.060530    4.122770    0.496700
  C     -8.450600    4.271960    1.418810
  C     -7.102850    4.209830    0.810260
  N     -6.164700    3.972560    1.771490
  C     -6.814870    3.904450    2.896560
  C     -8.259210    4.121510    2.768200
  C     -9.229500    4.264980    3.814980
  C    -10.333360    5.081010    3.626420
  C    -11.317750    5.218880    4.599080
  F    -12.288350    6.112020    4.355050
  C    -11.316480    4.539680    5.812980
  C    -10.160730    3.754220    6.059060
  C     -9.118230    3.623010    5.073600
  N     -8.132800    2.834160    5.497300
  S     -8.477660    2.313210    6.975860
  N     -9.891920    3.051940    7.158360
  C    -12.393980    4.636670    6.754780
  C    -12.252420    4.591640    8.217000
  N    -13.362100    4.778060    8.866170
  C    -14.326360    4.930380    7.915600
  C    -13.738430    4.829780    6.557390
  C    -14.786870    4.896910    5.568390
  S    -14.731780    4.618080    3.950240
  C    -15.974420    5.161040    6.340370
  C    -15.669930    5.148310    7.780150
  N    -16.806030    5.365520    8.505320
  C    -17.765430    5.469510    7.637840
  C    -17.329630    5.349170    6.235710
  C    -18.114380    5.499330    5.060410
  C    -19.428880    5.219830    4.891150
  C    -20.373570    4.496660    5.722180
  C    -20.062830    3.479220    6.584430
  C    -21.023550    2.762500    7.328340
  N    -21.772630    2.168470    7.962550
  C    -18.758430    2.961980    6.738270
  N    -17.729820    2.463200    6.840350
  C    -21.708760    4.883620    5.289100
  C    -21.599870    5.634560    4.086910
  C    -20.180990    5.807510    3.744700
  O    -19.700530    6.358880    2.780240
  C    -22.702070    6.102960    3.411100
  C    -23.963070    5.829700    3.948310
  C    -24.059240    5.092300    5.155180
  C    -22.947410    4.609780    5.835580
  S    -25.711990    4.885540    5.635450
  C    -26.251160    5.763350    4.246620
  C    -25.246130    6.196930    3.454510
  H    -12.731960    7.100700    1.238790
  H    -15.268730    5.760040   -2.873280
  H    -17.741180    6.771790    1.728230
  H    -15.243960    7.202070    2.442480
  H     -9.889030    4.938550   -3.944980
  H     -7.063400    5.125540   -3.607050
  H     -6.306770    3.718870    3.825950
  H    -10.439150    5.647540    2.714830
  H    -11.321940    4.432760    8.731580
  H    -18.771680    5.678330    7.958370
  H    -17.606490    5.941760    4.208180
  H    -22.593040    6.662080    2.494820
  H    -23.065950    4.056700    6.752880
  H    -27.305410    5.903580    4.106850
  H    -25.391710    6.758330    2.549590

 Total Charge           Charge          ....    0
 Multiplicity           Mult            ....    1
 Number of Electrons    NEL             ....  514
 Basis Dimension        Dim             .... 1103

ORBITAL ENERGIES
----------------

  NO   OCC          E(Eh)            E(eV)
   0   2.0000     -89.044136     -2423.0141
   1   2.0000     -88.978113     -2421.2176
   2   2.0000     -88.960866     -2420.7482
   3   2.0000     -88.918194     -2419.5871
   4   2.0000     -88.915332     -2419.5092
   5   2.0000     -24.808530      -675.0744
   6   2.0000     -19.235177      -523.4158
   7   2.0000     -19.217438      -522.9331
   8   2.0000     -14.460437      -393.4885
   9   2.0000     -14.458003      -393.4223
  10   2.0000     -14.428638      -392.6232
  11   2.0000     -14.427039      -392.5797
  12   2.0000     -14.425677      -392.5426
  13   2.0000     -14.425225      -392.5303
  14   2.0000     -14.424928      -392.5223
  15   2.0000     -14.423887      -392.4939
  16   2.0000     -14.418458      -392.3462
  17   2.0000     -14.416400      -392.2902
  18   2.0000     -10.392271      -282.7881
  19   2.0000     -10.384694      -282.5819
  20   2.0000     -10.372099      -282.2392
  21   2.0000     -10.359803      -281.9046
  22   2.0000     -10.356878      -281.8250
  23   2.0000     -10.356168      -281.8057
  24   2.0000     -10.353358      -281.7292
  25   2.0000     -10.349329      -281.6196
  26   2.0000     -10.347291      -281.5641
  27   2.0000     -10.346515      -281.5430
  28   2.0000     -10.346360      -281.5388
  29   2.0000     -10.346173      -281.5337
  30   2.0000     -10.345452      -281.5141
  31   2.0000     -10.345376      -281.5120
  32   2.0000     -10.345316      -281.5104
  33   2.0000     -10.345293      -281.5097
  34   2.0000     -10.344695      -281.4935
  35   2.0000     -10.344306      -281.4829
  36   2.0000     -10.341862      -281.4164
  37   2.0000     -10.333638      -281.1926
  38   2.0000     -10.331841      -281.1437
  39   2.0000     -10.330243      -281.1002
  40   2.0000     -10.328292      -281.0471
  41   2.0000     -10.327804      -281.0338
  42   2.0000     -10.324934      -280.9557
  43   2.0000     -10.322972      -280.9024
  44   2.0000     -10.322060      -280.8775
  45   2.0000     -10.321347      -280.8581
  46   2.0000     -10.320920      -280.8465
  47   2.0000     -10.320578      -280.8372
  48   2.0000     -10.319952      -280.8202
  49   2.0000     -10.318774      -280.7881
  50   2.0000     -10.318360      -280.7769
  51   2.0000     -10.317705      -280.7590
  52   2.0000     -10.316701      -280.7317
  53   2.0000     -10.315610      -280.7020
  54   2.0000     -10.315288      -280.6932
  55   2.0000     -10.314742      -280.6784
  56   2.0000     -10.314239      -280.6647
  57   2.0000     -10.313348      -280.6405
  58   2.0000     -10.313185      -280.6360
  59   2.0000     -10.312506      -280.6176
  60   2.0000     -10.311934      -280.6020
  61   2.0000     -10.311151      -280.5807
  62   2.0000     -10.310240      -280.5559
  63   2.0000     -10.306814      -280.4627
  64   2.0000     -10.305822      -280.4357
  65   2.0000     -10.303785      -280.3802
  66   2.0000     -10.302577      -280.3474
  67   2.0000     -10.299626      -280.2671
  68   2.0000     -10.299201      -280.2555
  69   2.0000     -10.298056      -280.2244
  70   2.0000     -10.293054      -280.0882
  71   2.0000     -10.281294      -279.7682
  72   2.0000      -8.135848      -221.3877
  73   2.0000      -8.074387      -219.7152
  74   2.0000      -8.057181      -219.2470
  75   2.0000      -8.013352      -218.0544
  76   2.0000      -8.010464      -217.9758
  77   2.0000      -6.107094      -166.1825
  78   2.0000      -6.099270      -165.9696
  79   2.0000      -6.098223      -165.9411
  80   2.0000      -6.043885      -164.4625
  81   2.0000      -6.039570      -164.3451
  82   2.0000      -6.036075      -164.2499
  83   2.0000      -6.026623      -163.9928
  84   2.0000      -6.022352      -163.8765
  85   2.0000      -6.018940      -163.7837
  86   2.0000      -5.982103      -162.7813
  87   2.0000      -5.981676      -162.7697
  88   2.0000      -5.979547      -162.7118
  89   2.0000      -5.979066      -162.6986
  90   2.0000      -5.972915      -162.5313
  91   2.0000      -5.969439      -162.4367
  92   2.0000      -1.323679       -36.0191
  93   2.0000      -1.149572       -31.2814
  94   2.0000      -1.145959       -31.1831
  95   2.0000      -1.134217       -30.8636
  96   2.0000      -1.095574       -29.8121
  97   2.0000      -1.095499       -29.8100
  98   2.0000      -1.076155       -29.2837
  99   2.0000      -1.075794       -29.2738
 100   2.0000      -1.033835       -28.1321
 101   2.0000      -1.021397       -27.7936
 102   2.0000      -1.020360       -27.7654
 103   2.0000      -1.006850       -27.3978
 104   2.0000      -1.006246       -27.3813
 105   2.0000      -1.001650       -27.2563
 106   2.0000      -0.998851       -27.1801
 107   2.0000      -0.995917       -27.1003
 108   2.0000      -0.991763       -26.9872
 109   2.0000      -0.985328       -26.8122
 110   2.0000      -0.977718       -26.6051
 111   2.0000      -0.976091       -26.5608
 112   2.0000      -0.947013       -25.7695
 113   2.0000      -0.934395       -25.4262
 114   2.0000      -0.926017       -25.1982
 115   2.0000      -0.924796       -25.1650
 116   2.0000      -0.918456       -24.9925
 117   2.0000      -0.899542       -24.4778
 118   2.0000      -0.894354       -24.3366
 119   2.0000      -0.889834       -24.2136
 120   2.0000      -0.886968       -24.1356
 121   2.0000      -0.879876       -23.9426
 122   2.0000      -0.879558       -23.9340
 123   2.0000      -0.869811       -23.6688
 124   2.0000      -0.866300       -23.5732
 125   2.0000      -0.849977       -23.1291
 126   2.0000      -0.840310       -22.8660
 127   2.0000      -0.835920       -22.7465
 128   2.0000      -0.834966       -22.7206
 129   2.0000      -0.820072       -22.3153
 130   2.0000      -0.800061       -21.7708
 131   2.0000      -0.796198       -21.6657
 132   2.0000      -0.786299       -21.3963
 133   2.0000      -0.778291       -21.1784
 134   2.0000      -0.770087       -20.9551
 135   2.0000      -0.766598       -20.8602
 136   2.0000      -0.757191       -20.6042
 137   2.0000      -0.751132       -20.4394
 138   2.0000      -0.749951       -20.4072
 139   2.0000      -0.736127       -20.0310
 140   2.0000      -0.725080       -19.7304
 141   2.0000      -0.719590       -19.5810
 142   2.0000      -0.714940       -19.4545
 143   2.0000      -0.710027       -19.3208
 144   2.0000      -0.707666       -19.2566
 145   2.0000      -0.701230       -19.0814
 146   2.0000      -0.693542       -18.8722
 147   2.0000      -0.689890       -18.7729
 148   2.0000      -0.679718       -18.4961
 149   2.0000      -0.674991       -18.3674
 150   2.0000      -0.665476       -18.1085
 151   2.0000      -0.663680       -18.0596
 152   2.0000      -0.659744       -17.9525
 153   2.0000      -0.654297       -17.8043
 154   2.0000      -0.644756       -17.5447
 155   2.0000      -0.640653       -17.4331
 156   2.0000      -0.635506       -17.2930
 157   2.0000      -0.633761       -17.2455
 158   2.0000      -0.631778       -17.1916
 159   2.0000      -0.620605       -16.8875
 160   2.0000      -0.616112       -16.7653
 161   2.0000      -0.612189       -16.6585
 162   2.0000      -0.607357       -16.5270
 163   2.0000      -0.601302       -16.3622
 164   2.0000      -0.592199       -16.1146
 165   2.0000      -0.591283       -16.0896
 166   2.0000      -0.588284       -16.0080
 167   2.0000      -0.583790       -15.8857
 168   2.0000      -0.579803       -15.7773
 169   2.0000      -0.579126       -15.7588
 170   2.0000      -0.569682       -15.5018
 171   2.0000      -0.566815       -15.4238
 172   2.0000      -0.563013       -15.3204
 173   2.0000      -0.561010       -15.2658
 174   2.0000      -0.558902       -15.2085
 175   2.0000      -0.556798       -15.1512
 176   2.0000      -0.554858       -15.0985
 177   2.0000      -0.551615       -15.0102
 178   2.0000      -0.549628       -14.9561
 179   2.0000      -0.546267       -14.8647
 180   2.0000      -0.541281       -14.7290
 181   2.0000      -0.539525       -14.6812
 182   2.0000      -0.534899       -14.5553
 183   2.0000      -0.534286       -14.5387
 184   2.0000      -0.529773       -14.4159
 185   2.0000      -0.525919       -14.3110
 186   2.0000      -0.524031       -14.2596
 187   2.0000      -0.521000       -14.1771
 188   2.0000      -0.516038       -14.0421
 189   2.0000      -0.511507       -13.9188
 190   2.0000      -0.510249       -13.8846
 191   2.0000      -0.508075       -13.8254
 192   2.0000      -0.505952       -13.7677
 193   2.0000      -0.505162       -13.7462
 194   2.0000      -0.502432       -13.6719
 195   2.0000      -0.501485       -13.6461
 196   2.0000      -0.499099       -13.5812
 197   2.0000      -0.498767       -13.5721
 198   2.0000      -0.497165       -13.5285
 199   2.0000      -0.494421       -13.4539
 200   2.0000      -0.491743       -13.3810
 201   2.0000      -0.490328       -13.3425
 202   2.0000      -0.486251       -13.2316
 203   2.0000      -0.483819       -13.1654
 204   2.0000      -0.480567       -13.0769
 205   2.0000      -0.476362       -12.9625
 206   2.0000      -0.469110       -12.7651
 207   2.0000      -0.465644       -12.6708
 208   2.0000      -0.460338       -12.5264
 209   2.0000      -0.458532       -12.4773
 210   2.0000      -0.456095       -12.4110
 211   2.0000      -0.454776       -12.3751
 212   2.0000      -0.453941       -12.3524
 213   2.0000      -0.450814       -12.2673
 214   2.0000      -0.447676       -12.1819
 215   2.0000      -0.447121       -12.1668
 216   2.0000      -0.445771       -12.1300
 217   2.0000      -0.445280       -12.1167
 218   2.0000      -0.442981       -12.0541
 219   2.0000      -0.441045       -12.0015
 220   2.0000      -0.439603       -11.9622
 221   2.0000      -0.435207       -11.8426
 222   2.0000      -0.431346       -11.7375
 223   2.0000      -0.429946       -11.6994
 224   2.0000      -0.429868       -11.6973
 225   2.0000      -0.427526       -11.6336
 226   2.0000      -0.423256       -11.5174
 227   2.0000      -0.422163       -11.4876
 228   2.0000      -0.421674       -11.4743
 229   2.0000      -0.415650       -11.3104
 230   2.0000      -0.412720       -11.2307
 231   2.0000      -0.407214       -11.0809
 232   2.0000      -0.392436       -10.6787
 233   2.0000      -0.391540       -10.6543
 234   2.0000      -0.381326       -10.3764
 235   2.0000      -0.378858       -10.3093
 236   2.0000      -0.376599       -10.2478
 237   2.0000      -0.366587        -9.9754
 238   2.0000      -0.364673        -9.9233
 239   2.0000      -0.363536        -9.8923
 240   2.0000      -0.361293        -9.8313
 241   2.0000      -0.360806        -9.8180
 242   2.0000      -0.352952        -9.6043
 243   2.0000      -0.351604        -9.5676
 244   2.0000      -0.345275        -9.3954
 245   2.0000      -0.337496        -9.1837
 246   2.0000      -0.328384        -8.9358
 247   2.0000      -0.326646        -8.8885
 248   2.0000      -0.325207        -8.8493
 249   2.0000      -0.315418        -8.5829
 250   2.0000      -0.313362        -8.5270
 251   2.0000      -0.308828        -8.4037
 252   2.0000      -0.305783        -8.3208
 253   2.0000      -0.300600        -8.1797
 254   2.0000      -0.295740        -8.0475
 255   2.0000      -0.290598        -7.9076
 256   2.0000      -0.287245        -7.8163
 257   0.0000      -0.129928        -3.5355
 258   0.0000      -0.122743        -3.3400
 259   0.0000      -0.111329        -3.0294
 260   0.0000      -0.098687        -2.6854
 261   0.0000      -0.082709        -2.2506

MULLIKEN ATOMIC CHARGES
-----------------------
   0 C :    0.283346
   1 C :   -0.334795
   2 C :   -0.187632
   3 N :    0.155036
   4 C :   -0.183728
   5 N :    0.153367
   6 C :    0.024481
   7 C :    0.026004
   8 C :   -0.066034
   9 C :    0.104725
  10 C :   -0.090550
  11 C :   -0.026377
  12 S :    0.142872
  13 C :   -0.059962
  14 C :    0.037549
  15 C :    0.094929
  16 O :   -0.149977
  17 C :   -0.037264
  18 C :   -0.034216
  19 C :   -0.004802
  20 C :    0.078754
  21 N :   -0.028472
  22 C :    0.014151
  23 C :    0.041204
  24 C :   -0.016206
  25 S :   -0.093810
  26 C :   -0.016629
  27 C :    0.021033
  28 N :   -0.027708
  29 C :    0.085284
  30 C :   -0.033017
  31 C :    0.077094
  32 C :   -0.077468
  33 C :    0.229072
  34 F :   -0.166246
  35 C :    0.025706
  36 C :   -0.004906
  37 C :    0.023325
  38 N :   -0.269351
  39 S :    0.529377
  40 N :   -0.283077
  41 C :   -0.052237
  42 C :    0.091131
  43 N :   -0.022664
  44 C :   -0.005259
  45 C :    0.002562
  46 C :   -0.015238
  47 S :   -0.092435
  48 C :    0.048155
  49 C :    0.045364
  50 N :   -0.013294
  51 C :    0.066898
  52 C :   -0.062600
  53 C :    0.024344
  54 C :   -0.112023
  55 C :    0.263015
  56 C :   -0.330032
  57 C :   -0.178794
  58 N :    0.166371
  59 C :   -0.196671
  60 N :    0.178830
  61 C :    0.008676
  62 C :   -0.004342
  63 C :    0.157821
  64 O :   -0.144267
  65 C :   -0.058324
  66 C :    0.105548
  67 C :   -0.092276
  68 C :   -0.020640
  69 S :    0.149798
  70 C :   -0.049606
  71 C :    0.030895
  72 H :   -0.018680
  73 H :   -0.004474
  74 H :    0.043358
  75 H :   -0.013732
  76 H :    0.024936
  77 H :    0.020429
  78 H :    0.018459
  79 H :   -0.003534
  80 H :    0.017519
  81 H :    0.019426
  82 H :    0.020114
  83 H :   -0.007239
  84 H :   -0.001645
  85 H :    0.044017
  86 H :   -0.002742
Sum of atomic charges:   -0.0000000

LOEWDIN ATOMIC CHARGES
----------------------
   0 C :    0.078495
   1 C :   -0.136304
   2 C :   -0.019579
   3 N :   -0.047817
   4 C :   -0.019711
   5 N :   -0.050560
   6 C :   -0.022378
   7 C :   -0.053152
   8 C :    0.019117
   9 C :   -0.030046
  10 C :   -0.144687
  11 C :   -0.007479
  12 S :    0.434215
  13 C :   -0.139549
  14 C :   -0.065096
  15 C :    0.069019
  16 O :   -0.148300
  17 C :   -0.048722
  18 C :    0.044122
  19 C :   -0.047629
  20 C :    0.101929
  21 N :   -0.079968
  22 C :    0.046848
  23 C :   -0.000639
  24 C :   -0.135331
  25 S :    0.113503
  26 C :   -0.018501
  27 C :    0.049248
  28 N :   -0.080552
  29 C :    0.105245
  30 C :   -0.034455
  31 C :   -0.013735
  32 C :   -0.007896
  33 C :    0.108444
  34 F :   -0.042402
  35 C :   -0.063325
  36 C :   -0.037014
  37 C :   -0.048967
  38 N :   -0.282255
  39 S :    0.659584
  40 N :   -0.288180
  41 C :   -0.029072
  42 C :    0.108149
  43 N :   -0.079219
  44 C :    0.053282
  45 C :   -0.021724
  46 C :   -0.150130
  47 S :    0.096457
  48 C :    0.007104
  49 C :    0.039685
  50 N :   -0.071545
  51 C :    0.089815
  52 C :   -0.062839
  53 C :    0.072868
  54 C :   -0.076565
  55 C :    0.064961
  56 C :   -0.129890
  57 C :   -0.019920
  58 N :   -0.039450
  59 C :   -0.021245
  60 N :   -0.034295
  61 C :   -0.020171
  62 C :   -0.057864
  63 C :    0.095056
  64 O :   -0.142113
  65 C :    0.029085
  66 C :   -0.033767
  67 C :   -0.142717
  68 C :   -0.008277
  69 S :    0.437752
  70 C :   -0.145207
  71 C :   -0.055761
  72 H :    0.036551
  73 H :    0.040845
  74 H :    0.021982
  75 H :    0.026429
  76 H :    0.047070
  77 H :    0.031794
  78 H :    0.028686
  79 H :    0.041632
  80 H :    0.027698
  81 H :    0.026530
  82 H :    0.049798
  83 H :    0.042472
  84 H :    0.041864
  85 H :    0.031596
  86 H :    0.037069

  Mayer bond orders larger than 0.100000
B(  0-C ,  1-C ) :   1.6559 B(  0-C ,  6-C ) :   1.0251 B(  0-C , 17-C ) :   1.0400
B(  1-C ,  2-C ) :   1.1323 B(  1-C ,  4-C ) :   1.1393 B(  2-C ,  3-N ) :   2.9857
B(  4-C ,  5-N ) :   2.9861 B(  6-C ,  7-C ) :   1.2575 B(  6-C , 11-C ) :   1.4024
B(  7-C ,  8-C ) :   1.3986 B(  7-C , 15-C ) :   0.9271 B(  8-C ,  9-C ) :   1.2660
B(  8-C , 72-H ) :   1.0166 B(  9-C , 10-C ) :   1.2848 B(  9-C , 14-C ) :   1.1758
B( 10-C , 11-C ) :   1.3321 B( 10-C , 12-S ) :   1.0994 B( 11-C , 73-H ) :   0.9844
B( 12-S , 13-C ) :   1.1310 B( 13-C , 14-C ) :   1.6134 B( 13-C , 74-H ) :   0.9475
B( 14-C , 75-H ) :   0.9937 B( 15-C , 16-O ) :   2.2347 B( 15-C , 17-C ) :   0.8975
B( 17-C , 18-C ) :   1.7247 B( 18-C , 19-C ) :   1.0643 B( 18-C , 76-H ) :   0.9354
B( 19-C , 20-C ) :   1.0267 B( 19-C , 23-C ) :   1.5501 B( 20-C , 21-N ) :   1.7039
B( 20-C , 77-H ) :   0.9935 B( 21-N , 22-C ) :   1.2750 B( 22-C , 23-C ) :   1.0681
B( 22-C , 27-C ) :   1.5064 B( 23-C , 24-C ) :   1.0168 B( 24-C , 25-S ) :   1.6825
B( 24-C , 26-C ) :   1.0237 B( 26-C , 27-C ) :   1.0538 B( 26-C , 30-C ) :   1.5706
B( 27-C , 28-N ) :   1.2759 B( 28-N , 29-C ) :   1.7040 B( 29-C , 30-C ) :   1.0410
B( 29-C , 78-H ) :   0.9877 B( 30-C , 31-C ) :   1.0144 B( 31-C , 32-C ) :   1.4421
B( 31-C , 35-C ) :   0.1162 B( 31-C , 37-C ) :   1.1875 B( 32-C , 33-C ) :   1.1959
B( 32-C , 79-H ) :   1.0014 B( 33-C , 34-F ) :   1.1250 B( 33-C , 35-C ) :   1.4101
B( 35-C , 36-C ) :   1.1955 B( 35-C , 41-C ) :   0.9982 B( 36-C , 37-C ) :   1.1542
B( 36-C , 40-N ) :   1.5430 B( 37-C , 38-N ) :   1.5466 B( 38-N , 39-S ) :   1.2715
B( 38-N , 40-N ) :   0.1442 B( 39-S , 40-N ) :   1.2605 B( 41-C , 42-C ) :   1.0389
B( 41-C , 45-C ) :   1.5844 B( 42-C , 43-N ) :   1.7080 B( 42-C , 80-H ) :   0.9863
B( 43-N , 44-C ) :   1.2742 B( 44-C , 45-C ) :   1.0558 B( 44-C , 49-C ) :   1.5115
B( 45-C , 46-C ) :   1.0253 B( 46-C , 47-S ) :   1.6979 B( 46-C , 48-C ) :   1.0137
B( 48-C , 49-C ) :   1.0658 B( 48-C , 52-C ) :   1.5530 B( 49-C , 50-N ) :   1.2581
B( 50-N , 51-C ) :   1.7445 B( 51-C , 52-C ) :   1.0004 B( 51-C , 81-H ) :   0.9885
B( 52-C , 53-C ) :   1.0433 B( 53-C , 54-C ) :   1.6977 B( 53-C , 82-H ) :   0.9523
B( 54-C , 55-C ) :   1.0184 B( 54-C , 63-C ) :   0.9352 B( 55-C , 56-C ) :   1.6599
B( 55-C , 61-C ) :   1.0232 B( 56-C , 57-C ) :   1.1297 B( 56-C , 59-C ) :   1.1560
B( 57-C , 58-N ) :   2.9911 B( 59-C , 60-N ) :   3.0059 B( 61-C , 62-C ) :   1.2636
B( 61-C , 68-C ) :   1.4171 B( 62-C , 63-C ) :   0.9402 B( 62-C , 65-C ) :   1.4190
B( 63-C , 64-O ) :   2.1938 B( 65-C , 66-C ) :   1.2566 B( 65-C , 83-H ) :   1.0160
B( 66-C , 67-C ) :   1.2955 B( 66-C , 71-C ) :   1.1740 B( 67-C , 68-C ) :   1.3203
B( 67-C , 69-S ) :   1.1034 B( 68-C , 84-H ) :   0.9861 B( 69-S , 70-C ) :   1.1285
B( 70-C , 71-C ) :   1.6283 B( 70-C , 85-H ) :   0.9685 B( 71-C , 86-H ) :   0.9995

-----------------------------------------------------------------------------
         ABSORPTION SPECTRUM VIA TRANSITION ELECTRIC DIPOLE MOMENTS
-----------------------------------------------------------------------------
State   Energy  Wavelength   fosc         T2         TX        TY        TZ
        (cm-1)    (nm)                  (au**2)     (au)      (au)      (au)
-----------------------------------------------------------------------------
   0   15419.1    648.5   0.000051476   0.00110  -0.03033  -0.00111   0.01334
   1   16145.5    619.4   0.001474070   0.03006  -0.16743  -0.03699  -0.02562
   2   16828.1    594.2   0.016879876   0.33022   0.54435  -0.12369  -0.13643
   3   17099.5    584.8   0.000967600   0.01863   0.01421  -0.07658   0.11208
   4   17247.6    579.8   0.198751805   3.79366   1.42948   0.04351  -1.32225
   5   18109.5    552.2   0.041785591   0.75962  -0.79818   0.15026  -0.31614
   6   20015.9    499.6   0.015181167   0.24969  -0.46577   0.08954  -0.15728
   7   20663.8    483.9   0.017335239   0.27618   0.07596   0.08243   0.51344
   8   21276.8    470.0   0.155132309   2.40034   0.80732   0.09498  -1.31892
   9   21466.6    465.8   0.167203741   2.56424   1.00410   0.02445  -1.24716
  10   22406.1    446.3   0.014801977   0.21748   0.45182   0.05072  -0.10379
  11   22901.3    436.7   0.046953546   0.67497   0.49516  -0.33065   0.56609
  12   23505.0    425.4   0.080841304   1.13227  -0.66680  -0.07604   0.82575
  13   23642.9    423.0   0.048190189   0.67102   0.75032   0.23925  -0.22537
  14   23928.2    417.9   0.052164652   0.71770   0.61804  -0.27344   0.51083
  15   24180.0    413.6   0.005981437   0.08144   0.19088  -0.04017   0.20830
  16   24663.7    405.5   0.024726762   0.33005  -0.53266  -0.04970  -0.20941
  17   24720.4    404.5   0.012076434   0.16083  -0.17119   0.22946  -0.28084
  18   24865.6    402.2   0.010538451   0.13953  -0.23060   0.26986  -0.11630
  19   25128.6    398.0   0.005517376   0.07228  -0.21591   0.11099   0.11552
  20   25351.3    394.5   0.027083893   0.35171  -0.57985   0.02817   0.12120
  21   25602.6    390.6   0.006612426   0.08503  -0.02050  -0.28892   0.03361
  22   25770.3    388.0   0.456417537   5.83068   2.40469   0.21937  -0.00044
  23   25937.8    385.5   0.058115326   0.73762  -0.52543   0.15504   0.66144
  24   26258.2    380.8   0.042155987   0.52853  -0.42263  -0.33261   0.48916
  25   26583.2    376.2   0.209101654   2.58956  -1.43828   0.23532  -0.68230
  26   26691.7    374.6   0.019093401   0.23550   0.46117  -0.15107   0.00101
  27   27144.8    368.4   0.086643831   1.05081   0.93945  -0.37961   0.15541
  28   27513.5    363.5   0.007337373   0.08780   0.29368  -0.02653   0.02908
  29   27600.4    362.3   0.009185361   0.10956   0.29163   0.04140   0.15099
  30   27690.6    361.1   0.000865225   0.01029   0.03411  -0.03873   0.08731
  31   28217.9    354.4   0.044676484   0.52123  -0.68448   0.08238   0.21433
  32   28461.8    351.3   0.112757892   1.30425   1.12577  -0.13357   0.13801
  33   28731.2    348.1   0.121941123   1.39724  -1.11466  -0.05285  -0.38984
  34   28857.1    346.5   0.005357343   0.06112   0.18507  -0.15696  -0.04723
  35   28987.5    345.0   0.116855266   1.32713   1.06456  -0.26269   0.35333
  36   29021.3    344.6   0.005862917   0.06651  -0.15580  -0.06312   0.19558
  37   29302.9    341.3   0.017139911   0.19256   0.35745  -0.01911   0.25383
  38   29607.1    337.8   0.055226096   0.61408  -0.77363   0.11637  -0.04504
  39   29631.4    337.5   0.110073836   1.22295   1.03632  -0.30914  -0.23114
  40   29795.5    335.6   0.489745809   5.41123  -1.49796   0.16580   1.77196
  41   30029.4    333.0   0.029205677   0.32018  -0.50237  -0.13131  -0.22486
  42   30212.3    331.0   0.286196457   3.11857  -1.37624   0.60068  -0.92936
  43   30405.6    328.9   0.105720486   1.14467  -0.91638  -0.04303  -0.55052
  44   30776.3    324.9   0.239665638   2.56369  -1.19656   0.10631  -1.05860
  45   31214.6    320.4   0.031297537   0.33009  -0.52957   0.22278   0.00381
  46   31466.4    317.8   0.231288490   2.41982  -1.47693   0.48789   0.02103
  47   31651.6    315.9   0.039642752   0.41233   0.20330  -0.00075   0.60910
  48   31729.9    315.2   0.282452284   2.93057  -1.64190   0.45719  -0.16038
  49   32030.0    312.2   0.014420105   0.14821  -0.00089  -0.14651   0.35601
  50   32172.6    310.8   0.034816412   0.35627   0.42591  -0.29635   0.29503
  51   32301.6    309.6   0.001579393   0.01610   0.08349  -0.09541  -0.00478
  52   32372.5    308.9   0.023468569   0.23866  -0.13772   0.23005   0.40838
  53   32613.5    306.6   0.178053162   1.79733   0.86388  -0.21317   1.00280
  54   32689.5    305.9   0.027823365   0.28021   0.48100  -0.17334  -0.13712
  55   32760.8    305.2   0.234392116   2.35540   1.34601  -0.47651   0.56268
  56   32926.6    303.7   0.039864161   0.39858  -0.53203   0.26139  -0.21725
  57   33090.9    302.2   0.003258782   0.03242  -0.00458   0.02076  -0.17880
  58   33257.0    300.7   0.046099085   0.45634  -0.37010   0.27400  -0.49425
  59   33404.4    299.4   0.010798600   0.10642  -0.04739   0.14472  -0.28850
  60   33419.2    299.2   0.022508311   0.22173   0.11194  -0.36266  -0.27871
  61   33471.2    298.8   0.113472907   1.11608   0.31545  -0.24419   0.97824
  62   33489.7    298.6   0.052944682   0.52046   0.26771  -0.13095  -0.65700
  63   33648.6    297.2   0.013993216   0.13691  -0.06984   0.24265  -0.27046
  64   33756.9    296.2   0.067626192   0.65952  -0.54401   0.38725  -0.46218
  65   33976.7    294.3   0.082625578   0.80059   0.70510  -0.51377   0.19866
  66   34071.9    293.5   0.014195812   0.13716  -0.20176  -0.12973  -0.28218
  67   34197.7    292.4   0.152167800   1.46488   0.90356  -0.30076   0.74699
  68   34356.9    291.1   0.033782915   0.32371  -0.55839   0.10898  -0.00617
  69   34427.6    290.5   0.017151874   0.16401   0.40131   0.04812  -0.02539
  70   34534.9    289.6   0.000730660   0.00697   0.00938   0.08086  -0.01841
  71   34626.7    288.8   0.089795587   0.85373   0.89077  -0.22812   0.09065
  72   34723.7    288.0   0.042800392   0.40579   0.61729  -0.08482   0.13247
  73   34807.6    287.3   0.022392941   0.21179  -0.10711   0.21140  -0.39450
  74   34977.9    285.9   0.003800665   0.03577   0.04183  -0.07763  -0.16732
  75   35110.0    284.8   0.064001013   0.60011  -0.43219   0.24137  -0.59587
  76   35218.6    283.9   0.051865241   0.48482   0.63691   0.07020   0.27246
  77   35541.3    281.4   0.088574215   0.82045   0.28087  -0.31949  -0.79968
  78   35705.0    280.1   0.097482692   0.89882  -0.07376   0.09032   0.94086
  79   35832.3    279.1   0.033515164   0.30792   0.38138  -0.31986   0.24528
  80   35920.2    278.4   0.069897433   0.64062  -0.22273   0.30139  -0.70723
  81   36230.0    276.0   0.146732369   1.33331  -0.07029  -0.24201   1.12686
  82   36333.7    275.2   0.090172130   0.81703  -0.44758   0.47815   0.62296
  83   36539.0    273.7   0.042080978   0.37914  -0.22692  -0.16643   0.54768
  84   36610.3    273.1   0.057334748   0.51557  -0.29364   0.26065  -0.60117
  85   36894.9    271.0   0.003569973   0.03185  -0.16098  -0.07527   0.01653
  86   36912.0    270.9   0.007575275   0.06756   0.08037   0.21788   0.11676
  87   36985.2    270.4   0.051250753   0.45619   0.42073  -0.17578   0.49828
  88   37146.9    269.2   0.003639778   0.03226  -0.14859  -0.02518   0.09770
  89   37457.9    267.0   0.013282842   0.11674  -0.20628  -0.00788  -0.27226
  90   37576.3    266.1   0.031589563   0.27676   0.11810  -0.10825  -0.50110
  91   37765.0    264.8   0.092069398   0.80260   0.15246   0.32715  -0.81996
  92   38079.1    262.6   0.016782626   0.14509   0.18293  -0.04297  -0.33134
  93   38181.0    261.9   0.046927344   0.40463  -0.16567   0.08293   0.60852
  94   38199.2    261.8   0.011887656   0.10245  -0.13989  -0.16803   0.23377
  95   38350.3    260.8   0.006444698   0.05532   0.10793  -0.20215   0.05299
  96   38459.5    260.0   0.007614990   0.06518  -0.20557  -0.03516  -0.14727
  97   38531.3    259.5   0.015272354   0.13049  -0.04625   0.35051   0.07409
  98   38566.1    259.3   0.080456093   0.68680  -0.74385  -0.16081   0.32806
  99   38742.6    258.1   0.075280608   0.63969  -0.35017   0.32886  -0.63947
 100   38829.0    257.5   0.023115176   0.19598   0.01381  -0.25972   0.35824
 101   39074.0    255.9   0.013323499   0.11226  -0.11438   0.02828   0.31364
 102   39307.6    254.4   0.050826564   0.42569  -0.21126   0.04176   0.61588
 103   39346.1    254.2   0.036635945   0.30654   0.55119  -0.04301   0.02960
 104   39593.8    252.6   0.031680567   0.26342   0.34926  -0.19929  -0.31893
 105   39782.4    251.4   0.144627250   1.19684  -0.62260   0.05290  -0.89800
 106   40061.5    249.6   0.131188018   1.07806   0.95059  -0.11296  -0.40210
 107   40083.1    249.5   0.028847731   0.23693   0.30958   0.07689   0.36767
 108   40153.7    249.0   0.039422343   0.32322   0.46819  -0.17804   0.26892
 109   40245.6    248.5   0.101395853   0.82942   0.80500   0.08269  -0.41781

FINAL SINGLE POINT ENERGY     -4851.080526993747

DIPOLE MOMENT
-------------
                                X             Y             Z
Electronic contribution:     21.50414      -8.38175       7.24039
Nuclear contribution   :    -23.54766       9.52552      -5.38430
                        -----------------------------------------
Total Dipole Moment    :     -2.04352       1.14377       1.85608
                        -----------------------------------------
Magnitude (a.u.)       :      2.98818
Magnitude (Debye)      :      7.59535

Rotational constants in cm-1:     0.001242     0.000515     0.000377
Rotational constants in MHz :    37.220378    15.442281    11.305568

                             ****ORCA TERMINATED NORMALLY****
TOTAL RUN TIME: 0 days 0 hours 10 minutes 33 seconds 581 msec
