                         Program Version 4.2.0 -  RELEASE  -
|  1> # ORCA input file
|  2> # SCF done       -197.937365252471          0.000604725457
|  3> ! CAM-B3LYP def2-SVP def2/J RIJCOSX Grid4 TightSCF
|  4> %maxcore 5000
|  5> %tddft
|  6>     Mode sTDDFT
|  7>     Ethresh 5.0
|  8>     maxcore 5000
|  9> end
| 10>
| 11> %pal
| 12>   nprocs 6
| 13>   end
| 14> * xyz 0 1
| 15>    C       -3.30734         5.48405         7.81677
| 16>    C       -3.45739         4.75172         8.97072
| 17>    C       -2.69729         4.95263        10.14030
| 18>    N       -2.11550         5.05767        11.12536
| 19>    C       -4.37735         3.70466         9.17426
| 20>    N       -5.09447         2.84198         9.42812
| 21>    C       -2.35366         6.57572         7.63826
| 22>    C       -2.50472         7.09840         6.33022
| 23>    C       -1.74872         8.14125         5.85529
| 24>    C       -0.79381         8.69817         6.71242
| 25>    C       -0.64823         8.16996         8.01581
| 26>    C       -1.41462         7.11397         8.49657
| 27>    S        0.58905         9.00925         8.89914
| 28>    C        0.89323        10.03875         7.54250
| 29>    C        0.10950         9.77263         6.47513
| 30>    C       -3.56411         6.34859         5.63080
| 31>    O       -3.94274         6.54162         4.48813
| 32>    C       -4.04472         5.34109         6.57999
| 33>    C       -5.01671         4.39632         6.34419
| 34>    C       -5.80361         4.14990         5.21680
| 35>    S       -5.77577         5.05551         3.72537
| 36>    C       -6.99853         4.04286         3.03845
| 37>    C       -7.40347         3.03797         3.91728
| 38>    C       -6.73707         3.09990         5.13982
| 39>    C       -6.95206         2.10867         6.24047
| 40>    C       -8.16182         1.21612         5.97301
| 41>    C       -8.15681         0.74842         4.52325
| 42>    C       -8.38198         1.94729         3.60577
| 43>    C       -7.42759         4.28447         1.68274
| 44>    C       -8.68378         3.94600         1.23882
| 45>    C       -9.02904         4.13850        -0.11491
| 46>    C      -10.18525         3.80492        -0.80322
| 47>    C      -11.38721         3.13484        -0.22630
| 48>    C      -12.71877         3.78048        -0.65427
| 49>    N      -13.68315         3.64803         0.42120
| 50>    C      -11.36265         1.63020        -0.55743
| 51>    N      -10.25665         0.99638         0.13896
| 52>    C       -9.95546         4.15653        -2.18610
| 53>    C      -10.69611         3.96977        -3.29220
| 54>    C      -10.24802         4.45175        -4.63474
| 55>    C       -8.87841         5.04587        -4.65598
| 56>    C       -8.12799         5.18554        -3.54792
| 57>    C       -8.61407         4.75657        -2.28889
| 58>    C       -8.05890         4.72949        -1.02757
| 59>    C       -6.79810         5.13142        -0.52378
| 60>    C       -6.49991         4.91178         0.77921
| 61>    C      -11.29550         5.46294        -5.04515
| 62>    C      -12.48016         5.10171        -5.54089
| 63>    C      -13.58806         5.97752        -5.80364
| 64>    S      -15.17560         5.31032        -5.58144
| 65>    C      -15.92018         6.84914        -5.92772
| 66>    C      -14.96322         7.79387        -6.25937
| 67>    C      -13.64528         7.30874        -6.15918
| 68>    C      -12.46042         8.17438        -6.44662
| 69>    C      -12.87429         9.37909        -7.28856
| 70>    C      -14.04826        10.08720        -6.62113
| 71>    C      -15.29001         9.19848        -6.65038
| 72>    C      -17.32651         7.01436        -5.87223
| 73>    C      -18.19969         6.32642        -5.08735
| 74>    C      -17.97352         5.48611        -3.92982
| 75>    C      -16.96487         5.63714        -3.01168
| 76>    C      -16.77429         4.81609        -1.88675
| 77>    N      -16.52970         4.15982        -0.97555
| 78>    C      -16.02607         6.68848        -3.06442
| 79>    N      -15.28069         7.56166        -3.04081
| 80>    C      -19.15471         4.65150        -3.76362
| 81>    C      -20.16897         5.12368        -4.63727
| 82>    C      -19.64120         6.24558        -5.43963
| 83>    O      -20.23193         6.92649        -6.24736
| 84>    C      -21.42226         4.56233        -4.67479
| 85>    C      -21.68215         3.48413        -3.82248
| 86>    C      -20.65973         3.01711        -2.96180
| 87>    C      -19.39422         3.58965        -2.91423
| 88>    S      -21.20645         1.67526        -2.00664
| 89>    C      -22.76718         1.75135        -2.74838
| 90>    C      -22.88113         2.73181        -3.67032
| 91>    H       -1.89029         8.51597         4.85337
| 92>    H       -1.26315         6.74939         9.49860
| 93>    H        1.65243        10.79138         7.63123
| 94>    H        0.15651        10.30927         5.54472
| 95>    H       -5.21374         3.71466         7.16039
| 96>    H       -7.07752         2.61910         7.19826
| 97>    H       -6.05453         1.48645         6.32583
| 98>    H       -9.08062         1.77379         6.16592
| 99>    H       -8.13731         0.36431         6.65389
|100>    H       -7.19750         0.27989         4.29328
|101>    H       -8.94321         0.01129         4.35592
|102>    H       -9.40074         2.31552         3.76056
|103>    H       -8.29481         1.65119         2.55836
|104>    H       -9.42453         3.55217         1.91240
|105>    H      -11.33622         3.22292         0.86230
|106>    H      -13.06552         3.33362        -1.60272
|107>    H      -12.56451         4.84975        -0.82679
|108>    H      -13.87354         2.66811         0.60443
|109>    H      -14.56553         4.08068         0.16572
|110>    H      -11.31869         1.50468        -1.65395
|111>    H      -12.28446         1.16322        -0.19878
|112>    H       -9.37911         1.40954        -0.16127
|113>    H      -10.22450         0.00483        -0.07088
|114>    H      -11.66946         3.50283        -3.26109
|115>    H      -10.29324         3.60938        -5.33990
|116>    H       -8.52237         5.37576        -5.62047
|117>    H       -7.14008         5.61969        -3.60389
|118>    H       -6.08322         5.59884        -1.18487
|119>    H       -5.53644         5.19900         1.17309
|120>    H      -11.07071         6.48987        -4.80811
|121>    H      -12.69360         4.04893        -5.68904
|122>    H      -11.68655         7.59059        -6.95086
|123>    H      -12.04554         8.53076        -5.49869
|124>    H      -13.16497         9.04968        -8.28864
|125>    H      -12.02862        10.06076        -7.38979
|126>    H      -13.78877        10.31215        -5.58506
|127>    H      -14.26453        11.02879        -7.12778
|128>    H      -15.70983         9.18386        -7.66270
|129>    H      -16.05555         9.60131        -5.98482
|130>    H      -17.76540         7.71510        -6.57537
|131>    H      -22.18048         4.94368        -5.34094
|132>    H      -18.64152         3.20282        -2.24659
|133>    H      -23.51426         1.04518        -2.44219
|134>    H      -23.77622         2.92876        -4.23205
|135> *
|136>
|137>                          ****END OF INPUT****

CARTESIAN COORDINATES (ANGSTROEM)
---------------------------------
  C     -3.307340    5.484050    7.816770
  C     -3.457390    4.751720    8.970720
  C     -2.697290    4.952630   10.140300
  N     -2.115500    5.057670   11.125360
  C     -4.377350    3.704660    9.174260
  N     -5.094470    2.841980    9.428120
  C     -2.353660    6.575720    7.638260
  C     -2.504720    7.098400    6.330220
  C     -1.748720    8.141250    5.855290
  C     -0.793810    8.698170    6.712420
  C     -0.648230    8.169960    8.015810
  C     -1.414620    7.113970    8.496570
  S      0.589050    9.009250    8.899140
  C      0.893230   10.038750    7.542500
  C      0.109500    9.772630    6.475130
  C     -3.564110    6.348590    5.630800
  O     -3.942740    6.541620    4.488130
  C     -4.044720    5.341090    6.579990
  C     -5.016710    4.396320    6.344190
  C     -5.803610    4.149900    5.216800
  S     -5.775770    5.055510    3.725370
  C     -6.998530    4.042860    3.038450
  C     -7.403470    3.037970    3.917280
  C     -6.737070    3.099900    5.139820
  C     -6.952060    2.108670    6.240470
  C     -8.161820    1.216120    5.973010
  C     -8.156810    0.748420    4.523250
  C     -8.381980    1.947290    3.605770
  C     -7.427590    4.284470    1.682740
  C     -8.683780    3.946000    1.238820
  C     -9.029040    4.138500   -0.114910
  C    -10.185250    3.804920   -0.803220
  C    -11.387210    3.134840   -0.226300
  C    -12.718770    3.780480   -0.654270
  N    -13.683150    3.648030    0.421200
  C    -11.362650    1.630200   -0.557430
  N    -10.256650    0.996380    0.138960
  C     -9.955460    4.156530   -2.186100
  C    -10.696110    3.969770   -3.292200
  C    -10.248020    4.451750   -4.634740
  C     -8.878410    5.045870   -4.655980
  C     -8.127990    5.185540   -3.547920
  C     -8.614070    4.756570   -2.288890
  C     -8.058900    4.729490   -1.027570
  C     -6.798100    5.131420   -0.523780
  C     -6.499910    4.911780    0.779210
  C    -11.295500    5.462940   -5.045150
  C    -12.480160    5.101710   -5.540890
  C    -13.588060    5.977520   -5.803640
  S    -15.175600    5.310320   -5.581440
  C    -15.920180    6.849140   -5.927720
  C    -14.963220    7.793870   -6.259370
  C    -13.645280    7.308740   -6.159180
  C    -12.460420    8.174380   -6.446620
  C    -12.874290    9.379090   -7.288560
  C    -14.048260   10.087200   -6.621130
  C    -15.290010    9.198480   -6.650380
  C    -17.326510    7.014360   -5.872230
  C    -18.199690    6.326420   -5.087350
  C    -17.973520    5.486110   -3.929820
  C    -16.964870    5.637140   -3.011680
  C    -16.774290    4.816090   -1.886750
  N    -16.529700    4.159820   -0.975550
  C    -16.026070    6.688480   -3.064420
  N    -15.280690    7.561660   -3.040810
  C    -19.154710    4.651500   -3.763620
  C    -20.168970    5.123680   -4.637270
  C    -19.641200    6.245580   -5.439630
  O    -20.231930    6.926490   -6.247360
  C    -21.422260    4.562330   -4.674790
  C    -21.682150    3.484130   -3.822480
  C    -20.659730    3.017110   -2.961800
  C    -19.394220    3.589650   -2.914230
  S    -21.206450    1.675260   -2.006640
  C    -22.767180    1.751350   -2.748380
  C    -22.881130    2.731810   -3.670320
  H     -1.890290    8.515970    4.853370
  H     -1.263150    6.749390    9.498600
  H      1.652430   10.791380    7.631230
  H      0.156510   10.309270    5.544720
  H     -5.213740    3.714660    7.160390
  H     -7.077520    2.619100    7.198260
  H     -6.054530    1.486450    6.325830
  H     -9.080620    1.773790    6.165920
  H     -8.137310    0.364310    6.653890
  H     -7.197500    0.279890    4.293280
  H     -8.943210    0.011290    4.355920
  H     -9.400740    2.315520    3.760560
  H     -8.294810    1.651190    2.558360
  H     -9.424530    3.552170    1.912400
  H    -11.336220    3.222920    0.862300
  H    -13.065520    3.333620   -1.602720
  H    -12.564510    4.849750   -0.826790
  H    -13.873540    2.668110    0.604430
  H    -14.565530    4.080680    0.165720
  H    -11.318690    1.504680   -1.653950
  H    -12.284460    1.163220   -0.198780
  H     -9.379110    1.409540   -0.161270
  H    -10.224500    0.004830   -0.070880
  H    -11.669460    3.502830   -3.261090
  H    -10.293240    3.609380   -5.339900
  H     -8.522370    5.375760   -5.620470
  H     -7.140080    5.619690   -3.603890
  H     -6.083220    5.598840   -1.184870
  H     -5.536440    5.199000    1.173090
  H    -11.070710    6.489870   -4.808110
  H    -12.693600    4.048930   -5.689040
  H    -11.686550    7.590590   -6.950860
  H    -12.045540    8.530760   -5.498690
  H    -13.164970    9.049680   -8.288640
  H    -12.028620   10.060760   -7.389790
  H    -13.788770   10.312150   -5.585060
  H    -14.264530   11.028790   -7.127780
  H    -15.709830    9.183860   -7.662700
  H    -16.055550    9.601310   -5.984820
  H    -17.765400    7.715100   -6.575370
  H    -22.180480    4.943680   -5.340940
  H    -18.641520    3.202820   -2.246590
  H    -23.514260    1.045180   -2.442190
  H    -23.776220    2.928760   -4.232050

 Total Charge           Charge          ....    0
 Multiplicity           Mult            ....    1
 Number of Electrons    NEL             ....  550
 Basis Dimension        Dim             .... 1300

ORBITAL ENERGIES
----------------

  NO   OCC          E(Eh)            E(eV)
   0   2.0000     -88.968279     -2420.9499
   1   2.0000     -88.961503     -2420.7656
   2   2.0000     -88.955380     -2420.5989
   3   2.0000     -88.942494     -2420.2483
   4   2.0000     -19.213453      -522.8246
   5   2.0000     -19.202314      -522.5215
   6   2.0000     -14.423036      -392.4708
   7   2.0000     -14.412328      -392.1794
   8   2.0000     -14.403415      -391.9368
   9   2.0000     -14.398571      -391.8050
  10   2.0000     -14.374976      -391.1630
  11   2.0000     -14.356266      -390.6539
  12   2.0000     -10.365118      -282.0492
  13   2.0000     -10.351166      -281.6695
  14   2.0000     -10.342124      -281.4235
  15   2.0000     -10.341451      -281.4052
  16   2.0000     -10.327268      -281.0193
  17   2.0000     -10.325653      -280.9753
  18   2.0000     -10.322978      -280.9025
  19   2.0000     -10.322690      -280.8947
  20   2.0000     -10.320269      -280.8288
  21   2.0000     -10.315463      -280.6980
  22   2.0000     -10.315290      -280.6933
  23   2.0000     -10.313438      -280.6429
  24   2.0000     -10.308069      -280.4968
  25   2.0000     -10.307811      -280.4898
  26   2.0000     -10.307366      -280.4777
  27   2.0000     -10.305758      -280.4339
  28   2.0000     -10.305542      -280.4280
  29   2.0000     -10.303929      -280.3842
  30   2.0000     -10.303594      -280.3751
  31   2.0000     -10.303113      -280.3620
  32   2.0000     -10.302854      -280.3549
  33   2.0000     -10.301312      -280.3129
  34   2.0000     -10.300356      -280.2869
  35   2.0000     -10.297203      -280.2012
  36   2.0000     -10.294998      -280.1411
  37   2.0000     -10.294732      -280.1339
  38   2.0000     -10.294302      -280.1222
  39   2.0000     -10.294276      -280.1215
  40   2.0000     -10.292410      -280.0707
  41   2.0000     -10.291994      -280.0594
  42   2.0000     -10.291758      -280.0530
  43   2.0000     -10.290610      -280.0217
  44   2.0000     -10.290562      -280.0204
  45   2.0000     -10.289756      -279.9985
  46   2.0000     -10.289233      -279.9843
  47   2.0000     -10.285827      -279.8916
  48   2.0000     -10.283137      -279.8184
  49   2.0000     -10.280101      -279.7358
  50   2.0000     -10.280028      -279.7338
  51   2.0000     -10.278794      -279.7002
  52   2.0000     -10.278396      -279.6894
  53   2.0000     -10.277928      -279.6766
  54   2.0000     -10.276622      -279.6411
  55   2.0000     -10.275941      -279.6226
  56   2.0000     -10.275314      -279.6055
  57   2.0000     -10.272540      -279.5300
  58   2.0000     -10.272261      -279.5224
  59   2.0000     -10.270546      -279.4758
  60   2.0000     -10.269066      -279.4355
  61   2.0000     -10.268682      -279.4250
  62   2.0000     -10.268304      -279.4148
  63   2.0000     -10.266681      -279.3706
  64   2.0000     -10.266362      -279.3619
  65   2.0000     -10.265067      -279.3267
  66   2.0000     -10.263400      -279.2813
  67   2.0000     -10.261952      -279.2419
  68   2.0000     -10.260603      -279.2052
  69   2.0000     -10.260241      -279.1953
  70   2.0000     -10.259467      -279.1743
  71   2.0000     -10.259344      -279.1709
  72   2.0000     -10.256501      -279.0936
  73   2.0000     -10.255006      -279.0529
  74   2.0000     -10.253512      -279.0123
  75   2.0000     -10.252153      -278.9753
  76   2.0000      -8.064630      -219.4497
  77   2.0000      -8.056768      -219.2358
  78   2.0000      -8.051680      -219.0973
  79   2.0000      -8.036225      -218.6768
  80   2.0000      -6.034152      -164.1976
  81   2.0000      -6.029845      -164.0804
  82   2.0000      -6.026258      -163.9828
  83   2.0000      -6.026039      -163.9768
  84   2.0000      -6.022052      -163.8684
  85   2.0000      -6.021185      -163.8448
  86   2.0000      -6.018776      -163.7792
  87   2.0000      -6.016915      -163.7286
  88   2.0000      -6.013327      -163.6309
  89   2.0000      -6.005525      -163.4186
  90   2.0000      -6.001082      -163.2978
  91   2.0000      -5.998521      -163.2280
  92   2.0000      -1.128137       -30.6982
  93   2.0000      -1.117188       -30.4002
  94   2.0000      -1.023041       -27.8384
  95   2.0000      -1.010602       -27.4999
  96   2.0000      -1.005981       -27.3741
  97   2.0000      -1.002900       -27.2903
  98   2.0000      -0.995762       -27.0961
  99   2.0000      -0.992515       -27.0077
 100   2.0000      -0.985545       -26.8180
 101   2.0000      -0.985261       -26.8103
 102   2.0000      -0.979958       -26.6660
 103   2.0000      -0.979498       -26.6535
 104   2.0000      -0.970335       -26.4042
 105   2.0000      -0.958965       -26.0948
 106   2.0000      -0.945030       -25.7156
 107   2.0000      -0.937927       -25.5223
 108   2.0000      -0.933411       -25.3994
 109   2.0000      -0.922139       -25.0927
 110   2.0000      -0.918429       -24.9917
 111   2.0000      -0.915567       -24.9138
 112   2.0000      -0.907205       -24.6863
 113   2.0000      -0.902126       -24.5481
 114   2.0000      -0.891096       -24.2480
 115   2.0000      -0.884716       -24.0744
 116   2.0000      -0.882788       -24.0219
 117   2.0000      -0.872244       -23.7350
 118   2.0000      -0.869532       -23.6612
 119   2.0000      -0.867763       -23.6130
 120   2.0000      -0.854540       -23.2532
 121   2.0000      -0.845443       -23.0057
 122   2.0000      -0.836053       -22.7501
 123   2.0000      -0.831459       -22.6251
 124   2.0000      -0.830202       -22.5909
 125   2.0000      -0.824438       -22.4341
 126   2.0000      -0.823088       -22.3974
 127   2.0000      -0.816429       -22.2162
 128   2.0000      -0.811421       -22.0799
 129   2.0000      -0.810025       -22.0419
 130   2.0000      -0.797990       -21.7144
 131   2.0000      -0.787440       -21.4273
 132   2.0000      -0.768110       -20.9013
 133   2.0000      -0.757490       -20.6124
 134   2.0000      -0.752969       -20.4893
 135   2.0000      -0.748176       -20.3589
 136   2.0000      -0.743867       -20.2416
 137   2.0000      -0.728076       -19.8120
 138   2.0000      -0.722688       -19.6653
 139   2.0000      -0.713963       -19.4279
 140   2.0000      -0.712003       -19.3746
 141   2.0000      -0.706030       -19.2121
 142   2.0000      -0.697869       -18.9900
 143   2.0000      -0.693678       -18.8759
 144   2.0000      -0.691355       -18.8127
 145   2.0000      -0.684356       -18.6223
 146   2.0000      -0.678057       -18.4509
 147   2.0000      -0.676321       -18.4036
 148   2.0000      -0.673744       -18.3335
 149   2.0000      -0.665522       -18.1098
 150   2.0000      -0.662556       -18.0291
 151   2.0000      -0.661149       -17.9908
 152   2.0000      -0.650927       -17.7126
 153   2.0000      -0.649737       -17.6802
 154   2.0000      -0.647115       -17.6089
 155   2.0000      -0.641738       -17.4626
 156   2.0000      -0.633666       -17.2429
 157   2.0000      -0.624445       -16.9920
 158   2.0000      -0.622317       -16.9341
 159   2.0000      -0.611849       -16.6493
 160   2.0000      -0.606698       -16.5091
 161   2.0000      -0.602068       -16.3831
 162   2.0000      -0.599288       -16.3074
 163   2.0000      -0.595901       -16.2153
 164   2.0000      -0.590758       -16.0753
 165   2.0000      -0.587794       -15.9947
 166   2.0000      -0.585170       -15.9233
 167   2.0000      -0.581815       -15.8320
 168   2.0000      -0.578933       -15.7536
 169   2.0000      -0.571554       -15.5528
 170   2.0000      -0.562092       -15.2953
 171   2.0000      -0.561173       -15.2703
 172   2.0000      -0.554747       -15.0954
 173   2.0000      -0.552032       -15.0215
 174   2.0000      -0.549135       -14.9427
 175   2.0000      -0.545559       -14.8454
 176   2.0000      -0.543839       -14.7986
 177   2.0000      -0.538864       -14.6632
 178   2.0000      -0.537859       -14.6359
 179   2.0000      -0.537096       -14.6151
 180   2.0000      -0.532647       -14.4941
 181   2.0000      -0.527183       -14.3454
 182   2.0000      -0.525140       -14.2898
 183   2.0000      -0.524287       -14.2666
 184   2.0000      -0.524150       -14.2629
 185   2.0000      -0.520584       -14.1658
 186   2.0000      -0.519748       -14.1431
 187   2.0000      -0.517399       -14.0791
 188   2.0000      -0.513034       -13.9604
 189   2.0000      -0.512670       -13.9504
 190   2.0000      -0.511748       -13.9254
 191   2.0000      -0.507980       -13.8229
 192   2.0000      -0.507023       -13.7968
 193   2.0000      -0.506249       -13.7757
 194   2.0000      -0.503362       -13.6972
 195   2.0000      -0.501589       -13.6489
 196   2.0000      -0.500631       -13.6229
 197   2.0000      -0.499867       -13.6021
 198   2.0000      -0.497202       -13.5295
 199   2.0000      -0.494314       -13.4510
 200   2.0000      -0.492816       -13.4102
 201   2.0000      -0.489914       -13.3312
 202   2.0000      -0.488511       -13.2931
 203   2.0000      -0.488022       -13.2798
 204   2.0000      -0.486563       -13.2401
 205   2.0000      -0.484665       -13.1884
 206   2.0000      -0.482241       -13.1224
 207   2.0000      -0.479513       -13.0482
 208   2.0000      -0.478623       -13.0240
 209   2.0000      -0.477418       -12.9912
 210   2.0000      -0.474252       -12.9050
 211   2.0000      -0.473368       -12.8810
 212   2.0000      -0.468204       -12.7405
 213   2.0000      -0.464593       -12.6422
 214   2.0000      -0.460296       -12.5253
 215   2.0000      -0.457994       -12.4627
 216   2.0000      -0.456957       -12.4344
 217   2.0000      -0.456304       -12.4167
 218   2.0000      -0.453577       -12.3425
 219   2.0000      -0.451648       -12.2900
 220   2.0000      -0.445970       -12.1355
 221   2.0000      -0.444863       -12.1053
 222   2.0000      -0.443190       -12.0598
 223   2.0000      -0.442293       -12.0354
 224   2.0000      -0.438174       -11.9233
 225   2.0000      -0.436105       -11.8670
 226   2.0000      -0.435018       -11.8374
 227   2.0000      -0.433935       -11.8080
 228   2.0000      -0.431922       -11.7532
 229   2.0000      -0.429591       -11.6898
 230   2.0000      -0.428363       -11.6563
 231   2.0000      -0.426530       -11.6065
 232   2.0000      -0.422358       -11.4930
 233   2.0000      -0.421735       -11.4760
 234   2.0000      -0.421657       -11.4739
 235   2.0000      -0.420845       -11.4518
 236   2.0000      -0.417686       -11.3658
 237   2.0000      -0.414688       -11.2842
 238   2.0000      -0.412361       -11.2209
 239   2.0000      -0.412040       -11.2122
 240   2.0000      -0.411018       -11.1844
 241   2.0000      -0.407789       -11.0965
 242   2.0000      -0.403808       -10.9882
 243   2.0000      -0.401131       -10.9153
 244   2.0000      -0.399052       -10.8588
 245   2.0000      -0.398287       -10.8379
 246   2.0000      -0.396654       -10.7935
 247   2.0000      -0.395085       -10.7508
 248   2.0000      -0.392039       -10.6679
 249   2.0000      -0.388179       -10.5629
 250   2.0000      -0.386387       -10.5141
 251   2.0000      -0.385736       -10.4964
 252   2.0000      -0.381652       -10.3853
 253   2.0000      -0.379938       -10.3386
 254   2.0000      -0.377221       -10.2647
 255   2.0000      -0.370725       -10.0879
 256   2.0000      -0.366295        -9.9674
 257   2.0000      -0.363500        -9.8913
 258   2.0000      -0.346778        -9.4363
 259   2.0000      -0.343932        -9.3589
 260   2.0000      -0.332347        -9.0436
 261   2.0000      -0.325966        -8.8700
 262   2.0000      -0.319511        -8.6943
 263   2.0000      -0.316759        -8.6194
 264   2.0000      -0.312029        -8.4908
 265   2.0000      -0.308373        -8.3913
 266   2.0000      -0.303381        -8.2554
 267   2.0000      -0.299798        -8.1579
 268   2.0000      -0.297022        -8.0824
 269   2.0000      -0.295516        -8.0414
 270   2.0000      -0.283286        -7.7086
 271   2.0000      -0.282464        -7.6862
 272   2.0000      -0.271381        -7.3846
 273   2.0000      -0.256668        -6.9843
 274   2.0000      -0.219231        -5.9656
 275   0.0000      -0.091933        -2.5016
 276   0.0000      -0.080804        -2.1988
 277   0.0000      -0.060672        -1.6510
 278   0.0000      -0.056116        -1.5270
 279   0.0000      -0.042574        -1.1585

MULLIKEN ATOMIC CHARGES
-----------------------
   0 C :    0.326677
   1 C :   -0.366144
   2 C :   -0.188011
   3 N :    0.141231
   4 C :   -0.180607
   5 N :    0.128596
   6 C :    0.007366
   7 C :   -0.010864
   8 C :   -0.071658
   9 C :    0.113425
  10 C :   -0.096765
  11 C :   -0.022436
  12 S :    0.134819
  13 C :   -0.052269
  14 C :    0.023242
  15 C :    0.149895
  16 O :   -0.179814
  17 C :   -0.093173
  18 C :   -0.051209
  19 C :   -0.085271
  20 S :    0.178478
  21 C :   -0.093903
  22 C :   -0.077408
  23 C :   -0.091713
  24 C :    0.105658
  25 C :    0.041847
  26 C :    0.021787
  27 C :    0.112812
  28 C :    0.078080
  29 C :   -0.083010
  30 C :    0.032491
  31 C :   -0.063525
  32 C :   -0.034777
  33 C :    0.126166
  34 N :   -0.208321
  35 C :    0.160971
  36 N :   -0.228457
  37 C :    0.092376
  38 C :   -0.108620
  39 C :    0.129998
  40 C :   -0.056758
  41 C :    0.025221
  42 C :    0.002709
  43 C :    0.043338
  44 C :   -0.006756
  45 C :   -0.012190
  46 C :   -0.057416
  47 C :    0.041431
  48 C :   -0.118037
  49 S :    0.132118
  50 C :   -0.199067
  51 C :   -0.012755
  52 C :   -0.065061
  53 C :    0.104854
  54 C :    0.018589
  55 C :    0.012846
  56 C :    0.127257
  57 C :    0.047195
  58 C :   -0.137412
  59 C :    0.259453
  60 C :   -0.340388
  61 C :   -0.134390
  62 N :    0.116497
  63 C :   -0.191035
  64 N :    0.166070
  65 C :    0.008411
  66 C :   -0.004582
  67 C :    0.139581
  68 O :   -0.145172
  69 C :   -0.067865
  70 C :    0.107954
  71 C :   -0.089201
  72 C :   -0.029237
  73 S :    0.136799
  74 C :   -0.051124
  75 C :    0.027615
  76 H :   -0.016631
  77 H :   -0.010310
  78 H :    0.036002
  79 H :   -0.010263
  80 H :   -0.010518
  81 H :    0.042802
  82 H :    0.025512
  83 H :    0.002428
  84 H :    0.004812
  85 H :    0.000998
  86 H :    0.002408
  87 H :    0.026364
  88 H :    0.014847
  89 H :   -0.028662
  90 H :   -0.009324
  91 H :   -0.024861
  92 H :    0.004463
  93 H :    0.080960
  94 H :    0.092040
  95 H :   -0.029952
  96 H :   -0.015086
  97 H :    0.105371
  98 H :    0.090549
  99 H :   -0.013200
 100 H :    0.031726
 101 H :   -0.014197
 102 H :   -0.036134
 103 H :   -0.037086
 104 H :   -0.006824
 105 H :    0.024101
 106 H :   -0.004159
 107 H :    0.012891
 108 H :    0.030938
 109 H :    0.004371
 110 H :    0.004569
 111 H :    0.017851
 112 H :    0.003630
 113 H :    0.021181
 114 H :    0.025916
 115 H :    0.027252
 116 H :   -0.010565
 117 H :   -0.007385
 118 H :    0.039693
 119 H :   -0.005969
Sum of atomic charges:   -0.0000000

LOEWDIN ATOMIC CHARGES
----------------------
   0 C :    0.080720
   1 C :   -0.156806
   2 C :   -0.018472
   3 N :   -0.065955
   4 C :   -0.019261
   5 N :   -0.066886
   6 C :   -0.022023
   7 C :   -0.050791
   8 C :    0.019281
   9 C :   -0.037515
  10 C :   -0.147629
  11 C :   -0.010231
  12 S :    0.424191
  13 C :   -0.153723
  14 C :   -0.059172
  15 C :    0.080761
  16 O :   -0.170851
  17 C :   -0.121735
  18 C :    0.057965
  19 C :   -0.201195
  20 S :    0.509055
  21 C :   -0.137270
  22 C :   -0.066114
  23 C :   -0.008187
  24 C :   -0.029915
  25 C :   -0.026850
  26 C :   -0.028163
  27 C :   -0.028342
  28 C :   -0.050033
  29 C :    0.005137
  30 C :   -0.024902
  31 C :   -0.027601
  32 C :   -0.039787
  33 C :    0.027324
  34 N :   -0.117043
  35 C :    0.028336
  36 N :   -0.119898
  37 C :   -0.018314
  38 C :    0.067068
  39 C :   -0.030245
  40 C :   -0.043781
  41 C :   -0.013125
  42 C :   -0.041710
  43 C :   -0.027680
  44 C :   -0.012505
  45 C :   -0.027846
  46 C :    0.017142
  47 C :   -0.054804
  48 C :   -0.142248
  49 S :    0.453049
  50 C :   -0.200010
  51 C :   -0.004834
  52 C :   -0.056074
  53 C :   -0.026987
  54 C :   -0.028292
  55 C :   -0.026872
  56 C :   -0.026247
  57 C :    0.059222
  58 C :   -0.102611
  59 C :    0.065525
  60 C :   -0.150207
  61 C :   -0.002315
  62 N :   -0.063778
  63 C :   -0.028731
  64 N :   -0.054334
  65 C :   -0.019547
  66 C :   -0.054447
  67 C :    0.082642
  68 O :   -0.146485
  69 C :    0.023788
  70 C :   -0.035920
  71 C :   -0.145005
  72 C :   -0.013945
  73 S :    0.426885
  74 C :   -0.150094
  75 C :   -0.057018
  76 H :    0.038399
  77 H :    0.039760
  78 H :    0.027783
  79 H :    0.033784
  80 H :    0.046910
  81 H :    0.039869
  82 H :    0.039309
  83 H :    0.022284
  84 H :    0.026509
  85 H :    0.020445
  86 H :    0.024766
  87 H :    0.032566
  88 H :    0.031776
  89 H :    0.031557
  90 H :    0.031828
  91 H :   -0.007824
  92 H :    0.020906
  93 H :    0.046919
  94 H :    0.046013
  95 H :   -0.005457
  96 H :    0.011352
  97 H :    0.052142
  98 H :    0.054785
  99 H :    0.024474
 100 H :    0.053933
 101 H :    0.023186
 102 H :    0.030059
 103 H :    0.027329
 104 H :    0.021858
 105 H :    0.033736
 106 H :    0.027163
 107 H :    0.031038
 108 H :    0.034832
 109 H :    0.021547
 110 H :    0.025776
 111 H :    0.027672
 112 H :    0.025787
 113 H :    0.037683
 114 H :    0.038156
 115 H :    0.048160
 116 H :    0.040900
 117 H :    0.039336
 118 H :    0.029661
 119 H :    0.035606

  Mayer bond orders larger than 0.100000
B(  0-C ,  1-C ) :   1.5943 B(  0-C ,  6-C ) :   0.9918 B(  0-C , 17-C ) :   1.1038
B(  1-C ,  2-C ) :   1.1498 B(  1-C ,  4-C ) :   1.1515 B(  2-C ,  3-N ) :   2.9644
B(  4-C ,  5-N ) :   2.9526 B(  6-C ,  7-C ) :   1.2705 B(  6-C , 11-C ) :   1.4215
B(  7-C ,  8-C ) :   1.4307 B(  7-C , 15-C ) :   0.9535 B(  8-C ,  9-C ) :   1.2396
B(  8-C , 76-H ) :   1.0161 B(  9-C , 10-C ) :   1.3106 B(  9-C , 14-C ) :   1.1696
B( 10-C , 11-C ) :   1.3157 B( 10-C , 12-S ) :   1.0958 B( 11-C , 77-H ) :   0.9811
B( 12-S , 13-C ) :   1.1253 B( 13-C , 14-C ) :   1.6302 B( 13-C , 78-H ) :   0.9688
B( 14-C , 79-H ) :   0.9988 B( 15-C , 16-O ) :   2.1493 B( 15-C , 17-C ) :   0.9739
B( 17-C , 18-C ) :   1.4649 B( 18-C , 19-C ) :   1.3111 B( 18-C , 80-H ) :   0.9256
B( 19-C , 20-S ) :   1.0738 B( 19-C , 23-C ) :   1.3468 B( 20-S , 21-C ) :   1.1524
B( 21-C , 22-C ) :   1.4283 B( 21-C , 28-C ) :   1.0554 B( 22-C , 23-C ) :   1.4042
B( 22-C , 27-C ) :   1.0457 B( 23-C , 24-C ) :   1.0574 B( 24-C , 25-C ) :   1.0862
B( 24-C , 81-H ) :   0.9019 B( 24-C , 82-H ) :   0.9057 B( 25-C , 26-C ) :   1.0693
B( 25-C , 83-H ) :   0.9439 B( 25-C , 84-H ) :   0.9324 B( 26-C , 27-C ) :   1.0845
B( 26-C , 85-H ) :   0.9461 B( 26-C , 86-H ) :   0.9341 B( 27-C , 87-H ) :   0.9023
B( 27-C , 88-H ) :   0.9136 B( 28-C , 29-C ) :   1.5270 B( 28-C , 45-C ) :   1.1069
B( 29-C , 30-C ) :   1.1454 B( 29-C , 89-H ) :   0.9916 B( 30-C , 31-C ) :   1.4944
B( 30-C , 43-C ) :   1.1136 B( 31-C , 32-C ) :   1.0471 B( 31-C , 37-C ) :   1.0729
B( 32-C , 33-C ) :   1.0275 B( 32-C , 35-C ) :   1.0357 B( 32-C , 90-H ) :   0.8704
B( 33-C , 34-N ) :   1.1208 B( 33-C , 91-H ) :   0.9191 B( 33-C , 92-H ) :   0.9471
B( 34-N , 93-H ) :   0.9686 B( 34-N , 94-H ) :   0.9590 B( 35-C , 36-N ) :   1.0906
B( 35-C , 95-H ) :   0.9282 B( 35-C , 96-H ) :   0.9345 B( 36-N , 97-H ) :   0.9576
B( 36-N , 98-H ) :   0.9658 B( 37-C , 38-C ) :   1.6820 B( 37-C , 42-C ) :   1.0501
B( 38-C , 39-C ) :   0.9762 B( 38-C , 99-H ) :   0.9538 B( 39-C , 40-C ) :   0.9817
B( 39-C , 46-C ) :   0.9510 B( 39-C ,100-H ) :   0.8775 B( 40-C , 41-C ) :   1.7264
B( 40-C ,101-H ) :   0.9774 B( 41-C , 42-C ) :   1.1259 B( 41-C ,102-H ) :   0.9890
B( 42-C , 43-C ) :   1.4449 B( 43-C , 44-C ) :   1.1314 B( 44-C , 45-C ) :   1.6287
B( 44-C ,103-H ) :   0.9913 B( 45-C ,104-H ) :   0.9758 B( 46-C , 47-C ) :   1.8148
B( 46-C ,105-H ) :   0.9751 B( 47-C , 48-C ) :   1.0627 B( 47-C ,106-H ) :   0.9434
B( 48-C , 49-S ) :   1.1342 B( 48-C , 52-C ) :   1.5276 B( 49-S , 50-C ) :   1.1069
B( 50-C , 51-C ) :   1.4456 B( 50-C , 57-C ) :   1.1227 B( 51-C , 52-C ) :   1.3220
B( 51-C , 56-C ) :   1.0598 B( 52-C , 53-C ) :   1.0525 B( 53-C , 54-C ) :   1.0888
B( 53-C ,107-H ) :   0.9168 B( 53-C ,108-H ) :   0.9037 B( 54-C , 55-C ) :   1.0687
B( 54-C ,109-H ) :   0.9471 B( 54-C ,110-H ) :   0.9348 B( 55-C , 56-C ) :   1.0942
B( 55-C ,111-H ) :   0.9464 B( 55-C ,112-H ) :   0.9345 B( 56-C ,113-H ) :   0.9025
B( 56-C ,114-H ) :   0.9117 B( 57-C , 58-C ) :   1.6447 B( 57-C ,115-H ) :   0.9454
B( 58-C , 59-C ) :   1.0431 B( 58-C , 67-C ) :   0.9422 B( 59-C , 60-C ) :   1.6346
B( 59-C , 65-C ) :   1.0227 B( 60-C , 61-C ) :   1.1513 B( 60-C , 63-C ) :   1.1583
B( 61-C , 62-N ) :   2.8917 B( 63-C , 64-N ) :   3.0070 B( 65-C , 66-C ) :   1.2692
B( 65-C , 72-C ) :   1.4136 B( 66-C , 67-C ) :   0.9192 B( 66-C , 69-C ) :   1.4278
B( 67-C , 68-O ) :   2.2729 B( 69-C , 70-C ) :   1.2498 B( 69-C ,116-H ) :   1.0164
B( 70-C , 71-C ) :   1.3049 B( 70-C , 75-C ) :   1.1735 B( 71-C , 72-C ) :   1.3209
B( 71-C , 73-S ) :   1.0962 B( 72-C ,117-H ) :   0.9874 B( 73-S , 74-C ) :   1.1253
B( 74-C , 75-C ) :   1.6300 B( 74-C ,118-H ) :   0.9684 B( 75-C ,119-H ) :   0.9993

-----------------------------------------------------------------------------
         ABSORPTION SPECTRUM VIA TRANSITION ELECTRIC DIPOLE MOMENTS
-----------------------------------------------------------------------------
State   Energy  Wavelength   fosc         T2         TX        TY        TZ
        (cm-1)    (nm)                  (au**2)     (au)      (au)      (au)
-----------------------------------------------------------------------------
   0   14081.6    710.1   0.153350568   3.58517  -1.72010  -0.52655  -0.59092
   1   16241.3    615.7   0.009183331   0.18615   0.31401  -0.22148  -0.19619
   2   18809.2    531.7   0.829813797  14.52400  -2.25496  -0.50467  -3.03059
   3   20522.2    487.3   0.343516365   5.51060  -1.96693  -0.39729   1.21818
   4   22382.9    446.8   0.773321016  11.37417   2.02063   0.66688   2.61658
   5   24824.6    402.8   0.152514222   2.02257  -0.99061  -0.46043  -0.91064
   6   24907.0    401.5   0.028224963   0.37307  -0.37442   0.26787  -0.40140
   7   25840.0    387.0   0.011169439   0.14230  -0.28011  -0.20609  -0.14617
   8   26660.1    375.1   0.134669814   1.66297   0.83870   0.97572  -0.08672
   9   27191.9    367.8   0.012321342   0.14917   0.38200  -0.02232   0.05244
  10   27559.0    362.9   0.006113116   0.07303  -0.23852  -0.02356   0.12481
  11   27979.9    357.4   0.038101564   0.44830   0.59558   0.16356   0.25852
  12   28493.6    351.0   0.248750723   2.87404   1.53520   0.67989   0.23443
  13   28592.7    349.7   0.021197876   0.24407   0.35674  -0.34077   0.02603
  14   28735.5    348.0   0.026687392   0.30575   0.39921  -0.12513   0.36156
  15   28804.1    347.2   0.090177213   1.03067   0.62326   0.79275   0.11729
  16   29401.9    340.1   0.094418310   1.05720  -0.73255  -0.47303   0.54480
  17   29587.4    338.0   0.002553782   0.02842  -0.02699   0.14237   0.08613
  18   29649.8    337.3   0.158852731   1.76380  -1.32353  -0.08585  -0.06856
  19   29802.1    335.5   0.005819981   0.06429   0.13980  -0.08025   0.19572
  20   30035.2    332.9   0.130041248   1.42536   0.91121   0.75985   0.13295
  21   30687.9    325.9   0.166366878   1.78474  -1.27423  -0.39152  -0.08834
  22   31257.9    319.9   0.063207121   0.66570   0.56809   0.19570   0.55198
  23   31462.1    317.8   0.202669358   2.12069   0.32493   0.99789  -1.00961
  24   31980.8    312.7   0.016054372   0.16526  -0.06627  -0.29828   0.26814
  25   32498.0    307.7   0.192457529   1.94964  -1.27983  -0.28166  -0.48201
  26   33510.8    298.4   0.142407143   1.39902  -0.70548  -0.94821   0.04710
  27   33967.2    294.4   0.031084668   0.30127   0.46169   0.21724   0.20230
  28   34028.5    293.9   0.556057575   5.37963   2.03878   1.07817   0.24609
  29   34167.5    292.7   0.209098733   2.01471  -0.67432  -1.09336   0.60381
  30   34883.4    286.7   0.577952769   5.45443   0.17967   1.28083  -1.94464
  31   35287.3    283.4   0.000139203   0.00130  -0.02166  -0.00704  -0.02793
  32   35617.7    280.8   0.015049742   0.13910  -0.09878   0.15447  -0.32479
  33   35673.0    280.3   0.048339023   0.44610  -0.30279   0.14796  -0.57665
  34   35883.2    278.7   0.015943373   0.14627  -0.26744   0.00625  -0.27333
  35   36043.3    277.4   0.001717333   0.01569  -0.00235   0.07785  -0.09808
  36   36125.8    276.8   0.022646516   0.20638  -0.34309   0.02545  -0.29668
  37   36222.9    276.1   0.006746728   0.06132   0.05094   0.18120  -0.16090
  38   36577.0    273.4   0.049242948   0.44321   0.10645   0.35907  -0.55041
  39   36886.1    271.1   0.091033009   0.81248  -0.49401  -0.15794  -0.73722
  40   37290.9    268.2   0.012354912   0.10907   0.24288   0.12832   0.18335
  41   37424.4    267.2   0.066567639   0.58558   0.12553   0.24845  -0.71281
  42   37596.4    266.0   0.051328149   0.44945  -0.10895   0.25631  -0.60983
  43   37804.1    264.5   0.017229851   0.15004   0.19578   0.25744  -0.21317
  44   38073.9    262.6   0.052740027   0.45602   0.23159  -0.12444   0.62202
  45   38532.0    259.5   0.195501582   1.67034   0.00016  -1.05363   0.74846
  46   38692.0    258.5   0.075618419   0.64340  -0.11435   0.22193  -0.76228
  47   38846.6    257.4   0.006871534   0.05823   0.22632   0.08308  -0.01051
  48   39600.4    252.5   0.042897602   0.35662   0.39865   0.27242   0.35141
  49   39794.5    251.3   0.131427601   1.08727   0.44349  -0.28059   0.90103
  50   40123.4    249.2   0.026425628   0.21682  -0.46301   0.04466   0.02114
  51   40320.2    248.0   0.018239016   0.14892  -0.36192   0.06007   0.11968

FINAL SINGLE POINT ENERGY     -4532.663768373672

DIPOLE MOMENT
-------------
                                X             Y             Z
Electronic contribution:     10.58666      14.91741      39.38392
Nuclear contribution   :    -12.62750     -15.20667     -44.72072
                        -----------------------------------------
Total Dipole Moment    :     -2.04085      -0.28926      -5.33680
                        -----------------------------------------
Magnitude (a.u.)       :      5.72103
Magnitude (Debye)      :     14.54169

Rotational constants in cm-1:     0.001435     0.000233     0.000214
Rotational constants in MHz :    43.034791     6.971985     6.423203

                             ****ORCA TERMINATED NORMALLY****
TOTAL RUN TIME: 0 days 0 hours 13 minutes 31 seconds 693 msec
