                         Program Version 4.2.0 -  RELEASE  -
|  1> # ORCA input file
|  2> # SCF done       -187.687230584963          0.000806275805
|  3> ! CAM-B3LYP def2-SVP def2/J RIJCOSX Grid4 TightSCF
|  4> %maxcore 5000
|  5> %tddft
|  6>     Mode sTDDFT
|  7>     Ethresh 5.0
|  8>     maxcore 5000
|  9> end
| 10>
| 11> %pal
| 12>   nprocs 6
| 13>   end
| 14> * xyz 0 1
| 15>    C       -7.67293         3.22195        -8.56513
| 16>    C       -6.98857         4.32869        -9.01289
| 17>    C       -6.72109         4.60009       -10.37020
| 18>    N       -6.46354         4.89394       -11.45045
| 19>    C       -6.45049         5.36324        -8.22337
| 20>    N       -5.97948         6.25295        -7.66522
| 21>    C       -8.20577         2.17804        -9.43423
| 22>    C       -8.85650         1.21352        -8.62940
| 23>    C       -9.45906         0.09490        -9.14978
| 24>    C       -9.41644        -0.08431       -10.53602
| 25>    C       -8.76539         0.88487       -11.33389
| 26>    C       -8.15725         2.01801       -10.80631
| 27>    S       -8.83285         0.46069       -13.01691
| 28>    C       -9.71278        -0.98122       -12.64303
| 29>    C       -9.94940        -1.14399       -11.32321
| 30>    C       -8.76394         1.61096        -7.21031
| 31>    O       -9.24836         0.99417        -6.28188
| 32>    C       -7.99513         2.87116        -7.19403
| 33>    C       -7.60802         3.63728        -6.11999
| 34>    C       -7.76190         3.47378        -4.73647
| 35>    N       -7.26298         4.42242        -3.85028
| 36>    C       -6.83003         5.75338        -4.21145
| 37>    C       -8.01323         6.62584        -4.62927
| 38>    C       -7.49198         4.00342        -2.58464
| 39>    C       -8.14658         2.76925        -2.63671
| 40>    C       -8.30684         2.43407        -3.96527
| 41>    C       -7.06733         4.68208        -1.37021
| 42>    C       -5.78669         5.14047        -1.20555
| 43>    C       -5.40252         5.72311         0.02330
| 44>    C       -4.18578         6.23654         0.44207
| 45>    C       -2.93801         6.26858        -0.37335
| 46>    C       -2.11820         7.56124        -0.22150
| 47>    N       -1.50909         7.88833        -1.49906
| 48>    C       -2.07609         4.99841        -0.10257
| 49>    N       -1.64953         4.77881         1.25813
| 50>    C       -4.36537         6.65814         1.81327
| 51>    C       -3.51212         7.16695         2.72191
| 52>    C       -3.94646         7.52608         4.10232
| 53>    C       -5.38005         7.22854         4.40449
| 54>    C       -6.22069         6.70582         3.49276
| 55>    C       -5.76546         6.39497         2.19023
| 56>    C       -6.38208         5.82507         1.09572
| 57>    C       -7.69513         5.34083         0.88986
| 58>    C       -8.01820         4.78020        -0.30210
| 59>    C       -3.68652         9.00428         4.27771
| 60>    C       -2.76401         9.48367         5.11586
| 61>    C       -2.38093        10.83854         5.40120
| 62>    N       -2.59410        11.96020         4.66181
| 63>    C       -3.19169        12.03823         3.35154
| 64>    C       -4.68623        12.35177         3.42003
| 65>    C       -1.99296        13.02861         5.28053
| 66>    C       -1.40409        12.56169         6.46271
| 67>    C       -1.65260        11.20663         6.53835
| 68>    C       -2.10447        14.36269         4.82714
| 69>    C       -1.30132        15.41406         5.15870
| 70>    C        0.03228        15.46423         5.71196
| 71>    C        1.01074        14.51776         5.53472
| 72>    C        2.32926        14.65001         6.00953
| 73>    N        3.40787        14.70437         6.40009
| 74>    C        0.81922        13.35486         4.76350
| 75>    N        0.72212        12.42865         4.09129
| 76>    C        0.23520        16.80968         6.23535
| 77>    C       -0.84884        17.62528         5.81780
| 78>    C       -1.81024        16.80374         5.05610
| 79>    O       -2.82703        17.16494         4.50369
| 80>    C       -0.92344        18.96111         6.12896
| 81>    C        0.10981        19.51366         6.89314
| 82>    C        1.18019        18.68806         7.31194
| 83>    C        1.26291        17.33798         6.99073
| 84>    S        2.33384        19.58203         8.25131
| 85>    C        1.39579        21.02470         8.07483
| 86>    C        0.26916        20.85267         7.34995
| 87>    H       -9.94576        -0.62067        -8.50517
| 88>    H       -7.67416         2.72390       -11.46054
| 89>    H      -10.00212        -1.62727       -13.44904
| 90>    H      -10.48073        -1.97999       -10.90511
| 91>    H       -7.06160         4.52879        -6.39092
| 92>    H       -6.09418         5.70622        -5.01858
| 93>    H       -6.35089         6.20332        -3.34150
| 94>    H       -8.53758         6.19672        -5.47906
| 95>    H       -7.65420         7.61172        -4.90929
| 96>    H       -8.71504         6.72698        -3.80401
| 97>    H       -8.43070         2.18416        -1.78439
| 98>    H       -8.75529         1.54655        -4.36034
| 99>    H       -5.05081         5.01287        -1.98673
|100>    H       -3.22742         6.22527        -1.42824
|101>    H       -1.37578         7.45568         0.58921
|102>    H       -2.78571         8.38716         0.04142
|103>    H       -0.84396         7.17155        -1.76956
|104>    H       -1.00866         8.76818        -1.44381
|105>    H       -1.18015         5.04306        -0.72817
|106>    H       -2.65776         4.12360        -0.40522
|107>    H       -1.07329         5.54314         1.59175
|108>    H       -2.44929         4.68949         1.87499
|109>    H       -2.47583         7.37290         2.49633
|110>    H       -3.30854         6.98404         4.81525
|111>    H       -5.71016         7.47156         5.40296
|112>    H       -7.25139         6.50408         3.74667
|113>    H       -8.42224         5.41372         1.68515
|114>    H       -9.01336         4.40153        -0.48125
|115>    H       -4.32407         9.62935         3.67477
|116>    H       -2.21264         8.77263         5.72105
|117>    H       -3.02107        11.08841         2.83977
|118>    H       -2.67345        12.81759         2.78678
|119>    H       -5.20635        11.62823         4.04353
|120>    H       -5.11377        12.32668         2.42130
|121>    H       -4.85500        13.33908         3.84213
|122>    H       -0.89904        13.16575         7.19065
|123>    H       -1.35406        10.54138         7.32431
|124>    H       -2.97878        14.62641         4.24197
|125>    H       -1.75368        19.56285         5.79307
|126>    H        2.09362        16.74365         7.33468
|127>    H        1.75266        21.92646         8.53321
|128>    H       -0.43544        21.63624         7.13743
|129> *
|130>
|131>                          ****END OF INPUT****

CARTESIAN COORDINATES (ANGSTROEM)
---------------------------------
  C     -7.672930    3.221950   -8.565130
  C     -6.988570    4.328690   -9.012890
  C     -6.721090    4.600090  -10.370200
  N     -6.463540    4.893940  -11.450450
  C     -6.450490    5.363240   -8.223370
  N     -5.979480    6.252950   -7.665220
  C     -8.205770    2.178040   -9.434230
  C     -8.856500    1.213520   -8.629400
  C     -9.459060    0.094900   -9.149780
  C     -9.416440   -0.084310  -10.536020
  C     -8.765390    0.884870  -11.333890
  C     -8.157250    2.018010  -10.806310
  S     -8.832850    0.460690  -13.016910
  C     -9.712780   -0.981220  -12.643030
  C     -9.949400   -1.143990  -11.323210
  C     -8.763940    1.610960   -7.210310
  O     -9.248360    0.994170   -6.281880
  C     -7.995130    2.871160   -7.194030
  C     -7.608020    3.637280   -6.119990
  C     -7.761900    3.473780   -4.736470
  N     -7.262980    4.422420   -3.850280
  C     -6.830030    5.753380   -4.211450
  C     -8.013230    6.625840   -4.629270
  C     -7.491980    4.003420   -2.584640
  C     -8.146580    2.769250   -2.636710
  C     -8.306840    2.434070   -3.965270
  C     -7.067330    4.682080   -1.370210
  C     -5.786690    5.140470   -1.205550
  C     -5.402520    5.723110    0.023300
  C     -4.185780    6.236540    0.442070
  C     -2.938010    6.268580   -0.373350
  C     -2.118200    7.561240   -0.221500
  N     -1.509090    7.888330   -1.499060
  C     -2.076090    4.998410   -0.102570
  N     -1.649530    4.778810    1.258130
  C     -4.365370    6.658140    1.813270
  C     -3.512120    7.166950    2.721910
  C     -3.946460    7.526080    4.102320
  C     -5.380050    7.228540    4.404490
  C     -6.220690    6.705820    3.492760
  C     -5.765460    6.394970    2.190230
  C     -6.382080    5.825070    1.095720
  C     -7.695130    5.340830    0.889860
  C     -8.018200    4.780200   -0.302100
  C     -3.686520    9.004280    4.277710
  C     -2.764010    9.483670    5.115860
  C     -2.380930   10.838540    5.401200
  N     -2.594100   11.960200    4.661810
  C     -3.191690   12.038230    3.351540
  C     -4.686230   12.351770    3.420030
  C     -1.992960   13.028610    5.280530
  C     -1.404090   12.561690    6.462710
  C     -1.652600   11.206630    6.538350
  C     -2.104470   14.362690    4.827140
  C     -1.301320   15.414060    5.158700
  C      0.032280   15.464230    5.711960
  C      1.010740   14.517760    5.534720
  C      2.329260   14.650010    6.009530
  N      3.407870   14.704370    6.400090
  C      0.819220   13.354860    4.763500
  N      0.722120   12.428650    4.091290
  C      0.235200   16.809680    6.235350
  C     -0.848840   17.625280    5.817800
  C     -1.810240   16.803740    5.056100
  O     -2.827030   17.164940    4.503690
  C     -0.923440   18.961110    6.128960
  C      0.109810   19.513660    6.893140
  C      1.180190   18.688060    7.311940
  C      1.262910   17.337980    6.990730
  S      2.333840   19.582030    8.251310
  C      1.395790   21.024700    8.074830
  C      0.269160   20.852670    7.349950
  H     -9.945760   -0.620670   -8.505170
  H     -7.674160    2.723900  -11.460540
  H    -10.002120   -1.627270  -13.449040
  H    -10.480730   -1.979990  -10.905110
  H     -7.061600    4.528790   -6.390920
  H     -6.094180    5.706220   -5.018580
  H     -6.350890    6.203320   -3.341500
  H     -8.537580    6.196720   -5.479060
  H     -7.654200    7.611720   -4.909290
  H     -8.715040    6.726980   -3.804010
  H     -8.430700    2.184160   -1.784390
  H     -8.755290    1.546550   -4.360340
  H     -5.050810    5.012870   -1.986730
  H     -3.227420    6.225270   -1.428240
  H     -1.375780    7.455680    0.589210
  H     -2.785710    8.387160    0.041420
  H     -0.843960    7.171550   -1.769560
  H     -1.008660    8.768180   -1.443810
  H     -1.180150    5.043060   -0.728170
  H     -2.657760    4.123600   -0.405220
  H     -1.073290    5.543140    1.591750
  H     -2.449290    4.689490    1.874990
  H     -2.475830    7.372900    2.496330
  H     -3.308540    6.984040    4.815250
  H     -5.710160    7.471560    5.402960
  H     -7.251390    6.504080    3.746670
  H     -8.422240    5.413720    1.685150
  H     -9.013360    4.401530   -0.481250
  H     -4.324070    9.629350    3.674770
  H     -2.212640    8.772630    5.721050
  H     -3.021070   11.088410    2.839770
  H     -2.673450   12.817590    2.786780
  H     -5.206350   11.628230    4.043530
  H     -5.113770   12.326680    2.421300
  H     -4.855000   13.339080    3.842130
  H     -0.899040   13.165750    7.190650
  H     -1.354060   10.541380    7.324310
  H     -2.978780   14.626410    4.241970
  H     -1.753680   19.562850    5.793070
  H      2.093620   16.743650    7.334680
  H      1.752660   21.926460    8.533210
  H     -0.435440   21.636240    7.137430

 Total Charge           Charge          ....    0
 Multiplicity           Mult            ....    1
 Number of Electrons    NEL             ....  506
 Basis Dimension        Dim             .... 1226

ORBITAL ENERGIES
----------------

  NO   OCC          E(Eh)            E(eV)
   0   2.0000     -88.963950     -2420.8322
   1   2.0000     -88.956631     -2420.6330
   2   2.0000     -19.208089      -522.6787
   3   2.0000     -19.201733      -522.5057
   4   2.0000     -14.478273      -393.9738
   5   2.0000     -14.469165      -393.7260
   6   2.0000     -14.410047      -392.1173
   7   2.0000     -14.408968      -392.0879
   8   2.0000     -14.408718      -392.0812
   9   2.0000     -14.400311      -391.8524
  10   2.0000     -14.381801      -391.3487
  11   2.0000     -14.380147      -391.3037
  12   2.0000     -10.359659      -281.9007
  13   2.0000     -10.353008      -281.7197
  14   2.0000     -10.335642      -281.2471
  15   2.0000     -10.334429      -281.2141
  16   2.0000     -10.328764      -281.0599
  17   2.0000     -10.325538      -280.9722
  18   2.0000     -10.324860      -280.9537
  19   2.0000     -10.318910      -280.7918
  20   2.0000     -10.317549      -280.7548
  21   2.0000     -10.315007      -280.6856
  22   2.0000     -10.314724      -280.6779
  23   2.0000     -10.313733      -280.6510
  24   2.0000     -10.313239      -280.6375
  25   2.0000     -10.311642      -280.5941
  26   2.0000     -10.311345      -280.5860
  27   2.0000     -10.310919      -280.5744
  28   2.0000     -10.310380      -280.5597
  29   2.0000     -10.309077      -280.5243
  30   2.0000     -10.308730      -280.5148
  31   2.0000     -10.306868      -280.4641
  32   2.0000     -10.304899      -280.4106
  33   2.0000     -10.304864      -280.4096
  34   2.0000     -10.303068      -280.3607
  35   2.0000     -10.302677      -280.3501
  36   2.0000     -10.301526      -280.3188
  37   2.0000     -10.299882      -280.2740
  38   2.0000     -10.298285      -280.2306
  39   2.0000     -10.297385      -280.2061
  40   2.0000     -10.295595      -280.1574
  41   2.0000     -10.295493      -280.1546
  42   2.0000     -10.293092      -280.0893
  43   2.0000     -10.291330      -280.0413
  44   2.0000     -10.290746      -280.0254
  45   2.0000     -10.289795      -279.9995
  46   2.0000     -10.288704      -279.9699
  47   2.0000     -10.288350      -279.9602
  48   2.0000     -10.286845      -279.9193
  49   2.0000     -10.286529      -279.9107
  50   2.0000     -10.286518      -279.9104
  51   2.0000     -10.284663      -279.8599
  52   2.0000     -10.283657      -279.8325
  53   2.0000     -10.280779      -279.7542
  54   2.0000     -10.280355      -279.7427
  55   2.0000     -10.280061      -279.7347
  56   2.0000     -10.278927      -279.7038
  57   2.0000     -10.278590      -279.6947
  58   2.0000     -10.277564      -279.6667
  59   2.0000     -10.276964      -279.6504
  60   2.0000     -10.276660      -279.6421
  61   2.0000     -10.274548      -279.5847
  62   2.0000     -10.274495      -279.5832
  63   2.0000     -10.270527      -279.4753
  64   2.0000     -10.270201      -279.4664
  65   2.0000     -10.269242      -279.4403
  66   2.0000     -10.267814      -279.4014
  67   2.0000     -10.266478      -279.3651
  68   2.0000     -10.265021      -279.3254
  69   2.0000     -10.261528      -279.2304
  70   2.0000     -10.260552      -279.2038
  71   2.0000     -10.257654      -279.1250
  72   2.0000      -8.060181      -219.3287
  73   2.0000      -8.052916      -219.1310
  74   2.0000      -6.029706      -164.0767
  75   2.0000      -6.025394      -163.9593
  76   2.0000      -6.022425      -163.8785
  77   2.0000      -6.021854      -163.8630
  78   2.0000      -6.018153      -163.7623
  79   2.0000      -6.014558      -163.6644
  80   2.0000      -1.122392       -30.5418
  81   2.0000      -1.116104       -30.3707
  82   2.0000      -1.102418       -29.9983
  83   2.0000      -1.093157       -29.7463
  84   2.0000      -1.015095       -27.6221
  85   2.0000      -1.008869       -27.4527
  86   2.0000      -1.003588       -27.3090
  87   2.0000      -0.998405       -27.1680
  88   2.0000      -0.991668       -26.9846
  89   2.0000      -0.988056       -26.8864
  90   2.0000      -0.983261       -26.7559
  91   2.0000      -0.980206       -26.6728
  92   2.0000      -0.972336       -26.4586
  93   2.0000      -0.971233       -26.4286
  94   2.0000      -0.954299       -25.9678
  95   2.0000      -0.953967       -25.9588
  96   2.0000      -0.929568       -25.2948
  97   2.0000      -0.925885       -25.1946
  98   2.0000      -0.922523       -25.1031
  99   2.0000      -0.919092       -25.0098
 100   2.0000      -0.910461       -24.7749
 101   2.0000      -0.904910       -24.6239
 102   2.0000      -0.892780       -24.2938
 103   2.0000      -0.888815       -24.1859
 104   2.0000      -0.878121       -23.8949
 105   2.0000      -0.877095       -23.8670
 106   2.0000      -0.870894       -23.6982
 107   2.0000      -0.869431       -23.6584
 108   2.0000      -0.860580       -23.4176
 109   2.0000      -0.845973       -23.0201
 110   2.0000      -0.837058       -22.7775
 111   2.0000      -0.834763       -22.7151
 112   2.0000      -0.830399       -22.5963
 113   2.0000      -0.821905       -22.3652
 114   2.0000      -0.819486       -22.2993
 115   2.0000      -0.812061       -22.0973
 116   2.0000      -0.811065       -22.0702
 117   2.0000      -0.795410       -21.6442
 118   2.0000      -0.773663       -21.0524
 119   2.0000      -0.763407       -20.7734
 120   2.0000      -0.759881       -20.6774
 121   2.0000      -0.749146       -20.3853
 122   2.0000      -0.745766       -20.2933
 123   2.0000      -0.741047       -20.1649
 124   2.0000      -0.735564       -20.0157
 125   2.0000      -0.732395       -19.9295
 126   2.0000      -0.725955       -19.7542
 127   2.0000      -0.716917       -19.5083
 128   2.0000      -0.698688       -19.0123
 129   2.0000      -0.694391       -18.8953
 130   2.0000      -0.688488       -18.7347
 131   2.0000      -0.688404       -18.7324
 132   2.0000      -0.683881       -18.6093
 133   2.0000      -0.677584       -18.4380
 134   2.0000      -0.673915       -18.3382
 135   2.0000      -0.672518       -18.3001
 136   2.0000      -0.665548       -18.1105
 137   2.0000      -0.662760       -18.0346
 138   2.0000      -0.657183       -17.8829
 139   2.0000      -0.653874       -17.7928
 140   2.0000      -0.650104       -17.6902
 141   2.0000      -0.637972       -17.3601
 142   2.0000      -0.636183       -17.3114
 143   2.0000      -0.626754       -17.0548
 144   2.0000      -0.620468       -16.8838
 145   2.0000      -0.615555       -16.7501
 146   2.0000      -0.613492       -16.6940
 147   2.0000      -0.607296       -16.5254
 148   2.0000      -0.602174       -16.3860
 149   2.0000      -0.595726       -16.2105
 150   2.0000      -0.591745       -16.1022
 151   2.0000      -0.587277       -15.9806
 152   2.0000      -0.585406       -15.9297
 153   2.0000      -0.582151       -15.8411
 154   2.0000      -0.578550       -15.7431
 155   2.0000      -0.572058       -15.5665
 156   2.0000      -0.568459       -15.4686
 157   2.0000      -0.559540       -15.2259
 158   2.0000      -0.556924       -15.1547
 159   2.0000      -0.553137       -15.0516
 160   2.0000      -0.552429       -15.0324
 161   2.0000      -0.551196       -14.9988
 162   2.0000      -0.545522       -14.8444
 163   2.0000      -0.542159       -14.7529
 164   2.0000      -0.541212       -14.7271
 165   2.0000      -0.536482       -14.5984
 166   2.0000      -0.534185       -14.5359
 167   2.0000      -0.532402       -14.4874
 168   2.0000      -0.529700       -14.4139
 169   2.0000      -0.527961       -14.3665
 170   2.0000      -0.527257       -14.3474
 171   2.0000      -0.525271       -14.2933
 172   2.0000      -0.523591       -14.2476
 173   2.0000      -0.522474       -14.2172
 174   2.0000      -0.521958       -14.2032
 175   2.0000      -0.519211       -14.1285
 176   2.0000      -0.512988       -13.9591
 177   2.0000      -0.511943       -13.9307
 178   2.0000      -0.509593       -13.8667
 179   2.0000      -0.506267       -13.7762
 180   2.0000      -0.504975       -13.7411
 181   2.0000      -0.501124       -13.6363
 182   2.0000      -0.497838       -13.5469
 183   2.0000      -0.497281       -13.5317
 184   2.0000      -0.495262       -13.4768
 185   2.0000      -0.492983       -13.4147
 186   2.0000      -0.490407       -13.3447
 187   2.0000      -0.489059       -13.3080
 188   2.0000      -0.486280       -13.2324
 189   2.0000      -0.481677       -13.1071
 190   2.0000      -0.480997       -13.0886
 191   2.0000      -0.479445       -13.0464
 192   2.0000      -0.478187       -13.0121
 193   2.0000      -0.478080       -13.0092
 194   2.0000      -0.472829       -12.8663
 195   2.0000      -0.469638       -12.7795
 196   2.0000      -0.466755       -12.7011
 197   2.0000      -0.466429       -12.6922
 198   2.0000      -0.463881       -12.6229
 199   2.0000      -0.459744       -12.5103
 200   2.0000      -0.457288       -12.4434
 201   2.0000      -0.455916       -12.4061
 202   2.0000      -0.453949       -12.3526
 203   2.0000      -0.451315       -12.2809
 204   2.0000      -0.449201       -12.2234
 205   2.0000      -0.448181       -12.1956
 206   2.0000      -0.444755       -12.1024
 207   2.0000      -0.444439       -12.0938
 208   2.0000      -0.442851       -12.0506
 209   2.0000      -0.442826       -12.0499
 210   2.0000      -0.438677       -11.9370
 211   2.0000      -0.438043       -11.9197
 212   2.0000      -0.436208       -11.8698
 213   2.0000      -0.432651       -11.7730
 214   2.0000      -0.430908       -11.7256
 215   2.0000      -0.429680       -11.6922
 216   2.0000      -0.428555       -11.6616
 217   2.0000      -0.427986       -11.6461
 218   2.0000      -0.423876       -11.5343
 219   2.0000      -0.421862       -11.4795
 220   2.0000      -0.421415       -11.4673
 221   2.0000      -0.421210       -11.4617
 222   2.0000      -0.416180       -11.3248
 223   2.0000      -0.415130       -11.2963
 224   2.0000      -0.412057       -11.2127
 225   2.0000      -0.410158       -11.1610
 226   2.0000      -0.409429       -11.1411
 227   2.0000      -0.400951       -10.9104
 228   2.0000      -0.399224       -10.8634
 229   2.0000      -0.396298       -10.7838
 230   2.0000      -0.395337       -10.7577
 231   2.0000      -0.394770       -10.7422
 232   2.0000      -0.382163       -10.3992
 233   2.0000      -0.375091       -10.2067
 234   2.0000      -0.368360       -10.0236
 235   2.0000      -0.367730       -10.0064
 236   2.0000      -0.349785        -9.5181
 237   2.0000      -0.345844        -9.4109
 238   2.0000      -0.336694        -9.1619
 239   2.0000      -0.329568        -8.9680
 240   2.0000      -0.328387        -8.9359
 241   2.0000      -0.324136        -8.8202
 242   2.0000      -0.320683        -8.7262
 243   2.0000      -0.319396        -8.6912
 244   2.0000      -0.309799        -8.4301
 245   2.0000      -0.306912        -8.3515
 246   2.0000      -0.302995        -8.2449
 247   2.0000      -0.298101        -8.1117
 248   2.0000      -0.292059        -7.9473
 249   2.0000      -0.285238        -7.7617
 250   2.0000      -0.261464        -7.1148
 251   2.0000      -0.260162        -7.0794
 252   2.0000      -0.228563        -6.2195
 253   0.0000      -0.086266        -2.3474
 254   0.0000      -0.080729        -2.1968
 255   0.0000      -0.068198        -1.8558
 256   0.0000      -0.051182        -1.3927
 257   0.0000      -0.042887        -1.1670

MULLIKEN ATOMIC CHARGES
-----------------------
   0 C :    0.325594
   1 C :   -0.386181
   2 C :   -0.185983
   3 N :    0.138298
   4 C :   -0.167183
   5 N :    0.125799
   6 C :    0.006909
   7 C :   -0.010509
   8 C :   -0.075776
   9 C :    0.116551
  10 C :   -0.098252
  11 C :   -0.021595
  12 S :    0.134529
  13 C :   -0.050185
  14 C :    0.023005
  15 C :    0.145579
  16 O :   -0.160439
  17 C :   -0.094934
  18 C :   -0.001088
  19 C :    0.099070
  20 N :   -0.165751
  21 C :    0.068600
  22 C :    0.019944
  23 C :    0.096235
  24 C :   -0.023506
  25 C :   -0.018159
  26 C :    0.021472
  27 C :   -0.063408
  28 C :    0.041202
  29 C :   -0.051669
  30 C :   -0.033971
  31 C :    0.112674
  32 N :   -0.206697
  33 C :    0.151053
  34 N :   -0.216537
  35 C :    0.105585
  36 C :   -0.156846
  37 C :    0.136331
  38 C :   -0.047608
  39 C :    0.023278
  40 C :    0.005729
  41 C :    0.043494
  42 C :   -0.005952
  43 C :    0.008300
  44 C :   -0.071075
  45 C :    0.025611
  46 C :    0.112144
  47 N :   -0.152395
  48 C :    0.075910
  49 C :    0.011466
  50 C :    0.063458
  51 C :    0.019445
  52 C :   -0.032078
  53 C :    0.028387
  54 C :   -0.132870
  55 C :    0.260493
  56 C :   -0.339014
  57 C :   -0.179275
  58 N :    0.147820
  59 C :   -0.193431
  60 N :    0.154385
  61 C :    0.000695
  62 C :    0.003333
  63 C :    0.135037
  64 O :   -0.155237
  65 C :   -0.071968
  66 C :    0.109836
  67 C :   -0.093167
  68 C :   -0.026045
  69 S :    0.136957
  70 C :   -0.049722
  71 C :    0.024428
  72 H :   -0.016096
  73 H :   -0.010216
  74 H :    0.035173
  75 H :   -0.009629
  76 H :   -0.030699
  77 H :    0.054248
  78 H :    0.033806
  79 H :    0.020997
  80 H :    0.034718
  81 H :    0.018479
  82 H :   -0.022863
  83 H :    0.006584
  84 H :   -0.017746
  85 H :   -0.017732
  86 H :   -0.022044
  87 H :   -0.002254
  88 H :    0.089824
  89 H :    0.093373
  90 H :   -0.008387
  91 H :    0.000249
  92 H :    0.083029
  93 H :    0.099166
  94 H :   -0.019510
  95 H :    0.028563
  96 H :   -0.010343
  97 H :   -0.033955
  98 H :   -0.032351
  99 H :   -0.021028
 100 H :    0.005305
 101 H :   -0.006712
 102 H :    0.036262
 103 H :    0.041451
 104 H :    0.029592
 105 H :    0.031356
 106 H :    0.027218
 107 H :   -0.007502
 108 H :   -0.021162
 109 H :    0.008969
 110 H :   -0.012910
 111 H :   -0.005133
 112 H :    0.037204
 113 H :   -0.007420
Sum of atomic charges:   -0.0000000

LOEWDIN ATOMIC CHARGES
----------------------
   0 C :    0.083228
   1 C :   -0.162743
   2 C :   -0.018681
   3 N :   -0.067080
   4 C :   -0.016562
   5 N :   -0.073546
   6 C :   -0.024139
   7 C :   -0.050306
   8 C :    0.018584
   9 C :   -0.036643
  10 C :   -0.147842
  11 C :   -0.010061
  12 S :    0.423728
  13 C :   -0.152853
  14 C :   -0.059241
  15 C :    0.084721
  16 O :   -0.151581
  17 C :   -0.116398
  18 C :    0.059211
  19 C :   -0.034305
  20 N :    0.076840
  21 C :    0.035281
  22 C :   -0.055081
  23 C :    0.033107
  24 C :   -0.070060
  25 C :    0.001067
  26 C :   -0.037275
  27 C :   -0.010930
  28 C :   -0.019737
  29 C :   -0.038546
  30 C :   -0.054384
  31 C :    0.021904
  32 N :   -0.113838
  33 C :    0.026143
  34 N :   -0.102267
  35 C :   -0.021529
  36 C :    0.058966
  37 C :   -0.027093
  38 C :   -0.035731
  39 C :   -0.014903
  40 C :   -0.037007
  41 C :   -0.030731
  42 C :   -0.005426
  43 C :   -0.024655
  44 C :   -0.008734
  45 C :   -0.037467
  46 C :    0.011151
  47 N :    0.083130
  48 C :    0.041589
  49 C :   -0.060268
  50 C :   -0.029996
  51 C :   -0.020513
  52 C :   -0.054626
  53 C :    0.054817
  54 C :   -0.101575
  55 C :    0.068472
  56 C :   -0.147198
  57 C :   -0.021659
  58 N :   -0.059175
  59 C :   -0.012627
  60 N :   -0.059800
  61 C :   -0.019716
  62 C :   -0.054284
  63 C :    0.081237
  64 O :   -0.155097
  65 C :    0.021873
  66 C :   -0.036979
  67 C :   -0.145801
  68 C :   -0.012785
  69 S :    0.426510
  70 C :   -0.151420
  71 C :   -0.058012
  72 H :    0.038295
  73 H :    0.039746
  74 H :    0.027875
  75 H :    0.034009
  76 H :    0.041352
  77 H :    0.031670
  78 H :    0.034721
  79 H :    0.025553
  80 H :    0.036786
  81 H :    0.027011
  82 H :    0.027191
  83 H :    0.030362
  84 H :    0.027660
  85 H :    0.029152
  86 H :   -0.008975
  87 H :    0.017625
  88 H :    0.050597
  89 H :    0.056190
  90 H :    0.013390
  91 H :    0.021150
  92 H :    0.042739
  93 H :    0.050692
  94 H :    0.025102
  95 H :    0.055062
  96 H :    0.025775
  97 H :    0.030752
  98 H :    0.028657
  99 H :    0.029400
 100 H :    0.026499
 101 H :    0.038550
 102 H :    0.032454
 103 H :    0.035901
 104 H :    0.027571
 105 H :    0.035221
 106 H :    0.029611
 107 H :    0.029639
 108 H :    0.027449
 109 H :    0.041233
 110 H :    0.039942
 111 H :    0.040120
 112 H :    0.028686
 113 H :    0.034927

  Mayer bond orders larger than 0.100000
B(  0-C ,  1-C ) :   1.5759 B(  0-C ,  6-C ) :   0.9872 B(  0-C , 17-C ) :   1.1181
B(  1-C ,  2-C ) :   1.1526 B(  1-C ,  4-C ) :   1.1588 B(  2-C ,  3-N ) :   2.9632
B(  4-C ,  5-N ) :   2.9439 B(  6-C ,  7-C ) :   1.2740 B(  6-C , 11-C ) :   1.4135
B(  7-C ,  8-C ) :   1.4278 B(  7-C , 15-C ) :   0.9493 B(  8-C ,  9-C ) :   1.2378
B(  8-C , 72-H ) :   1.0170 B(  9-C , 10-C ) :   1.3089 B(  9-C , 14-C ) :   1.1719
B( 10-C , 11-C ) :   1.3211 B( 10-C , 12-S ) :   1.0956 B( 11-C , 73-H ) :   0.9818
B( 12-S , 13-C ) :   1.1263 B( 13-C , 14-C ) :   1.6274 B( 13-C , 74-H ) :   0.9686
B( 14-C , 75-H ) :   0.9988 B( 15-C , 16-O ) :   2.1780 B( 15-C , 17-C ) :   0.9403
B( 17-C , 18-C ) :   1.5120 B( 18-C , 19-C ) :   1.2266 B( 18-C , 76-H ) :   0.9005
B( 19-C , 20-N ) :   1.1007 B( 19-C , 25-C ) :   1.3514 B( 20-N , 21-C ) :   0.9458
B( 20-N , 23-C ) :   1.2998 B( 21-C , 22-C ) :   1.1193 B( 21-C , 77-H ) :   0.9309
B( 21-C , 78-H ) :   0.9340 B( 22-C , 79-H ) :   0.9645 B( 22-C , 80-H ) :   0.9648
B( 22-C , 81-H ) :   0.9634 B( 23-C , 24-C ) :   1.3664 B( 23-C , 26-C ) :   0.9541
B( 24-C , 25-C ) :   1.3643 B( 24-C , 82-H ) :   1.0103 B( 25-C , 83-H ) :   0.9954
B( 26-C , 27-C ) :   1.5543 B( 26-C , 43-C ) :   1.1538 B( 27-C , 28-C ) :   1.1367
B( 27-C , 84-H ) :   0.9867 B( 28-C , 29-C ) :   1.5065 B( 28-C , 41-C ) :   1.1251
B( 29-C , 30-C ) :   1.0359 B( 29-C , 35-C ) :   1.0855 B( 30-C , 31-C ) :   1.0266
B( 30-C , 33-C ) :   1.0054 B( 30-C , 85-H ) :   0.8623 B( 31-C , 32-N ) :   1.1130
B( 31-C , 86-H ) :   0.9195 B( 31-C , 87-H ) :   0.9483 B( 32-N , 88-H ) :   0.9684
B( 32-N , 89-H ) :   0.9668 B( 33-C , 34-N ) :   1.1315 B( 33-C , 90-H ) :   0.9449
B( 33-C , 91-H ) :   0.9434 B( 34-N , 92-H ) :   0.9812 B( 34-N , 93-H ) :   0.9795
B( 35-C , 36-C ) :   1.6147 B( 35-C , 40-C ) :   1.0511 B( 36-C , 37-C ) :   0.9741
B( 36-C , 94-H ) :   0.9734 B( 37-C , 38-C ) :   0.9846 B( 37-C , 44-C ) :   0.9568
B( 37-C , 95-H ) :   0.8711 B( 38-C , 39-C ) :   1.7057 B( 38-C , 96-H ) :   0.9776
B( 39-C , 40-C ) :   1.1333 B( 39-C , 97-H ) :   0.9891 B( 40-C , 41-C ) :   1.4298
B( 41-C , 42-C ) :   1.1396 B( 42-C , 43-C ) :   1.5917 B( 42-C , 98-H ) :   0.9944
B( 43-C , 99-H ) :   0.9877 B( 44-C , 45-C ) :   1.7601 B( 44-C ,100-H ) :   0.9678
B( 45-C , 46-C ) :   1.0947 B( 45-C ,101-H ) :   0.9581 B( 46-C , 47-N ) :   1.2396
B( 46-C , 52-C ) :   1.3411 B( 47-N , 48-C ) :   0.9493 B( 47-N , 50-C ) :   1.1658
B( 48-C , 49-C ) :   1.1116 B( 48-C ,102-H ) :   0.9433 B( 48-C ,103-H ) :   0.9421
B( 49-C ,104-H ) :   0.9599 B( 49-C ,105-H ) :   0.9655 B( 49-C ,106-H ) :   0.9612
B( 50-C , 51-C ) :   1.3604 B( 50-C , 53-C ) :   1.0999 B( 51-C , 52-C ) :   1.3852
B( 51-C ,107-H ) :   1.0066 B( 52-C ,108-H ) :   1.0114 B( 53-C , 54-C ) :   1.6269
B( 53-C ,109-H ) :   0.9318 B( 54-C , 55-C ) :   1.0494 B( 54-C , 63-C ) :   0.9530
B( 55-C , 56-C ) :   1.6400 B( 55-C , 61-C ) :   1.0097 B( 56-C , 57-C ) :   1.1319
B( 56-C , 59-C ) :   1.1651 B( 57-C , 58-N ) :   2.9873 B( 59-C , 60-N ) :   3.0007
B( 61-C , 62-C ) :   1.2683 B( 61-C , 68-C ) :   1.4204 B( 62-C , 63-C ) :   0.9221
B( 62-C , 65-C ) :   1.4282 B( 63-C , 64-O ) :   2.2518 B( 65-C , 66-C ) :   1.2499
B( 65-C ,110-H ) :   1.0156 B( 66-C , 67-C ) :   1.3072 B( 66-C , 71-C ) :   1.1710
B( 67-C , 68-C ) :   1.3150 B( 67-C , 69-S ) :   1.0961 B( 68-C ,111-H ) :   0.9866
B( 69-S , 70-C ) :   1.1253 B( 70-C , 71-C ) :   1.6317 B( 70-C ,112-H ) :   0.9682
B( 71-C ,113-H ) :   0.9991

-----------------------------------------------------------------------------
         ABSORPTION SPECTRUM VIA TRANSITION ELECTRIC DIPOLE MOMENTS
-----------------------------------------------------------------------------
State   Energy  Wavelength   fosc         T2         TX        TY        TZ
        (cm-1)    (nm)                  (au**2)     (au)      (au)      (au)
-----------------------------------------------------------------------------
   0   14493.2    690.0   0.048661100   1.10533  -1.01120  -0.25601   0.13144
   1   19257.1    519.3   0.674636473  11.53335   1.66851   2.63875   1.33658
   2   20351.6    491.4   0.716054750  11.58307   0.46767   0.71193   3.29507
   3   21517.4    464.7   0.159942415   2.44708  -1.02302  -0.94100   0.71766
   4   23184.0    431.3   0.508402098   7.21930  -0.43070  -0.47368  -2.60949
   5   25508.0    392.0   0.086974922   1.12252  -0.26362  -0.93982  -0.41202
   6   26025.6    384.2   0.159016109   2.01148  -0.88519  -0.99004  -0.49773
   7   26960.9    370.9   0.074032281   0.90399   0.21051   0.92681   0.02649
   8   27337.5    365.8   0.117825836   1.41892  -0.64356  -0.04266   1.00146
   9   27604.0    362.3   0.054970035   0.65559  -0.24506   0.14755  -0.75747
  10   28519.7    350.6   0.564946354   6.52136  -0.51915  -2.29674  -0.98834
  11   29131.4    343.3   0.374323487   4.23021   0.61337   1.09724   1.62789
  12   29600.4    337.8   0.007617947   0.08473   0.22963   0.12284  -0.13001
  13   30113.6    332.1   0.119408497   1.30541  -0.08541   1.12251  -0.19518
  14   30345.1    329.5   0.007104868   0.07708  -0.05255  -0.09037  -0.25720
  15   30681.8    325.9   0.011418821   0.12252   0.24050   0.21736  -0.13205
  16   30899.4    323.6   0.011588283   0.12347  -0.10620  -0.32863   0.06474
  17   31030.4    322.3   0.011012040   0.11683  -0.19790   0.26964   0.07043
  18   31111.5    321.4   0.119440039   1.26388  -0.07823  -1.09744  -0.23104
  19   31783.4    314.6   0.266474838   2.76014   0.60686   1.13371   1.05194
  20   32230.8    310.3   0.006773882   0.06919   0.11064   0.19217   0.14148
  21   32738.0    305.5   0.181461373   1.82477  -0.27393   1.26607   0.38312
  22   32918.3    303.8   0.143901147   1.43914  -0.09906  -0.75704  -0.92532
  23   33165.8    301.5   0.012331074   0.12240   0.19471  -0.06364   0.28362
  24   34115.5    293.1   0.022451546   0.21666  -0.17143  -0.38505  -0.19749
  25   34147.5    292.8   0.224053500   2.16007   0.67387   1.17651   0.56726
  26   34325.5    291.3   0.567137184   5.43935   0.10572  -2.18864  -0.79876
  27   34540.3    289.5   0.301647724   2.87508   0.76951   1.48456   0.28111
  28   35299.2    283.3   0.073662759   0.68700   0.47523   0.25086   0.63105
  29   35884.6    278.7   0.001783553   0.01636   0.11368  -0.01686  -0.05617
  30   36713.5    272.4   0.209496513   1.87857   0.81613   0.49456   0.98383
  31   37158.9    269.1   0.005794912   0.05134   0.20005   0.03810   0.09933
  32   37310.2    268.0   0.000166375   0.00147  -0.01023   0.00424   0.03668
  33   37788.4    264.6   0.090477693   0.78824  -0.47998  -0.34889  -0.66041
  34   38023.4    263.0   0.005143523   0.04453   0.14984   0.02016  -0.14722
  35   38109.8    262.4   0.018100881   0.15636  -0.30330  -0.23594   0.09332
  36   38729.5    258.2   0.019328593   0.16430   0.27107   0.28742  -0.09060
  37   38776.9    257.9   0.032496846   0.27589   0.12392   0.10865  -0.49873
  38   38873.4    257.2   0.123967448   1.04986  -0.28425   0.29313  -0.93975
  39   39078.1    255.9   0.090780997   0.76478   0.42984   0.37049  -0.66540
  40   39185.6    255.2   0.060646970   0.50952   0.64417   0.17719   0.25133
  41   39822.0    251.1   0.065067250   0.53792   0.72027   0.07830   0.11402
  42   40076.3    249.5   0.081865140   0.67249   0.74855   0.22846  -0.24488

FINAL SINGLE POINT ENERGY     -3692.444680122828

DIPOLE MOMENT
-------------
                                X             Y             Z
Electronic contribution:      6.64258      16.89671     -22.48782
Nuclear contribution   :     -8.11262     -16.47604      25.53809
                        -----------------------------------------
Total Dipole Moment    :     -1.47004       0.42067       3.05027
                        -----------------------------------------
Magnitude (a.u.)       :      3.41206
Magnitude (Debye)      :      8.67276

Rotational constants in cm-1:     0.002303     0.000195     0.000187
Rotational constants in MHz :    69.048675     5.844285     5.620348

                             ****ORCA TERMINATED NORMALLY****
TOTAL RUN TIME: 0 days 0 hours 11 minutes 55 seconds 532 msec
