                         Program Version 4.2.0 -  RELEASE  -
|  1> # ORCA input file
|  2> # SCF done       -150.840539073463          0.000530406729
|  3> ! CAM-B3LYP def2-SVP def2/J RIJCOSX Grid4 TightSCF
|  4> %maxcore 5000
|  5> %tddft
|  6>     Mode sTDDFT
|  7>     Ethresh 5.0
|  8>     maxcore 5000
|  9> end
| 10>
| 11> %pal
| 12>   nprocs 6
| 13>   end
| 14> * xyz 0 1
| 15>    C       -0.38796         0.98327         0.17354
| 16>    C       -1.13503        -0.12185         0.49669
| 17>    C       -2.38171        -0.05014         1.29551
| 18>    O       -2.55946         0.81311         2.10811
| 19>    O       -3.32917        -0.95787         1.02568
| 20>    C       -0.41933        -1.18692        -0.14988
| 21>    N        0.62412        -0.69378        -0.78219
| 22>    O        0.63696         0.63838        -0.58982
| 23>    C       -0.63855        -2.61190        -0.16953
| 24>    C       -0.11819        -3.47289        -1.08799
| 25>    C       -0.45350        -4.82865        -0.84479
| 26>    C       -1.24733        -4.97650         0.32479
| 27>    S       -1.55596        -3.43530         1.08001
| 28>    C       -1.69563        -6.19796         0.76953
| 29>    C       -1.34748        -7.32630         0.02218
| 30>    C       -0.55727        -7.18366        -1.15162
| 31>    C       -0.10857        -5.95703        -1.58846
| 32>    S       -0.26680        -8.72316        -1.91589
| 33>    C       -1.18645        -9.54497        -0.67273
| 34>    C       -1.68412        -8.67410         0.26631
| 35>    C       -1.35790       -10.96357        -0.69919
| 36>    C       -0.82379       -11.75522        -1.73585
| 37>    C       -0.98741       -13.17959        -1.78448
| 38>    N       -0.44995       -13.86858        -2.81331
| 39>    C        0.20213       -13.24333        -3.73531
| 40>    C        0.36560       -11.83092        -3.68619
| 41>    N       -0.13486       -11.13828        -2.71859
| 42>    F        1.03648       -11.18840        -4.63534
| 43>    F        0.71607       -13.95530        -4.73171
| 44>    C       -1.68920       -13.89846        -0.79659
| 45>    C       -2.22643       -13.11431         0.24936
| 46>    C       -2.06597       -11.67531         0.29595
| 47>    N       -2.65923       -11.15443         1.37287
| 48>    S       -3.33816       -12.32518         2.22754
| 49>    N       -2.92778       -13.55981         1.29469
| 50>    C       -1.83702       -15.31899        -0.86365
| 51>    C       -2.47589       -16.12374         0.04799
| 52>    C       -2.45576       -17.49226        -0.29361
| 53>    C       -1.77212       -17.71954        -1.52026
| 54>    S       -1.17365       -16.23158        -2.20277
| 55>    C       -1.62705       -18.97965        -2.05550
| 56>    C       -2.17215       -20.05684        -1.35564
| 57>    C       -2.85096       -19.82516        -0.12817
| 58>    C       -3.00229       -18.56885         0.41007
| 59>    S       -3.43467       -21.31554         0.56538
| 60>    C       -2.78122       -22.22723        -0.78371
| 61>    C       -2.14850       -21.43045        -1.69587
| 62>    C       -2.87251       -23.65534        -0.86443
| 63>    C       -3.48264       -24.64623        -0.10645
| 64>    C       -4.35916       -24.63406         1.08428
| 65>    O       -4.30276       -25.48748         1.92344
| 66>    O       -5.26625       -23.64498         1.16248
| 67>    C       -3.05739       -25.84389        -0.74304
| 68>    N       -2.30564       -25.58854        -1.77008
| 69>    O       -2.17519       -24.24825        -1.85384
| 70>    H       -0.51803         2.01787         0.42103
| 71>    H       -3.06223        -1.61852         0.37132
| 72>    H        0.48156        -3.13765        -1.91382
| 73>    H       -2.29552        -6.29032         1.66077
| 74>    H        0.49272        -5.86431        -2.47839
| 75>    H       -2.27371        -9.00083         1.10260
| 76>    H       -2.94221       -15.73598         0.93447
| 77>    H       -1.10685       -19.13731        -2.98647
| 78>    H       -3.52012       -18.41220         1.34271
| 79>    H       -1.68228       -21.82062        -2.58242
| 80>    H       -5.23686       -23.02530         0.42194
| 81>    H       -3.30415       -26.84790        -0.46585
| 82> *
| 83>
| 84>                          ****END OF INPUT****

CARTESIAN COORDINATES (ANGSTROEM)
---------------------------------
  C     -0.387960    0.983270    0.173540
  C     -1.135030   -0.121850    0.496690
  C     -2.381710   -0.050140    1.295510
  O     -2.559460    0.813110    2.108110
  O     -3.329170   -0.957870    1.025680
  C     -0.419330   -1.186920   -0.149880
  N      0.624120   -0.693780   -0.782190
  O      0.636960    0.638380   -0.589820
  C     -0.638550   -2.611900   -0.169530
  C     -0.118190   -3.472890   -1.087990
  C     -0.453500   -4.828650   -0.844790
  C     -1.247330   -4.976500    0.324790
  S     -1.555960   -3.435300    1.080010
  C     -1.695630   -6.197960    0.769530
  C     -1.347480   -7.326300    0.022180
  C     -0.557270   -7.183660   -1.151620
  C     -0.108570   -5.957030   -1.588460
  S     -0.266800   -8.723160   -1.915890
  C     -1.186450   -9.544970   -0.672730
  C     -1.684120   -8.674100    0.266310
  C     -1.357900  -10.963570   -0.699190
  C     -0.823790  -11.755220   -1.735850
  C     -0.987410  -13.179590   -1.784480
  N     -0.449950  -13.868580   -2.813310
  C      0.202130  -13.243330   -3.735310
  C      0.365600  -11.830920   -3.686190
  N     -0.134860  -11.138280   -2.718590
  F      1.036480  -11.188400   -4.635340
  F      0.716070  -13.955300   -4.731710
  C     -1.689200  -13.898460   -0.796590
  C     -2.226430  -13.114310    0.249360
  C     -2.065970  -11.675310    0.295950
  N     -2.659230  -11.154430    1.372870
  S     -3.338160  -12.325180    2.227540
  N     -2.927780  -13.559810    1.294690
  C     -1.837020  -15.318990   -0.863650
  C     -2.475890  -16.123740    0.047990
  C     -2.455760  -17.492260   -0.293610
  C     -1.772120  -17.719540   -1.520260
  S     -1.173650  -16.231580   -2.202770
  C     -1.627050  -18.979650   -2.055500
  C     -2.172150  -20.056840   -1.355640
  C     -2.850960  -19.825160   -0.128170
  C     -3.002290  -18.568850    0.410070
  S     -3.434670  -21.315540    0.565380
  C     -2.781220  -22.227230   -0.783710
  C     -2.148500  -21.430450   -1.695870
  C     -2.872510  -23.655340   -0.864430
  C     -3.482640  -24.646230   -0.106450
  C     -4.359160  -24.634060    1.084280
  O     -4.302760  -25.487480    1.923440
  O     -5.266250  -23.644980    1.162480
  C     -3.057390  -25.843890   -0.743040
  N     -2.305640  -25.588540   -1.770080
  O     -2.175190  -24.248250   -1.853840
  H     -0.518030    2.017870    0.421030
  H     -3.062230   -1.618520    0.371320
  H      0.481560   -3.137650   -1.913820
  H     -2.295520   -6.290320    1.660770
  H      0.492720   -5.864310   -2.478390
  H     -2.273710   -9.000830    1.102600
  H     -2.942210  -15.735980    0.934470
  H     -1.106850  -19.137310   -2.986470
  H     -3.520120  -18.412200    1.342710
  H     -1.682280  -21.820620   -2.582420
  H     -5.236860  -23.025300    0.421940
  H     -3.304150  -26.847900   -0.465850

 Total Charge           Charge          ....    0
 Multiplicity           Mult            ....    1
 Number of Electrons    NEL             ....  416
 Basis Dimension        Dim             ....  850

ORBITAL ENERGIES
----------------

  NO   OCC          E(Eh)            E(eV)
   0   2.0000     -89.052436     -2423.2400
   1   2.0000     -88.970220     -2421.0028
   2   2.0000     -88.967152     -2420.9193
   3   2.0000     -88.952033     -2420.5079
   4   2.0000     -88.950683     -2420.4711
   5   2.0000     -24.825647      -675.5402
   6   2.0000     -24.825228      -675.5288
   7   2.0000     -19.332921      -526.0755
   8   2.0000     -19.322337      -525.7875
   9   2.0000     -19.262717      -524.1652
  10   2.0000     -19.262187      -524.1508
  11   2.0000     -19.201146      -522.4898
  12   2.0000     -19.200764      -522.4793
  13   2.0000     -14.468369      -393.7043
  14   2.0000     -14.465924      -393.6378
  15   2.0000     -14.465746      -393.6330
  16   2.0000     -14.463775      -393.5793
  17   2.0000     -14.460940      -393.5022
  18   2.0000     -14.460666      -393.4947
  19   2.0000     -10.442747      -284.1616
  20   2.0000     -10.442274      -284.1487
  21   2.0000     -10.412496      -283.3384
  22   2.0000     -10.410910      -283.2953
  23   2.0000     -10.371724      -282.2290
  24   2.0000     -10.360532      -281.9244
  25   2.0000     -10.355311      -281.7823
  26   2.0000     -10.354871      -281.7704
  27   2.0000     -10.350536      -281.6524
  28   2.0000     -10.350295      -281.6459
  29   2.0000     -10.339445      -281.3506
  30   2.0000     -10.329914      -281.0912
  31   2.0000     -10.325580      -280.9733
  32   2.0000     -10.324795      -280.9520
  33   2.0000     -10.324080      -280.9325
  34   2.0000     -10.319007      -280.7945
  35   2.0000     -10.317766      -280.7607
  36   2.0000     -10.315721      -280.7050
  37   2.0000     -10.315030      -280.6862
  38   2.0000     -10.312593      -280.6199
  39   2.0000     -10.303895      -280.3832
  40   2.0000     -10.302537      -280.3463
  41   2.0000     -10.300778      -280.2984
  42   2.0000     -10.300554      -280.2923
  43   2.0000     -10.298061      -280.2245
  44   2.0000     -10.297422      -280.2071
  45   2.0000     -10.294546      -280.1288
  46   2.0000     -10.293981      -280.1135
  47   2.0000     -10.292355      -280.0692
  48   2.0000     -10.292060      -280.0612
  49   2.0000     -10.291416      -280.0437
  50   2.0000     -10.290635      -280.0224
  51   2.0000     -10.289216      -279.9838
  52   2.0000     -10.289132      -279.9815
  53   2.0000     -10.282105      -279.7903
  54   2.0000     -10.281879      -279.7842
  55   2.0000      -8.143758      -221.6029
  56   2.0000      -8.065794      -219.4814
  57   2.0000      -8.062864      -219.4017
  58   2.0000      -8.046373      -218.9530
  59   2.0000      -8.045035      -218.9165
  60   2.0000      -6.114860      -166.3938
  61   2.0000      -6.106926      -166.1779
  62   2.0000      -6.106631      -166.1699
  63   2.0000      -6.035572      -164.2363
  64   2.0000      -6.032481      -164.1521
  65   2.0000      -6.031308      -164.1202
  66   2.0000      -6.028361      -164.0400
  67   2.0000      -6.026934      -164.0012
  68   2.0000      -6.024179      -163.9262
  69   2.0000      -6.016203      -163.7092
  70   2.0000      -6.014870      -163.6729
  71   2.0000      -6.011727      -163.5874
  72   2.0000      -6.010403      -163.5514
  73   2.0000      -6.007626      -163.4758
  74   2.0000      -6.006273      -163.4390
  75   2.0000      -1.354383       -36.8546
  76   2.0000      -1.340307       -36.4716
  77   2.0000      -1.273291       -34.6480
  78   2.0000      -1.261746       -34.3339
  79   2.0000      -1.186808       -32.2947
  80   2.0000      -1.185190       -32.2507
  81   2.0000      -1.149913       -31.2907
  82   2.0000      -1.126205       -30.6456
  83   2.0000      -1.101014       -29.9601
  84   2.0000      -1.100229       -29.9387
  85   2.0000      -1.052660       -28.6443
  86   2.0000      -1.013605       -27.5816
  87   2.0000      -1.012868       -27.5615
  88   2.0000      -1.005328       -27.3564
  89   2.0000      -0.997758       -27.1504
  90   2.0000      -0.988846       -26.9079
  91   2.0000      -0.979204       -26.6455
  92   2.0000      -0.969073       -26.3698
  93   2.0000      -0.965446       -26.2711
  94   2.0000      -0.931494       -25.3472
  95   2.0000      -0.918942       -25.0057
  96   2.0000      -0.911781       -24.8108
  97   2.0000      -0.902331       -24.5537
  98   2.0000      -0.895474       -24.3671
  99   2.0000      -0.885389       -24.0927
 100   2.0000      -0.882893       -24.0248
 101   2.0000      -0.880152       -23.9502
 102   2.0000      -0.843375       -22.9494
 103   2.0000      -0.840925       -22.8827
 104   2.0000      -0.834140       -22.6981
 105   2.0000      -0.820906       -22.3380
 106   2.0000      -0.813006       -22.1230
 107   2.0000      -0.796995       -21.6873
 108   2.0000      -0.792254       -21.5583
 109   2.0000      -0.779391       -21.2083
 110   2.0000      -0.775767       -21.1097
 111   2.0000      -0.759025       -20.6541
 112   2.0000      -0.756785       -20.5932
 113   2.0000      -0.747090       -20.3294
 114   2.0000      -0.734143       -19.9770
 115   2.0000      -0.712552       -19.3895
 116   2.0000      -0.708461       -19.2782
 117   2.0000      -0.705966       -19.2103
 118   2.0000      -0.699663       -19.0388
 119   2.0000      -0.695927       -18.9371
 120   2.0000      -0.694771       -18.9057
 121   2.0000      -0.689337       -18.7578
 122   2.0000      -0.683848       -18.6084
 123   2.0000      -0.679386       -18.4870
 124   2.0000      -0.675206       -18.3733
 125   2.0000      -0.664235       -18.0747
 126   2.0000      -0.655175       -17.8282
 127   2.0000      -0.652491       -17.7552
 128   2.0000      -0.639289       -17.3959
 129   2.0000      -0.636782       -17.3277
 130   2.0000      -0.632237       -17.2041
 131   2.0000      -0.629336       -17.1251
 132   2.0000      -0.628449       -17.1010
 133   2.0000      -0.611788       -16.6476
 134   2.0000      -0.608771       -16.5655
 135   2.0000      -0.601249       -16.3608
 136   2.0000      -0.591807       -16.1039
 137   2.0000      -0.586675       -15.9642
 138   2.0000      -0.581148       -15.8138
 139   2.0000      -0.579840       -15.7783
 140   2.0000      -0.575437       -15.6584
 141   2.0000      -0.575073       -15.6485
 142   2.0000      -0.573599       -15.6084
 143   2.0000      -0.569228       -15.4895
 144   2.0000      -0.565648       -15.3921
 145   2.0000      -0.549317       -14.9477
 146   2.0000      -0.548458       -14.9243
 147   2.0000      -0.539328       -14.6759
 148   2.0000      -0.539247       -14.6737
 149   2.0000      -0.533284       -14.5114
 150   2.0000      -0.532400       -14.4874
 151   2.0000      -0.531787       -14.4707
 152   2.0000      -0.530446       -14.4342
 153   2.0000      -0.529650       -14.4125
 154   2.0000      -0.525255       -14.2929
 155   2.0000      -0.523057       -14.2331
 156   2.0000      -0.517284       -14.0760
 157   2.0000      -0.516250       -14.0479
 158   2.0000      -0.513554       -13.9745
 159   2.0000      -0.512337       -13.9414
 160   2.0000      -0.504877       -13.7384
 161   2.0000      -0.501777       -13.6541
 162   2.0000      -0.501074       -13.6349
 163   2.0000      -0.494851       -13.4656
 164   2.0000      -0.493331       -13.4242
 165   2.0000      -0.490988       -13.3605
 166   2.0000      -0.485264       -13.2047
 167   2.0000      -0.479455       -13.0466
 168   2.0000      -0.477774       -13.0009
 169   2.0000      -0.472426       -12.8554
 170   2.0000      -0.467231       -12.7140
 171   2.0000      -0.464270       -12.6334
 172   2.0000      -0.463148       -12.6029
 173   2.0000      -0.457639       -12.4530
 174   2.0000      -0.456541       -12.4231
 175   2.0000      -0.451685       -12.2910
 176   2.0000      -0.449357       -12.2276
 177   2.0000      -0.445461       -12.1216
 178   2.0000      -0.441743       -12.0204
 179   2.0000      -0.431681       -11.7466
 180   2.0000      -0.430219       -11.7069
 181   2.0000      -0.425202       -11.5703
 182   2.0000      -0.416174       -11.3247
 183   2.0000      -0.410737       -11.1767
 184   2.0000      -0.407610       -11.0916
 185   2.0000      -0.398442       -10.8422
 186   2.0000      -0.397976       -10.8295
 187   2.0000      -0.395465       -10.7611
 188   2.0000      -0.388671       -10.5763
 189   2.0000      -0.385657       -10.4942
 190   2.0000      -0.385534       -10.4909
 191   2.0000      -0.384441       -10.4612
 192   2.0000      -0.382048       -10.3961
 193   2.0000      -0.377936       -10.2842
 194   2.0000      -0.373730       -10.1697
 195   2.0000      -0.362611        -9.8672
 196   2.0000      -0.360126        -9.7995
 197   2.0000      -0.359989        -9.7958
 198   2.0000      -0.352862        -9.6019
 199   2.0000      -0.351146        -9.5552
 200   2.0000      -0.345234        -9.3943
 201   2.0000      -0.343220        -9.3395
 202   2.0000      -0.331497        -9.0205
 203   2.0000      -0.313799        -8.5389
 204   2.0000      -0.298775        -8.1301
 205   2.0000      -0.285255        -7.7622
 206   2.0000      -0.271781        -7.3955
 207   2.0000      -0.249369        -6.7857
 208   0.0000      -0.122333        -3.3288
 209   0.0000      -0.055501        -1.5103
 210   0.0000      -0.043259        -1.1771
 211   0.0000      -0.034264        -0.9324
 212   0.0000      -0.009479        -0.2579

MULLIKEN ATOMIC CHARGES
-----------------------
   0 C :    0.182418
   1 C :   -0.163610
   2 C :    0.163796
   3 O :   -0.170615
   4 O :   -0.152084
   5 C :    0.047233
   6 N :   -0.008309
   7 O :   -0.136045
   8 C :   -0.126665
   9 C :   -0.004561
  10 C :    0.118307
  11 C :   -0.044161
  12 S :    0.109378
  13 C :   -0.047133
  14 C :    0.121373
  15 C :   -0.014360
  16 C :   -0.059331
  17 S :    0.135479
  18 C :   -0.156826
  19 C :   -0.037441
  20 C :    0.189672
  21 C :   -0.059305
  22 C :   -0.057794
  23 N :   -0.030822
  24 C :    0.147854
  25 C :    0.145605
  26 N :   -0.028266
  27 F :   -0.133387
  28 F :   -0.133698
  29 C :    0.189253
  30 C :   -0.007619
  31 C :   -0.011963
  32 N :   -0.292061
  33 S :    0.554664
  34 N :   -0.295366
  35 C :   -0.153625
  36 C :   -0.045283
  37 C :    0.127981
  38 C :   -0.018900
  39 S :    0.137560
  40 C :   -0.054550
  41 C :    0.125571
  42 C :   -0.043202
  43 C :   -0.048291
  44 S :    0.107567
  45 C :   -0.119268
  46 C :   -0.017062
  47 C :    0.217554
  48 C :   -0.188083
  49 C :    0.167723
  50 O :   -0.166071
  51 O :   -0.156404
  52 C :    0.038863
  53 N :    0.026734
  54 O :   -0.180459
  55 H :    0.049306
  56 H :    0.177152
  57 H :    0.000100
  58 H :   -0.026965
  59 H :   -0.027883
  60 H :   -0.007977
  61 H :   -0.008349
  62 H :   -0.027263
  63 H :   -0.026500
  64 H :    0.004100
  65 H :    0.175145
  66 H :    0.027167
Sum of atomic charges:   -0.0000000

LOEWDIN ATOMIC CHARGES
----------------------
   0 C :    0.098169
   1 C :   -0.155701
   2 C :    0.072500
   3 O :   -0.153901
   4 O :   -0.024262
   5 C :   -0.048287
   6 N :   -0.039265
   7 O :    0.056483
   8 C :   -0.183698
   9 C :   -0.017064
  10 C :   -0.043696
  11 C :   -0.154560
  12 S :    0.408227
  13 C :   -0.028238
  14 C :   -0.045746
  15 C :   -0.156476
  16 C :   -0.030810
  17 S :    0.426907
  18 C :   -0.154763
  19 C :   -0.030270
  20 C :   -0.034273
  21 C :   -0.013156
  22 C :   -0.011650
  23 N :   -0.049672
  24 C :    0.064492
  25 C :    0.063423
  26 N :   -0.048230
  27 F :   -0.022845
  28 F :   -0.022777
  29 C :   -0.037917
  30 C :   -0.035482
  31 C :   -0.036386
  32 N :   -0.277297
  33 S :    0.678626
  34 N :   -0.278745
  35 C :   -0.151910
  36 C :   -0.033416
  37 C :   -0.042688
  38 C :   -0.157057
  39 S :    0.428606
  40 C :   -0.028369
  41 C :   -0.045579
  42 C :   -0.151913
  43 C :   -0.029263
  44 S :    0.409091
  45 C :   -0.190168
  46 C :   -0.015781
  47 C :    0.037524
  48 C :   -0.155076
  49 C :    0.073222
  50 O :   -0.146444
  51 O :   -0.028721
  52 C :    0.003830
  53 N :   -0.022640
  54 O :    0.028300
  55 H :    0.042013
  56 H :    0.065891
  57 H :    0.040180
  58 H :    0.032690
  59 H :    0.032452
  60 H :    0.029118
  61 H :    0.029107
  62 H :    0.032842
  63 H :    0.033015
  64 H :    0.040308
  65 H :    0.066264
  66 H :    0.040913

  Mayer bond orders larger than 0.100000
B(  0-C ,  1-C ) :   1.5554 B(  0-C ,  6-N ) :   0.1008 B(  0-C ,  7-O ) :   1.2234
B(  0-C , 55-H ) :   0.9823 B(  1-C ,  2-C ) :   0.9038 B(  1-C ,  5-C ) :   1.1807
B(  2-C ,  3-O ) :   2.2070 B(  2-C ,  4-O ) :   1.2490 B(  4-O , 56-H ) :   0.9361
B(  5-C ,  6-N ) :   1.7281 B(  5-C ,  8-C ) :   1.0211 B(  6-N ,  7-O ) :   1.0086
B(  8-C ,  9-C ) :   1.6123 B(  8-C , 12-S ) :   1.0697 B(  9-C , 10-C ) :   1.1166
B(  9-C , 57-H ) :   1.0129 B( 10-C , 11-C ) :   1.2772 B( 10-C , 16-C ) :   1.3161
B( 11-C , 12-S ) :   1.0245 B( 11-C , 13-C ) :   1.3916 B( 13-C , 14-C ) :   1.3084
B( 13-C , 16-C ) :   0.1027 B( 13-C , 58-H ) :   1.0016 B( 14-C , 15-C ) :   1.2744
B( 14-C , 19-C ) :   1.1339 B( 15-C , 16-C ) :   1.3829 B( 15-C , 17-S ) :   1.0033
B( 16-C , 59-H ) :   1.0034 B( 17-S , 18-C ) :   1.0730 B( 18-C , 19-C ) :   1.5375
B( 18-C , 20-C ) :   1.1617 B( 19-C , 60-H ) :   0.9860 B( 20-C , 21-C ) :   1.3101
B( 20-C , 29-C ) :   0.1311 B( 20-C , 31-C ) :   1.2012 B( 21-C , 22-C ) :   1.1156
B( 21-C , 26-N ) :   1.3781 B( 22-C , 23-N ) :   1.3781 B( 22-C , 29-C ) :   1.3122
B( 23-N , 24-C ) :   1.6673 B( 24-C , 25-C ) :   1.0977 B( 24-C , 28-F ) :   1.1872
B( 25-C , 26-N ) :   1.6702 B( 25-C , 27-F ) :   1.1875 B( 29-C , 30-C ) :   1.2023
B( 29-C , 35-C ) :   1.1572 B( 30-C , 31-C ) :   1.1030 B( 30-C , 34-N ) :   1.5008
B( 31-C , 32-N ) :   1.5035 B( 32-N , 33-S ) :   1.2843 B( 32-N , 34-N ) :   0.1527
B( 33-S , 34-N ) :   1.2823 B( 35-C , 36-C ) :   1.5408 B( 35-C , 39-S ) :   1.0741
B( 36-C , 37-C ) :   1.1352 B( 36-C , 61-H ) :   0.9863 B( 37-C , 38-C ) :   1.2697
B( 37-C , 43-C ) :   1.3061 B( 38-C , 39-S ) :   1.0049 B( 38-C , 40-C ) :   1.3884
B( 40-C , 41-C ) :   1.3132 B( 40-C , 43-C ) :   0.1013 B( 40-C , 62-H ) :   1.0030
B( 41-C , 42-C ) :   1.2710 B( 41-C , 46-C ) :   1.1282 B( 42-C , 43-C ) :   1.3960
B( 42-C , 44-S ) :   1.0247 B( 43-C , 63-H ) :   1.0013 B( 44-S , 45-C ) :   1.0615
B( 45-C , 46-C ) :   1.5633 B( 45-C , 47-C ) :   1.0992 B( 46-C , 64-H ) :   1.0127
B( 47-C , 48-C ) :   1.4763 B( 47-C , 53-N ) :   0.1021 B( 47-C , 54-O ) :   1.2017
B( 48-C , 49-C ) :   0.9020 B( 48-C , 52-C ) :   1.2005 B( 49-C , 50-O ) :   2.2078
B( 49-C , 51-O ) :   1.2378 B( 51-O , 65-H ) :   0.9380 B( 52-C , 53-N ) :   1.7475
B( 52-C , 66-H ) :   0.9929 B( 53-N , 54-O ) :   0.9998

-----------------------------------------------------------------------------
         ABSORPTION SPECTRUM VIA TRANSITION ELECTRIC DIPOLE MOMENTS
-----------------------------------------------------------------------------
State   Energy  Wavelength   fosc         T2         TX        TY        TZ
        (cm-1)    (nm)                  (au**2)     (au)      (au)      (au)
-----------------------------------------------------------------------------
   0   12370.4    808.4   0.801042158  21.31807   0.50795   4.58731   0.12897
   1   17313.6    577.6   0.022675333   0.43116   0.34617   0.19497  -0.52279
   2   19095.3    523.7   0.043112381   0.74328  -0.06887  -0.85380  -0.09779
   3   23298.8    429.2   0.001263964   0.01786  -0.00523  -0.13354  -0.00062
   4   27353.4    365.6   1.291273486  15.54114  -0.56295  -3.89908   0.14635
   5   27980.3    357.4   0.154938216   1.82298   0.24322   1.31822  -0.16157
   6   28197.2    354.6   0.114258747   1.33401   0.23275   1.11705  -0.17899
   7   29229.6    342.1   0.000520933   0.00587  -0.05171   0.05330  -0.01877
   8   29942.5    334.0   0.224924053   2.47299  -0.00129  -1.53000  -0.36346
   9   30419.4    328.7   0.061063682   0.66086  -0.35049  -0.56706   0.46525
  10   31203.1    320.5   0.430687485   4.54402  -0.82677   1.11995   1.61437
  11   31831.0    314.2   0.124453768   1.28716   0.37301   1.00469  -0.37231
  12   32195.4    310.6   0.000104226   0.00107   0.01439   0.00218  -0.02922
  13   32924.7    303.7   0.003138386   0.03138  -0.06501   0.10599   0.12618
  14   33980.7    294.3   0.055600626   0.53867   0.27950   0.62002  -0.27590
  15   34688.3    288.3   0.000051800   0.00049  -0.00825   0.01111   0.01732
  16   35053.4    285.3   0.000089112   0.00084  -0.02083  -0.00667   0.01893
  17   36230.7    276.0   0.226221942   2.05557  -0.26882   1.26611   0.61666
  18   37343.4    267.8   0.100730347   0.88802   0.12338   0.93347   0.03786
  19   37394.9    267.4   0.036388471   0.32035  -0.20668  -0.47337   0.23143
  20   37968.5    263.4   0.574047445   4.97737   1.18216   0.66345  -1.77192
  21   38356.1    260.7   0.089022886   0.76409  -0.45352  -0.11058   0.73904
  22   39150.8    255.4   0.032280031   0.27144  -0.16009   0.29245   0.40035
  23   39401.0    253.8   0.076519894   0.63936   0.21128  -0.63630  -0.43571
  24   39949.2    250.3   0.116292594   0.95834  -0.15168   0.92037   0.29709
  25   40137.0    249.1   0.148210175   1.21565  -0.13816  -1.09286  -0.04715
  26   40298.0    248.2   0.006789586   0.05547  -0.12263   0.17382  -0.10106

FINAL SINGLE POINT ENERGY     -4346.073404099704

DIPOLE MOMENT
-------------
                                X             Y             Z
Electronic contribution:      9.08792       0.53442     -11.31667
Nuclear contribution   :     -9.16824       0.45868      10.30140
                        -----------------------------------------
Total Dipole Moment    :     -0.08033       0.99310      -1.01527
                        -----------------------------------------
Magnitude (a.u.)       :      1.42248
Magnitude (Debye)      :      3.61567

Rotational constants in cm-1:     0.004874     0.000323     0.000304
Rotational constants in MHz :   146.111786     9.676004     9.105086

                             ****ORCA TERMINATED NORMALLY****
TOTAL RUN TIME: 0 days 0 hours 4 minutes 57 seconds 501 msec
