                         Program Version 4.2.0 -  RELEASE  -
|  1> # ORCA input file
|  2> # SCF done       -181.681272730291          0.000575971035
|  3> ! CAM-B3LYP def2-SVP def2/J RIJCOSX Grid4 TightSCF
|  4> %maxcore 5000
|  5> %tddft
|  6>     Mode sTDDFT
|  7>     Ethresh 5.0
|  8>     maxcore 5000
|  9> end
| 10>
| 11> %pal
| 12>   nprocs 6
| 13>   end
| 14> * xyz 0 1
| 15>    C       -0.89214         1.43287         4.62534
| 16>    C       -1.27055         2.43593         3.74359
| 17>    C       -0.72239         2.51385         2.46904
| 18>    C        0.21186         1.56414         2.10235
| 19>    C        0.59405         0.55159         2.99352
| 20>    C        0.04666         0.47612         4.26069
| 21>    C        1.60269        -0.32207         2.35439
| 22>    O        2.14038        -1.29642         2.85169
| 23>    C        1.81873         0.22188         1.01421
| 24>    C        0.95144         1.40761         0.82612
| 25>    O        0.87200         2.09800        -0.16439
| 26>    C        2.66269        -0.21522         0.03840
| 27>    C        3.55834        -1.30169         0.04242
| 28>    C        4.37948        -1.61521        -1.04226
| 29>    C        5.18123        -2.71672        -0.79770
| 30>    C        4.96418        -3.25708         0.49177
| 31>    S        3.78747        -2.41222         1.39044
| 32>    C        5.82670        -4.36564         0.64988
| 33>    C        6.59073        -4.53105        -0.52505
| 34>    C        6.18522        -3.51403        -1.48476
| 35>    C        6.61198        -3.37170        -2.77113
| 36>    C        7.50485        -4.27465        -3.38985
| 37>    N        8.18955        -5.01685        -3.93125
| 38>    C        6.14044        -2.33038        -3.59957
| 39>    N        5.76321        -1.48333        -4.27373
| 40>    C        7.50158        -5.57669        -0.44390
| 41>    C        7.42417        -6.22662         0.78334
| 42>    S        6.20787        -5.52384         1.84329
| 43>    C        8.20179        -7.32232         1.20137
| 44>    C        9.30513        -7.87945         0.53791
| 45>    C        9.86736        -9.00826         1.22976
| 46>    N       10.86633        -9.71338         0.69377
| 47>    C       11.35445        -9.28834        -0.44946
| 48>    C       12.39583       -10.12876        -1.09787
| 49>    O       12.68867       -11.23116        -0.69186
| 50>    C       13.01187        -9.53358        -2.29784
| 51>    C       12.63188        -8.36559        -2.82555
| 52>    C       11.56427        -7.51963        -2.26103
| 53>    O       11.28596        -6.43166        -2.71354
| 54>    C       10.88447        -8.08653        -1.06635
| 55>    N        9.85780        -7.42071        -0.58739
| 56>    C        9.22161        -9.28676         2.44323
| 57>    S        7.90604        -8.17997         2.68070
| 58>    C        9.55761       -10.29262         3.36806
| 59>    C       10.69854       -11.08780         3.34144
| 60>    C       10.73505       -11.96641         4.41624
| 61>    C        9.60582       -11.86274         5.25477
| 62>    S        8.51568       -10.65364         4.73792
| 63>    C        9.72121       -12.81480         6.29023
| 64>    C       10.93162       -13.52582         6.11928
| 65>    C       11.61614       -12.99843         4.94938
| 66>    C       12.84540       -13.34328         4.47510
| 67>    C       13.63341       -14.37328         5.03641
| 68>    N       14.29914       -15.20767         5.45276
| 69>    C       13.46326       -12.65757         3.40426
| 70>    N       14.00718       -12.08357         2.57493
| 71>    C       11.14361       -14.48032         7.10707
| 72>    C       10.10725       -14.51734         8.02990
| 73>    S        8.84877       -13.33387         7.65379
| 74>    C        9.90130       -15.31180         9.17863
| 75>    C       10.68082       -16.26187         9.76117
| 76>    C       10.19398       -16.93689        10.99174
| 77>    O        9.13533       -16.73978        11.54583
| 78>    C       11.26122       -17.88053        11.38825
| 79>    C       11.31803       -18.74955        12.46224
| 80>    C       12.45492       -19.53343        12.60982
| 81>    C       13.50567       -19.44821        11.70583
| 82>    C       13.45142       -18.57707        10.62583
| 83>    C       12.32045       -17.79573        10.47615
| 84>    C       12.01451       -16.79729         9.42354
| 85>    O       12.73515       -16.50368         8.49361
| 86>    H       -1.33450         1.39668         5.60982
| 87>    H       -2.00241         3.16682         4.05402
| 88>    H       -1.01103         3.29044         1.77760
| 89>    H        0.34711        -0.30686         4.94001
| 90>    H        2.64814         0.36317        -0.88141
| 91>    H        4.37167        -1.04217        -1.95228
| 92>    H        8.20484        -5.87328        -1.20146
| 93>    H       13.80246       -10.12223        -2.74342
| 94>    H       13.10655        -7.96756        -3.71228
| 95>    H       11.43107       -11.00267         2.55903
| 96>    H       11.99806       -15.13118         7.18137
| 97>    H        8.96111       -15.13209         9.69595
| 98>    H       10.49711       -18.80895        13.16018
| 99>    H       12.52423       -20.22012        13.44044
|100>    H       14.37777       -20.06952        11.84621
|101>    H       14.26201       -18.50264         9.91736
|102> *
|103>
|104>                          ****END OF INPUT****

CARTESIAN COORDINATES (ANGSTROEM)
---------------------------------
  C     -0.892140    1.432870    4.625340
  C     -1.270550    2.435930    3.743590
  C     -0.722390    2.513850    2.469040
  C      0.211860    1.564140    2.102350
  C      0.594050    0.551590    2.993520
  C      0.046660    0.476120    4.260690
  C      1.602690   -0.322070    2.354390
  O      2.140380   -1.296420    2.851690
  C      1.818730    0.221880    1.014210
  C      0.951440    1.407610    0.826120
  O      0.872000    2.098000   -0.164390
  C      2.662690   -0.215220    0.038400
  C      3.558340   -1.301690    0.042420
  C      4.379480   -1.615210   -1.042260
  C      5.181230   -2.716720   -0.797700
  C      4.964180   -3.257080    0.491770
  S      3.787470   -2.412220    1.390440
  C      5.826700   -4.365640    0.649880
  C      6.590730   -4.531050   -0.525050
  C      6.185220   -3.514030   -1.484760
  C      6.611980   -3.371700   -2.771130
  C      7.504850   -4.274650   -3.389850
  N      8.189550   -5.016850   -3.931250
  C      6.140440   -2.330380   -3.599570
  N      5.763210   -1.483330   -4.273730
  C      7.501580   -5.576690   -0.443900
  C      7.424170   -6.226620    0.783340
  S      6.207870   -5.523840    1.843290
  C      8.201790   -7.322320    1.201370
  C      9.305130   -7.879450    0.537910
  C      9.867360   -9.008260    1.229760
  N     10.866330   -9.713380    0.693770
  C     11.354450   -9.288340   -0.449460
  C     12.395830  -10.128760   -1.097870
  O     12.688670  -11.231160   -0.691860
  C     13.011870   -9.533580   -2.297840
  C     12.631880   -8.365590   -2.825550
  C     11.564270   -7.519630   -2.261030
  O     11.285960   -6.431660   -2.713540
  C     10.884470   -8.086530   -1.066350
  N      9.857800   -7.420710   -0.587390
  C      9.221610   -9.286760    2.443230
  S      7.906040   -8.179970    2.680700
  C      9.557610  -10.292620    3.368060
  C     10.698540  -11.087800    3.341440
  C     10.735050  -11.966410    4.416240
  C      9.605820  -11.862740    5.254770
  S      8.515680  -10.653640    4.737920
  C      9.721210  -12.814800    6.290230
  C     10.931620  -13.525820    6.119280
  C     11.616140  -12.998430    4.949380
  C     12.845400  -13.343280    4.475100
  C     13.633410  -14.373280    5.036410
  N     14.299140  -15.207670    5.452760
  C     13.463260  -12.657570    3.404260
  N     14.007180  -12.083570    2.574930
  C     11.143610  -14.480320    7.107070
  C     10.107250  -14.517340    8.029900
  S      8.848770  -13.333870    7.653790
  C      9.901300  -15.311800    9.178630
  C     10.680820  -16.261870    9.761170
  C     10.193980  -16.936890   10.991740
  O      9.135330  -16.739780   11.545830
  C     11.261220  -17.880530   11.388250
  C     11.318030  -18.749550   12.462240
  C     12.454920  -19.533430   12.609820
  C     13.505670  -19.448210   11.705830
  C     13.451420  -18.577070   10.625830
  C     12.320450  -17.795730   10.476150
  C     12.014510  -16.797290    9.423540
  O     12.735150  -16.503680    8.493610
  H     -1.334500    1.396680    5.609820
  H     -2.002410    3.166820    4.054020
  H     -1.011030    3.290440    1.777600
  H      0.347110   -0.306860    4.940010
  H      2.648140    0.363170   -0.881410
  H      4.371670   -1.042170   -1.952280
  H      8.204840   -5.873280   -1.201460
  H     13.802460  -10.122230   -2.743420
  H     13.106550   -7.967560   -3.712280
  H     11.431070  -11.002670    2.559030
  H     11.998060  -15.131180    7.181370
  H      8.961110  -15.132090    9.695950
  H     10.497110  -18.808950   13.160180
  H     12.524230  -20.220120   13.440440
  H     14.377770  -20.069520   11.846210
  H     14.262010  -18.502640    9.917360

 Total Charge           Charge          ....    0
 Multiplicity           Mult            ....    1
 Number of Electrons    NEL             ....  510
 Basis Dimension        Dim             .... 1094

ORBITAL ENERGIES
----------------

  NO   OCC          E(Eh)            E(eV)
   0   2.0000     -89.007379     -2422.0139
   1   2.0000     -88.997698     -2421.7505
   2   2.0000     -88.996715     -2421.7237
   3   2.0000     -88.991983     -2421.5950
   4   2.0000     -88.986853     -2421.4554
   5   2.0000     -19.227384      -523.2037
   6   2.0000     -19.227358      -523.2030
   7   2.0000     -19.219811      -522.9976
   8   2.0000     -19.211666      -522.7760
   9   2.0000     -19.209430      -522.7152
  10   2.0000     -19.206913      -522.6467
  11   2.0000     -14.453696      -393.3051
  12   2.0000     -14.453465      -393.2988
  13   2.0000     -14.429923      -392.6582
  14   2.0000     -14.425813      -392.5463
  15   2.0000     -14.425740      -392.5443
  16   2.0000     -14.424993      -392.5240
  17   2.0000     -10.376251      -282.3521
  18   2.0000     -10.376153      -282.3495
  19   2.0000     -10.368248      -282.1344
  20   2.0000     -10.365483      -282.0591
  21   2.0000     -10.364949      -282.0446
  22   2.0000     -10.362763      -281.9851
  23   2.0000     -10.360099      -281.9126
  24   2.0000     -10.357197      -281.8337
  25   2.0000     -10.351988      -281.6919
  26   2.0000     -10.350440      -281.6498
  27   2.0000     -10.345272      -281.5092
  28   2.0000     -10.344999      -281.5017
  29   2.0000     -10.344082      -281.4768
  30   2.0000     -10.343866      -281.4709
  31   2.0000     -10.341146      -281.3969
  32   2.0000     -10.341102      -281.3957
  33   2.0000     -10.340873      -281.3895
  34   2.0000     -10.338633      -281.3285
  35   2.0000     -10.338079      -281.3134
  36   2.0000     -10.337460      -281.2966
  37   2.0000     -10.336791      -281.2784
  38   2.0000     -10.331411      -281.1320
  39   2.0000     -10.329915      -281.0913
  40   2.0000     -10.324829      -280.9529
  41   2.0000     -10.324759      -280.9510
  42   2.0000     -10.323601      -280.9195
  43   2.0000     -10.323280      -280.9107
  44   2.0000     -10.323279      -280.9107
  45   2.0000     -10.319742      -280.8145
  46   2.0000     -10.316740      -280.7328
  47   2.0000     -10.310436      -280.5612
  48   2.0000     -10.310008      -280.5496
  49   2.0000     -10.309326      -280.5310
  50   2.0000     -10.308762      -280.5157
  51   2.0000     -10.308063      -280.4966
  52   2.0000     -10.305562      -280.4286
  53   2.0000     -10.303942      -280.3845
  54   2.0000     -10.303257      -280.3659
  55   2.0000     -10.303137      -280.3626
  56   2.0000     -10.300004      -280.2774
  57   2.0000     -10.292749      -280.0799
  58   2.0000     -10.292490      -280.0729
  59   2.0000     -10.292078      -280.0617
  60   2.0000     -10.291346      -280.0418
  61   2.0000     -10.289240      -279.9844
  62   2.0000     -10.288474      -279.9636
  63   2.0000     -10.288066      -279.9525
  64   2.0000     -10.288045      -279.9519
  65   2.0000     -10.287832      -279.9461
  66   2.0000     -10.287055      -279.9250
  67   2.0000     -10.284346      -279.8513
  68   2.0000     -10.283955      -279.8406
  69   2.0000     -10.279502      -279.7195
  70   2.0000     -10.279112      -279.7089
  71   2.0000      -8.102111      -220.4696
  72   2.0000      -8.092530      -220.2089
  73   2.0000      -8.091603      -220.1837
  74   2.0000      -8.086893      -220.0555
  75   2.0000      -8.079421      -219.8522
  76   2.0000      -6.071194      -165.2056
  77   2.0000      -6.067046      -165.0927
  78   2.0000      -6.064785      -165.0312
  79   2.0000      -6.061829      -164.9507
  80   2.0000      -6.060867      -164.9246
  81   2.0000      -6.057701      -164.8384
  82   2.0000      -6.056727      -164.8119
  83   2.0000      -6.055988      -164.7918
  84   2.0000      -6.054717      -164.7572
  85   2.0000      -6.053851      -164.7337
  86   2.0000      -6.051893      -164.6804
  87   2.0000      -6.049418      -164.6130
  88   2.0000      -6.048812      -164.5965
  89   2.0000      -6.044104      -164.4684
  90   2.0000      -6.041972      -164.4104
  91   2.0000      -1.145334       -31.1661
  92   2.0000      -1.140466       -31.0336
  93   2.0000      -1.135042       -30.8861
  94   2.0000      -1.127473       -30.6801
  95   2.0000      -1.123079       -30.5605
  96   2.0000      -1.120231       -30.4830
  97   2.0000      -1.105608       -30.0851
  98   2.0000      -1.048213       -28.5233
  99   2.0000      -1.046869       -28.4867
 100   2.0000      -1.032233       -28.0885
 101   2.0000      -1.022661       -27.8280
 102   2.0000      -1.019255       -27.7353
 103   2.0000      -1.016775       -27.6679
 104   2.0000      -1.004881       -27.3442
 105   2.0000      -1.002571       -27.2813
 106   2.0000      -1.000864       -27.2349
 107   2.0000      -0.992788       -27.0151
 108   2.0000      -0.981101       -26.6971
 109   2.0000      -0.976440       -26.5703
 110   2.0000      -0.962083       -26.1796
 111   2.0000      -0.958019       -26.0690
 112   2.0000      -0.940226       -25.5848
 113   2.0000      -0.928986       -25.2790
 114   2.0000      -0.925866       -25.1941
 115   2.0000      -0.916663       -24.9437
 116   2.0000      -0.909531       -24.7496
 117   2.0000      -0.887089       -24.1389
 118   2.0000      -0.882019       -24.0010
 119   2.0000      -0.877597       -23.8806
 120   2.0000      -0.874862       -23.8062
 121   2.0000      -0.866735       -23.5850
 122   2.0000      -0.858605       -23.3638
 123   2.0000      -0.857252       -23.3270
 124   2.0000      -0.855410       -23.2769
 125   2.0000      -0.852208       -23.1898
 126   2.0000      -0.851364       -23.1668
 127   2.0000      -0.818123       -22.2623
 128   2.0000      -0.806961       -21.9585
 129   2.0000      -0.796869       -21.6839
 130   2.0000      -0.796172       -21.6649
 131   2.0000      -0.785869       -21.3846
 132   2.0000      -0.778892       -21.1947
 133   2.0000      -0.775095       -21.0914
 134   2.0000      -0.760694       -20.6995
 135   2.0000      -0.743556       -20.2332
 136   2.0000      -0.737190       -20.0600
 137   2.0000      -0.733824       -19.9684
 138   2.0000      -0.731406       -19.9026
 139   2.0000      -0.708303       -19.2739
 140   2.0000      -0.703500       -19.1432
 141   2.0000      -0.695849       -18.9350
 142   2.0000      -0.691138       -18.8068
 143   2.0000      -0.687475       -18.7071
 144   2.0000      -0.681615       -18.5477
 145   2.0000      -0.681110       -18.5340
 146   2.0000      -0.672201       -18.2915
 147   2.0000      -0.670084       -18.2339
 148   2.0000      -0.664468       -18.0811
 149   2.0000      -0.659814       -17.9545
 150   2.0000      -0.652420       -17.7533
 151   2.0000      -0.649369       -17.6702
 152   2.0000      -0.638937       -17.3864
 153   2.0000      -0.629606       -17.1325
 154   2.0000      -0.626003       -17.0344
 155   2.0000      -0.622704       -16.9446
 156   2.0000      -0.621170       -16.9029
 157   2.0000      -0.617503       -16.8031
 158   2.0000      -0.614474       -16.7207
 159   2.0000      -0.608409       -16.5556
 160   2.0000      -0.600537       -16.3414
 161   2.0000      -0.587979       -15.9997
 162   2.0000      -0.584816       -15.9137
 163   2.0000      -0.580392       -15.7933
 164   2.0000      -0.574532       -15.6338
 165   2.0000      -0.571108       -15.5406
 166   2.0000      -0.568113       -15.4591
 167   2.0000      -0.564237       -15.3537
 168   2.0000      -0.560633       -15.2556
 169   2.0000      -0.558165       -15.1884
 170   2.0000      -0.554127       -15.0786
 171   2.0000      -0.549747       -14.9594
 172   2.0000      -0.549235       -14.9455
 173   2.0000      -0.547178       -14.8895
 174   2.0000      -0.538031       -14.6406
 175   2.0000      -0.534236       -14.5373
 176   2.0000      -0.532508       -14.4903
 177   2.0000      -0.528990       -14.3945
 178   2.0000      -0.528762       -14.3883
 179   2.0000      -0.527512       -14.3543
 180   2.0000      -0.525901       -14.3105
 181   2.0000      -0.525463       -14.2986
 182   2.0000      -0.525219       -14.2919
 183   2.0000      -0.521645       -14.1947
 184   2.0000      -0.516703       -14.0602
 185   2.0000      -0.513899       -13.9839
 186   2.0000      -0.510263       -13.8850
 187   2.0000      -0.508627       -13.8404
 188   2.0000      -0.507157       -13.8004
 189   2.0000      -0.505592       -13.7579
 190   2.0000      -0.504923       -13.7397
 191   2.0000      -0.502689       -13.6789
 192   2.0000      -0.501931       -13.6582
 193   2.0000      -0.498753       -13.5718
 194   2.0000      -0.494501       -13.4561
 195   2.0000      -0.493482       -13.4283
 196   2.0000      -0.492082       -13.3902
 197   2.0000      -0.491696       -13.3797
 198   2.0000      -0.488473       -13.2920
 199   2.0000      -0.484825       -13.1928
 200   2.0000      -0.482430       -13.1276
 201   2.0000      -0.480566       -13.0769
 202   2.0000      -0.473604       -12.8874
 203   2.0000      -0.472435       -12.8556
 204   2.0000      -0.468493       -12.7483
 205   2.0000      -0.466094       -12.6831
 206   2.0000      -0.460935       -12.5427
 207   2.0000      -0.459591       -12.5061
 208   2.0000      -0.459237       -12.4965
 209   2.0000      -0.456360       -12.4182
 210   2.0000      -0.456217       -12.4143
 211   2.0000      -0.454772       -12.3750
 212   2.0000      -0.453575       -12.3424
 213   2.0000      -0.451670       -12.2906
 214   2.0000      -0.451170       -12.2769
 215   2.0000      -0.449043       -12.2191
 216   2.0000      -0.446292       -12.1442
 217   2.0000      -0.445343       -12.1184
 218   2.0000      -0.441675       -12.0186
 219   2.0000      -0.440773       -11.9941
 220   2.0000      -0.437665       -11.9095
 221   2.0000      -0.436955       -11.8901
 222   2.0000      -0.436627       -11.8812
 223   2.0000      -0.434795       -11.8314
 224   2.0000      -0.433339       -11.7918
 225   2.0000      -0.428723       -11.6661
 226   2.0000      -0.421309       -11.4644
 227   2.0000      -0.420945       -11.4545
 228   2.0000      -0.420545       -11.4436
 229   2.0000      -0.415315       -11.3013
 230   2.0000      -0.411164       -11.1883
 231   2.0000      -0.396922       -10.8008
 232   2.0000      -0.394796       -10.7429
 233   2.0000      -0.372462       -10.1352
 234   2.0000      -0.372139       -10.1264
 235   2.0000      -0.366189        -9.9645
 236   2.0000      -0.358107        -9.7446
 237   2.0000      -0.352689        -9.5972
 238   2.0000      -0.351124        -9.5546
 239   2.0000      -0.348611        -9.4862
 240   2.0000      -0.347556        -9.4575
 241   2.0000      -0.346742        -9.4353
 242   2.0000      -0.346641        -9.4326
 243   2.0000      -0.340839        -9.2747
 244   2.0000      -0.339691        -9.2435
 245   2.0000      -0.339123        -9.2280
 246   2.0000      -0.335974        -9.1423
 247   2.0000      -0.335602        -9.1322
 248   2.0000      -0.323438        -8.8012
 249   2.0000      -0.322924        -8.7872
 250   2.0000      -0.321578        -8.7506
 251   2.0000      -0.319715        -8.6999
 252   2.0000      -0.307600        -8.3702
 253   2.0000      -0.278130        -7.5683
 254   2.0000      -0.241384        -6.5684
 255   0.0000      -0.122166        -3.3243
 256   0.0000      -0.105225        -2.8633
 257   0.0000      -0.092436        -2.5153
 258   0.0000      -0.087176        -2.3722
 259   0.0000      -0.068879        -1.8743

MULLIKEN ATOMIC CHARGES
-----------------------
   0 C :    0.041403
   1 C :    0.039287
   2 C :   -0.024324
   3 C :    0.004596
   4 C :   -0.008162
   5 C :   -0.024747
   6 C :    0.194272
   7 O :   -0.188762
   8 C :   -0.176397
   9 C :    0.156244
  10 O :   -0.143857
  11 C :   -0.008362
  12 C :   -0.042868
  13 C :   -0.048301
  14 C :    0.033884
  15 C :   -0.071441
  16 S :    0.234777
  17 C :   -0.097140
  18 C :    0.029616
  19 C :    0.303473
  20 C :   -0.292506
  21 C :   -0.195343
  22 N :    0.195682
  23 C :   -0.192433
  24 N :    0.173498
  25 C :   -0.056131
  26 C :   -0.089355
  27 S :    0.184900
  28 C :   -0.116342
  29 C :    0.027305
  30 C :    0.030853
  31 N :    0.062076
  32 C :   -0.116826
  33 C :    0.139054
  34 O :   -0.095317
  35 C :   -0.010021
  36 C :   -0.008248
  37 C :    0.138691
  38 O :   -0.094931
  39 C :   -0.114892
  40 N :    0.063258
  41 C :   -0.122475
  42 S :    0.202469
  43 C :   -0.085680
  44 C :   -0.057579
  45 C :    0.030346
  46 C :   -0.095760
  47 S :    0.180860
  48 C :   -0.087347
  49 C :    0.001038
  50 C :    0.308961
  51 C :   -0.294327
  52 C :   -0.196116
  53 N :    0.198046
  54 C :   -0.195966
  55 N :    0.192413
  56 C :   -0.011930
  57 C :   -0.105918
  58 S :    0.191392
  59 C :    0.056027
  60 C :   -0.174293
  61 C :    0.144876
  62 O :   -0.151977
  63 C :    0.012222
  64 C :   -0.023750
  65 C :    0.037962
  66 C :    0.039975
  67 C :   -0.023259
  68 C :   -0.013365
  69 C :    0.187909
  70 O :   -0.147753
  71 H :   -0.002162
  72 H :   -0.000500
  73 H :   -0.003906
  74 H :   -0.006745
  75 H :    0.021912
  76 H :    0.016059
  77 H :    0.030809
  78 H :    0.022480
  79 H :    0.021451
  80 H :    0.031114
  81 H :    0.035100
  82 H :    0.009311
  83 H :   -0.005926
  84 H :   -0.001225
  85 H :   -0.000770
  86 H :   -0.000164
Sum of atomic charges:    0.0000000

LOEWDIN ATOMIC CHARGES
----------------------
   0 C :   -0.004486
   1 C :   -0.002529
   2 C :    0.010034
   3 C :   -0.043290
   4 C :   -0.044803
   5 C :    0.008711
   6 C :    0.080403
   7 O :   -0.174708
   8 C :   -0.142998
   9 C :    0.077729
  10 O :   -0.144655
  11 C :    0.061743
  12 C :   -0.182025
  13 C :    0.002849
  14 C :   -0.075736
  15 C :   -0.174463
  16 S :    0.543069
  17 C :   -0.180551
  18 C :   -0.056801
  19 C :    0.075859
  20 C :   -0.095109
  21 C :   -0.023717
  22 N :   -0.015359
  23 C :   -0.015960
  24 N :   -0.030682
  25 C :   -0.008638
  26 C :   -0.179408
  27 S :    0.465642
  28 C :   -0.191422
  29 C :   -0.041923
  30 C :   -0.041343
  31 N :    0.008257
  32 C :   -0.035940
  33 C :    0.055424
  34 O :   -0.089161
  35 C :   -0.011437
  36 C :   -0.011460
  37 C :    0.055064
  38 O :   -0.089177
  39 C :   -0.036360
  40 N :    0.008184
  41 C :   -0.192713
  42 S :    0.491122
  43 C :   -0.178454
  44 C :   -0.008899
  45 C :   -0.054206
  46 C :   -0.185166
  47 S :    0.461251
  48 C :   -0.168229
  49 C :   -0.071098
  50 C :    0.071449
  51 C :   -0.085693
  52 C :   -0.023558
  53 N :   -0.011639
  54 C :   -0.020820
  55 N :   -0.016537
  56 C :    0.010923
  57 C :   -0.177209
  58 S :    0.482007
  59 C :    0.045690
  60 C :   -0.127972
  61 C :    0.078041
  62 O :   -0.150455
  63 C :   -0.046164
  64 C :    0.009165
  65 C :   -0.004339
  66 C :   -0.003526
  67 C :    0.010790
  68 C :   -0.042531
  69 C :    0.082238
  70 O :   -0.136612
  71 H :    0.033421
  72 H :    0.033875
  73 H :    0.038991
  74 H :    0.037547
  75 H :    0.053352
  76 H :    0.044464
  77 H :    0.045076
  78 H :    0.047153
  79 H :    0.046932
  80 H :    0.044771
  81 H :    0.043031
  82 H :    0.040781
  83 H :    0.038015
  84 H :    0.033342
  85 H :    0.033720
  86 H :    0.039848

  Mayer bond orders larger than 0.100000
B(  0-C ,  1-C ) :   1.3836 B(  0-C ,  5-C ) :   1.3545 B(  0-C , 71-H ) :   0.9880
B(  1-C ,  2-C ) :   1.3544 B(  1-C , 72-H ) :   0.9890 B(  2-C ,  3-C ) :   1.3927
B(  2-C , 73-H ) :   1.0043 B(  3-C ,  4-C ) :   1.3512 B(  3-C ,  9-C ) :   0.9138
B(  4-C ,  5-C ) :   1.3856 B(  4-C ,  6-C ) :   0.9496 B(  5-C , 74-H ) :   1.0049
B(  6-C ,  7-O ) :   2.1227 B(  6-C ,  8-C ) :   0.9877 B(  8-C ,  9-C ) :   0.9567
B(  8-C , 11-C ) :   1.5889 B(  9-C , 10-O ) :   2.2657 B( 11-C , 12-C ) :   1.1873
B( 11-C , 75-H ) :   0.9629 B( 12-C , 13-C ) :   1.3568 B( 12-C , 16-S ) :   1.0800
B( 13-C , 14-C ) :   1.3211 B( 13-C , 76-H ) :   1.0078 B( 14-C , 15-C ) :   1.3673
B( 14-C , 19-C ) :   0.9904 B( 15-C , 16-S ) :   1.1178 B( 15-C , 17-C ) :   1.2106
B( 17-C , 18-C ) :   1.4174 B( 17-C , 27-S ) :   1.1197 B( 18-C , 19-C ) :   0.9902
B( 18-C , 25-C ) :   1.2743 B( 19-C , 20-C ) :   1.7183 B( 20-C , 21-C ) :   1.1312
B( 20-C , 23-C ) :   1.1361 B( 21-C , 22-N ) :   3.0024 B( 23-C , 24-N ) :   2.9916
B( 25-C , 26-C ) :   1.4495 B( 25-C , 77-H ) :   0.9883 B( 26-C , 27-S ) :   1.0865
B( 26-C , 28-C ) :   1.1911 B( 28-C , 29-C ) :   1.3651 B( 28-C , 41-C ) :   0.1514
B( 28-C , 42-S ) :   1.1526 B( 29-C , 30-C ) :   1.1901 B( 29-C , 40-N ) :   1.4374
B( 30-C , 31-N ) :   1.4357 B( 30-C , 41-C ) :   1.3639 B( 31-N , 32-C ) :   1.7168
B( 32-C , 33-C ) :   0.8866 B( 32-C , 39-C ) :   1.0952 B( 33-C , 34-O ) :   2.2442
B( 33-C , 35-C ) :   1.0224 B( 35-C , 36-C ) :   1.6889 B( 35-C , 78-H ) :   0.9942
B( 36-C , 37-C ) :   1.0229 B( 36-C , 79-H ) :   0.9948 B( 37-C , 38-O ) :   2.2436
B( 37-C , 39-C ) :   0.8867 B( 39-C , 40-N ) :   1.7155 B( 41-C , 42-S ) :   1.1517
B( 41-C , 43-C ) :   1.1912 B( 43-C , 44-C ) :   1.4479 B( 43-C , 47-S ) :   1.0877
B( 44-C , 45-C ) :   1.2791 B( 44-C , 80-H ) :   0.9869 B( 45-C , 46-C ) :   1.4191
B( 45-C , 50-C ) :   0.9879 B( 46-C , 47-S ) :   1.1119 B( 46-C , 48-C ) :   1.2119
B( 48-C , 49-C ) :   1.3890 B( 48-C , 58-S ) :   1.1527 B( 49-C , 50-C ) :   1.0001
B( 49-C , 56-C ) :   1.2939 B( 50-C , 51-C ) :   1.7181 B( 51-C , 52-C ) :   1.1372
B( 51-C , 54-C ) :   1.1347 B( 52-C , 53-N ) :   3.0016 B( 54-C , 55-N ) :   2.9972
B( 56-C , 57-C ) :   1.4262 B( 56-C , 81-H ) :   0.9674 B( 57-C , 58-S ) :   1.0759
B( 57-C , 59-C ) :   1.1341 B( 59-C , 60-C ) :   1.6862 B( 59-C , 82-H ) :   0.9299
B( 60-C , 61-C ) :   0.9631 B( 60-C , 69-C ) :   0.9475 B( 61-C , 62-O ) :   2.2454
B( 61-C , 63-C ) :   0.9173 B( 63-C , 64-C ) :   1.3862 B( 63-C , 68-C ) :   1.3508
B( 64-C , 65-C ) :   1.3603 B( 64-C , 83-H ) :   1.0042 B( 65-C , 66-C ) :   1.3794
B( 65-C , 84-H ) :   0.9882 B( 66-C , 67-C ) :   1.3567 B( 66-C , 85-H ) :   0.9882
B( 67-C , 68-C ) :   1.3888 B( 67-C , 86-H ) :   1.0043 B( 68-C , 69-C ) :   0.9426
B( 69-C , 70-O ) :   2.1596 B( 70-O , 81-H ) :   0.1058

-----------------------------------------------------------------------------
         ABSORPTION SPECTRUM VIA TRANSITION ELECTRIC DIPOLE MOMENTS
-----------------------------------------------------------------------------
State   Energy  Wavelength   fosc         T2         TX        TY        TZ
        (cm-1)    (nm)                  (au**2)     (au)      (au)      (au)
-----------------------------------------------------------------------------
   0   10810.6    925.0   0.944375522  28.75870   2.33855  -4.20320   2.37129
   1   13346.0    749.3   0.068389261   1.68699   0.80114  -0.15750  -1.01013
   2   15168.4    659.3   0.123502970   2.68049  -0.75330   1.25814  -0.72808
   3   18467.0    541.5   0.167622635   2.98821   1.08993  -0.15637  -1.33260
   4   19988.0    500.3   0.082205091   1.35396  -0.68433   0.12617   0.93259
   5   22178.5    450.9   0.578830350   8.59201  -1.38932   2.35721  -1.05135
   6   23941.7    417.7   0.692269844   9.51909  -2.12559   2.14115   0.64530
   7   24289.5    411.7   0.731246753   9.91106  -0.27348  -1.62735   2.68104
   8   24589.6    406.7   0.003124855   0.04184  -0.12985  -0.09963  -0.12268
   9   25871.2    386.5   0.000069222   0.00088   0.01231  -0.02001   0.01814
  10   26205.7    381.6   0.018379002   0.23089  -0.03127  -0.21497   0.42860
  11   26257.7    380.8   0.004763637   0.05973  -0.01275  -0.11528   0.21511
  12   26463.0    377.9   0.000677087   0.00842   0.02472   0.06073   0.06422
  13   26611.2    375.8   0.002160443   0.02673  -0.12713  -0.00921  -0.10237
  14   27496.8    363.7   0.044183668   0.52900  -0.31444   0.54087  -0.37093
  15   28840.3    346.7   0.070503982   0.80480  -0.19233   0.38298  -0.78813
  16   28958.8    345.3   0.279596306   3.17853   1.44582  -0.50265  -0.91404
  17   29225.8    342.2   0.006798150   0.07658   0.18554   0.18324   0.09260
  18   30201.2    331.1   0.086018328   0.93765  -0.26853   0.55456  -0.74700
  19   30385.6    329.1   0.000418710   0.00454  -0.02238   0.05043  -0.03863
  20   30473.2    328.2   0.000076022   0.00082  -0.01990   0.00854   0.01876
  21   30603.2    326.8   0.000201065   0.00216   0.03081  -0.00874  -0.03372
  22   30941.9    323.2   0.075024031   0.79823   0.08734  -0.12783   0.87992
  23   30987.2    322.7   0.010390133   0.11039   0.22612  -0.15697   0.18606
  24   31653.2    315.9   0.002025001   0.02106   0.00522  -0.00587  -0.14491
  25   31880.5    313.7   0.170267899   1.75826  -0.52552  -0.00195   1.21741
  26   32131.3    311.2   0.682734605   6.99518   1.75720  -0.53681  -1.90244
  27   32328.0    309.3   0.261438543   2.66235  -0.26988   1.25729  -1.00436
  28   32547.2    307.2   0.003296838   0.03335   0.13639  -0.08318   0.08847
  29   32735.0    305.5   0.013018227   0.13092   0.03525   0.35204   0.07579
  30   32862.1    304.3   0.110110661   1.10309  -0.29668   0.89562  -0.46145
  31   33034.2    302.7   0.034914410   0.34795   0.34332  -0.47259  -0.08209
  32   33221.5    301.0   0.027662139   0.27412  -0.40228   0.09689   0.32079
  33   33809.8    295.8   0.078414113   0.76353   0.46313  -0.60702   0.42494
  34   33868.1    295.3   0.148529171   1.44377  -0.46132   0.77962  -0.78940
  35   34055.8    293.6   0.283495538   2.74050  -1.40144   0.88088   0.02309
  36   34182.0    292.6   0.001839653   0.01772   0.08062  -0.01316   0.10510
  37   34595.5    289.1   0.000946060   0.00900  -0.03939  -0.01638  -0.08475
  38   34854.2    286.9   0.003407554   0.03219  -0.07663  -0.05536   0.15248
  39   34879.9    286.7   0.014575458   0.13757  -0.03641   0.00123  -0.36911
  40   35231.0    283.8   0.001123798   0.01050   0.00528  -0.07162  -0.07310
  41   35292.5    283.3   0.007246688   0.06760  -0.20115   0.09781  -0.13256
  42   35509.5    281.6   0.098534231   0.91352   0.67069  -0.12659  -0.66908
  43   35688.0    280.2   0.001881962   0.01736  -0.07137  -0.01954   0.10902
  44   35862.4    278.8   0.005022745   0.04611  -0.06465   0.11175  -0.17158
  45   36029.1    277.6   0.008711940   0.07960  -0.23645   0.13277  -0.07790
  46   36095.5    277.0   0.013830570   0.12614   0.30551  -0.11565  -0.13940
  47   36407.4    274.7   0.002359239   0.02133  -0.07350   0.09232  -0.08607
  48   36626.9    273.0   0.036097090   0.32445  -0.13698  -0.06806   0.54868
  49   36895.5    271.0   0.070273347   0.62704  -0.55799   0.09251   0.55419
  50   37021.8    270.1   0.000528010   0.00470   0.02052  -0.01380  -0.06390
  51   37240.3    268.5   0.139790883   1.23578   0.84172  -0.38230  -0.61736
  52   37284.9    268.2   0.276976261   2.44560  -1.17128   0.42031   0.94713
  53   37394.6    267.4   0.043253100   0.38079   0.28236   0.22635  -0.49983
  54   37667.7    265.5   0.056670949   0.49530   0.36454  -0.00517  -0.60198
  55   38084.4    262.6   0.031311810   0.27067  -0.28510  -0.20001   0.38650
  56   38185.2    261.9   0.011518553   0.09931   0.00001  -0.28586   0.13263
  57   38438.8    260.2   0.000131009   0.00112  -0.03149  -0.01103   0.00297
  58   38450.1    260.1   0.001173282   0.01005   0.02064   0.03728  -0.09072
  59   38574.1    259.2   0.047847397   0.40835   0.19934   0.28632  -0.53539
  60   38683.4    258.5   0.001746504   0.01486  -0.06166   0.01992   0.10327
  61   38930.5    256.9   0.002688906   0.02274   0.08626   0.02647  -0.12082
  62   39102.6    255.7   0.018178112   0.15305   0.21628  -0.29659   0.13529
  63   39112.7    255.7   0.013196795   0.11108  -0.22823   0.20403  -0.13176
  64   39286.5    254.5   0.016754923   0.14040   0.21663  -0.30518   0.01837
  65   39453.8    253.5   0.028087876   0.23437   0.28800   0.03034  -0.38795
  66   39592.9    252.6   0.010873916   0.09042   0.23219  -0.01992  -0.19002
  67   39864.0    250.9   0.047415781   0.39158   0.45692  -0.15157  -0.39978
  68   40092.1    249.4   0.010585484   0.08692   0.16584  -0.19764   0.14268
  69   40124.0    249.2   0.000146888   0.00121  -0.03327   0.00747   0.00651
  70   40326.0    248.0   0.000107131   0.00087   0.02023   0.02116   0.00418

FINAL SINGLE POINT ENERGY     -4833.912314547782

DIPOLE MOMENT
-------------
                                X             Y             Z
Electronic contribution:      5.23970       2.90422     -19.76984
Nuclear contribution   :     -7.00844      -2.89186      22.52337
                        -----------------------------------------
Total Dipole Moment    :     -1.76874       0.01236       2.75353
                        -----------------------------------------
Magnitude (a.u.)       :      3.27269
Magnitude (Debye)      :      8.31852

Rotational constants in cm-1:     0.001285     0.000273     0.000226
Rotational constants in MHz :    38.526615     8.180106     6.782872

                             ****ORCA TERMINATED NORMALLY****
TOTAL RUN TIME: 0 days 0 hours 8 minutes 50 seconds 160 msec
