                         Program Version 4.2.0 -  RELEASE  -
|  1> # ORCA input file
|  2> # SCF done       -184.198531290121          0.000967213767
|  3> ! CAM-B3LYP def2-SVP def2/J RIJCOSX Grid4 TightSCF
|  4> %maxcore 5000
|  5> %tddft
|  6>     Mode sTDDFT
|  7>     Ethresh 5.0
|  8>     maxcore 5000
|  9> end
| 10>
| 11> %pal
| 12>   nprocs 6
| 13>   end
| 14> * xyz 0 1
| 15>    C       -0.00679         3.94823        -0.60711
| 16>    C        0.57788         4.63792        -1.66135
| 17>    C        1.65782         4.10570        -2.35354
| 18>    C        2.13548         2.86817        -1.96305
| 19>    C        1.54640         2.17308        -0.89931
| 20>    C        0.47101         2.70564        -0.21205
| 21>    C        2.24138         0.88194        -0.68039
| 22>    O        1.96835         0.06427         0.17240
| 23>    C        3.31114         0.83006        -1.69746
| 24>    C        3.25598         2.07367        -2.50995
| 25>    O        3.98984         2.36132        -3.42877
| 26>    C        4.27271        -0.09193        -1.97032
| 27>    C        4.56459        -1.33652        -1.37011
| 28>    C        3.93246        -2.03896        -0.35192
| 29>    C        4.57966        -3.23356        -0.06342
| 30>    C        5.72602        -3.45057        -0.86517
| 31>    S        5.98636        -2.19260        -1.97760
| 32>    C        6.33683        -4.66219        -0.47416
| 33>    C        5.57725        -5.22050         0.57696
| 34>    C        4.44407        -4.35037         0.85792
| 35>    C        3.46712        -4.56026         1.78482
| 36>    C        3.46644        -5.69823         2.62116
| 37>    N        3.46249        -6.61505         3.30975
| 38>    C        2.37852        -3.68220         1.98335
| 39>    N        1.47360        -3.00407         2.16826
| 40>    C        6.11324        -6.40681         1.05373
| 41>    C        7.27815        -6.76013         0.37926
| 42>    S        7.70494        -5.60777        -0.87582
| 43>    C        8.10371        -7.88224         0.64061
| 44>    C        9.28105        -8.11196        -0.10750
| 45>    C       10.17790        -9.20106         0.18033
| 46>    N       11.28062        -9.36001        -0.55877
| 47>    C       11.53945        -8.52952        -1.54005
| 48>    C       10.64845        -7.44475        -1.82497
| 49>    N        9.56372        -7.27219        -1.10861
| 50>    C       10.92635        -6.54659        -2.88495
| 51>    N       11.17608        -5.83401        -3.74585
| 52>    C       12.70842        -8.72039        -2.31754
| 53>    N       13.64942        -8.84525        -2.95797
| 54>    C        9.94490       -10.11580         1.23270
| 55>    C        8.74341        -9.91721         1.95428
| 56>    C        7.84195        -8.82424         1.66415
| 57>    N        6.78558        -8.83647         2.47769
| 58>    S        6.89992       -10.07331         3.48925
| 59>    N        8.29283       -10.66396         2.96288
| 60>    C       10.88293       -11.13326         1.53911
| 61>    C       10.78830       -12.07344         2.56079
| 62>    C       11.90471       -12.89329         2.61632
| 63>    C       12.86125       -12.58106         1.62574
| 64>    S       12.37540       -11.28101         0.62494
| 65>    C       13.96357       -13.44887         1.78741
| 66>    C       13.71320       -14.31127         2.88177
| 67>    C       12.40135       -13.99766         3.42476
| 68>    C       11.75361       -14.60524         4.45866
| 69>    C       12.28634       -15.69793         5.17816
| 70>    N       12.67485       -16.59422         5.77720
| 71>    C       10.47330       -14.18726         4.88349
| 72>    N        9.43622       -13.85098         5.23877
| 73>    C       14.76723       -15.17656         3.14495
| 74>    C       15.82380       -14.99462         2.26173
| 75>    S       15.48381       -13.72555         1.07973
| 76>    C       17.08211       -15.62861         2.16522
| 77>    C       17.67559       -16.56344         2.95460
| 78>    C       19.03859       -17.04143         2.60310
| 79>    O       19.69262       -16.69686         1.64451
| 80>    C       19.41678       -18.00593         3.65794
| 81>    C       20.58268       -18.73326         3.81220
| 82>    C       20.68631       -19.57748         4.91002
| 83>    C       19.64950       -19.68950         5.82729
| 84>    C       18.47760       -18.96015         5.67546
| 85>    C       18.37161       -18.11827         4.58349
| 86>    C       17.24407       -17.23712         4.19621
| 87>    O       16.20097       -17.11166         4.80161
| 88>    H       -0.84584         4.38645        -0.08725
| 89>    H        0.18587         5.60304        -1.94628
| 90>    H        2.11884         4.63439        -3.17363
| 91>    H        0.02407         2.16182         0.60596
| 92>    H        4.93518         0.18770        -2.78693
| 93>    H        3.05058        -1.66464         0.13946
| 94>    H        5.71477        -7.00758         1.85037
| 95>    H        9.93587       -12.11821         3.21319
| 96>    H       14.80170       -15.90580         3.93625
| 97>    H       17.69197       -15.30816         1.32306
| 98>    H       21.38316       -18.63940         3.09456
| 99>    H       21.58677       -20.15610         5.05392
|100>    H       19.75791       -20.35425         6.67147
|101>    H       17.66632       -19.03967         6.38267
|102> *
|103>
|104>                          ****END OF INPUT****

CARTESIAN COORDINATES (ANGSTROEM)
---------------------------------
  C     -0.006790    3.948230   -0.607110
  C      0.577880    4.637920   -1.661350
  C      1.657820    4.105700   -2.353540
  C      2.135480    2.868170   -1.963050
  C      1.546400    2.173080   -0.899310
  C      0.471010    2.705640   -0.212050
  C      2.241380    0.881940   -0.680390
  O      1.968350    0.064270    0.172400
  C      3.311140    0.830060   -1.697460
  C      3.255980    2.073670   -2.509950
  O      3.989840    2.361320   -3.428770
  C      4.272710   -0.091930   -1.970320
  C      4.564590   -1.336520   -1.370110
  C      3.932460   -2.038960   -0.351920
  C      4.579660   -3.233560   -0.063420
  C      5.726020   -3.450570   -0.865170
  S      5.986360   -2.192600   -1.977600
  C      6.336830   -4.662190   -0.474160
  C      5.577250   -5.220500    0.576960
  C      4.444070   -4.350370    0.857920
  C      3.467120   -4.560260    1.784820
  C      3.466440   -5.698230    2.621160
  N      3.462490   -6.615050    3.309750
  C      2.378520   -3.682200    1.983350
  N      1.473600   -3.004070    2.168260
  C      6.113240   -6.406810    1.053730
  C      7.278150   -6.760130    0.379260
  S      7.704940   -5.607770   -0.875820
  C      8.103710   -7.882240    0.640610
  C      9.281050   -8.111960   -0.107500
  C     10.177900   -9.201060    0.180330
  N     11.280620   -9.360010   -0.558770
  C     11.539450   -8.529520   -1.540050
  C     10.648450   -7.444750   -1.824970
  N      9.563720   -7.272190   -1.108610
  C     10.926350   -6.546590   -2.884950
  N     11.176080   -5.834010   -3.745850
  C     12.708420   -8.720390   -2.317540
  N     13.649420   -8.845250   -2.957970
  C      9.944900  -10.115800    1.232700
  C      8.743410   -9.917210    1.954280
  C      7.841950   -8.824240    1.664150
  N      6.785580   -8.836470    2.477690
  S      6.899920  -10.073310    3.489250
  N      8.292830  -10.663960    2.962880
  C     10.882930  -11.133260    1.539110
  C     10.788300  -12.073440    2.560790
  C     11.904710  -12.893290    2.616320
  C     12.861250  -12.581060    1.625740
  S     12.375400  -11.281010    0.624940
  C     13.963570  -13.448870    1.787410
  C     13.713200  -14.311270    2.881770
  C     12.401350  -13.997660    3.424760
  C     11.753610  -14.605240    4.458660
  C     12.286340  -15.697930    5.178160
  N     12.674850  -16.594220    5.777200
  C     10.473300  -14.187260    4.883490
  N      9.436220  -13.850980    5.238770
  C     14.767230  -15.176560    3.144950
  C     15.823800  -14.994620    2.261730
  S     15.483810  -13.725550    1.079730
  C     17.082110  -15.628610    2.165220
  C     17.675590  -16.563440    2.954600
  C     19.038590  -17.041430    2.603100
  O     19.692620  -16.696860    1.644510
  C     19.416780  -18.005930    3.657940
  C     20.582680  -18.733260    3.812200
  C     20.686310  -19.577480    4.910020
  C     19.649500  -19.689500    5.827290
  C     18.477600  -18.960150    5.675460
  C     18.371610  -18.118270    4.583490
  C     17.244070  -17.237120    4.196210
  O     16.200970  -17.111660    4.801610
  H     -0.845840    4.386450   -0.087250
  H      0.185870    5.603040   -1.946280
  H      2.118840    4.634390   -3.173630
  H      0.024070    2.161820    0.605960
  H      4.935180    0.187700   -2.786930
  H      3.050580   -1.664640    0.139460
  H      5.714770   -7.007580    1.850370
  H      9.935870  -12.118210    3.213190
  H     14.801700  -15.905800    3.936250
  H     17.691970  -15.308160    1.323060
  H     21.383160  -18.639400    3.094560
  H     21.586770  -20.156100    5.053920
  H     19.757910  -20.354250    6.671470
  H     17.666320  -19.039670    6.382670

 Total Charge           Charge          ....    0
 Multiplicity           Mult            ....    1
 Number of Electrons    NEL             ....  520
 Basis Dimension        Dim             .... 1112

ORBITAL ENERGIES
----------------

  NO   OCC          E(Eh)            E(eV)
   0   2.0000     -89.060424     -2423.4573
   1   2.0000     -88.994313     -2421.6584
   2   2.0000     -88.994211     -2421.6556
   3   2.0000     -88.992512     -2421.6094
   4   2.0000     -88.992472     -2421.6083
   5   2.0000     -19.214382      -522.8499
   6   2.0000     -19.214376      -522.8498
   7   2.0000     -19.209245      -522.7101
   8   2.0000     -19.209212      -522.7092
   9   2.0000     -14.485323      -394.1657
  10   2.0000     -14.485180      -394.1618
  11   2.0000     -14.468124      -393.6977
  12   2.0000     -14.468025      -393.6950
  13   2.0000     -14.445999      -393.0956
  14   2.0000     -14.445938      -393.0939
  15   2.0000     -14.431591      -392.7036
  16   2.0000     -14.431569      -392.7029
  17   2.0000     -14.426999      -392.5786
  18   2.0000     -14.426946      -392.5772
  19   2.0000     -10.402735      -283.0728
  20   2.0000     -10.402503      -283.0665
  21   2.0000     -10.366569      -282.0887
  22   2.0000     -10.366535      -282.0877
  23   2.0000     -10.365903      -282.0706
  24   2.0000     -10.365659      -282.0639
  25   2.0000     -10.365528      -282.0604
  26   2.0000     -10.365488      -282.0593
  27   2.0000     -10.360681      -281.9285
  28   2.0000     -10.360440      -281.9219
  29   2.0000     -10.359399      -281.8936
  30   2.0000     -10.359378      -281.8930
  31   2.0000     -10.353237      -281.7259
  32   2.0000     -10.353170      -281.7241
  33   2.0000     -10.341806      -281.4148
  34   2.0000     -10.341738      -281.4130
  35   2.0000     -10.339121      -281.3418
  36   2.0000     -10.339029      -281.3393
  37   2.0000     -10.338061      -281.3129
  38   2.0000     -10.337897      -281.3085
  39   2.0000     -10.334220      -281.2084
  40   2.0000     -10.334075      -281.2045
  41   2.0000     -10.332377      -281.1583
  42   2.0000     -10.332302      -281.1562
  43   2.0000     -10.331772      -281.1418
  44   2.0000     -10.331750      -281.1412
  45   2.0000     -10.327022      -281.0126
  46   2.0000     -10.327002      -281.0120
  47   2.0000     -10.325972      -280.9840
  48   2.0000     -10.325894      -280.9819
  49   2.0000     -10.319043      -280.7954
  50   2.0000     -10.318960      -280.7932
  51   2.0000     -10.308968      -280.5213
  52   2.0000     -10.308883      -280.5190
  53   2.0000     -10.307979      -280.4944
  54   2.0000     -10.307962      -280.4939
  55   2.0000     -10.305323      -280.4221
  56   2.0000     -10.305286      -280.4211
  57   2.0000     -10.302436      -280.3435
  58   2.0000     -10.302402      -280.3426
  59   2.0000     -10.290275      -280.0126
  60   2.0000     -10.290238      -280.0116
  61   2.0000     -10.289907      -280.0026
  62   2.0000     -10.289847      -280.0010
  63   2.0000     -10.289603      -279.9943
  64   2.0000     -10.289554      -279.9930
  65   2.0000     -10.289071      -279.9799
  66   2.0000     -10.288965      -279.9770
  67   2.0000     -10.286528      -279.9107
  68   2.0000     -10.286494      -279.9097
  69   2.0000     -10.286057      -279.8978
  70   2.0000     -10.286041      -279.8974
  71   2.0000     -10.282570      -279.8030
  72   2.0000     -10.282516      -279.8015
  73   2.0000      -8.151227      -221.8062
  74   2.0000      -8.089099      -220.1156
  75   2.0000      -8.089043      -220.1141
  76   2.0000      -8.085098      -220.0067
  77   2.0000      -8.085071      -220.0060
  78   2.0000      -6.122273      -166.5955
  79   2.0000      -6.114352      -166.3800
  80   2.0000      -6.114256      -166.3774
  81   2.0000      -6.058136      -164.8503
  82   2.0000      -6.058081      -164.8488
  83   2.0000      -6.054658      -164.7556
  84   2.0000      -6.054650      -164.7554
  85   2.0000      -6.054036      -164.7387
  86   2.0000      -6.053984      -164.7373
  87   2.0000      -6.051755      -164.6766
  88   2.0000      -6.051683      -164.6747
  89   2.0000      -6.049862      -164.6251
  90   2.0000      -6.049832      -164.6243
  91   2.0000      -6.047510      -164.5611
  92   2.0000      -6.047486      -164.5605
  93   2.0000      -1.158055       -31.5123
  94   2.0000      -1.143973       -31.1291
  95   2.0000      -1.130076       -30.7509
  96   2.0000      -1.130017       -30.7493
  97   2.0000      -1.122717       -30.5507
  98   2.0000      -1.122666       -30.5493
  99   2.0000      -1.072987       -29.1975
 100   2.0000      -1.048191       -28.5227
 101   2.0000      -1.047602       -28.5067
 102   2.0000      -1.031280       -28.0626
 103   2.0000      -1.022518       -27.8241
 104   2.0000      -1.022028       -27.8108
 105   2.0000      -1.020822       -27.7780
 106   2.0000      -1.014034       -27.5933
 107   2.0000      -1.008943       -27.4547
 108   2.0000      -1.005873       -27.3712
 109   2.0000      -1.005532       -27.3619
 110   2.0000      -0.998237       -27.1634
 111   2.0000      -0.988540       -26.8995
 112   2.0000      -0.978469       -26.6255
 113   2.0000      -0.978373       -26.6229
 114   2.0000      -0.962990       -26.2043
 115   2.0000      -0.958558       -26.0837
 116   2.0000      -0.930093       -25.3091
 117   2.0000      -0.928416       -25.2635
 118   2.0000      -0.926088       -25.2001
 119   2.0000      -0.920244       -25.0411
 120   2.0000      -0.910761       -24.7831
 121   2.0000      -0.898074       -24.4378
 122   2.0000      -0.878421       -23.9030
 123   2.0000      -0.877856       -23.8877
 124   2.0000      -0.867814       -23.6144
 125   2.0000      -0.861678       -23.4474
 126   2.0000      -0.858644       -23.3649
 127   2.0000      -0.858271       -23.3547
 128   2.0000      -0.853368       -23.2213
 129   2.0000      -0.853281       -23.2190
 130   2.0000      -0.851838       -23.1797
 131   2.0000      -0.825256       -22.4564
 132   2.0000      -0.820325       -22.3222
 133   2.0000      -0.801352       -21.8059
 134   2.0000      -0.794368       -21.6158
 135   2.0000      -0.781481       -21.2652
 136   2.0000      -0.776536       -21.1306
 137   2.0000      -0.760586       -20.6966
 138   2.0000      -0.755682       -20.5632
 139   2.0000      -0.738927       -20.1072
 140   2.0000      -0.734491       -19.9865
 141   2.0000      -0.734002       -19.9732
 142   2.0000      -0.724122       -19.7044
 143   2.0000      -0.717745       -19.5308
 144   2.0000      -0.715543       -19.4709
 145   2.0000      -0.704812       -19.1789
 146   2.0000      -0.701391       -19.0858
 147   2.0000      -0.691093       -18.8056
 148   2.0000      -0.683974       -18.6119
 149   2.0000      -0.683645       -18.6029
 150   2.0000      -0.676622       -18.4118
 151   2.0000      -0.670865       -18.2552
 152   2.0000      -0.665784       -18.1169
 153   2.0000      -0.659756       -17.9529
 154   2.0000      -0.651124       -17.7180
 155   2.0000      -0.650999       -17.7146
 156   2.0000      -0.644628       -17.5412
 157   2.0000      -0.642748       -17.4901
 158   2.0000      -0.632151       -17.2017
 159   2.0000      -0.630302       -17.1514
 160   2.0000      -0.624338       -16.9891
 161   2.0000      -0.618684       -16.8352
 162   2.0000      -0.616001       -16.7622
 163   2.0000      -0.612591       -16.6694
 164   2.0000      -0.601039       -16.3551
 165   2.0000      -0.600660       -16.3448
 166   2.0000      -0.594047       -16.1648
 167   2.0000      -0.586785       -15.9672
 168   2.0000      -0.577952       -15.7269
 169   2.0000      -0.574154       -15.6235
 170   2.0000      -0.570299       -15.5186
 171   2.0000      -0.567364       -15.4387
 172   2.0000      -0.561990       -15.2925
 173   2.0000      -0.558356       -15.1936
 174   2.0000      -0.556531       -15.1440
 175   2.0000      -0.551204       -14.9990
 176   2.0000      -0.549923       -14.9642
 177   2.0000      -0.548689       -14.9306
 178   2.0000      -0.537451       -14.6248
 179   2.0000      -0.534800       -14.5526
 180   2.0000      -0.530962       -14.4482
 181   2.0000      -0.530857       -14.4454
 182   2.0000      -0.529673       -14.4131
 183   2.0000      -0.528840       -14.3905
 184   2.0000      -0.524354       -14.2684
 185   2.0000      -0.522902       -14.2289
 186   2.0000      -0.517426       -14.0799
 187   2.0000      -0.516414       -14.0523
 188   2.0000      -0.516084       -14.0434
 189   2.0000      -0.511345       -13.9144
 190   2.0000      -0.510507       -13.8916
 191   2.0000      -0.508855       -13.8467
 192   2.0000      -0.507554       -13.8112
 193   2.0000      -0.507195       -13.8015
 194   2.0000      -0.503665       -13.7054
 195   2.0000      -0.502386       -13.6706
 196   2.0000      -0.497922       -13.5492
 197   2.0000      -0.494991       -13.4694
 198   2.0000      -0.493313       -13.4237
 199   2.0000      -0.488462       -13.2917
 200   2.0000      -0.485530       -13.2120
 201   2.0000      -0.483288       -13.1509
 202   2.0000      -0.481015       -13.0891
 203   2.0000      -0.480604       -13.0779
 204   2.0000      -0.475663       -12.9435
 205   2.0000      -0.470909       -12.8141
 206   2.0000      -0.470813       -12.8115
 207   2.0000      -0.470156       -12.7936
 208   2.0000      -0.469013       -12.7625
 209   2.0000      -0.468348       -12.7444
 210   2.0000      -0.463301       -12.6070
 211   2.0000      -0.461712       -12.5638
 212   2.0000      -0.461364       -12.5543
 213   2.0000      -0.460717       -12.5367
 214   2.0000      -0.459044       -12.4912
 215   2.0000      -0.455718       -12.4007
 216   2.0000      -0.455622       -12.3981
 217   2.0000      -0.453644       -12.3443
 218   2.0000      -0.452677       -12.3180
 219   2.0000      -0.451782       -12.2936
 220   2.0000      -0.451069       -12.2742
 221   2.0000      -0.447977       -12.1901
 222   2.0000      -0.447126       -12.1669
 223   2.0000      -0.443149       -12.0587
 224   2.0000      -0.439042       -11.9469
 225   2.0000      -0.438917       -11.9436
 226   2.0000      -0.438896       -11.9430
 227   2.0000      -0.438803       -11.9404
 228   2.0000      -0.438576       -11.9343
 229   2.0000      -0.438183       -11.9236
 230   2.0000      -0.438035       -11.9195
 231   2.0000      -0.433981       -11.8092
 232   2.0000      -0.426709       -11.6113
 233   2.0000      -0.425197       -11.5702
 234   2.0000      -0.422196       -11.4885
 235   2.0000      -0.417828       -11.3697
 236   2.0000      -0.415623       -11.3097
 237   2.0000      -0.402123       -10.9423
 238   2.0000      -0.396625       -10.7927
 239   2.0000      -0.395376       -10.7587
 240   2.0000      -0.392929       -10.6921
 241   2.0000      -0.368470       -10.0266
 242   2.0000      -0.367941       -10.0122
 243   2.0000      -0.366092        -9.9619
 244   2.0000      -0.352355        -9.5881
 245   2.0000      -0.351800        -9.5730
 246   2.0000      -0.350417        -9.5353
 247   2.0000      -0.349002        -9.4968
 248   2.0000      -0.348845        -9.4925
 249   2.0000      -0.339038        -9.2257
 250   2.0000      -0.337724        -9.1899
 251   2.0000      -0.337643        -9.1877
 252   2.0000      -0.336667        -9.1612
 253   2.0000      -0.324883        -8.8405
 254   2.0000      -0.323768        -8.8102
 255   2.0000      -0.322033        -8.7630
 256   2.0000      -0.322033        -8.7630
 257   2.0000      -0.312177        -8.4948
 258   2.0000      -0.281992        -7.6734
 259   2.0000      -0.248227        -6.7546
 260   0.0000      -0.146455        -3.9853
 261   0.0000      -0.108369        -2.9489
 262   0.0000      -0.103525        -2.8170
 263   0.0000      -0.073630        -2.0036
 264   0.0000      -0.072556        -1.9743

MULLIKEN ATOMIC CHARGES
-----------------------
   0 C :    0.039622
   1 C :    0.040443
   2 C :   -0.022443
   3 C :    0.013171
   4 C :   -0.013164
   5 C :   -0.020903
   6 C :    0.189743
   7 O :   -0.149236
   8 C :   -0.171575
   9 C :    0.145005
  10 O :   -0.150604
  11 C :    0.052704
  12 C :   -0.104053
  13 C :   -0.013001
  14 C :    0.004392
  15 C :   -0.097865
  16 S :    0.205604
  17 C :   -0.060486
  18 C :    0.042641
  19 C :    0.313171
  20 C :   -0.302979
  21 C :   -0.189448
  22 N :    0.171393
  23 C :   -0.196065
  24 N :    0.197259
  25 C :   -0.066047
  26 C :   -0.171499
  27 S :    0.208528
  28 C :    0.189819
  29 C :   -0.064766
  30 C :   -0.061735
  31 N :    0.002625
  32 C :   -0.100179
  33 C :   -0.096560
  34 N :   -0.000749
  35 C :   -0.243968
  36 N :    0.256418
  37 C :   -0.244403
  38 N :    0.254670
  39 C :    0.189169
  40 C :   -0.014085
  41 C :   -0.013628
  42 N :   -0.280155
  43 S :    0.592541
  44 N :   -0.280281
  45 C :   -0.173046
  46 C :   -0.063812
  47 C :    0.038778
  48 C :   -0.060638
  49 S :    0.206881
  50 C :   -0.095790
  51 C :    0.005098
  52 C :    0.314120
  53 C :   -0.302723
  54 C :   -0.197227
  55 N :    0.198251
  56 C :   -0.188821
  57 N :    0.173644
  58 C :   -0.017914
  59 C :   -0.102220
  60 S :    0.205317
  61 C :    0.053246
  62 C :   -0.171426
  63 C :    0.145627
  64 O :   -0.149659
  65 C :    0.012088
  66 C :   -0.024300
  67 C :    0.039928
  68 C :    0.040065
  69 C :   -0.023451
  70 C :   -0.012253
  71 C :    0.188536
  72 O :   -0.147461
  73 H :   -0.000078
  74 H :   -0.001498
  75 H :   -0.005408
  76 H :   -0.000657
  77 H :    0.012909
  78 H :    0.034005
  79 H :    0.024834
  80 H :    0.024406
  81 H :    0.035304
  82 H :    0.012150
  83 H :   -0.004802
  84 H :   -0.001191
  85 H :    0.000256
  86 H :   -0.000110
Sum of atomic charges:   -0.0000000

LOEWDIN ATOMIC CHARGES
----------------------
   0 C :   -0.002817
   1 C :   -0.003250
   2 C :    0.010002
   3 C :   -0.045883
   4 C :   -0.042852
   5 C :    0.011249
   6 C :    0.082662
   7 O :   -0.136342
   8 C :   -0.124207
   9 C :    0.078255
  10 O :   -0.147670
  11 C :    0.045017
  12 C :   -0.173009
  13 C :    0.009553
  14 C :   -0.066859
  15 C :   -0.169655
  16 S :    0.493132
  17 C :   -0.179617
  18 C :   -0.065208
  19 C :    0.075105
  20 C :   -0.094945
  21 C :   -0.014648
  22 N :   -0.033641
  23 C :   -0.024841
  24 N :   -0.013720
  25 C :   -0.007109
  26 C :   -0.163989
  27 S :    0.510016
  28 C :   -0.036752
  29 C :   -0.014767
  30 C :   -0.014794
  31 N :   -0.015698
  32 C :   -0.020845
  33 C :   -0.020661
  34 N :   -0.015903
  35 C :   -0.040017
  36 N :    0.004341
  37 C :   -0.039856
  38 N :    0.004177
  39 C :   -0.036730
  40 C :   -0.036551
  41 C :   -0.036746
  42 N :   -0.269375
  43 S :    0.711251
  44 N :   -0.269509
  45 C :   -0.164072
  46 C :   -0.007174
  47 C :   -0.065201
  48 C :   -0.179667
  49 S :    0.509978
  50 C :   -0.169587
  51 C :   -0.066800
  52 C :    0.075154
  53 C :   -0.094865
  54 C :   -0.024825
  55 N :   -0.013727
  56 C :   -0.014759
  57 N :   -0.033536
  58 C :    0.009290
  59 C :   -0.173137
  60 S :    0.493011
  61 C :    0.045264
  62 C :   -0.124063
  63 C :    0.078138
  64 O :   -0.147562
  65 C :   -0.045879
  66 C :    0.009906
  67 C :   -0.003440
  68 C :   -0.002867
  69 C :    0.011095
  70 C :   -0.042825
  71 C :    0.082547
  72 O :   -0.136120
  73 H :    0.033952
  74 H :    0.033525
  75 H :    0.038434
  76 H :    0.039830
  77 H :    0.041929
  78 H :    0.042995
  79 H :    0.038956
  80 H :    0.038825
  81 H :    0.043023
  82 H :    0.041876
  83 H :    0.038493
  84 H :    0.033658
  85 H :    0.034035
  86 H :    0.039898

  Mayer bond orders larger than 0.100000
B(  0-C ,  1-C ) :   1.3794 B(  0-C ,  5-C ) :   1.3564 B(  0-C , 73-H ) :   0.9890
B(  1-C ,  2-C ) :   1.3602 B(  1-C , 74-H ) :   0.9879 B(  2-C ,  3-C ) :   1.3833
B(  2-C , 75-H ) :   1.0052 B(  3-C ,  4-C ) :   1.3530 B(  3-C ,  9-C ) :   0.9177
B(  4-C ,  5-C ) :   1.3865 B(  4-C ,  6-C ) :   0.9424 B(  5-C , 76-H ) :   1.0051
B(  6-C ,  7-O ) :   2.1591 B(  6-C ,  8-C ) :   0.9449 B(  7-O , 78-H ) :   0.1040
B(  8-C ,  9-C ) :   0.9607 B(  8-C , 11-C ) :   1.6906 B(  9-C , 10-O ) :   2.2461
B( 11-C , 12-C ) :   1.1307 B( 11-C , 77-H ) :   0.9309 B( 12-C , 13-C ) :   1.4223
B( 12-C , 16-S ) :   1.0847 B( 13-C , 14-C ) :   1.2951 B( 13-C , 78-H ) :   0.9689
B( 14-C , 15-C ) :   1.3848 B( 14-C , 19-C ) :   0.9944 B( 15-C , 16-S ) :   1.1543
B( 15-C , 17-C ) :   1.2099 B( 17-C , 18-C ) :   1.3979 B( 17-C , 27-S ) :   1.0841
B( 18-C , 19-C ) :   0.9898 B( 18-C , 25-C ) :   1.2847 B( 19-C , 20-C ) :   1.7135
B( 20-C , 21-C ) :   1.1420 B( 20-C , 23-C ) :   1.1337 B( 21-C , 22-N ) :   2.9829
B( 23-C , 24-N ) :   3.0029 B( 25-C , 26-C ) :   1.4020 B( 25-C , 79-H ) :   0.9817
B( 26-C , 27-S ) :   1.0881 B( 26-C , 28-C ) :   1.2159 B( 28-C , 29-C ) :   1.2497
B( 28-C , 39-C ) :   0.1197 B( 28-C , 41-C ) :   1.1973 B( 29-C , 30-C ) :   1.1080
B( 29-C , 34-N ) :   1.4076 B( 30-C , 31-N ) :   1.4072 B( 30-C , 39-C ) :   1.2526
B( 31-N , 32-C ) :   1.6950 B( 32-C , 33-C ) :   1.2201 B( 32-C , 37-C ) :   1.1676
B( 33-C , 34-N ) :   1.6933 B( 33-C , 35-C ) :   1.1649 B( 35-C , 36-N ) :   3.0413
B( 37-C , 38-N ) :   3.0392 B( 39-C , 40-C ) :   1.1953 B( 39-C , 45-C ) :   1.2158
B( 40-C , 41-C ) :   1.0984 B( 40-C , 44-N ) :   1.5183 B( 41-C , 42-N ) :   1.5181
B( 42-N , 43-S ) :   1.2876 B( 42-N , 44-N ) :   0.1461 B( 43-S , 44-N ) :   1.2871
B( 45-C , 46-C ) :   1.4014 B( 45-C , 49-S ) :   1.0888 B( 46-C , 47-C ) :   1.2875
B( 46-C , 80-H ) :   0.9806 B( 47-C , 48-C ) :   1.3978 B( 47-C , 52-C ) :   0.9897
B( 48-C , 49-S ) :   1.0836 B( 48-C , 50-C ) :   1.2115 B( 50-C , 51-C ) :   1.3829
B( 50-C , 60-S ) :   1.1539 B( 51-C , 52-C ) :   0.9923 B( 51-C , 58-C ) :   1.2963
B( 52-C , 53-C ) :   1.7162 B( 53-C , 54-C ) :   1.1338 B( 53-C , 56-C ) :   1.1404
B( 54-C , 55-N ) :   3.0033 B( 56-C , 57-N ) :   2.9837 B( 58-C , 59-C ) :   1.4210
B( 58-C , 81-H ) :   0.9690 B( 59-C , 60-S ) :   1.0845 B( 59-C , 61-C ) :   1.1295
B( 61-C , 62-C ) :   1.6898 B( 61-C , 82-H ) :   0.9310 B( 62-C , 63-C ) :   0.9605
B( 62-C , 71-C ) :   0.9458 B( 63-C , 64-O ) :   2.2469 B( 63-C , 65-C ) :   0.9161
B( 65-C , 66-C ) :   1.3876 B( 65-C , 70-C ) :   1.3499 B( 66-C , 67-C ) :   1.3602
B( 66-C , 83-H ) :   1.0041 B( 67-C , 68-C ) :   1.3787 B( 67-C , 84-H ) :   0.9878
B( 68-C , 69-C ) :   1.3584 B( 68-C , 85-H ) :   0.9883 B( 69-C , 70-C ) :   1.3862
B( 69-C , 86-H ) :   1.0045 B( 70-C , 71-C ) :   0.9439 B( 71-C , 72-O ) :   2.1612
B( 72-O , 81-H ) :   0.1041

-----------------------------------------------------------------------------
         ABSORPTION SPECTRUM VIA TRANSITION ELECTRIC DIPOLE MOMENTS
-----------------------------------------------------------------------------
State   Energy  Wavelength   fosc         T2         TX        TY        TZ
        (cm-1)    (nm)                  (au**2)     (au)      (au)      (au)
-----------------------------------------------------------------------------
   0    7272.9   1375.0   0.664069284  30.05956   3.41936  -4.14067   1.10564
   1   14048.0    711.8   0.004436430   0.10397   0.18511   0.19607   0.17679
   2   14587.9    685.5   0.073011951   1.64769   0.80124  -0.96849   0.26026
   3   16093.9    621.4   0.005781521   0.11826   0.12879   0.17899   0.26389
   4   22037.1    453.8   0.279675013   4.17807  -1.27771   1.54014  -0.41653
   5   22269.5    449.0   0.024221501   0.35807   0.15004  -0.06697  -0.57539
   6   22711.4    440.3   1.342064820  19.45383  -2.75182   3.32793  -0.89789
   7   23239.0    430.3   0.031708078   0.44919   0.41594   0.09569  -0.51675
   8   23260.4    429.9   0.157127949   2.22388  -0.91286   1.13143  -0.33232
   9   24792.6    403.3   0.026624286   0.35353   0.43533   0.28235  -0.29034
  10   24985.0    400.2   0.022714369   0.29929   0.34346  -0.41100   0.11138
  11   25114.8    398.2   0.001539049   0.02017   0.09886   0.10131   0.01168
  12   25443.7    393.0   0.001264607   0.01636   0.00791   0.12053  -0.04209
  13   25503.1    392.1   0.003078312   0.03974   0.18074  -0.08359   0.00910
  14   25781.8    387.9   0.633246710   8.08602  -1.77776   2.14129  -0.58347
  15   26038.0    384.1   0.078065185   0.98702   0.77483   0.59731  -0.17287
  16   28956.6    345.3   0.080462486   0.91479   0.66318   0.31078  -0.61514
  17   29012.3    344.7   0.106878523   1.21279  -0.66220   0.84363  -0.25012
  18   29570.6    338.2   0.150823801   1.67913   0.88778   0.54275  -0.77227
  19   30262.0    330.4   0.001634843   0.01779  -0.12188  -0.00519   0.05388
  20   30369.6    329.3   0.001112133   0.01206   0.04263  -0.09247   0.04107
  21   30565.1    327.2   0.000072680   0.00078   0.01913  -0.02036   0.00152
  22   30993.2    322.7   0.272824148   2.89795   1.01885   0.51275  -1.26372
  23   31083.6    321.7   0.023760974   0.25166   0.33174  -0.36825   0.07745
  24   31567.6    316.8   0.263074802   2.74355   1.01726  -1.26113   0.34392
  25   31740.9    315.1   0.002209772   0.02292   0.04724  -0.11943   0.08015
  26   31818.9    314.3   0.002284970   0.02364  -0.11959   0.09440   0.02070
  27   31850.1    314.0   0.000219252   0.00227  -0.00481  -0.00401  -0.04719
  28   31950.9    313.0   0.106324792   1.09554  -0.66758   0.78064  -0.20119
  29   32385.9    308.8   0.842733532   8.56661   1.71713   0.81993  -2.22392
  30   32499.9    307.7   0.002741825   0.02777   0.01350   0.11633  -0.11857
  31   32524.0    307.5   0.036260410   0.36703   0.37620   0.17642  -0.44089
  32   32569.0    307.0   0.008623182   0.08716  -0.24052   0.16971   0.02264
  33   32604.7    306.7   0.383165871   3.86885   1.14518   0.54668  -1.50285
  34   32679.6    306.0   0.002108012   0.02124  -0.08252   0.11032  -0.04749
  35   32895.7    304.0   0.086995623   0.87063   0.65391   0.40210  -0.53042
  36   33091.6    302.2   0.021839699   0.21727  -0.28026   0.35390  -0.11612
  37   33129.5    301.8   0.041919972   0.41656  -0.36106  -0.13830   0.51679
  38   33236.1    300.9   0.036962801   0.36613  -0.45352  -0.31534   0.24700
  39   33281.9    300.5   0.025914774   0.25634   0.31642  -0.37845   0.11400
  40   33497.1    298.5   0.000287591   0.00283  -0.02589   0.04363  -0.01590
  41   33701.3    296.7   0.012113991   0.11834   0.21419  -0.25480   0.08682
  42   33746.9    296.3   0.003205246   0.03127  -0.04059  -0.17208  -0.00290
  43   33870.3    295.2   0.231111554   2.24636  -0.94330   1.12196  -0.31263
  44   34260.4    291.9   0.022503910   0.21624  -0.36320  -0.26647   0.11544
  45   34510.8    289.8   0.312936987   2.98523  -1.07053   1.30960  -0.35234
  46   35223.9    283.9   0.011558682   0.10803  -0.11785  -0.00757   0.30673
  47   35456.7    282.0   0.098130053   0.91113   0.59869  -0.71696   0.19664
  48   37191.6    268.9   0.185083604   1.63832   0.76905   0.38331  -0.94866
  49   37375.0    267.6   0.007081381   0.06238   0.16635  -0.18323   0.03358
  50   37852.3    264.2   0.000664085   0.00578  -0.05868   0.04829   0.00092
  51   37943.7    263.5   0.120497133   1.04547  -0.62597  -0.32364   0.74087
  52   38248.2    261.5   0.001052583   0.00906   0.00122   0.03376   0.08899
  53   38291.3    261.2   0.011951486   0.10275   0.21072  -0.23434   0.05860
  54   38328.9    260.9   0.002769885   0.02379   0.03059   0.09344  -0.11885
  55   38429.8    260.2   0.002401548   0.02057  -0.09354   0.10862  -0.00487
  56   38544.5    259.4   0.001750453   0.01495   0.05242  -0.00196  -0.11045
  57   38705.8    258.4   0.000008212   0.00007  -0.00411  -0.00418   0.00595
  58   38733.0    258.2   0.021547014   0.18314  -0.26770   0.32265  -0.08588
  59   39058.7    256.0   0.001344476   0.01133  -0.07175  -0.02932   0.07297
  60   39076.5    255.9   0.000757052   0.00638  -0.04319   0.06340  -0.02220
  61   39596.4    252.5   0.009775616   0.08128  -0.08684  -0.02979   0.26990
  62   39658.7    252.2   0.240587294   1.99715  -0.87446  -0.44255   1.01814
  63   39742.7    251.6   0.000821426   0.00680  -0.02941   0.07674  -0.00712
  64   39979.9    250.1   0.005017458   0.04132  -0.13882  -0.13210  -0.06778
  65   40005.4    250.0   0.005108576   0.04204  -0.12405  -0.05370   0.15417
  66   40230.2    248.6   0.001209343   0.00990   0.05384  -0.07890   0.02779

FINAL SINGLE POINT ENERGY     -4901.135555667479

DIPOLE MOMENT
-------------
                                X             Y             Z
Electronic contribution:     -3.78981      -5.45949      -8.34743
Nuclear contribution   :      4.10915       5.76356       8.47514
                        -----------------------------------------
Total Dipole Moment    :      0.31934       0.30407       0.12771
                        -----------------------------------------
Magnitude (a.u.)       :      0.45907
Magnitude (Debye)      :      1.16686

Rotational constants in cm-1:     0.002734     0.000219     0.000205
Rotational constants in MHz :    81.974452     6.573874     6.156049

                             ****ORCA TERMINATED NORMALLY****
TOTAL RUN TIME: 0 days 0 hours 8 minutes 47 seconds 854 msec
