                         Program Version 4.2.0 -  RELEASE  -
|  1> # ORCA input file
|  2> # SCF done       -203.879843959508          0.000676605872
|  3> ! CAM-B3LYP def2-SVP def2/J RIJCOSX Grid4 TightSCF
|  4> %maxcore 5000
|  5> %tddft
|  6>     Mode sTDDFT
|  7>     Ethresh 5.0
|  8>     maxcore 5000
|  9> end
| 10>
| 11> %pal
| 12>   nprocs 6
| 13>   end
| 14> * xyz 0 1
| 15>    C        8.66868        11.05750       -10.61211
| 16>    C        8.14345        11.93289       -11.52199
| 17>    F        8.91179        12.92213       -12.00800
| 18>    C        6.82042        11.84093       -11.97734
| 19>    C        6.02296        10.84121       -11.49505
| 20>    C        6.51361         9.90962       -10.55632
| 21>    C        7.86262        10.01973       -10.10577
| 22>    C        8.37818         9.09676        -9.16587
| 23>    C        7.57228         8.09465        -8.69789
| 24>    C        6.22790         7.98179        -9.16202
| 25>    C        5.70215         8.86553       -10.06215
| 26>    C        5.59720         6.80063        -8.55292
| 27>    O        4.45578         6.41743        -8.64864
| 28>    C        6.70793         6.10755        -7.82352
| 29>    C        7.82655         7.02601        -7.73513
| 30>    C        8.81172         7.01278        -6.78969
| 31>    C        8.84638         6.10290        -5.70853
| 32>    N        8.85811         5.48303        -4.74256
| 33>    C        9.82558         7.99089        -6.70896
| 34>    N       10.66671         8.76489        -6.61199
| 35>    C        6.58894         4.78281        -7.54980
| 36>    C        7.63426         3.86973        -7.25255
| 37>    N        8.91508         4.20932        -7.31876
| 38>    C        9.61071         3.08610        -7.06387
| 39>    C        8.71550         1.94281        -6.83492
| 40>    C        9.49948         0.72640        -6.56118
| 41>    O        9.10105        -0.40339        -6.37588
| 42>    C       10.88859         1.22117        -6.59475
| 43>    C       10.91031         2.66468        -6.92370
| 44>    N       12.18233         3.12767        -6.96508
| 45>    C       12.93246         2.09322        -6.67558
| 46>    C       12.18816         0.87011        -6.42978
| 47>    C        7.43713         2.43341        -6.94334
| 48>    C        6.17260         1.79296        -6.80325
| 49>    C        6.04596         0.45442        -6.66360
| 50>    C        4.81460        -0.27398        -6.53523
| 51>    C        4.81851        -1.63724        -6.81202
| 52>    C        3.66090        -2.40290        -6.81318
| 53>    C        2.43352        -1.85658        -6.46512
| 54>    C        2.38962        -0.47802        -6.09496
| 55>    N        1.24568         0.05256        -5.64699
| 56>    C        1.19807         1.32642        -5.38411
| 57>    C        2.33775         2.14020        -5.53896
| 58>    N        3.48907         1.63074        -5.87825
| 59>    C        3.56847         0.32155        -6.16740
| 60>    C        1.20636        -2.59684        -6.55560
| 61>    N        0.08438        -2.00534        -6.91859
| 62>    C       -0.83382        -2.98336        -7.03948
| 63>    C       -0.24891        -4.30159        -6.73541
| 64>    C       -1.24918        -5.36477        -6.92818
| 65>    O       -1.10398        -6.56597        -6.82759
| 66>    C       -2.45374        -4.60981        -7.30716
| 67>    C       -2.15457        -3.16084        -7.36885
| 68>    N       -3.26459        -2.45985        -7.70309
| 69>    C       -4.20912        -3.35758        -7.84270
| 70>    C       -3.77357        -4.71964        -7.60483
| 71>    C        1.05143        -4.06162        -6.36598
| 72>    C        2.03818        -4.96603        -5.87805
| 73>    C        1.90432        -6.30572        -6.02228
| 74>    C        2.88070        -7.25839        -5.63180
| 75>    C        2.95165        -8.52345        -6.12458
| 76>    C        3.72632        -9.59200        -5.43435
| 77>    O        4.55919        -9.44027        -4.57136
| 78>    C        3.21107       -10.85657        -5.99459
| 79>    C        3.50829       -12.13892        -5.63169
| 80>    C        2.87655       -13.21000        -6.30204
| 81>    C        1.93592       -12.92970        -7.33629
| 82>    C        1.30732       -14.00243        -7.99799
| 83>    C        1.61396       -15.28518        -7.63795
| 84>    C        2.53612       -15.58149        -6.62458
| 85>    C        3.15414       -14.55228        -5.97066
| 86>    F        1.01689       -16.31110        -8.26999
| 87>    C        1.64893       -11.59209        -7.69445
| 88>    C        2.28295       -10.57124        -7.03935
| 89>    C        2.22850        -9.12513        -7.22721
| 90>    C        1.77861        -8.47832        -8.34770
| 91>    C        2.05116        -7.12401        -8.63768
| 92>    N        2.32036        -6.05419        -8.95560
| 93>    C        1.10729        -9.12370        -9.40769
| 94>    N        0.55097        -9.60038       -10.29077
| 95>    H        9.69077        11.16016       -10.28280
| 96>    H        6.46218        12.55949       -12.69729
| 97>    H        5.00099        10.74973       -11.83063
| 98>    H        9.40438         9.19553        -8.84935
| 99>    H        4.68119         8.76371       -10.39852
|100>    H        5.59666         4.36684        -7.68307
|101>    H       14.00346         2.19216        -6.63916
|102>    H       12.61694        -0.07944        -6.17752
|103>    H        5.28995         2.41362        -6.82210
|104>    H        6.93926        -0.15842        -6.68510
|105>    H        5.75263        -2.10203        -7.09168
|106>    H        3.71030        -3.42386        -7.16023
|107>    H        0.26244         1.71873        -5.01221
|108>    H        2.31363         3.20242        -5.33870
|109>    H       -5.20641        -3.05842        -8.11514
|110>    H       -4.39318        -5.59242        -7.66443
|111>    H        2.92962        -4.55233        -5.42621
|112>    H        1.00205        -6.68785        -6.48248
|113>    H        3.59250        -6.99335        -4.85763
|114>    H        4.21896       -12.33455        -4.84266
|115>    H        0.59433       -13.81117        -8.78466
|116>    H        2.73762       -16.61323        -6.38380
|117>    H        3.86829       -14.75576        -5.18700
|118>    H        0.92748       -11.40651        -8.47437
|119> *
|120>
|121>                          ****END OF INPUT****

CARTESIAN COORDINATES (ANGSTROEM)
---------------------------------
  C      8.668680   11.057500  -10.612110
  C      8.143450   11.932890  -11.521990
  F      8.911790   12.922130  -12.008000
  C      6.820420   11.840930  -11.977340
  C      6.022960   10.841210  -11.495050
  C      6.513610    9.909620  -10.556320
  C      7.862620   10.019730  -10.105770
  C      8.378180    9.096760   -9.165870
  C      7.572280    8.094650   -8.697890
  C      6.227900    7.981790   -9.162020
  C      5.702150    8.865530  -10.062150
  C      5.597200    6.800630   -8.552920
  O      4.455780    6.417430   -8.648640
  C      6.707930    6.107550   -7.823520
  C      7.826550    7.026010   -7.735130
  C      8.811720    7.012780   -6.789690
  C      8.846380    6.102900   -5.708530
  N      8.858110    5.483030   -4.742560
  C      9.825580    7.990890   -6.708960
  N     10.666710    8.764890   -6.611990
  C      6.588940    4.782810   -7.549800
  C      7.634260    3.869730   -7.252550
  N      8.915080    4.209320   -7.318760
  C      9.610710    3.086100   -7.063870
  C      8.715500    1.942810   -6.834920
  C      9.499480    0.726400   -6.561180
  O      9.101050   -0.403390   -6.375880
  C     10.888590    1.221170   -6.594750
  C     10.910310    2.664680   -6.923700
  N     12.182330    3.127670   -6.965080
  C     12.932460    2.093220   -6.675580
  C     12.188160    0.870110   -6.429780
  C      7.437130    2.433410   -6.943340
  C      6.172600    1.792960   -6.803250
  C      6.045960    0.454420   -6.663600
  C      4.814600   -0.273980   -6.535230
  C      4.818510   -1.637240   -6.812020
  C      3.660900   -2.402900   -6.813180
  C      2.433520   -1.856580   -6.465120
  C      2.389620   -0.478020   -6.094960
  N      1.245680    0.052560   -5.646990
  C      1.198070    1.326420   -5.384110
  C      2.337750    2.140200   -5.538960
  N      3.489070    1.630740   -5.878250
  C      3.568470    0.321550   -6.167400
  C      1.206360   -2.596840   -6.555600
  N      0.084380   -2.005340   -6.918590
  C     -0.833820   -2.983360   -7.039480
  C     -0.248910   -4.301590   -6.735410
  C     -1.249180   -5.364770   -6.928180
  O     -1.103980   -6.565970   -6.827590
  C     -2.453740   -4.609810   -7.307160
  C     -2.154570   -3.160840   -7.368850
  N     -3.264590   -2.459850   -7.703090
  C     -4.209120   -3.357580   -7.842700
  C     -3.773570   -4.719640   -7.604830
  C      1.051430   -4.061620   -6.365980
  C      2.038180   -4.966030   -5.878050
  C      1.904320   -6.305720   -6.022280
  C      2.880700   -7.258390   -5.631800
  C      2.951650   -8.523450   -6.124580
  C      3.726320   -9.592000   -5.434350
  O      4.559190   -9.440270   -4.571360
  C      3.211070  -10.856570   -5.994590
  C      3.508290  -12.138920   -5.631690
  C      2.876550  -13.210000   -6.302040
  C      1.935920  -12.929700   -7.336290
  C      1.307320  -14.002430   -7.997990
  C      1.613960  -15.285180   -7.637950
  C      2.536120  -15.581490   -6.624580
  C      3.154140  -14.552280   -5.970660
  F      1.016890  -16.311100   -8.269990
  C      1.648930  -11.592090   -7.694450
  C      2.282950  -10.571240   -7.039350
  C      2.228500   -9.125130   -7.227210
  C      1.778610   -8.478320   -8.347700
  C      2.051160   -7.124010   -8.637680
  N      2.320360   -6.054190   -8.955600
  C      1.107290   -9.123700   -9.407690
  N      0.550970   -9.600380  -10.290770
  H      9.690770   11.160160  -10.282800
  H      6.462180   12.559490  -12.697290
  H      5.000990   10.749730  -11.830630
  H      9.404380    9.195530   -8.849350
  H      4.681190    8.763710  -10.398520
  H      5.596660    4.366840   -7.683070
  H     14.003460    2.192160   -6.639160
  H     12.616940   -0.079440   -6.177520
  H      5.289950    2.413620   -6.822100
  H      6.939260   -0.158420   -6.685100
  H      5.752630   -2.102030   -7.091680
  H      3.710300   -3.423860   -7.160230
  H      0.262440    1.718730   -5.012210
  H      2.313630    3.202420   -5.338700
  H     -5.206410   -3.058420   -8.115140
  H     -4.393180   -5.592420   -7.664430
  H      2.929620   -4.552330   -5.426210
  H      1.002050   -6.687850   -6.482480
  H      3.592500   -6.993350   -4.857630
  H      4.218960  -12.334550   -4.842660
  H      0.594330  -13.811170   -8.784660
  H      2.737620  -16.613230   -6.383800
  H      3.868290  -14.755760   -5.187000
  H      0.927480  -11.406510   -8.474370

 Total Charge           Charge          ....    0
 Multiplicity           Mult            ....    1
 Number of Electrons    NEL             ....  528
 Basis Dimension        Dim             .... 1240

ORBITAL ENERGIES
----------------

  NO   OCC          E(Eh)            E(eV)
   0   2.0000     -24.791113      -674.6005
   1   2.0000     -24.785576      -674.4498
   2   2.0000     -19.229726      -523.2674
   3   2.0000     -19.218392      -522.9590
   4   2.0000     -19.215884      -522.8908
   5   2.0000     -19.214926      -522.8647
   6   2.0000     -14.429665      -392.6512
   7   2.0000     -14.424508      -392.5108
   8   2.0000     -14.423587      -392.4857
   9   2.0000     -14.422994      -392.4696
  10   2.0000     -14.415756      -392.2727
  11   2.0000     -14.415597      -392.2683
  12   2.0000     -14.414986      -392.2517
  13   2.0000     -14.413163      -392.2021
  14   2.0000     -14.406667      -392.0253
  15   2.0000     -14.406590      -392.0233
  16   2.0000     -10.379578      -282.4427
  17   2.0000     -10.378156      -282.4040
  18   2.0000     -10.375688      -282.3368
  19   2.0000     -10.375549      -282.3330
  20   2.0000     -10.369343      -282.1642
  21   2.0000     -10.366058      -282.0748
  22   2.0000     -10.355231      -281.7802
  23   2.0000     -10.351215      -281.6709
  24   2.0000     -10.345598      -281.5180
  25   2.0000     -10.345311      -281.5102
  26   2.0000     -10.343628      -281.4644
  27   2.0000     -10.340659      -281.3836
  28   2.0000     -10.339369      -281.3485
  29   2.0000     -10.334312      -281.2109
  30   2.0000     -10.333933      -281.2006
  31   2.0000     -10.332521      -281.1622
  32   2.0000     -10.327717      -281.0315
  33   2.0000     -10.326924      -281.0099
  34   2.0000     -10.326299      -280.9929
  35   2.0000     -10.325401      -280.9684
  36   2.0000     -10.324669      -280.9485
  37   2.0000     -10.324057      -280.9319
  38   2.0000     -10.323766      -280.9240
  39   2.0000     -10.322502      -280.8896
  40   2.0000     -10.321029      -280.8495
  41   2.0000     -10.319423      -280.8058
  42   2.0000     -10.317908      -280.7645
  43   2.0000     -10.317736      -280.7599
  44   2.0000     -10.314392      -280.6689
  45   2.0000     -10.314091      -280.6607
  46   2.0000     -10.312947      -280.6296
  47   2.0000     -10.309554      -280.5372
  48   2.0000     -10.308865      -280.5185
  49   2.0000     -10.307916      -280.4927
  50   2.0000     -10.307630      -280.4849
  51   2.0000     -10.305906      -280.4380
  52   2.0000     -10.305833      -280.4360
  53   2.0000     -10.304128      -280.3896
  54   2.0000     -10.303776      -280.3800
  55   2.0000     -10.303609      -280.3754
  56   2.0000     -10.302737      -280.3517
  57   2.0000     -10.302190      -280.3368
  58   2.0000     -10.301485      -280.3177
  59   2.0000     -10.301021      -280.3050
  60   2.0000     -10.299919      -280.2750
  61   2.0000     -10.299801      -280.2718
  62   2.0000     -10.299019      -280.2505
  63   2.0000     -10.298743      -280.2430
  64   2.0000     -10.298426      -280.2344
  65   2.0000     -10.297616      -280.2124
  66   2.0000     -10.297493      -280.2090
  67   2.0000     -10.296040      -280.1695
  68   2.0000     -10.294296      -280.1220
  69   2.0000     -10.294140      -280.1178
  70   2.0000     -10.294108      -280.1169
  71   2.0000     -10.293951      -280.1126
  72   2.0000     -10.293928      -280.1120
  73   2.0000     -10.291389      -280.0429
  74   2.0000     -10.290314      -280.0137
  75   2.0000     -10.290102      -280.0079
  76   2.0000     -10.290006      -280.0053
  77   2.0000     -10.288627      -279.9678
  78   2.0000     -10.285700      -279.8881
  79   2.0000     -10.283986      -279.8415
  80   2.0000      -1.306562       -35.5534
  81   2.0000      -1.300720       -35.3944
  82   2.0000      -1.144594       -31.1460
  83   2.0000      -1.132701       -30.8224
  84   2.0000      -1.129814       -30.7438
  85   2.0000      -1.129707       -30.7409
  86   2.0000      -1.089075       -29.6352
  87   2.0000      -1.088549       -29.6209
  88   2.0000      -1.078093       -29.3364
  89   2.0000      -1.068725       -29.0815
  90   2.0000      -1.060284       -28.8518
  91   2.0000      -1.024531       -27.8789
  92   2.0000      -1.018889       -27.7254
  93   2.0000      -1.008884       -27.4531
  94   2.0000      -1.006988       -27.4015
  95   2.0000      -1.000254       -27.2183
  96   2.0000      -0.997110       -27.1327
  97   2.0000      -0.993930       -27.0462
  98   2.0000      -0.983653       -26.7666
  99   2.0000      -0.976562       -26.5736
 100   2.0000      -0.969713       -26.3872
 101   2.0000      -0.946584       -25.7579
 102   2.0000      -0.938718       -25.5438
 103   2.0000      -0.935094       -25.4452
 104   2.0000      -0.932646       -25.3786
 105   2.0000      -0.923872       -25.1398
 106   2.0000      -0.920200       -25.0399
 107   2.0000      -0.910039       -24.7634
 108   2.0000      -0.899618       -24.4799
 109   2.0000      -0.894015       -24.3274
 110   2.0000      -0.888705       -24.1829
 111   2.0000      -0.885904       -24.1067
 112   2.0000      -0.881233       -23.9796
 113   2.0000      -0.874835       -23.8055
 114   2.0000      -0.866176       -23.5699
 115   2.0000      -0.863514       -23.4974
 116   2.0000      -0.859684       -23.3932
 117   2.0000      -0.841476       -22.8977
 118   2.0000      -0.837115       -22.7791
 119   2.0000      -0.832606       -22.6564
 120   2.0000      -0.829418       -22.5696
 121   2.0000      -0.819478       -22.2991
 122   2.0000      -0.794347       -21.6153
 123   2.0000      -0.785899       -21.3854
 124   2.0000      -0.775829       -21.1114
 125   2.0000      -0.767740       -20.8913
 126   2.0000      -0.764706       -20.8087
 127   2.0000      -0.761045       -20.7091
 128   2.0000      -0.759792       -20.6750
 129   2.0000      -0.757060       -20.6007
 130   2.0000      -0.751293       -20.4437
 131   2.0000      -0.735993       -20.0274
 132   2.0000      -0.728274       -19.8173
 133   2.0000      -0.725021       -19.7288
 134   2.0000      -0.717756       -19.5311
 135   2.0000      -0.715622       -19.4731
 136   2.0000      -0.711805       -19.3692
 137   2.0000      -0.708056       -19.2672
 138   2.0000      -0.692545       -18.8451
 139   2.0000      -0.687554       -18.7093
 140   2.0000      -0.683940       -18.6110
 141   2.0000      -0.680342       -18.5130
 142   2.0000      -0.677366       -18.4321
 143   2.0000      -0.666746       -18.1431
 144   2.0000      -0.655401       -17.8344
 145   2.0000      -0.651544       -17.7294
 146   2.0000      -0.646914       -17.6034
 147   2.0000      -0.640622       -17.4322
 148   2.0000      -0.637995       -17.3607
 149   2.0000      -0.637434       -17.3455
 150   2.0000      -0.635339       -17.2885
 151   2.0000      -0.631676       -17.1888
 152   2.0000      -0.628649       -17.1064
 153   2.0000      -0.628418       -17.1001
 154   2.0000      -0.623000       -16.9527
 155   2.0000      -0.622602       -16.9419
 156   2.0000      -0.611702       -16.6453
 157   2.0000      -0.609140       -16.5755
 158   2.0000      -0.607459       -16.5298
 159   2.0000      -0.596190       -16.2231
 160   2.0000      -0.595250       -16.1976
 161   2.0000      -0.590478       -16.0677
 162   2.0000      -0.579859       -15.7788
 163   2.0000      -0.577855       -15.7242
 164   2.0000      -0.573080       -15.5943
 165   2.0000      -0.571889       -15.5619
 166   2.0000      -0.566184       -15.4067
 167   2.0000      -0.563860       -15.3434
 168   2.0000      -0.561761       -15.2863
 169   2.0000      -0.560055       -15.2399
 170   2.0000      -0.558226       -15.1901
 171   2.0000      -0.557781       -15.1780
 172   2.0000      -0.556497       -15.1431
 173   2.0000      -0.554413       -15.0863
 174   2.0000      -0.553225       -15.0540
 175   2.0000      -0.548645       -14.9294
 176   2.0000      -0.546567       -14.8728
 177   2.0000      -0.545107       -14.8331
 178   2.0000      -0.542734       -14.7686
 179   2.0000      -0.541432       -14.7331
 180   2.0000      -0.538177       -14.6445
 181   2.0000      -0.535226       -14.5642
 182   2.0000      -0.532580       -14.4922
 183   2.0000      -0.530201       -14.4275
 184   2.0000      -0.529429       -14.4065
 185   2.0000      -0.529313       -14.4033
 186   2.0000      -0.526142       -14.3170
 187   2.0000      -0.523340       -14.2408
 188   2.0000      -0.522759       -14.2250
 189   2.0000      -0.520940       -14.1755
 190   2.0000      -0.517190       -14.0735
 191   2.0000      -0.514031       -13.9875
 192   2.0000      -0.511753       -13.9255
 193   2.0000      -0.509844       -13.8736
 194   2.0000      -0.505746       -13.7620
 195   2.0000      -0.505054       -13.7432
 196   2.0000      -0.499964       -13.6047
 197   2.0000      -0.497267       -13.5313
 198   2.0000      -0.496324       -13.5057
 199   2.0000      -0.494138       -13.4462
 200   2.0000      -0.492291       -13.3959
 201   2.0000      -0.488545       -13.2940
 202   2.0000      -0.487559       -13.2672
 203   2.0000      -0.484618       -13.1871
 204   2.0000      -0.482027       -13.1166
 205   2.0000      -0.480715       -13.0809
 206   2.0000      -0.478594       -13.0232
 207   2.0000      -0.476889       -12.9768
 208   2.0000      -0.476634       -12.9699
 209   2.0000      -0.475273       -12.9328
 210   2.0000      -0.469346       -12.7716
 211   2.0000      -0.467321       -12.7165
 212   2.0000      -0.463611       -12.6155
 213   2.0000      -0.460443       -12.5293
 214   2.0000      -0.458887       -12.4870
 215   2.0000      -0.457205       -12.4412
 216   2.0000      -0.456835       -12.4311
 217   2.0000      -0.453720       -12.3464
 218   2.0000      -0.452947       -12.3253
 219   2.0000      -0.450872       -12.2689
 220   2.0000      -0.448647       -12.2083
 221   2.0000      -0.446480       -12.1493
 222   2.0000      -0.443403       -12.0656
 223   2.0000      -0.442486       -12.0406
 224   2.0000      -0.439085       -11.9481
 225   2.0000      -0.435879       -11.8609
 226   2.0000      -0.435116       -11.8401
 227   2.0000      -0.433743       -11.8027
 228   2.0000      -0.431707       -11.7474
 229   2.0000      -0.427470       -11.6321
 230   2.0000      -0.426735       -11.6120
 231   2.0000      -0.424772       -11.5586
 232   2.0000      -0.418632       -11.3916
 233   2.0000      -0.415794       -11.3143
 234   2.0000      -0.406680       -11.0663
 235   2.0000      -0.402170       -10.9436
 236   2.0000      -0.398267       -10.8374
 237   2.0000      -0.390258       -10.6195
 238   2.0000      -0.388096       -10.5606
 239   2.0000      -0.383987       -10.4488
 240   2.0000      -0.378449       -10.2981
 241   2.0000      -0.371284       -10.1032
 242   2.0000      -0.367068        -9.9884
 243   2.0000      -0.361296        -9.8314
 244   2.0000      -0.361015        -9.8237
 245   2.0000      -0.355625        -9.6771
 246   2.0000      -0.352292        -9.5864
 247   2.0000      -0.351652        -9.5689
 248   2.0000      -0.349320        -9.5055
 249   2.0000      -0.342221        -9.3123
 250   2.0000      -0.339490        -9.2380
 251   2.0000      -0.337108        -9.1732
 252   2.0000      -0.336513        -9.1570
 253   2.0000      -0.334667        -9.1068
 254   2.0000      -0.332694        -9.0531
 255   2.0000      -0.323211        -8.7950
 256   2.0000      -0.321183        -8.7398
 257   2.0000      -0.315080        -8.5738
 258   2.0000      -0.313731        -8.5371
 259   2.0000      -0.310546        -8.4504
 260   2.0000      -0.302126        -8.2213
 261   2.0000      -0.299500        -8.1498
 262   2.0000      -0.284117        -7.7312
 263   2.0000      -0.272828        -7.4240
 264   0.0000      -0.135453        -3.6859
 265   0.0000      -0.118540        -3.2256
 266   0.0000      -0.093724        -2.5504
 267   0.0000      -0.081347        -2.2136
 268   0.0000      -0.065656        -1.7866

MULLIKEN ATOMIC CHARGES
-----------------------
   0 C :   -0.094127
   1 C :    0.305302
   2 F :   -0.186876
   3 C :   -0.033322
   4 C :   -0.005285
   5 C :    0.096263
   6 C :    0.102693
   7 C :   -0.083153
   8 C :    0.049311
   9 C :   -0.000790
  10 C :   -0.069417
  11 C :    0.139144
  12 O :   -0.132371
  13 C :   -0.060443
  14 C :    0.253939
  15 C :   -0.250521
  16 C :   -0.177532
  17 N :    0.166480
  18 C :   -0.189069
  19 N :    0.164976
  20 C :   -0.009746
  21 C :    0.046756
  22 N :   -0.063379
  23 C :    0.087145
  24 C :   -0.160305
  25 C :    0.227027
  26 O :   -0.139087
  27 C :   -0.008024
  28 C :   -0.025387
  29 N :   -0.051419
  30 C :    0.096888
  31 C :   -0.094705
  32 C :    0.070932
  33 C :   -0.010150
  34 C :   -0.031991
  35 C :    0.130652
  36 C :   -0.046626
  37 C :   -0.020473
  38 C :    0.026352
  39 C :   -0.019159
  40 N :    0.038578
  41 C :    0.029847
  42 C :    0.037536
  43 N :   -0.030930
  44 C :   -0.045191
  45 C :    0.017464
  46 N :   -0.000661
  47 C :    0.074113
  48 C :   -0.158893
  49 C :    0.226448
  50 O :   -0.149957
  51 C :   -0.009514
  52 C :   -0.028922
  53 N :   -0.052304
  54 C :    0.091401
  55 C :   -0.094707
  56 C :    0.054422
  57 C :   -0.031759
  58 C :   -0.003984
  59 C :    0.040228
  60 C :   -0.107383
  61 C :    0.145572
  62 O :   -0.137727
  63 C :   -0.004064
  64 C :   -0.076106
  65 C :    0.098860
  66 C :    0.101452
  67 C :   -0.096589
  68 C :    0.301451
  69 C :   -0.029373
  70 C :   -0.008157
  71 F :   -0.189767
  72 C :   -0.084747
  73 C :    0.051398
  74 C :    0.269004
  75 C :   -0.307426
  76 C :   -0.211892
  77 N :    0.164224
  78 C :   -0.176838
  79 N :    0.153740
  80 H :   -0.000184
  81 H :    0.006458
  82 H :   -0.006834
  83 H :   -0.000854
  84 H :   -0.008409
  85 H :    0.016866
  86 H :    0.017472
  87 H :   -0.000717
  88 H :    0.000321
  89 H :   -0.000466
  90 H :    0.000956
  91 H :    0.011926
  92 H :    0.018642
  93 H :    0.016844
  94 H :    0.010564
  95 H :   -0.002732
  96 H :   -0.000808
  97 H :    0.061932
  98 H :    0.017338
  99 H :   -0.010413
 100 H :   -0.001417
 101 H :    0.003977
 102 H :   -0.007757
 103 H :   -0.002054
Sum of atomic charges:   -0.0000000

LOEWDIN ATOMIC CHARGES
----------------------
   0 C :   -0.041585
   1 C :    0.095939
   2 F :   -0.061299
   3 C :   -0.035453
   4 C :    0.006624
   5 C :   -0.019308
   6 C :    0.006968
   7 C :    0.011248
   8 C :   -0.013169
   9 C :   -0.064691
  10 C :    0.040335
  11 C :    0.084662
  12 O :   -0.130217
  13 C :   -0.017547
  14 C :    0.057429
  15 C :   -0.088722
  16 C :   -0.014937
  17 N :   -0.043432
  18 C :   -0.014331
  19 N :   -0.035864
  20 C :    0.028845
  21 C :    0.061411
  22 N :   -0.073190
  23 C :    0.048173
  24 C :   -0.046968
  25 C :    0.071484
  26 O :   -0.138273
  27 C :   -0.036026
  28 C :    0.037933
  29 N :   -0.093347
  30 C :    0.085645
  31 C :   -0.027678
  32 C :   -0.014518
  33 C :   -0.019923
  34 C :    0.015905
  35 C :   -0.002778
  36 C :   -0.003412
  37 C :    0.011014
  38 C :   -0.041443
  39 C :    0.010646
  40 N :   -0.011819
  41 C :    0.013061
  42 C :    0.013839
  43 N :   -0.033557
  44 C :   -0.002867
  45 C :    0.084479
  46 N :   -0.074457
  47 C :    0.048806
  48 C :   -0.032577
  49 C :    0.072105
  50 O :   -0.144484
  51 C :   -0.037662
  52 C :    0.028435
  53 N :   -0.093461
  54 C :    0.076933
  55 C :   -0.033125
  56 C :   -0.024846
  57 C :    0.007106
  58 C :   -0.001823
  59 C :    0.066429
  60 C :   -0.077645
  61 C :    0.081602
  62 O :   -0.139967
  63 C :   -0.060197
  64 C :    0.035180
  65 C :   -0.018514
  66 C :    0.003907
  67 C :   -0.041673
  68 C :    0.093354
  69 C :   -0.036582
  70 C :    0.004877
  71 F :   -0.064121
  72 C :    0.012647
  73 C :   -0.016345
  74 C :    0.071738
  75 C :   -0.123438
  76 C :   -0.014866
  77 N :   -0.055094
  78 C :   -0.015662
  79 N :   -0.046977
  80 H :    0.044204
  81 H :    0.043081
  82 H :    0.036658
  83 H :    0.040500
  84 H :    0.041075
  85 H :    0.048354
  86 H :    0.026691
  87 H :    0.036356
  88 H :    0.026077
  89 H :    0.033715
  90 H :    0.040032
  91 H :    0.042173
  92 H :    0.029297
  93 H :    0.027891
  94 H :    0.024267
  95 H :    0.035312
  96 H :    0.033032
  97 H :    0.035337
  98 H :    0.045673
  99 H :    0.039947
 100 H :    0.043474
 101 H :    0.041941
 102 H :    0.035993
 103 H :    0.040032

  Mayer bond orders larger than 0.100000
B(  0-C ,  1-C ) :   1.4402 B(  0-C ,  6-C ) :   1.2050 B(  0-C , 80-H ) :   1.0059
B(  1-C ,  2-F ) :   1.0920 B(  1-C ,  3-C ) :   1.2521 B(  3-C ,  4-C ) :   1.4646
B(  3-C , 81-H ) :   0.9938 B(  4-C ,  5-C ) :   1.2309 B(  4-C , 82-H ) :   0.9968
B(  5-C ,  6-C ) :   1.2480 B(  5-C , 10-C ) :   1.2039 B(  6-C ,  7-C ) :   1.2059
B(  7-C ,  8-C ) :   1.4676 B(  7-C , 83-H ) :   0.9939 B(  8-C ,  9-C ) :   1.2087
B(  8-C , 14-C ) :   0.9951 B(  9-C , 10-C ) :   1.4635 B(  9-C , 11-C ) :   0.9303
B( 10-C , 84-H ) :   1.0138 B( 11-C , 12-O ) :   2.2644 B( 11-C , 13-C ) :   0.9144
B( 13-C , 14-C ) :   1.0146 B( 13-C , 20-C ) :   1.6937 B( 14-C , 15-C ) :   1.7146
B( 15-C , 16-C ) :   1.1469 B( 15-C , 18-C ) :   1.1426 B( 16-C , 17-N ) :   2.9816
B( 18-C , 19-N ) :   2.9841 B( 20-C , 21-C ) :   1.0873 B( 20-C , 85-H ) :   0.9416
B( 21-C , 22-N ) :   1.5518 B( 21-C , 23-C ) :   0.1099 B( 21-C , 32-C ) :   1.0194
B( 22-N , 23-C ) :   1.3193 B( 23-C , 24-C ) :   1.0605 B( 23-C , 28-C ) :   1.4300
B( 24-C , 25-C ) :   0.8969 B( 24-C , 32-C ) :   1.5467 B( 25-C , 26-O ) :   2.1860
B( 25-C , 27-C ) :   0.9286 B( 26-O , 89-H ) :   0.1037 B( 27-C , 28-C ) :   1.0589
B( 27-C , 31-C ) :   1.6187 B( 28-C , 29-N ) :   1.3080 B( 29-N , 30-C ) :   1.6609
B( 30-C , 31-C ) :   1.0538 B( 30-C , 86-H ) :   0.9889 B( 31-C , 87-H ) :   1.0115
B( 32-C , 33-C ) :   1.1148 B( 33-C , 34-C ) :   1.6680 B( 33-C , 88-H ) :   0.9421
B( 34-C , 35-C ) :   1.0928 B( 34-C , 89-H ) :   0.9527 B( 35-C , 36-C ) :   1.3998
B( 35-C , 38-C ) :   0.1151 B( 35-C , 44-C ) :   1.1811 B( 36-C , 37-C ) :   1.2543
B( 36-C , 90-H ) :   1.0029 B( 37-C , 38-C ) :   1.4336 B( 37-C , 91-H ) :   0.9938
B( 38-C , 39-C ) :   1.2049 B( 38-C , 45-C ) :   1.0157 B( 39-C , 40-N ) :   1.5122
B( 39-C , 44-C ) :   1.2398 B( 40-N , 41-C ) :   1.6550 B( 41-C , 42-C ) :   1.2260
B( 41-C , 92-H ) :   0.9753 B( 42-C , 43-N ) :   1.6420 B( 42-C , 93-H ) :   0.9729
B( 43-N , 44-C ) :   1.4604 B( 45-C , 46-N ) :   1.6365 B( 45-C , 47-C ) :   0.1307
B( 45-C , 56-C ) :   1.0234 B( 46-N , 47-C ) :   1.3444 B( 47-C , 48-C ) :   1.0493
B( 47-C , 52-C ) :   1.4215 B( 48-C , 49-C ) :   0.8930 B( 48-C , 56-C ) :   1.5615
B( 49-C , 50-O ) :   2.1682 B( 49-C , 51-C ) :   0.9362 B( 50-O , 97-H ) :   0.1114
B( 51-C , 52-C ) :   1.0664 B( 51-C , 55-C ) :   1.6004 B( 52-C , 53-N ) :   1.3128
B( 53-N , 54-C ) :   1.6553 B( 54-C , 55-C ) :   1.0696 B( 54-C , 94-H ) :   0.9892
B( 55-C , 95-H ) :   1.0121 B( 56-C , 57-C ) :   1.0955 B( 57-C , 58-C ) :   1.6741
B( 57-C , 96-H ) :   0.9729 B( 58-C , 59-C ) :   1.0984 B( 58-C , 97-H ) :   0.9176
B( 59-C , 60-C ) :   1.6431 B( 59-C , 98-H ) :   0.9662 B( 60-C , 61-C ) :   0.9300
B( 60-C , 74-C ) :   1.0373 B( 61-C , 62-O ) :   2.2846 B( 61-C , 63-C ) :   0.9206
B( 63-C , 64-C ) :   1.4725 B( 63-C , 73-C ) :   1.2150 B( 64-C , 65-C ) :   1.1943
B( 64-C , 99-H ) :   1.0149 B( 65-C , 66-C ) :   1.2549 B( 65-C , 70-C ) :   1.2345
B( 66-C , 67-C ) :   1.2023 B( 66-C , 72-C ) :   1.2051 B( 67-C , 68-C ) :   1.4407
B( 67-C ,100-H ) :   1.0070 B( 68-C , 69-C ) :   1.2550 B( 68-C , 71-F ) :   1.0898
B( 69-C , 70-C ) :   1.4607 B( 69-C ,101-H ) :   0.9932 B( 70-C ,102-H ) :   0.9975
B( 72-C , 73-C ) :   1.4607 B( 72-C ,103-H ) :   0.9942 B( 73-C , 74-C ) :   1.0057
B( 74-C , 75-C ) :   1.6534 B( 75-C , 76-C ) :   1.1599 B( 75-C , 78-C ) :   1.1369
B( 76-C , 77-N ) :   3.0038 B( 78-C , 79-N ) :   2.9828

-----------------------------------------------------------------------------
         ABSORPTION SPECTRUM VIA TRANSITION ELECTRIC DIPOLE MOMENTS
-----------------------------------------------------------------------------
State   Energy  Wavelength   fosc         T2         TX        TY        TZ
        (cm-1)    (nm)                  (au**2)     (au)      (au)      (au)
-----------------------------------------------------------------------------
   0   13710.1    729.4   0.078331889   1.88093  -1.36755  -0.10046  -0.02561
   1   18011.9    555.2   0.112325695   2.05303   0.06955  -1.43052  -0.04263
   2   19217.7    520.4   0.092050126   1.57688  -0.26789  -1.22416  -0.08089
   3   19582.3    510.7   0.846823459  14.23657   3.36861   1.69123   0.16969
   4   20137.7    496.6   0.070422544   1.15127   1.04786  -0.21378  -0.08696
   5   20723.7    482.5   0.043992715   0.69886  -0.57627   0.59515   0.11208
   6   22783.9    438.9   0.019897972   0.28751  -0.50846   0.12889  -0.11121
   7   22842.7    437.8   0.348082883   5.01662  -0.30024   2.19439   0.33337
   8   23049.2    433.9   0.104822398   1.49718  -0.25118   1.15005   0.33386
   9   23362.0    428.0   0.150912412   2.12662   0.66971  -1.27343   0.23768
  10   23883.6    418.7   0.049540017   0.68286  -0.13208  -0.81221  -0.07567
  11   24271.1    412.0   0.109193228   1.48109   0.72327  -0.66825   0.71512
  12   24435.2    409.2   0.216022848   2.91044  -0.34120   1.59051  -0.51411
  13   25089.6    398.6   0.130446436   1.71165  -1.03651  -0.78940   0.11895
  14   25205.6    396.7   0.005959153   0.07783  -0.07833   0.23562  -0.12721
  15   25399.8    393.7   0.289299818   3.74968   1.89322   0.38627  -0.12724
  16   25733.6    388.6   0.017376325   0.22230   0.41570   0.09749  -0.19996
  17   25846.2    386.9   0.144755967   1.84380  -1.28463   0.36166   0.25048
  18   26080.9    383.4   0.054035307   0.68207   0.74482  -0.31121  -0.17453
  19   26305.9    380.1   0.011896018   0.14888  -0.35550  -0.12471  -0.08332
  20   26909.3    371.6   0.097207316   1.18925   0.54755  -0.86059   0.38576
  21   27075.3    369.3   0.014661314   0.17827  -0.15167   0.33129  -0.21333
  22   27387.8    365.1   0.014443684   0.17362  -0.26342  -0.19149  -0.25992
  23   27407.3    364.9   0.043994852   0.52846   0.45972  -0.47195   0.30722
  24   28512.3    350.7   0.001822183   0.02104  -0.12267   0.06183   0.04656
  25   28953.6    345.4   0.014890017   0.16930  -0.00539  -0.33682   0.23628
  26   29275.0    341.6   0.004880358   0.05488   0.02905  -0.23035   0.03125
  27   29398.5    340.2   0.054011667   0.60484  -0.72095   0.21624   0.19573
  28   29576.0    338.1   0.058780840   0.65429   0.79031  -0.17057   0.02468
  29   30203.3    331.1   0.060111479   0.65521   0.22000  -0.76751   0.13320
  30   30234.9    330.7   0.031135875   0.33902   0.00481   0.01387  -0.58207
  31   30578.9    327.0   0.106895182   1.15083  -0.88608   0.49049  -0.35371
  32   30700.0    325.7   0.103271278   1.10743  -0.79431   0.54704  -0.42101
  33   31040.4    322.2   0.115299303   1.22285   0.17479   1.09160   0.02669
  34   31193.2    320.6   0.422098516   4.45482  -0.96637   1.76648  -0.63285
  35   31428.5    318.2   0.149277454   1.56367  -0.30310   0.89268  -0.82154
  36   31434.5    318.1   0.036583376   0.38314  -0.56734   0.14792  -0.19845
  37   31821.7    314.3   0.025151095   0.26020   0.12332  -0.49486  -0.01029
  38   31955.5    312.9   0.017022827   0.17537   0.16668   0.36612  -0.11637
  39   32331.1    309.3   0.026747854   0.27236  -0.12931   0.49891  -0.08201
  40   32375.2    308.9   0.054942528   0.55869   0.49109  -0.41833   0.37752
  41   32514.4    307.6   0.006349261   0.06429   0.02619   0.25140  -0.01996
  42   32793.7    304.9   0.229546087   2.30438   0.06652   1.34289  -0.70470
  43   33268.1    300.6   0.055581429   0.55002   0.20693   0.65436  -0.28108
  44   33404.0    299.4   0.007420351   0.07313   0.09682  -0.25245  -0.00491
  45   33835.4    295.5   0.013072452   0.12719   0.11171  -0.32698   0.08832
  46   34010.6    294.0   0.154983299   1.50019   0.39505  -0.96254   0.64626
  47   34106.1    293.2   0.097162777   0.93787  -0.07917  -0.95345   0.15013
  48   34250.6    292.0   0.010631791   0.10219   0.00102  -0.28795   0.13883
  49   34479.5    290.0   0.028115938   0.26845   0.45800   0.20391  -0.13078
  50   34668.3    288.4   0.078787930   0.74818  -0.08117   0.58203  -0.63468
  51   35228.5    283.9   0.228007420   2.13074  -0.72563  -1.23915  -0.26210
  52   35415.0    282.4   0.305677958   2.84153   0.76287  -1.14621   0.97250
  53   35553.5    281.3   0.105097049   0.97316  -0.10744  -0.97663   0.08833
  54   35683.4    280.2   0.238342567   2.19893  -0.82032   1.02518  -0.68920
  55   35810.1    279.3   0.138150832   1.27006  -0.75254  -0.83580  -0.07189
  56   35973.0    278.0   0.049885458   0.45653   0.00885  -0.61180  -0.28663
  57   36030.9    277.5   0.000617847   0.00565   0.03407   0.00864  -0.06641
  58   36238.3    276.0   0.012116217   0.11007   0.09014   0.29946   0.11077
  59   36364.4    275.0   0.041626696   0.37685   0.37854   0.46171  -0.14276
  60   36623.1    273.1   0.015396210   0.13840   0.01324  -0.29965  -0.22008
  61   36738.8    272.2   0.009288254   0.08323  -0.21701  -0.00982  -0.18985
  62   36832.6    271.5   0.022487292   0.20099   0.35928  -0.25959   0.06726
  63   36926.8    270.8   0.158750486   1.41530   0.92684  -0.48954   0.56270
  64   37058.3    269.8   0.033813958   0.30039  -0.30573   0.31101  -0.33195
  65   37203.0    268.8   0.073160431   0.64740  -0.55092   0.01103  -0.58632
  66   37284.6    268.2   0.000292749   0.00258  -0.03869  -0.02454  -0.02204
  67   37324.5    267.9   0.186366155   1.64380   0.19771  -0.98526   0.79623
  68   37620.5    265.8   0.006157622   0.05388   0.22840  -0.04126   0.00375
  69   37795.9    264.6   0.062661977   0.54580   0.16206   0.63816  -0.33510
  70   37973.8    263.3   0.134611911   1.16701  -0.38788  -0.94422  -0.35356
  71   38078.5    262.6   0.152005278   1.31418   0.90241  -0.17413   0.68521
  72   38208.0    261.7   0.120053497   1.03442  -0.73827   0.29505  -0.63429
  73   38354.8    260.7   0.030531300   0.26206  -0.15284  -0.47605   0.10988
  74   38548.1    259.4   0.009632148   0.08226   0.28033  -0.05937   0.01237
  75   38712.9    258.3   0.044498537   0.37841  -0.27305  -0.54612   0.07492
  76   38781.4    257.9   0.002287156   0.01942   0.05506  -0.09124   0.08977
  77   38853.3    257.4   0.009445630   0.08003  -0.04127   0.09048  -0.26485
  78   39133.0    255.5   0.007168543   0.06031   0.04297   0.02010  -0.24095
  79   39247.6    254.8   0.008577640   0.07195   0.19144   0.04996   0.18112
  80   39315.2    254.4   0.177538836   1.48665   0.00422  -1.08401   0.55816
  81   39515.7    253.1   0.007424275   0.06185  -0.20409  -0.09894   0.10204
  82   39640.8    252.3   0.025924481   0.21530   0.11894  -0.18030   0.41066
  83   40005.7    250.0   0.164908238   1.35705   0.83558   0.08867   0.80685
  84   40046.0    249.7   0.057886520   0.47588   0.61029   0.10604   0.30361
  85   40191.3    248.8   0.196753117   1.61163  -1.15270  -0.24196   0.47368
  86   40305.7    248.1   0.062724929   0.51233  -0.42292  -0.13411  -0.56168

FINAL SINGLE POINT ENERGY     -3496.746175719362

DIPOLE MOMENT
-------------
                                X             Y             Z
Electronic contribution:      5.43595       8.23360      -4.34886
Nuclear contribution   :     -5.82160      -8.21918       4.16110
                        -----------------------------------------
Total Dipole Moment    :     -0.38565       0.01442      -0.18776
                        -----------------------------------------
Magnitude (a.u.)       :      0.42917
Magnitude (Debye)      :      1.09086

Rotational constants in cm-1:     0.001452     0.000235     0.000213
Rotational constants in MHz :    43.535448     7.045646     6.398004

                             ****ORCA TERMINATED NORMALLY****
TOTAL RUN TIME: 0 days 0 hours 11 minutes 16 seconds 174 msec
