                         Program Version 4.2.0 -  RELEASE  -
|  1> # ORCA input file
|  2> # SCF done       -211.230938569611          0.001520079265
|  3> ! CAM-B3LYP def2-SVP def2/J RIJCOSX Grid4 TightSCF
|  4> %maxcore 5000
|  5> %tddft
|  6>     Mode sTDDFT
|  7>     Ethresh 5.0
|  8>     maxcore 5000
|  9> end
| 10>
| 11> %pal
| 12>   nprocs 6
| 13>   end
| 14> * xyz 0 1
| 15>    C        7.35517         7.28307        -1.85028
| 16>    C        6.80505         8.44956        -2.30483
| 17>    F        7.12629         9.60930        -1.70857
| 18>    C        5.90587         8.48778        -3.38072
| 19>    C        5.56494         7.31851        -4.00096
| 20>    C        6.10070         6.08585        -3.57221
| 21>    C        7.01159         6.06770        -2.47404
| 22>    C        7.54949         4.84346        -2.01533
| 23>    C        7.18443         3.67614        -2.63170
| 24>    C        6.28929         3.70215        -3.74333
| 25>    C        5.75504         4.87236        -4.20552
| 26>    C        6.08850         2.33369        -4.24427
| 27>    O        5.35189         1.94458        -5.11875
| 28>    C        7.04249         1.49270        -3.45383
| 29>    C        7.53172         2.29091        -2.33939
| 30>    C        8.03011         1.81779        -1.16061
| 31>    C        8.43189         2.64486        -0.08910
| 32>    N        8.77118         3.27331         0.80821
| 33>    C        8.09649         0.44563        -0.83685
| 34>    N        8.09751        -0.65177        -0.50120
| 35>    C        7.41101         0.27435        -3.89655
| 36>    C        8.52109        -0.49733        -3.40860
| 37>    N        9.68165         0.08166        -3.18959
| 38>    C       10.52771        -0.90984        -2.80320
| 39>    C        9.84153        -2.19870        -2.77905
| 40>    C       10.75394        -3.26912        -2.34314
| 41>    O       10.53243        -4.45107        -2.22305
| 42>    C       12.01284        -2.52779        -2.09806
| 43>    C       11.82438        -1.08868        -2.39861
| 44>    N       12.96951        -0.39767        -2.16576
| 45>    C       13.82774        -1.29048        -1.74587
| 46>    C       13.29354        -2.64202        -1.67291
| 47>    C        8.53941        -1.96049        -3.15316
| 48>    C        7.48093        -2.90104        -3.18005
| 49>    C        6.17589        -2.66714        -3.47664
| 50>    C        5.19532        -3.68600        -3.43141
| 51>    C        3.91546        -3.50892        -3.85837
| 52>    C        2.91834        -4.50586        -3.77769
| 53>    O        1.70475        -4.29102        -4.34237
| 54>    C        0.91227        -5.36630        -4.08747
| 55>    C        1.63918        -6.29528        -3.33168
| 56>    C        2.92166        -5.75564        -3.14575
| 57>    O        3.94897        -6.31650        -2.48423
| 58>    O        1.25443        -7.49495        -2.85048
| 59>    C       -0.39937        -5.47139        -4.57626
| 60>    C       -0.99955        -4.60746        -5.44693
| 61>    C       -2.31625        -4.84758        -5.89049
| 62>    N       -3.09215        -5.76486        -5.30140
| 63>    C       -4.26968        -5.72743        -5.93675
| 64>    C       -4.26633        -4.70586        -6.99307
| 65>    C       -5.52207        -4.72351        -7.76015
| 66>    O       -5.81493        -4.04469        -8.72379
| 67>    C       -6.28307        -5.78365        -7.08560
| 68>    C       -5.49219        -6.36538        -5.97776
| 69>    N       -6.16937        -7.37350        -5.38663
| 70>    C       -7.30162        -7.46347        -6.05061
| 71>    C       -7.43093        -6.51332        -7.12918
| 72>    C       -3.01494        -4.15305        -6.99341
| 73>    C       -2.57009        -3.26140        -8.01395
| 74>    C       -1.32770        -3.11492        -8.51549
| 75>    C       -1.11123        -2.38594        -9.73098
| 76>    C       -1.96868        -2.35729       -10.77848
| 77>    C       -1.87626        -1.28404       -11.81358
| 78>    O       -0.93296        -0.55589       -12.01512
| 79>    C       -3.20037        -1.26872       -12.46344
| 80>    C       -3.70905        -0.37790       -13.36536
| 81>    C       -5.04002        -0.53469       -13.81261
| 82>    C       -5.83060        -1.60678       -13.30226
| 83>    C       -7.16336        -1.74216       -13.73793
| 84>    C       -7.66761        -0.84988       -14.64222
| 85>    C       -6.90596         0.20745       -15.15963
| 86>    C       -5.61177         0.35585       -14.74528
| 87>    F       -8.93972        -0.97623       -15.06080
| 88>    C       -5.27806        -2.51951       -12.37544
| 89>    C       -3.97847        -2.35982       -11.97744
| 90>    C       -3.15696        -3.15042       -11.07015
| 91>    C       -3.36075        -4.47080       -10.78342
| 92>    C       -2.45797        -5.27568       -10.05896
| 93>    N       -1.74771        -5.99141        -9.50990
| 94>    C       -4.47144        -5.21202       -11.24219
| 95>    N       -5.33940        -5.87026       -11.60117
| 96>    H        8.04157         7.29007        -1.01784
| 97>    H        5.50380         9.43815        -3.69425
| 98>    H        4.87509         7.32366        -4.83146
| 99>    H        8.24362         4.85696        -1.18971
|100>    H        5.07461         4.87124        -5.04408
|101>    H        6.87471        -0.11831        -4.75420
|102>    H       14.83359        -1.00208        -1.49378
|103>    H       13.83700        -3.50772        -1.34968
|104>    H        7.77815        -3.90795        -2.91290
|105>    H        5.84214        -1.67594        -3.75175
|106>    H        5.48945        -4.64990        -3.04307
|107>    H        3.60637        -2.57144        -4.30094
|108>    H        3.66121        -7.17023        -2.13148
|109>    H        0.33818        -7.67948        -3.09020
|110>    H       -0.97976        -6.33022        -4.26611
|111>    H       -0.46501        -3.74667        -5.81709
|112>    H       -8.03334        -8.20233        -5.77338
|113>    H       -8.26677        -6.43167        -7.79528
|114>    H       -3.38589        -2.75759        -8.52155
|115>    H       -0.46411        -3.54641        -8.03046
|116>    H       -0.21526        -1.78088        -9.81677
|117>    H       -3.10636         0.44067       -13.72962
|118>    H       -7.77548        -2.54648       -13.36130
|119>    H       -7.35796         0.88039       -15.87120
|120>    H       -5.00687         1.16360       -15.12909
|121>    H       -5.89624        -3.31020       -11.98089
|122> *
|123>
|124>                          ****END OF INPUT****

CARTESIAN COORDINATES (ANGSTROEM)
---------------------------------
  C      7.355170    7.283070   -1.850280
  C      6.805050    8.449560   -2.304830
  F      7.126290    9.609300   -1.708570
  C      5.905870    8.487780   -3.380720
  C      5.564940    7.318510   -4.000960
  C      6.100700    6.085850   -3.572210
  C      7.011590    6.067700   -2.474040
  C      7.549490    4.843460   -2.015330
  C      7.184430    3.676140   -2.631700
  C      6.289290    3.702150   -3.743330
  C      5.755040    4.872360   -4.205520
  C      6.088500    2.333690   -4.244270
  O      5.351890    1.944580   -5.118750
  C      7.042490    1.492700   -3.453830
  C      7.531720    2.290910   -2.339390
  C      8.030110    1.817790   -1.160610
  C      8.431890    2.644860   -0.089100
  N      8.771180    3.273310    0.808210
  C      8.096490    0.445630   -0.836850
  N      8.097510   -0.651770   -0.501200
  C      7.411010    0.274350   -3.896550
  C      8.521090   -0.497330   -3.408600
  N      9.681650    0.081660   -3.189590
  C     10.527710   -0.909840   -2.803200
  C      9.841530   -2.198700   -2.779050
  C     10.753940   -3.269120   -2.343140
  O     10.532430   -4.451070   -2.223050
  C     12.012840   -2.527790   -2.098060
  C     11.824380   -1.088680   -2.398610
  N     12.969510   -0.397670   -2.165760
  C     13.827740   -1.290480   -1.745870
  C     13.293540   -2.642020   -1.672910
  C      8.539410   -1.960490   -3.153160
  C      7.480930   -2.901040   -3.180050
  C      6.175890   -2.667140   -3.476640
  C      5.195320   -3.686000   -3.431410
  C      3.915460   -3.508920   -3.858370
  C      2.918340   -4.505860   -3.777690
  O      1.704750   -4.291020   -4.342370
  C      0.912270   -5.366300   -4.087470
  C      1.639180   -6.295280   -3.331680
  C      2.921660   -5.755640   -3.145750
  O      3.948970   -6.316500   -2.484230
  O      1.254430   -7.494950   -2.850480
  C     -0.399370   -5.471390   -4.576260
  C     -0.999550   -4.607460   -5.446930
  C     -2.316250   -4.847580   -5.890490
  N     -3.092150   -5.764860   -5.301400
  C     -4.269680   -5.727430   -5.936750
  C     -4.266330   -4.705860   -6.993070
  C     -5.522070   -4.723510   -7.760150
  O     -5.814930   -4.044690   -8.723790
  C     -6.283070   -5.783650   -7.085600
  C     -5.492190   -6.365380   -5.977760
  N     -6.169370   -7.373500   -5.386630
  C     -7.301620   -7.463470   -6.050610
  C     -7.430930   -6.513320   -7.129180
  C     -3.014940   -4.153050   -6.993410
  C     -2.570090   -3.261400   -8.013950
  C     -1.327700   -3.114920   -8.515490
  C     -1.111230   -2.385940   -9.730980
  C     -1.968680   -2.357290  -10.778480
  C     -1.876260   -1.284040  -11.813580
  O     -0.932960   -0.555890  -12.015120
  C     -3.200370   -1.268720  -12.463440
  C     -3.709050   -0.377900  -13.365360
  C     -5.040020   -0.534690  -13.812610
  C     -5.830600   -1.606780  -13.302260
  C     -7.163360   -1.742160  -13.737930
  C     -7.667610   -0.849880  -14.642220
  C     -6.905960    0.207450  -15.159630
  C     -5.611770    0.355850  -14.745280
  F     -8.939720   -0.976230  -15.060800
  C     -5.278060   -2.519510  -12.375440
  C     -3.978470   -2.359820  -11.977440
  C     -3.156960   -3.150420  -11.070150
  C     -3.360750   -4.470800  -10.783420
  C     -2.457970   -5.275680  -10.058960
  N     -1.747710   -5.991410   -9.509900
  C     -4.471440   -5.212020  -11.242190
  N     -5.339400   -5.870260  -11.601170
  H      8.041570    7.290070   -1.017840
  H      5.503800    9.438150   -3.694250
  H      4.875090    7.323660   -4.831460
  H      8.243620    4.856960   -1.189710
  H      5.074610    4.871240   -5.044080
  H      6.874710   -0.118310   -4.754200
  H     14.833590   -1.002080   -1.493780
  H     13.837000   -3.507720   -1.349680
  H      7.778150   -3.907950   -2.912900
  H      5.842140   -1.675940   -3.751750
  H      5.489450   -4.649900   -3.043070
  H      3.606370   -2.571440   -4.300940
  H      3.661210   -7.170230   -2.131480
  H      0.338180   -7.679480   -3.090200
  H     -0.979760   -6.330220   -4.266110
  H     -0.465010   -3.746670   -5.817090
  H     -8.033340   -8.202330   -5.773380
  H     -8.266770   -6.431670   -7.795280
  H     -3.385890   -2.757590   -8.521550
  H     -0.464110   -3.546410   -8.030460
  H     -0.215260   -1.780880   -9.816770
  H     -3.106360    0.440670  -13.729620
  H     -7.775480   -2.546480  -13.361300
  H     -7.357960    0.880390  -15.871200
  H     -5.006870    1.163600  -15.129090
  H     -5.896240   -3.310200  -11.980890

 Total Charge           Charge          ....    0
 Multiplicity           Mult            ....    1
 Number of Electrons    NEL             ....  540
 Basis Dimension        Dim             .... 1264

ORBITAL ENERGIES
----------------

  NO   OCC          E(Eh)            E(eV)
   0   2.0000     -24.794216      -674.6849
   1   2.0000     -24.782379      -674.3628
   2   2.0000     -19.306441      -525.3550
   3   2.0000     -19.289845      -524.9034
   4   2.0000     -19.276210      -524.5323
   5   2.0000     -19.232998      -523.3565
   6   2.0000     -19.213871      -522.8360
   7   2.0000     -19.212567      -522.8005
   8   2.0000     -19.205028      -522.5954
   9   2.0000     -14.427436      -392.5905
  10   2.0000     -14.427359      -392.5884
  11   2.0000     -14.425231      -392.5305
  12   2.0000     -14.412835      -392.1932
  13   2.0000     -14.409600      -392.1052
  14   2.0000     -14.405682      -391.9985
  15   2.0000     -14.398967      -391.8158
  16   2.0000     -14.393459      -391.6659
  17   2.0000     -10.383152      -282.5399
  18   2.0000     -10.378914      -282.4246
  19   2.0000     -10.373971      -282.2901
  20   2.0000     -10.366267      -282.0805
  21   2.0000     -10.365879      -282.0699
  22   2.0000     -10.365212      -282.0518
  23   2.0000     -10.364323      -282.0276
  24   2.0000     -10.359020      -281.8833
  25   2.0000     -10.357062      -281.8300
  26   2.0000     -10.355935      -281.7993
  27   2.0000     -10.355045      -281.7751
  28   2.0000     -10.353129      -281.7230
  29   2.0000     -10.349182      -281.6156
  30   2.0000     -10.338139      -281.3151
  31   2.0000     -10.337894      -281.3084
  32   2.0000     -10.337059      -281.2857
  33   2.0000     -10.335537      -281.2443
  34   2.0000     -10.333851      -281.1984
  35   2.0000     -10.333331      -281.1842
  36   2.0000     -10.330462      -281.1062
  37   2.0000     -10.328740      -281.0593
  38   2.0000     -10.328548      -281.0541
  39   2.0000     -10.324616      -280.9471
  40   2.0000     -10.323725      -280.9228
  41   2.0000     -10.318338      -280.7762
  42   2.0000     -10.316756      -280.7332
  43   2.0000     -10.315641      -280.7029
  44   2.0000     -10.312560      -280.6190
  45   2.0000     -10.312498      -280.6173
  46   2.0000     -10.312048      -280.6051
  47   2.0000     -10.311777      -280.5977
  48   2.0000     -10.310523      -280.5636
  49   2.0000     -10.310375      -280.5596
  50   2.0000     -10.310142      -280.5532
  51   2.0000     -10.308927      -280.5202
  52   2.0000     -10.308195      -280.5003
  53   2.0000     -10.307008      -280.4679
  54   2.0000     -10.303500      -280.3725
  55   2.0000     -10.303221      -280.3649
  56   2.0000     -10.301977      -280.3311
  57   2.0000     -10.300713      -280.2967
  58   2.0000     -10.300647      -280.2949
  59   2.0000     -10.298353      -280.2324
  60   2.0000     -10.298313      -280.2313
  61   2.0000     -10.297787      -280.2170
  62   2.0000     -10.297728      -280.2154
  63   2.0000     -10.297561      -280.2109
  64   2.0000     -10.297024      -280.1963
  65   2.0000     -10.296814      -280.1906
  66   2.0000     -10.294516      -280.1280
  67   2.0000     -10.294394      -280.1247
  68   2.0000     -10.294361      -280.1238
  69   2.0000     -10.293387      -280.0973
  70   2.0000     -10.292813      -280.0817
  71   2.0000     -10.292352      -280.0691
  72   2.0000     -10.292094      -280.0621
  73   2.0000     -10.291679      -280.0508
  74   2.0000     -10.291131      -280.0359
  75   2.0000     -10.287529      -279.9379
  76   2.0000     -10.287381      -279.9339
  77   2.0000     -10.286968      -279.9226
  78   2.0000     -10.284812      -279.8640
  79   2.0000     -10.277067      -279.6532
  80   2.0000     -10.276130      -279.6277
  81   2.0000      -1.309810       -35.6417
  82   2.0000      -1.297338       -35.3024
  83   2.0000      -1.227555       -33.4035
  84   2.0000      -1.184349       -32.2278
  85   2.0000      -1.165053       -31.7027
  86   2.0000      -1.147909       -31.2362
  87   2.0000      -1.128743       -30.7147
  88   2.0000      -1.127773       -30.6883
  89   2.0000      -1.118245       -30.4290
  90   2.0000      -1.088708       -29.6253
  91   2.0000      -1.068846       -29.0848
  92   2.0000      -1.068458       -29.0742
  93   2.0000      -1.047190       -28.4955
  94   2.0000      -1.030423       -28.0392
  95   2.0000      -1.013056       -27.5667
  96   2.0000      -1.012378       -27.5482
  97   2.0000      -1.005535       -27.3620
  98   2.0000      -0.995557       -27.0905
  99   2.0000      -0.988160       -26.8892
 100   2.0000      -0.985653       -26.8210
 101   2.0000      -0.972798       -26.4712
 102   2.0000      -0.948331       -25.8054
 103   2.0000      -0.941741       -25.6261
 104   2.0000      -0.936460       -25.4824
 105   2.0000      -0.935349       -25.4522
 106   2.0000      -0.933179       -25.3931
 107   2.0000      -0.920619       -25.0513
 108   2.0000      -0.916388       -24.9362
 109   2.0000      -0.914155       -24.8754
 110   2.0000      -0.910506       -24.7761
 111   2.0000      -0.898388       -24.4464
 112   2.0000      -0.896320       -24.3901
 113   2.0000      -0.893257       -24.3068
 114   2.0000      -0.885804       -24.1039
 115   2.0000      -0.882617       -24.0172
 116   2.0000      -0.872286       -23.7361
 117   2.0000      -0.864476       -23.5236
 118   2.0000      -0.861924       -23.4542
 119   2.0000      -0.845792       -23.0152
 120   2.0000      -0.845263       -23.0008
 121   2.0000      -0.832698       -22.6589
 122   2.0000      -0.826800       -22.4984
 123   2.0000      -0.822097       -22.3704
 124   2.0000      -0.821380       -22.3509
 125   2.0000      -0.788337       -21.4518
 126   2.0000      -0.784230       -21.3400
 127   2.0000      -0.779163       -21.2021
 128   2.0000      -0.765759       -20.8374
 129   2.0000      -0.759551       -20.6684
 130   2.0000      -0.758012       -20.6266
 131   2.0000      -0.747446       -20.3390
 132   2.0000      -0.741867       -20.1872
 133   2.0000      -0.738656       -20.0999
 134   2.0000      -0.734766       -19.9940
 135   2.0000      -0.727476       -19.7956
 136   2.0000      -0.721274       -19.6269
 137   2.0000      -0.719579       -19.5807
 138   2.0000      -0.711230       -19.3535
 139   2.0000      -0.709227       -19.2990
 140   2.0000      -0.704651       -19.1745
 141   2.0000      -0.701516       -19.0892
 142   2.0000      -0.693063       -18.8592
 143   2.0000      -0.684798       -18.6343
 144   2.0000      -0.675328       -18.3766
 145   2.0000      -0.673107       -18.3162
 146   2.0000      -0.667489       -18.1633
 147   2.0000      -0.664780       -18.0896
 148   2.0000      -0.653615       -17.7858
 149   2.0000      -0.650711       -17.7068
 150   2.0000      -0.647416       -17.6171
 151   2.0000      -0.641820       -17.4648
 152   2.0000      -0.639100       -17.3908
 153   2.0000      -0.637806       -17.3556
 154   2.0000      -0.633891       -17.2490
 155   2.0000      -0.630522       -17.1574
 156   2.0000      -0.626031       -17.0352
 157   2.0000      -0.624667       -16.9981
 158   2.0000      -0.621571       -16.9138
 159   2.0000      -0.614027       -16.7085
 160   2.0000      -0.613893       -16.7049
 161   2.0000      -0.607205       -16.5229
 162   2.0000      -0.605744       -16.4831
 163   2.0000      -0.592261       -16.1162
 164   2.0000      -0.588930       -16.0256
 165   2.0000      -0.587175       -15.9779
 166   2.0000      -0.584155       -15.8957
 167   2.0000      -0.579991       -15.7824
 168   2.0000      -0.577975       -15.7275
 169   2.0000      -0.574002       -15.6194
 170   2.0000      -0.569729       -15.5031
 171   2.0000      -0.567006       -15.4290
 172   2.0000      -0.562450       -15.3050
 173   2.0000      -0.562018       -15.2933
 174   2.0000      -0.559299       -15.2193
 175   2.0000      -0.556250       -15.1363
 176   2.0000      -0.554940       -15.1007
 177   2.0000      -0.554607       -15.0916
 178   2.0000      -0.551901       -15.0180
 179   2.0000      -0.551035       -14.9944
 180   2.0000      -0.546704       -14.8766
 181   2.0000      -0.545138       -14.8340
 182   2.0000      -0.543603       -14.7922
 183   2.0000      -0.539269       -14.6743
 184   2.0000      -0.538842       -14.6626
 185   2.0000      -0.533443       -14.5157
 186   2.0000      -0.532828       -14.4990
 187   2.0000      -0.531146       -14.4532
 188   2.0000      -0.528043       -14.3688
 189   2.0000      -0.525925       -14.3111
 190   2.0000      -0.524590       -14.2748
 191   2.0000      -0.520353       -14.1595
 192   2.0000      -0.519421       -14.1342
 193   2.0000      -0.517761       -14.0890
 194   2.0000      -0.514559       -14.0019
 195   2.0000      -0.511827       -13.9275
 196   2.0000      -0.510662       -13.8958
 197   2.0000      -0.509959       -13.8767
 198   2.0000      -0.509209       -13.8563
 199   2.0000      -0.508440       -13.8354
 200   2.0000      -0.505366       -13.7517
 201   2.0000      -0.500402       -13.6166
 202   2.0000      -0.499779       -13.5997
 203   2.0000      -0.496726       -13.5166
 204   2.0000      -0.494395       -13.4532
 205   2.0000      -0.491754       -13.3813
 206   2.0000      -0.490686       -13.3522
 207   2.0000      -0.489366       -13.3163
 208   2.0000      -0.485895       -13.2219
 209   2.0000      -0.483486       -13.1563
 210   2.0000      -0.481996       -13.1158
 211   2.0000      -0.480327       -13.0704
 212   2.0000      -0.479633       -13.0515
 213   2.0000      -0.478639       -13.0244
 214   2.0000      -0.476723       -12.9723
 215   2.0000      -0.472820       -12.8661
 216   2.0000      -0.470406       -12.8004
 217   2.0000      -0.467595       -12.7239
 218   2.0000      -0.467121       -12.7110
 219   2.0000      -0.464551       -12.6411
 220   2.0000      -0.461335       -12.5536
 221   2.0000      -0.461110       -12.5474
 222   2.0000      -0.456926       -12.4336
 223   2.0000      -0.453603       -12.3432
 224   2.0000      -0.453414       -12.3380
 225   2.0000      -0.452352       -12.3091
 226   2.0000      -0.450976       -12.2717
 227   2.0000      -0.448097       -12.1933
 228   2.0000      -0.443491       -12.0680
 229   2.0000      -0.441143       -12.0041
 230   2.0000      -0.439523       -11.9600
 231   2.0000      -0.438683       -11.9372
 232   2.0000      -0.435011       -11.8372
 233   2.0000      -0.434845       -11.8327
 234   2.0000      -0.432241       -11.7619
 235   2.0000      -0.431060       -11.7297
 236   2.0000      -0.429740       -11.6938
 237   2.0000      -0.423279       -11.5180
 238   2.0000      -0.422332       -11.4922
 239   2.0000      -0.417357       -11.3569
 240   2.0000      -0.410298       -11.1648
 241   2.0000      -0.409039       -11.1305
 242   2.0000      -0.407329       -11.0840
 243   2.0000      -0.395846       -10.7715
 244   2.0000      -0.391300       -10.6478
 245   2.0000      -0.381443       -10.3796
 246   2.0000      -0.379489       -10.3264
 247   2.0000      -0.374693       -10.1959
 248   2.0000      -0.373499       -10.1634
 249   2.0000      -0.367349        -9.9961
 250   2.0000      -0.360390        -9.8067
 251   2.0000      -0.353129        -9.6091
 252   2.0000      -0.350594        -9.5401
 253   2.0000      -0.346278        -9.4227
 254   2.0000      -0.343066        -9.3353
 255   2.0000      -0.341497        -9.2926
 256   2.0000      -0.335433        -9.1276
 257   2.0000      -0.333939        -9.0869
 258   2.0000      -0.331023        -9.0076
 259   2.0000      -0.330666        -8.9979
 260   2.0000      -0.324524        -8.8307
 261   2.0000      -0.323379        -8.7996
 262   2.0000      -0.321465        -8.7475
 263   2.0000      -0.321138        -8.7386
 264   2.0000      -0.309172        -8.4130
 265   2.0000      -0.306714        -8.3461
 266   2.0000      -0.297050        -8.0831
 267   2.0000      -0.291840        -7.9414
 268   2.0000      -0.281995        -7.6735
 269   2.0000      -0.245893        -6.6911
 270   0.0000      -0.126304        -3.4369
 271   0.0000      -0.112131        -3.0512
 272   0.0000      -0.092099        -2.5061
 273   0.0000      -0.085880        -2.3369
 274   0.0000      -0.067210        -1.8289

MULLIKEN ATOMIC CHARGES
-----------------------
   0 C :   -0.096583
   1 C :    0.303371
   2 F :   -0.185258
   3 C :   -0.026741
   4 C :   -0.009104
   5 C :    0.099407
   6 C :    0.103108
   7 C :   -0.079905
   8 C :    0.043794
   9 C :   -0.000427
  10 C :   -0.071378
  11 C :    0.137260
  12 O :   -0.132092
  13 C :   -0.087430
  14 C :    0.295025
  15 C :   -0.294164
  16 C :   -0.186275
  17 N :    0.166681
  18 C :   -0.183828
  19 N :    0.170727
  20 C :    0.006307
  21 C :   -0.064865
  22 N :   -0.032862
  23 C :    0.077277
  24 C :   -0.115762
  25 C :    0.211542
  26 O :   -0.121972
  27 C :   -0.031145
  28 C :   -0.019487
  29 N :   -0.053012
  30 C :    0.096356
  31 C :   -0.093239
  32 C :    0.100401
  33 C :   -0.024379
  34 C :    0.017798
  35 C :    0.006688
  36 C :   -0.022939
  37 C :    0.140831
  38 O :   -0.210202
  39 C :    0.117100
  40 C :    0.114315
  41 C :    0.051754
  42 O :   -0.162402
  43 O :   -0.175858
  44 C :   -0.017841
  45 C :   -0.070034
  46 C :    0.061895
  47 N :   -0.072834
  48 C :    0.082827
  49 C :   -0.132796
  50 C :    0.213711
  51 O :   -0.156549
  52 C :   -0.032800
  53 C :   -0.046158
  54 N :   -0.062788
  55 C :    0.085002
  56 C :   -0.087817
  57 C :    0.034929
  58 C :   -0.023323
  59 C :    0.000707
  60 C :    0.041220
  61 C :   -0.116958
  62 C :    0.137709
  63 O :   -0.140301
  64 C :    0.011126
  65 C :   -0.083057
  66 C :    0.101274
  67 C :    0.099114
  68 C :   -0.094022
  69 C :    0.302500
  70 C :   -0.029849
  71 C :   -0.010362
  72 F :   -0.190905
  73 C :   -0.067936
  74 C :    0.025022
  75 C :    0.248369
  76 C :   -0.323698
  77 C :   -0.183042
  78 N :    0.162695
  79 C :   -0.176595
  80 N :    0.163297
  81 H :    0.002840
  82 H :    0.007487
  83 H :   -0.004295
  84 H :    0.002453
  85 H :   -0.005830
  86 H :    0.051074
  87 H :    0.014129
  88 H :   -0.000795
  89 H :    0.009865
  90 H :   -0.008005
  91 H :    0.022459
  92 H :    0.000467
  93 H :    0.200363
  94 H :    0.205205
  95 H :    0.009352
  96 H :   -0.002072
  97 H :    0.003038
  98 H :   -0.007837
  99 H :    0.037297
 100 H :    0.017101
 101 H :    0.026238
 102 H :   -0.012776
 103 H :   -0.001123
 104 H :    0.002537
 105 H :   -0.010022
 106 H :    0.010689
Sum of atomic charges:    0.0000000

LOEWDIN ATOMIC CHARGES
----------------------
   0 C :   -0.040585
   1 C :    0.095970
   2 F :   -0.059971
   3 C :   -0.032839
   4 C :    0.006513
   5 C :   -0.017304
   6 C :    0.006377
   7 C :    0.016195
   8 C :   -0.015191
   9 C :   -0.063345
  10 C :    0.040416
  11 C :    0.085425
  12 O :   -0.132004
  13 C :   -0.037127
  14 C :    0.072935
  15 C :   -0.106738
  16 C :   -0.016498
  17 N :   -0.036830
  18 C :   -0.016050
  19 N :   -0.037733
  20 C :    0.041740
  21 C :    0.059626
  22 N :   -0.087050
  23 C :    0.042353
  24 C :   -0.040011
  25 C :    0.068982
  26 O :   -0.132250
  27 C :   -0.035043
  28 C :    0.036751
  29 N :   -0.095308
  30 C :    0.084456
  31 C :   -0.029331
  32 C :   -0.021396
  33 C :   -0.006214
  34 C :   -0.011876
  35 C :    0.000453
  36 C :   -0.032725
  37 C :    0.029925
  38 O :    0.006609
  39 C :   -0.023477
  40 C :    0.011973
  41 C :   -0.007417
  42 O :   -0.033446
  43 O :   -0.038929
  44 C :    0.033390
  45 C :   -0.061634
  46 C :    0.078766
  47 N :   -0.125995
  48 C :    0.045899
  49 C :   -0.027465
  50 C :    0.067668
  51 O :   -0.158017
  52 C :   -0.045938
  53 C :    0.011096
  54 N :   -0.101218
  55 C :    0.063992
  56 C :   -0.040456
  57 C :   -0.033311
  58 C :    0.017659
  59 C :   -0.026404
  60 C :    0.064095
  61 C :   -0.075067
  62 C :    0.083623
  63 O :   -0.141680
  64 C :   -0.061078
  65 C :    0.033276
  66 C :   -0.018593
  67 C :    0.004389
  68 C :   -0.040213
  69 C :    0.092776
  70 C :   -0.037693
  71 C :    0.003800
  72 F :   -0.065170
  73 C :    0.020111
  74 C :   -0.015591
  75 C :    0.067550
  76 C :   -0.125147
  77 C :   -0.013988
  78 N :   -0.053432
  79 C :   -0.017428
  80 N :   -0.048990
  81 H :    0.044916
  82 H :    0.043575
  83 H :    0.037286
  84 H :    0.041455
  85 H :    0.041708
  86 H :    0.052957
  87 H :    0.025667
  88 H :    0.036255
  89 H :    0.043783
  90 H :    0.027777
  91 H :    0.036574
  92 H :    0.039961
  93 H :    0.109704
  94 H :    0.109473
  95 H :    0.040339
  96 H :    0.032314
  97 H :    0.021028
  98 H :    0.033396
  99 H :    0.042916
 100 H :    0.035563
 101 H :    0.045553
 102 H :    0.038992
 103 H :    0.044205
 104 H :    0.041407
 105 H :    0.035146
 106 H :    0.044456

  Mayer bond orders larger than 0.100000
B(  0-C ,  1-C ) :   1.4409 B(  0-C ,  6-C ) :   1.2032 B(  0-C , 81-H ) :   1.0068
B(  1-C ,  2-F ) :   1.0942 B(  1-C ,  3-C ) :   1.2507 B(  3-C ,  4-C ) :   1.4661
B(  3-C , 82-H ) :   0.9930 B(  4-C ,  5-C ) :   1.2291 B(  4-C , 83-H ) :   0.9979
B(  5-C ,  6-C ) :   1.2487 B(  5-C , 10-C ) :   1.2055 B(  6-C ,  7-C ) :   1.2096
B(  7-C ,  8-C ) :   1.4590 B(  7-C , 84-H ) :   0.9934 B(  8-C ,  9-C ) :   1.2122
B(  8-C , 14-C ) :   1.0065 B(  9-C , 10-C ) :   1.4597 B(  9-C , 11-C ) :   0.9252
B( 10-C , 85-H ) :   1.0149 B( 11-C , 12-O ) :   2.2872 B( 11-C , 13-C ) :   0.9133
B( 13-C , 14-C ) :   0.9972 B( 13-C , 20-C ) :   1.8079 B( 14-C , 15-C ) :   1.7011
B( 15-C , 16-C ) :   1.1330 B( 15-C , 18-C ) :   1.1548 B( 16-C , 17-N ) :   2.9879
B( 18-C , 19-N ) :   2.9869 B( 20-C , 21-C ) :   0.9871 B( 20-C , 86-H ) :   0.9211
B( 21-C , 22-N ) :   1.6480 B( 21-C , 23-C ) :   0.1103 B( 21-C , 32-C ) :   1.0018
B( 22-N , 23-C ) :   1.2697 B( 23-C , 24-C ) :   1.0711 B( 23-C , 28-C ) :   1.4546
B( 24-C , 25-C ) :   0.8941 B( 24-C , 32-C ) :   1.5289 B( 25-C , 26-O ) :   2.2870
B( 25-C , 27-C ) :   0.8949 B( 27-C , 28-C ) :   1.0491 B( 27-C , 31-C ) :   1.6399
B( 28-C , 29-N ) :   1.2959 B( 29-N , 30-C ) :   1.6729 B( 30-C , 31-C ) :   1.0523
B( 30-C , 87-H ) :   0.9882 B( 31-C , 88-H ) :   1.0088 B( 32-C , 33-C ) :   1.1329
B( 33-C , 34-C ) :   1.5907 B( 33-C , 89-H ) :   0.9726 B( 34-C , 35-C ) :   1.1401
B( 34-C , 90-H ) :   0.9769 B( 35-C , 36-C ) :   1.5882 B( 35-C , 91-H ) :   0.9856
B( 36-C , 37-C ) :   1.1546 B( 36-C , 92-H ) :   0.9687 B( 37-C , 38-O ) :   1.1238
B( 37-C , 39-C ) :   0.1023 B( 37-C , 41-C ) :   1.3785 B( 38-O , 39-C ) :   1.1106
B( 39-C , 40-C ) :   1.2442 B( 39-C , 44-C ) :   1.1774 B( 40-C , 41-C ) :   1.2686
B( 40-C , 43-O ) :   1.2706 B( 41-C , 42-O ) :   1.2528 B( 42-O , 93-H ) :   0.9448
B( 43-O , 94-H ) :   0.9478 B( 44-C , 45-C ) :   1.5386 B( 44-C , 95-H ) :   0.9642
B( 45-C , 46-C ) :   1.1832 B( 45-C , 96-H ) :   0.9805 B( 46-C , 47-N ) :   1.5227
B( 46-C , 48-C ) :   0.1027 B( 46-C , 57-C ) :   0.9871 B( 47-N , 48-C ) :   1.4107
B( 48-C , 49-C ) :   1.0393 B( 48-C , 53-C ) :   1.3628 B( 49-C , 50-C ) :   0.8922
B( 49-C , 57-C ) :   1.5836 B( 50-C , 51-O ) :   2.2066 B( 50-C , 52-C ) :   0.9271
B( 52-C , 53-C ) :   1.0752 B( 52-C , 56-C ) :   1.5738 B( 53-C , 54-N ) :   1.3481
B( 54-N , 55-C ) :   1.6178 B( 55-C , 56-C ) :   1.1069 B( 55-C , 97-H ) :   0.9897
B( 56-C , 98-H ) :   1.0096 B( 57-C , 58-C ) :   1.1242 B( 58-C , 59-C ) :   1.7192
B( 58-C , 99-H ) :   0.9468 B( 59-C , 60-C ) :   1.0798 B( 59-C ,100-H ) :   0.9523
B( 60-C , 61-C ) :   1.7453 B( 60-C ,101-H ) :   0.9378 B( 61-C , 62-C ) :   0.9317
B( 61-C , 75-C ) :   1.0056 B( 62-C , 63-O ) :   2.2814 B( 62-C , 64-C ) :   0.9174
B( 64-C , 65-C ) :   1.4628 B( 64-C , 74-C ) :   1.2155 B( 65-C , 66-C ) :   1.1977
B( 65-C ,102-H ) :   1.0156 B( 66-C , 67-C ) :   1.2532 B( 66-C , 71-C ) :   1.2328
B( 67-C , 68-C ) :   1.2008 B( 67-C , 73-C ) :   1.2023 B( 68-C , 69-C ) :   1.4419
B( 68-C ,103-H ) :   1.0073 B( 69-C , 70-C ) :   1.2527 B( 69-C , 72-F ) :   1.0876
B( 70-C , 71-C ) :   1.4619 B( 70-C ,104-H ) :   0.9935 B( 71-C ,105-H ) :   0.9973
B( 73-C , 74-C ) :   1.4689 B( 73-C ,106-H ) :   0.9956 B( 74-C , 75-C ) :   0.9964
B( 75-C , 76-C ) :   1.6938 B( 76-C , 77-C ) :   1.1594 B( 76-C , 79-C ) :   1.1295
B( 77-C , 78-N ) :   2.9905 B( 79-C , 80-N ) :   2.9981

-----------------------------------------------------------------------------
         ABSORPTION SPECTRUM VIA TRANSITION ELECTRIC DIPOLE MOMENTS
-----------------------------------------------------------------------------
State   Energy  Wavelength   fosc         T2         TX        TY        TZ
        (cm-1)    (nm)                  (au**2)     (au)      (au)      (au)
-----------------------------------------------------------------------------
   0   12247.4    816.5   0.305650462   8.21593  -2.74604  -0.44094  -0.69338
   1   15401.3    649.3   1.550128290  33.13483   5.33563   1.31926   1.71038
   2   19565.2    511.1   0.181931668   3.06126  -1.56232  -0.77180   0.15736
   3   20280.1    493.1   0.030513243   0.49533  -0.17242  -0.32460  -0.60020
   4   21104.0    473.8   0.003124342   0.04874   0.16598  -0.14418   0.01998
   5   21270.4    470.1   0.152835685   2.36551  -1.04423   0.28527  -1.09257
   6   22327.4    447.9   0.027650796   0.40770  -0.43968  -0.26014   0.38303
   7   22490.1    444.6   0.007169037   0.10494   0.24330   0.19056   0.09713
   8   23332.8    428.6   0.034295084   0.48388   0.47450  -0.49312  -0.12473
   9   23816.0    419.9   0.167221018   2.31152  -0.92466  -0.16344   1.19575
  10   24505.7    408.1   0.032957337   0.44275   0.56053   0.35764  -0.02553
  11   25118.3    398.1   0.003204216   0.04200  -0.03849  -0.19914  -0.02926
  12   25565.3    391.2   0.002046602   0.02635   0.01703   0.07781  -0.14146
  13   25697.0    389.2   0.039562674   0.50685  -0.65219   0.18763  -0.21514
  14   25836.1    387.1   0.038593337   0.49177  -0.47878  -0.49454   0.13406
  15   25906.6    386.0   0.010372528   0.13181   0.20225  -0.26083  -0.15123
  16   26037.5    384.1   0.095570482   1.20837   1.05012   0.23674   0.22267
  17   26222.7    381.3   0.026598090   0.33392   0.20270  -0.47301   0.26286
  18   26847.9    372.5   0.047071504   0.57720  -0.72593   0.21704  -0.05581
  19   27266.6    366.7   0.202814566   2.44875  -1.39443   0.70964   0.02694
  20   27409.6    364.8   0.057206552   0.68710  -0.79135  -0.03126  -0.24470
  21   27670.9    361.4   0.010153215   0.12080  -0.05554   0.23448  -0.25046
  22   27922.2    358.1   0.053980674   0.63645  -0.41890   0.48360  -0.47655
  23   27951.1    357.8   0.092766587   1.09262   0.74622  -0.72038   0.12968
  24   28409.4    352.0   0.032476017   0.37634  -0.29466   0.43467  -0.31713
  25   28470.1    351.2   0.169240579   1.95700  -0.94726   1.02585  -0.08565
  26   29247.8    341.9   0.087512157   0.98503  -0.30447   0.54186  -0.77377
  27   29599.5    337.8   0.098171374   1.09188   0.90240  -0.35652   0.38787
  28   29870.3    334.8   0.027190073   0.29967   0.35633  -0.07466  -0.40881
  29   30124.7    332.0   0.020040219   0.21901  -0.29832   0.19334  -0.30435
  30   30314.8    329.9   0.125475016   1.36263   0.19346  -0.93669   0.66918
  31   30443.1    328.5   0.002267964   0.02453   0.00630   0.07415  -0.13780
  32   30631.6    326.5   0.004635989   0.04983  -0.00602  -0.21751   0.04978
  33   30880.1    323.8   0.151781508   1.61814  -1.10238  -0.52878   0.35114
  34   31187.6    320.6   0.044584701   0.47063   0.55630  -0.24298   0.31956
  35   31408.4    318.4   0.084693561   0.88773   0.19714  -0.91057  -0.14044
  36   31554.6    316.9   0.195912980   2.04398   0.59679  -1.13919   0.62455
  37   31969.5    312.8   0.075417369   0.77662   0.11356  -0.44258   0.75356
  38   32104.3    311.5   0.314394331   3.22394  -0.69054  -1.48618   0.73372
  39   32426.9    308.4   0.079604019   0.80817   0.13338  -0.55660   0.69324
  40   32798.6    304.9   0.069000447   0.69258   0.45252  -0.25398   0.65062
  41   33059.0    302.5   0.044868620   0.44682   0.45976  -0.15193   0.46082
  42   33324.0    300.1   0.009756283   0.09638  -0.08975   0.22281   0.19668
  43   33560.8    298.0   0.119615282   1.17336   0.32325  -0.80338   0.65073
  44   33886.0    295.1   0.151117430   1.46815   0.27208  -1.03958   0.55982
  45   33997.9    294.1   0.013138619   0.12723  -0.03103   0.32580  -0.14183
  46   34230.3    292.1   0.385486970   3.70745   0.64286  -1.75310   0.46992
  47   34385.8    290.8   0.065569526   0.62777  -0.18456   0.65741  -0.40190
  48   34436.6    290.4   0.060493552   0.57831  -0.09955   0.58267  -0.47844
  49   34790.8    287.4   0.050684326   0.47961  -0.35315   0.37801  -0.46043
  50   35168.2    284.3   0.033987180   0.31816  -0.45078   0.15992  -0.29896
  51   35186.6    284.2   0.119125166   1.11456  -0.49406   0.61056  -0.70546
  52   35447.3    282.1   0.119035907   1.10553  -0.83657   0.57311  -0.27789
  53   35534.0    281.4   0.047116697   0.43652  -0.30762   0.43960  -0.38554
  54   35629.2    280.7   0.090199203   0.83344   0.66312  -0.26095   0.57062
  55   35767.5    279.6   0.042966135   0.39547   0.53031   0.33782  -0.01102
  56   36039.1    277.5   0.307712031   2.81090   0.26676  -1.58659   0.47167
  57   36195.8    276.3   0.106027744   0.96436   0.30396  -0.79661   0.48721
  58   36359.6    275.0   0.021878283   0.19809  -0.09104   0.30086   0.31510
  59   36485.0    274.1   0.002600525   0.02347  -0.11301  -0.03205   0.09832
  60   36544.1    273.6   0.063255997   0.56985  -0.35645  -0.61108   0.26339
  61   36736.5    272.2   0.004888495   0.04381   0.19776  -0.06260   0.02793
  62   36901.2    271.0   0.315493275   2.81465  -1.09700   1.03102  -0.74044
  63   37141.6    269.2   0.036001614   0.31911  -0.23429   0.42930  -0.28269
  64   37326.2    267.9   0.082489730   0.72755  -0.12202   0.77423  -0.33651
  65   37622.2    265.8   0.008357687   0.07313   0.11519  -0.12451   0.21063
  66   37835.3    264.3   0.132334546   1.15147   0.82939   0.09615   0.67404
  67   37865.1    264.1   0.004651347   0.04044  -0.01348   0.13811  -0.14555
  68   37929.6    263.6   0.016321847   0.14167  -0.36572   0.08894   0.00233
  69   38166.7    262.0   0.047423845   0.40906  -0.55551  -0.26932  -0.16713
  70   38401.0    260.4   0.039495203   0.33859   0.52551   0.13688   0.20903
  71   38444.0    260.1   0.123565626   1.05814  -0.52714   0.82082  -0.32636
  72   38589.6    259.1   0.001953931   0.01667  -0.09243  -0.04700   0.07692
  73   38688.8    258.5   0.051184273   0.43554   0.48825  -0.34013  -0.28541
  74   38748.4    258.1   0.041244772   0.35042  -0.47642   0.15439  -0.31560
  75   38968.4    256.6   0.028279963   0.23891   0.20114   0.32843  -0.30099
  76   39147.3    255.4   0.005404258   0.04545  -0.13359  -0.10190  -0.13121
  77   39344.2    254.2   0.061028450   0.51065  -0.35552  -0.46224  -0.41303
  78   39618.3    252.4   0.014909937   0.12390   0.27711  -0.05871   0.20894
  79   39833.5    251.0   0.024374223   0.20145   0.25924   0.12002   0.34618
  80   39953.2    250.3   0.032646008   0.26900   0.50582   0.11169   0.02596
  81   40019.3    249.9   0.214861800   1.76752  -0.35472  -1.22696  -0.36913
  82   40107.6    249.3   0.071084751   0.58348   0.69513  -0.17306   0.26520
  83   40240.4    248.5   0.019943695   0.16316  -0.13120  -0.30655  -0.22798
  84   40308.5    248.1   0.188656118   1.54081  -1.08830  -0.58964   0.09354

FINAL SINGLE POINT ENERGY     -3613.953910813002

DIPOLE MOMENT
-------------
                                X             Y             Z
Electronic contribution:      3.23805       9.72307       1.90991
Nuclear contribution   :     -2.32841      -7.54587      -1.80028
                        -----------------------------------------
Total Dipole Moment    :      0.90964       2.17720       0.10963
                        -----------------------------------------
Magnitude (a.u.)       :      2.36213
Magnitude (Debye)      :      6.00406

Rotational constants in cm-1:     0.000904     0.000258     0.000221
Rotational constants in MHz :    27.104612     7.743983     6.628802

                             ****ORCA TERMINATED NORMALLY****
TOTAL RUN TIME: 0 days 0 hours 11 minutes 23 seconds 611 msec
