                         Program Version 4.2.0 -  RELEASE  -
|  1> # ORCA input file
|  2> # SCF done       -198.812897486513          0.000499116107
|  3> ! CAM-B3LYP def2-SVP def2/J RIJCOSX Grid4 TightSCF
|  4> %maxcore 5000
|  5> %tddft
|  6>     Mode sTDDFT
|  7>     Ethresh 5.0
|  8>     maxcore 5000
|  9> end
| 10>
| 11> %pal
| 12>   nprocs 6
| 13>   end
| 14> * xyz 0 1
| 15>    C       11.01748        -0.13973       -15.46788
| 16>    C       10.42441         0.35078       -16.59762
| 17>    F       10.20166        -0.47141       -17.63922
| 18>    C       10.03202         1.69080       -16.72021
| 19>    C       10.24863         2.54111       -15.67219
| 20>    C       10.85518         2.08833       -14.48228
| 21>    C       11.24946         0.72214       -14.37816
| 22>    C       11.86632         0.24609       -13.19773
| 23>    C       12.07608         1.10787       -12.15529
| 24>    C       11.66352         2.46859       -12.25887
| 25>    C       11.07425         2.95646       -13.39004
| 26>    C       11.95259         3.16681       -10.99287
| 27>    O       11.78488         4.33417       -10.72688
| 28>    C       12.43788         2.10094       -10.06844
| 29>    C       12.70758         0.91168       -10.85305
| 30>    C       13.57875        -0.09045       -10.53061
| 31>    C       13.84614        -1.19240       -11.36829
| 32>    N       14.08292        -2.11119       -12.01415
| 33>    C       14.40352        -0.06546        -9.38469
| 34>    N       15.17133        -0.03676        -8.53224
| 35>    C       12.39289         2.31475        -8.72928
| 36>    C       12.42490         1.34443        -7.69845
| 37>    S       12.46030         1.80224        -5.99630
| 38>    C       12.36359         0.08048        -5.66329
| 39>    N       12.30563        -0.63508        -6.75819
| 40>    N       12.34307         0.05089        -7.85603
| 41>    C       12.32436        -0.43657        -4.34212
| 42>    C       12.34484        -1.76676        -4.09762
| 43>    C       12.25088        -2.41081        -2.81840
| 44>    C       12.40584        -3.78137        -2.75988
| 45>    C       12.27302        -4.47034        -1.53925
| 46>    C       12.36551        -5.81916        -1.21610
| 47>    C       12.70194        -6.97266        -2.09729
| 48>    C       11.61889        -7.18876        -3.16875
| 49>    N       10.36439        -7.54025        -2.52496
| 50>    C       14.10266        -6.81108        -2.74481
| 51>    N       15.18997        -6.67279        -1.80451
| 52>    C       12.06118        -5.92992         0.19174
| 53>    C       11.95437        -7.00382         0.99427
| 54>    C       11.53819        -6.87799         2.42135
| 55>    C       11.33524        -5.46985         2.88849
| 56>    C       11.46812        -4.40459         2.07752
| 57>    C       11.80429        -4.57998         0.71401
| 58>    C       11.94379        -3.70424        -0.34068
| 59>    C       11.81336        -2.29738        -0.42316
| 60>    C       11.96849        -1.67631        -1.61714
| 61>    C       12.54295        -7.55354         3.31295
| 62>    C       12.30763        -8.69067         3.97168
| 63>    C       13.26133        -9.28490         4.86122
| 64>    S       12.97582       -10.83826         5.62766
| 65>    C       14.53295       -10.58461         6.42064
| 66>    N       15.07827        -9.45597         6.07416
| 67>    N       14.39166        -8.75158         5.21960
| 68>    C       15.04973       -11.54877         7.33181
| 69>    C       16.17898       -11.41772         8.06633
| 70>    C       17.09542       -10.33335         7.98227
| 71>    C       18.02371        -9.99944         8.91629
| 72>    C       19.18257        -9.12763         8.56348
| 73>    O       19.30696        -8.45436         7.56901
| 74>    C       20.15552        -9.32253         9.65679
| 75>    C       21.42504        -8.83343         9.77101
| 76>    C       22.19437        -9.16875        10.90740
| 77>    C       21.63275       -10.01863        11.90486
| 78>    C       22.40764       -10.35517        13.03187
| 79>    C       23.67567        -9.85729        13.14718
| 80>    C       24.24453        -9.01784        12.17931
| 81>    C       23.50736        -8.68343        11.07768
| 82>    F       24.41656       -10.17606        14.22321
| 83>    C       20.31326       -10.50726        11.76338
| 84>    C       19.58213       -10.15688        10.66025
| 85>    C       18.20658       -10.46143        10.27742
| 86>    C       17.22211       -10.89844        11.12396
| 87>    C       15.84596       -10.89093        10.81011
| 88>    N       14.71218       -10.85455        10.63637
| 89>    C       17.45651       -11.30144        12.45562
| 90>    N       17.59806       -11.66232        13.53581
| 91>    H       11.30947        -1.17658       -15.41033
| 92>    H        9.56862         2.02065       -17.63648
| 93>    H        9.95507         3.57764       -15.74217
| 94>    H       12.14858        -0.79329       -13.14163
| 95>    H       10.77591         3.99245       -13.44950
| 96>    H       12.21451         3.33715        -8.41594
| 97>    H       12.28195         0.29510        -3.54972
| 98>    H       12.43382        -2.41821        -4.95736
| 99>    H       12.62336        -4.32163        -3.66916
|100>    H       12.73320        -7.87900        -1.47972
|101>    H       11.97585        -7.95410        -3.87981
|102>    H       11.45592        -6.26306        -3.72240
|103>    H       10.42927        -8.45963        -2.10008
|104>    H        9.61137        -7.56490        -3.20267
|105>    H       14.11524        -5.93366        -3.39234
|106>    H       14.30605        -7.69187        -3.36093
|107>    H       15.07107        -5.83559        -1.24424
|108>    H       15.22877        -7.46746        -1.17544
|109>    H       12.14136        -8.01020         0.64487
|110>    H       10.58432        -7.42001         2.52167
|111>    H       11.07524        -5.35572         3.92950
|112>    H       11.30400        -3.40499         2.45264
|113>    H       11.58491        -1.73424         0.46976
|114>    H       11.85896        -0.60562        -1.68089
|115>    H       13.49509        -7.05639         3.42525
|116>    H       11.36743        -9.21584         3.87014
|117>    H       14.43763       -12.42915         7.46553
|118>    H       16.41452       -12.21436         8.76071
|119>    H       17.09427        -9.75292         7.06634
|120>    H       21.83719        -8.19594         9.00326
|121>    H       22.00047       -10.99563        13.79859
|122>    H       25.24955        -8.65487        12.32496
|123>    H       23.92390        -8.03845        10.31879
|124>    H       19.91571       -11.15352        12.52993
|125> *
|126>
|127>                          ****END OF INPUT****

CARTESIAN COORDINATES (ANGSTROEM)
---------------------------------
  C     11.017480   -0.139730  -15.467880
  C     10.424410    0.350780  -16.597620
  F     10.201660   -0.471410  -17.639220
  C     10.032020    1.690800  -16.720210
  C     10.248630    2.541110  -15.672190
  C     10.855180    2.088330  -14.482280
  C     11.249460    0.722140  -14.378160
  C     11.866320    0.246090  -13.197730
  C     12.076080    1.107870  -12.155290
  C     11.663520    2.468590  -12.258870
  C     11.074250    2.956460  -13.390040
  C     11.952590    3.166810  -10.992870
  O     11.784880    4.334170  -10.726880
  C     12.437880    2.100940  -10.068440
  C     12.707580    0.911680  -10.853050
  C     13.578750   -0.090450  -10.530610
  C     13.846140   -1.192400  -11.368290
  N     14.082920   -2.111190  -12.014150
  C     14.403520   -0.065460   -9.384690
  N     15.171330   -0.036760   -8.532240
  C     12.392890    2.314750   -8.729280
  C     12.424900    1.344430   -7.698450
  S     12.460300    1.802240   -5.996300
  C     12.363590    0.080480   -5.663290
  N     12.305630   -0.635080   -6.758190
  N     12.343070    0.050890   -7.856030
  C     12.324360   -0.436570   -4.342120
  C     12.344840   -1.766760   -4.097620
  C     12.250880   -2.410810   -2.818400
  C     12.405840   -3.781370   -2.759880
  C     12.273020   -4.470340   -1.539250
  C     12.365510   -5.819160   -1.216100
  C     12.701940   -6.972660   -2.097290
  C     11.618890   -7.188760   -3.168750
  N     10.364390   -7.540250   -2.524960
  C     14.102660   -6.811080   -2.744810
  N     15.189970   -6.672790   -1.804510
  C     12.061180   -5.929920    0.191740
  C     11.954370   -7.003820    0.994270
  C     11.538190   -6.877990    2.421350
  C     11.335240   -5.469850    2.888490
  C     11.468120   -4.404590    2.077520
  C     11.804290   -4.579980    0.714010
  C     11.943790   -3.704240   -0.340680
  C     11.813360   -2.297380   -0.423160
  C     11.968490   -1.676310   -1.617140
  C     12.542950   -7.553540    3.312950
  C     12.307630   -8.690670    3.971680
  C     13.261330   -9.284900    4.861220
  S     12.975820  -10.838260    5.627660
  C     14.532950  -10.584610    6.420640
  N     15.078270   -9.455970    6.074160
  N     14.391660   -8.751580    5.219600
  C     15.049730  -11.548770    7.331810
  C     16.178980  -11.417720    8.066330
  C     17.095420  -10.333350    7.982270
  C     18.023710   -9.999440    8.916290
  C     19.182570   -9.127630    8.563480
  O     19.306960   -8.454360    7.569010
  C     20.155520   -9.322530    9.656790
  C     21.425040   -8.833430    9.771010
  C     22.194370   -9.168750   10.907400
  C     21.632750  -10.018630   11.904860
  C     22.407640  -10.355170   13.031870
  C     23.675670   -9.857290   13.147180
  C     24.244530   -9.017840   12.179310
  C     23.507360   -8.683430   11.077680
  F     24.416560  -10.176060   14.223210
  C     20.313260  -10.507260   11.763380
  C     19.582130  -10.156880   10.660250
  C     18.206580  -10.461430   10.277420
  C     17.222110  -10.898440   11.123960
  C     15.845960  -10.890930   10.810110
  N     14.712180  -10.854550   10.636370
  C     17.456510  -11.301440   12.455620
  N     17.598060  -11.662320   13.535810
  H     11.309470   -1.176580  -15.410330
  H      9.568620    2.020650  -17.636480
  H      9.955070    3.577640  -15.742170
  H     12.148580   -0.793290  -13.141630
  H     10.775910    3.992450  -13.449500
  H     12.214510    3.337150   -8.415940
  H     12.281950    0.295100   -3.549720
  H     12.433820   -2.418210   -4.957360
  H     12.623360   -4.321630   -3.669160
  H     12.733200   -7.879000   -1.479720
  H     11.975850   -7.954100   -3.879810
  H     11.455920   -6.263060   -3.722400
  H     10.429270   -8.459630   -2.100080
  H      9.611370   -7.564900   -3.202670
  H     14.115240   -5.933660   -3.392340
  H     14.306050   -7.691870   -3.360930
  H     15.071070   -5.835590   -1.244240
  H     15.228770   -7.467460   -1.175440
  H     12.141360   -8.010200    0.644870
  H     10.584320   -7.420010    2.521670
  H     11.075240   -5.355720    3.929500
  H     11.304000   -3.404990    2.452640
  H     11.584910   -1.734240    0.469760
  H     11.858960   -0.605620   -1.680890
  H     13.495090   -7.056390    3.425250
  H     11.367430   -9.215840    3.870140
  H     14.437630  -12.429150    7.465530
  H     16.414520  -12.214360    8.760710
  H     17.094270   -9.752920    7.066340
  H     21.837190   -8.195940    9.003260
  H     22.000470  -10.995630   13.798590
  H     25.249550   -8.654870   12.324960
  H     23.923900   -8.038450   10.318790
  H     19.915710  -11.153520   12.529930

 Total Charge           Charge          ....    0
 Multiplicity           Mult            ....    1
 Number of Electrons    NEL             ....  530
 Basis Dimension        Dim             .... 1242

ORBITAL ENERGIES
----------------

  NO   OCC          E(Eh)            E(eV)
   0   2.0000     -88.980362     -2421.2787
   1   2.0000     -88.974528     -2421.1200
   2   2.0000     -24.786965      -674.4876
   3   2.0000     -24.783777      -674.4009
   4   2.0000     -19.214927      -522.8647
   5   2.0000     -19.214415      -522.8508
   6   2.0000     -14.447841      -393.1457
   7   2.0000     -14.447381      -393.1332
   8   2.0000     -14.442877      -393.0107
   9   2.0000     -14.435896      -392.8207
  10   2.0000     -14.420125      -392.3916
  11   2.0000     -14.416717      -392.2988
  12   2.0000     -14.412117      -392.1736
  13   2.0000     -14.404503      -391.9664
  14   2.0000     -14.381531      -391.3413
  15   2.0000     -14.370970      -391.0540
  16   2.0000     -10.370852      -282.2052
  17   2.0000     -10.367478      -282.1134
  18   2.0000     -10.365916      -282.0709
  19   2.0000     -10.365295      -282.0540
  20   2.0000     -10.350925      -281.6630
  21   2.0000     -10.350274      -281.6453
  22   2.0000     -10.349374      -281.6208
  23   2.0000     -10.346150      -281.5331
  24   2.0000     -10.344001      -281.4746
  25   2.0000     -10.342502      -281.4338
  26   2.0000     -10.340056      -281.3672
  27   2.0000     -10.334064      -281.2042
  28   2.0000     -10.322064      -280.8777
  29   2.0000     -10.320058      -280.8230
  30   2.0000     -10.319003      -280.7944
  31   2.0000     -10.313680      -280.6495
  32   2.0000     -10.311382      -280.5870
  33   2.0000     -10.308889      -280.5191
  34   2.0000     -10.308239      -280.5015
  35   2.0000     -10.307937      -280.4932
  36   2.0000     -10.307598      -280.4840
  37   2.0000     -10.307591      -280.4838
  38   2.0000     -10.303874      -280.3827
  39   2.0000     -10.303436      -280.3707
  40   2.0000     -10.303403      -280.3699
  41   2.0000     -10.302948      -280.3575
  42   2.0000     -10.302583      -280.3475
  43   2.0000     -10.302370      -280.3417
  44   2.0000     -10.302109      -280.3346
  45   2.0000     -10.300981      -280.3039
  46   2.0000     -10.300099      -280.2800
  47   2.0000     -10.299802      -280.2719
  48   2.0000     -10.298827      -280.2453
  49   2.0000     -10.298762      -280.2436
  50   2.0000     -10.298470      -280.2356
  51   2.0000     -10.298296      -280.2309
  52   2.0000     -10.295735      -280.1612
  53   2.0000     -10.295721      -280.1608
  54   2.0000     -10.294302      -280.1222
  55   2.0000     -10.292224      -280.0657
  56   2.0000     -10.291014      -280.0327
  57   2.0000     -10.290294      -280.0131
  58   2.0000     -10.289732      -279.9978
  59   2.0000     -10.288093      -279.9532
  60   2.0000     -10.286453      -279.9086
  61   2.0000     -10.286332      -279.9053
  62   2.0000     -10.285380      -279.8794
  63   2.0000     -10.283304      -279.8229
  64   2.0000     -10.280507      -279.7468
  65   2.0000     -10.279338      -279.7150
  66   2.0000     -10.278604      -279.6950
  67   2.0000     -10.277590      -279.6674
  68   2.0000     -10.275175      -279.6017
  69   2.0000     -10.274329      -279.5787
  70   2.0000     -10.271802      -279.5099
  71   2.0000     -10.269746      -279.4540
  72   2.0000     -10.267903      -279.4039
  73   2.0000     -10.267513      -279.3932
  74   2.0000     -10.267122      -279.3826
  75   2.0000     -10.266386      -279.3626
  76   2.0000      -8.076942      -219.7848
  77   2.0000      -8.070947      -219.6216
  78   2.0000      -6.045439      -164.5048
  79   2.0000      -6.042300      -164.4193
  80   2.0000      -6.039529      -164.3440
  81   2.0000      -6.039381      -164.3399
  82   2.0000      -6.036291      -164.2558
  83   2.0000      -6.033333      -164.1753
  84   2.0000      -1.302110       -35.4322
  85   2.0000      -1.298612       -35.3370
  86   2.0000      -1.150146       -31.2971
  87   2.0000      -1.146477       -31.1972
  88   2.0000      -1.130050       -30.7502
  89   2.0000      -1.129747       -30.7420
  90   2.0000      -1.021603       -27.7992
  91   2.0000      -1.013727       -27.5849
  92   2.0000      -1.002385       -27.2763
  93   2.0000      -0.996934       -27.1279
  94   2.0000      -0.996469       -27.1153
  95   2.0000      -0.989005       -26.9122
  96   2.0000      -0.986641       -26.8479
  97   2.0000      -0.978251       -26.6196
  98   2.0000      -0.974156       -26.5081
  99   2.0000      -0.966588       -26.3022
 100   2.0000      -0.960929       -26.1482
 101   2.0000      -0.952995       -25.9323
 102   2.0000      -0.951827       -25.9005
 103   2.0000      -0.946209       -25.7476
 104   2.0000      -0.936095       -25.4724
 105   2.0000      -0.929740       -25.2995
 106   2.0000      -0.928106       -25.2550
 107   2.0000      -0.918360       -24.9898
 108   2.0000      -0.913834       -24.8667
 109   2.0000      -0.908005       -24.7081
 110   2.0000      -0.893176       -24.3045
 111   2.0000      -0.891330       -24.2543
 112   2.0000      -0.885545       -24.0969
 113   2.0000      -0.882840       -24.0233
 114   2.0000      -0.878059       -23.8932
 115   2.0000      -0.873678       -23.7740
 116   2.0000      -0.858205       -23.3529
 117   2.0000      -0.849764       -23.1232
 118   2.0000      -0.842767       -22.9329
 119   2.0000      -0.841189       -22.8899
 120   2.0000      -0.835119       -22.7248
 121   2.0000      -0.832069       -22.6418
 122   2.0000      -0.831360       -22.6225
 123   2.0000      -0.806580       -21.9482
 124   2.0000      -0.798973       -21.7412
 125   2.0000      -0.797026       -21.6882
 126   2.0000      -0.765144       -20.8206
 127   2.0000      -0.764739       -20.8096
 128   2.0000      -0.760029       -20.6814
 129   2.0000      -0.756192       -20.5770
 130   2.0000      -0.742665       -20.2089
 131   2.0000      -0.733608       -19.9625
 132   2.0000      -0.724105       -19.7039
 133   2.0000      -0.720550       -19.6072
 134   2.0000      -0.715350       -19.4657
 135   2.0000      -0.712450       -19.3868
 136   2.0000      -0.710633       -19.3373
 137   2.0000      -0.708475       -19.2786
 138   2.0000      -0.706092       -19.2138
 139   2.0000      -0.698120       -18.9968
 140   2.0000      -0.691845       -18.8261
 141   2.0000      -0.683954       -18.6113
 142   2.0000      -0.680403       -18.5147
 143   2.0000      -0.675585       -18.3836
 144   2.0000      -0.674671       -18.3587
 145   2.0000      -0.673682       -18.3318
 146   2.0000      -0.663026       -18.0419
 147   2.0000      -0.654789       -17.8177
 148   2.0000      -0.642068       -17.4716
 149   2.0000      -0.635356       -17.2889
 150   2.0000      -0.632882       -17.2216
 151   2.0000      -0.630505       -17.1569
 152   2.0000      -0.628443       -17.1008
 153   2.0000      -0.625933       -17.0325
 154   2.0000      -0.622992       -16.9525
 155   2.0000      -0.606743       -16.5103
 156   2.0000      -0.602080       -16.3834
 157   2.0000      -0.599477       -16.3126
 158   2.0000      -0.597448       -16.2574
 159   2.0000      -0.594499       -16.1771
 160   2.0000      -0.590016       -16.0552
 161   2.0000      -0.586701       -15.9650
 162   2.0000      -0.576609       -15.6903
 163   2.0000      -0.574070       -15.6212
 164   2.0000      -0.566478       -15.4146
 165   2.0000      -0.565411       -15.3856
 166   2.0000      -0.563175       -15.3248
 167   2.0000      -0.562064       -15.2945
 168   2.0000      -0.559505       -15.2249
 169   2.0000      -0.559076       -15.2132
 170   2.0000      -0.556143       -15.1334
 171   2.0000      -0.552878       -15.0446
 172   2.0000      -0.550953       -14.9922
 173   2.0000      -0.549031       -14.9399
 174   2.0000      -0.547315       -14.8932
 175   2.0000      -0.545767       -14.8511
 176   2.0000      -0.544890       -14.8272
 177   2.0000      -0.543359       -14.7855
 178   2.0000      -0.540364       -14.7041
 179   2.0000      -0.538685       -14.6584
 180   2.0000      -0.534715       -14.5503
 181   2.0000      -0.532140       -14.4803
 182   2.0000      -0.530231       -14.4283
 183   2.0000      -0.525509       -14.2998
 184   2.0000      -0.524885       -14.2829
 185   2.0000      -0.521638       -14.1945
 186   2.0000      -0.521171       -14.1818
 187   2.0000      -0.519952       -14.1486
 188   2.0000      -0.519094       -14.1253
 189   2.0000      -0.517103       -14.0711
 190   2.0000      -0.513058       -13.9610
 191   2.0000      -0.511311       -13.9135
 192   2.0000      -0.508110       -13.8264
 193   2.0000      -0.503095       -13.6899
 194   2.0000      -0.500102       -13.6085
 195   2.0000      -0.497903       -13.5486
 196   2.0000      -0.496467       -13.5095
 197   2.0000      -0.494587       -13.4584
 198   2.0000      -0.490554       -13.3487
 199   2.0000      -0.489807       -13.3283
 200   2.0000      -0.486085       -13.2271
 201   2.0000      -0.484775       -13.1914
 202   2.0000      -0.483751       -13.1635
 203   2.0000      -0.483080       -13.1453
 204   2.0000      -0.479763       -13.0550
 205   2.0000      -0.478568       -13.0225
 206   2.0000      -0.475972       -12.9519
 207   2.0000      -0.468444       -12.7470
 208   2.0000      -0.466347       -12.6899
 209   2.0000      -0.465619       -12.6701
 210   2.0000      -0.459887       -12.5142
 211   2.0000      -0.459281       -12.4977
 212   2.0000      -0.458558       -12.4780
 213   2.0000      -0.454774       -12.3750
 214   2.0000      -0.454676       -12.3724
 215   2.0000      -0.450898       -12.2696
 216   2.0000      -0.448114       -12.1938
 217   2.0000      -0.446177       -12.1411
 218   2.0000      -0.444233       -12.0882
 219   2.0000      -0.443526       -12.0690
 220   2.0000      -0.442138       -12.0312
 221   2.0000      -0.438920       -11.9436
 222   2.0000      -0.438254       -11.9255
 223   2.0000      -0.435810       -11.8590
 224   2.0000      -0.433977       -11.8091
 225   2.0000      -0.431081       -11.7303
 226   2.0000      -0.430017       -11.7014
 227   2.0000      -0.428426       -11.6581
 228   2.0000      -0.425241       -11.5714
 229   2.0000      -0.423629       -11.5275
 230   2.0000      -0.422680       -11.5017
 231   2.0000      -0.420418       -11.4401
 232   2.0000      -0.416961       -11.3461
 233   2.0000      -0.414375       -11.2757
 234   2.0000      -0.413757       -11.2589
 235   2.0000      -0.403736       -10.9862
 236   2.0000      -0.401731       -10.9317
 237   2.0000      -0.396956       -10.8017
 238   2.0000      -0.393083       -10.6963
 239   2.0000      -0.391564       -10.6550
 240   2.0000      -0.390804       -10.6343
 241   2.0000      -0.387756       -10.5514
 242   2.0000      -0.383229       -10.4282
 243   2.0000      -0.381816       -10.3897
 244   2.0000      -0.379425       -10.3247
 245   2.0000      -0.374021       -10.1776
 246   2.0000      -0.373568       -10.1653
 247   2.0000      -0.366170        -9.9640
 248   2.0000      -0.353074        -9.6076
 249   2.0000      -0.341714        -9.2985
 250   2.0000      -0.337697        -9.1892
 251   2.0000      -0.334879        -9.1125
 252   2.0000      -0.331123        -9.0103
 253   2.0000      -0.329053        -8.9540
 254   2.0000      -0.326120        -8.8742
 255   2.0000      -0.319313        -8.6889
 256   2.0000      -0.315038        -8.5726
 257   2.0000      -0.307895        -8.3782
 258   2.0000      -0.307428        -8.3655
 259   2.0000      -0.300854        -8.1867
 260   2.0000      -0.294634        -8.0174
 261   2.0000      -0.291186        -7.9236
 262   2.0000      -0.290248        -7.8980
 263   2.0000      -0.276282        -7.5180
 264   2.0000      -0.227428        -6.1886
 265   0.0000      -0.100210        -2.7268
 266   0.0000      -0.096735        -2.6323
 267   0.0000      -0.074904        -2.0382
 268   0.0000      -0.060894        -1.6570
 269   0.0000      -0.052950        -1.4408

MULLIKEN ATOMIC CHARGES
-----------------------
   0 C :   -0.097643
   1 C :    0.302515
   2 F :   -0.190779
   3 C :   -0.028418
   4 C :   -0.008204
   5 C :    0.098350
   6 C :    0.103991
   7 C :   -0.087298
   8 C :    0.046786
   9 C :    0.003554
  10 C :   -0.078884
  11 C :    0.136890
  12 O :   -0.139622
  13 C :   -0.108061
  14 C :    0.268167
  15 C :   -0.273366
  16 C :   -0.184292
  17 N :    0.149633
  18 C :   -0.186976
  19 N :    0.166150
  20 C :    0.101511
  21 C :   -0.111624
  22 S :    0.115548
  23 C :   -0.077962
  24 N :   -0.054028
  25 N :   -0.045360
  26 C :    0.055615
  27 C :    0.007051
  28 C :    0.120581
  29 C :   -0.096315
  30 C :    0.043725
  31 C :    0.011561
  32 C :   -0.073522
  33 C :    0.147111
  34 N :   -0.216311
  35 C :    0.138029
  36 N :   -0.210429
  37 C :    0.119678
  38 C :   -0.129777
  39 C :    0.129982
  40 C :   -0.052517
  41 C :    0.028483
  42 C :    0.011040
  43 C :    0.030730
  44 C :    0.006692
  45 C :   -0.008133
  46 C :   -0.024251
  47 C :    0.062446
  48 C :   -0.102951
  49 S :    0.102864
  50 C :   -0.113646
  51 N :   -0.056925
  52 N :   -0.036361
  53 C :    0.114530
  54 C :   -0.000091
  55 C :    0.052850
  56 C :   -0.102562
  57 C :    0.143721
  58 O :   -0.128717
  59 C :    0.000502
  60 C :   -0.079814
  61 C :    0.100871
  62 C :    0.104025
  63 C :   -0.100114
  64 C :    0.304674
  65 C :   -0.026948
  66 C :   -0.010590
  67 F :   -0.189255
  68 C :   -0.090821
  69 C :    0.051535
  70 C :    0.271517
  71 C :   -0.324184
  72 C :   -0.215936
  73 N :    0.170228
  74 C :   -0.175390
  75 N :    0.153939
  76 H :   -0.002574
  77 H :    0.002469
  78 H :   -0.009434
  79 H :   -0.003712
  80 H :   -0.012128
  81 H :    0.019040
  82 H :   -0.013457
  83 H :    0.014998
  84 H :   -0.023138
  85 H :   -0.044810
  86 H :   -0.013132
  87 H :   -0.009732
  88 H :    0.082266
  89 H :    0.092284
  90 H :   -0.000977
  91 H :   -0.000241
  92 H :    0.098573
  93 H :    0.083083
  94 H :   -0.014719
  95 H :    0.038686
  96 H :   -0.005664
  97 H :   -0.032383
  98 H :   -0.036218
  99 H :   -0.029095
 100 H :    0.039505
 101 H :   -0.010398
 102 H :    0.004516
 103 H :    0.021627
 104 H :    0.044325
 105 H :   -0.009559
 106 H :   -0.001281
 107 H :    0.004213
 108 H :   -0.007528
 109 H :   -0.004410
Sum of atomic charges:   -0.0000000

LOEWDIN ATOMIC CHARGES
----------------------
   0 C :   -0.042417
   1 C :    0.093685
   2 F :   -0.065113
   3 C :   -0.038068
   4 C :    0.005005
   5 C :   -0.019906
   6 C :    0.004993
   7 C :    0.009387
   8 C :   -0.013114
   9 C :   -0.061923
  10 C :    0.035676
  11 C :    0.083577
  12 O :   -0.141030
  13 C :   -0.060214
  14 C :    0.063714
  15 C :   -0.106320
  16 C :   -0.014562
  17 N :   -0.048341
  18 C :   -0.017435
  19 N :   -0.047609
  20 C :    0.029289
  21 C :   -0.166472
  22 S :    0.403595
  23 C :   -0.123196
  24 N :   -0.079381
  25 N :   -0.039042
  26 C :   -0.079248
  27 C :    0.045841
  28 C :   -0.033495
  29 C :    0.005660
  30 C :   -0.023830
  31 C :   -0.013524
  32 C :   -0.055641
  33 C :    0.027513
  34 N :   -0.118280
  35 C :    0.023009
  36 N :   -0.107020
  37 C :   -0.011295
  38 C :    0.065452
  39 C :   -0.029625
  40 C :   -0.033962
  41 C :   -0.010753
  42 C :   -0.036397
  43 C :   -0.026341
  44 C :   -0.003835
  45 C :   -0.025353
  46 C :    0.046592
  47 C :   -0.076191
  48 C :   -0.140110
  49 S :    0.393549
  50 C :   -0.147532
  51 N :   -0.059647
  52 N :   -0.075144
  53 C :   -0.014767
  54 C :   -0.003241
  55 C :    0.071772
  56 C :   -0.075860
  57 C :    0.082148
  58 O :   -0.130301
  59 C :   -0.059688
  60 C :    0.035724
  61 C :   -0.017832
  62 C :    0.003408
  63 C :   -0.042144
  64 C :    0.093426
  65 C :   -0.035580
  66 C :    0.005152
  67 F :   -0.063839
  68 C :    0.011228
  69 C :   -0.018779
  70 C :    0.068959
  71 C :   -0.131351
  72 C :   -0.024154
  73 N :   -0.046007
  74 C :   -0.018073
  75 N :   -0.047095
  76 H :    0.043254
  77 H :    0.041543
  78 H :    0.035574
  79 H :    0.039542
  80 H :    0.039563
  81 H :    0.047650
  82 H :    0.027815
  83 H :    0.040464
  84 H :    0.024933
  85 H :    0.014125
  86 H :   -0.001129
  87 H :    0.017812
  88 H :    0.048505
  89 H :    0.055455
  90 H :    0.018385
  91 H :    0.016835
  92 H :    0.052414
  93 H :    0.048979
  94 H :    0.026871
  95 H :    0.059285
  96 H :    0.027202
  97 H :    0.031316
  98 H :    0.028407
  99 H :    0.024926
 100 H :    0.041192
 101 H :    0.029582
 102 H :    0.041111
 103 H :    0.040492
 104 H :    0.047990
 105 H :    0.040536
 106 H :    0.043380
 107 H :    0.042315
 108 H :    0.036318
 109 H :    0.039080

  Mayer bond orders larger than 0.100000
B(  0-C ,  1-C ) :   1.4426 B(  0-C ,  6-C ) :   1.2018 B(  0-C , 76-H ) :   1.0064
B(  1-C ,  2-F ) :   1.0884 B(  1-C ,  3-C ) :   1.2532 B(  3-C ,  4-C ) :   1.4632
B(  3-C , 77-H ) :   0.9923 B(  4-C ,  5-C ) :   1.2337 B(  4-C , 78-H ) :   0.9966
B(  5-C ,  6-C ) :   1.2549 B(  5-C , 10-C ) :   1.1956 B(  6-C ,  7-C ) :   1.2046
B(  7-C ,  8-C ) :   1.4627 B(  7-C , 79-H ) :   0.9943 B(  8-C ,  9-C ) :   1.2172
B(  8-C , 14-C ) :   0.9972 B(  9-C , 10-C ) :   1.4681 B(  9-C , 11-C ) :   0.9204
B( 10-C , 80-H ) :   1.0149 B( 11-C , 12-O ) :   2.2750 B( 11-C , 13-C ) :   0.9324
B( 13-C , 14-C ) :   1.0218 B( 13-C , 20-C ) :   1.7013 B( 14-C , 15-C ) :   1.7017
B( 15-C , 16-C ) :   1.1398 B( 15-C , 18-C ) :   1.1470 B( 16-C , 17-N ) :   2.9808
B( 18-C , 19-N ) :   3.0122 B( 20-C , 21-C ) :   1.1058 B( 20-C , 81-H ) :   0.9319
B( 21-C , 22-S ) :   1.0748 B( 21-C , 25-N ) :   1.6018 B( 22-S , 23-C ) :   1.1182
B( 22-S , 25-N ) :   0.1047 B( 23-C , 24-N ) :   1.6301 B( 23-C , 26-C ) :   1.1164
B( 24-N , 25-N ) :   1.2742 B( 26-C , 27-C ) :   1.6765 B( 26-C , 82-H ) :   0.9428
B( 27-C , 28-C ) :   1.0749 B( 27-C , 83-H ) :   0.9884 B( 28-C , 29-C ) :   1.5041
B( 28-C , 45-C ) :   1.1145 B( 29-C , 30-C ) :   1.1086 B( 29-C , 84-H ) :   0.9978
B( 30-C , 31-C ) :   1.4778 B( 30-C , 43-C ) :   1.1235 B( 31-C , 32-C ) :   0.9950
B( 31-C , 37-C ) :   1.1110 B( 32-C , 33-C ) :   1.0355 B( 32-C , 35-C ) :   1.0068
B( 32-C , 85-H ) :   0.8898 B( 33-C , 34-N ) :   1.0807 B( 33-C , 86-H ) :   0.9409
B( 33-C , 87-H ) :   0.9365 B( 34-N , 88-H ) :   0.9732 B( 34-N , 89-H ) :   0.9686
B( 35-C , 36-N ) :   1.1271 B( 35-C , 90-H ) :   0.9490 B( 35-C , 91-H ) :   0.9434
B( 36-N , 92-H ) :   0.9789 B( 36-N , 93-H ) :   0.9774 B( 37-C , 38-C ) :   1.6401
B( 37-C , 42-C ) :   1.0476 B( 38-C , 39-C ) :   0.9689 B( 38-C , 94-H ) :   0.9759
B( 39-C , 40-C ) :   0.9769 B( 39-C , 46-C ) :   0.9512 B( 39-C , 95-H ) :   0.8648
B( 40-C , 41-C ) :   1.7125 B( 40-C , 96-H ) :   0.9774 B( 41-C , 42-C ) :   1.1282
B( 41-C , 97-H ) :   0.9897 B( 42-C , 43-C ) :   1.4526 B( 43-C , 44-C ) :   1.1357
B( 44-C , 45-C ) :   1.6268 B( 44-C , 98-H ) :   0.9890 B( 45-C , 99-H ) :   0.9815
B( 46-C , 47-C ) :   1.8192 B( 46-C ,100-H ) :   0.9700 B( 47-C , 48-C ) :   1.0616
B( 47-C ,101-H ) :   0.9514 B( 48-C , 49-S ) :   1.1087 B( 48-C , 52-N ) :   1.6982
B( 49-S , 50-C ) :   1.0864 B( 50-C , 51-N ) :   1.6412 B( 50-C , 53-C ) :   1.1126
B( 51-N , 52-N ) :   1.2332 B( 53-C , 54-C ) :   1.7554 B( 53-C ,102-H ) :   0.9433
B( 54-C , 55-C ) :   1.0981 B( 54-C ,103-H ) :   0.9431 B( 55-C , 56-C ) :   1.6704
B( 55-C ,104-H ) :   0.9294 B( 56-C , 57-C ) :   0.9268 B( 56-C , 70-C ) :   1.0294
B( 57-C , 58-O ) :   2.2830 B( 57-C , 59-C ) :   0.9200 B( 59-C , 60-C ) :   1.4715
B( 59-C , 69-C ) :   1.2144 B( 60-C , 61-C ) :   1.1928 B( 60-C ,105-H ) :   1.0156
B( 61-C , 62-C ) :   1.2546 B( 61-C , 66-C ) :   1.2344 B( 62-C , 63-C ) :   1.2010
B( 62-C , 68-C ) :   1.2055 B( 63-C , 64-C ) :   1.4421 B( 63-C ,106-H ) :   1.0066
B( 64-C , 65-C ) :   1.2527 B( 64-C , 67-F ) :   1.0900 B( 65-C , 66-C ) :   1.4618
B( 65-C ,107-H ) :   0.9926 B( 66-C ,108-H ) :   0.9973 B( 68-C , 69-C ) :   1.4551
B( 68-C ,109-H ) :   0.9942 B( 69-C , 70-C ) :   1.0017 B( 70-C , 71-C ) :   1.6536
B( 71-C , 72-C ) :   1.1562 B( 71-C , 74-C ) :   1.1287 B( 72-C , 73-N ) :   3.0148
B( 74-C , 75-N ) :   2.9835

-----------------------------------------------------------------------------
         ABSORPTION SPECTRUM VIA TRANSITION ELECTRIC DIPOLE MOMENTS
-----------------------------------------------------------------------------
State   Energy  Wavelength   fosc         T2         TX        TY        TZ
        (cm-1)    (nm)                  (au**2)     (au)      (au)      (au)
-----------------------------------------------------------------------------
   0   13850.6    722.0   0.085848260   2.04051   0.29570  -1.34240   0.38863
   1   17730.7    564.0   0.426347884   7.91614  -0.26345  -1.06405   2.59124
   2   18295.5    546.6   0.180597075   3.24968  -0.41590   0.62348  -1.63951
   3   23066.5    433.5   0.607246974   8.66682  -0.03545   1.20040  -2.68786
   4   24184.1    413.5   0.794123686  10.81021   1.96501  -0.64823   2.55514
   5   24712.4    404.7   0.053659482   0.71484  -0.13922  -0.60434   0.57465
   6   25539.1    391.6   0.036569489   0.47140  -0.12812  -0.04336   0.67313
   7   26016.1    384.4   0.214921722   2.71966   0.02675   0.76411  -1.46119
   8   26496.2    377.4   0.060507843   0.75180   0.34093  -0.46707   0.64608
   9   26551.0    376.6   0.048396596   0.60008   0.67266   0.28830  -0.25395
  10   26967.8    370.8   0.079608883   0.97183   0.18041  -0.40916   0.87856
  11   27316.2    366.1   0.027633774   0.33304  -0.32565  -0.24235   0.41020
  12   27535.6    363.2   0.097117263   1.16112  -0.54562   0.32074  -0.87209
  13   27750.6    360.4   0.102315597   1.21380   0.14609   0.98270  -0.47618
  14   28121.4    355.6   0.399832720   4.68076   0.46745  -1.69090   1.26614
  15   29119.4    343.4   0.001401943   0.01585  -0.09274  -0.07161   0.04607
  16   29142.0    343.1   0.026632696   0.30086  -0.54478  -0.05856   0.02542
  17   29448.2    339.6   0.029959353   0.33493  -0.48232   0.14679  -0.28417
  18   29591.6    337.9   0.099558665   1.10761  -0.00295   0.64853  -0.82886
  19   30505.8    327.8   0.462101044   4.98690  -0.09032   1.61513  -1.53952
  20   31097.9    321.6   0.044226169   0.46819   0.07532  -0.55702   0.39019
  21   32114.3    311.4   0.397510263   4.07498   1.88203  -0.33245   0.64994
  22   32267.3    309.9   0.000819591   0.00836  -0.07592  -0.03924   0.03252
  23   32573.5    307.0   0.217215760   2.19534  -1.25451  -0.71638   0.32915
  24   32997.4    303.1   0.257526010   2.56931   1.07526  -0.69713   0.96288
  25   33340.1    299.9   0.070352632   0.69469  -0.72079  -0.25906   0.32870
  26   33382.5    299.6   0.081713894   0.80585  -0.49714   0.24016  -0.70783
  27   34092.3    293.3   0.504886854   4.87544  -0.64733  -0.38364  -2.07587
  28   34412.5    290.6   0.085527127   0.81821   0.70544   0.26136   0.50225
  29   34505.0    289.8   0.179996629   1.71734  -1.20495  -0.24511  -0.45316
  30   35060.1    285.2   0.023295729   0.21875  -0.05101   0.07981   0.45801
  31   35141.8    284.6   0.271762723   2.54590   1.25557   0.15165   0.97286
  32   35290.8    283.4   0.407728025   3.80351   1.74040   0.58794   0.65488
  33   35643.1    280.6   0.026284717   0.24277  -0.10483  -0.44416  -0.18577
  34   36144.0    276.7   0.066712011   0.60764  -0.16117  -0.74091   0.18088
  35   36514.6    273.9   0.003883639   0.03501   0.11952  -0.08632   0.11523
  36   36565.5    273.5   0.058035359   0.52251  -0.22311   0.05870  -0.68505
  37   36887.1    271.1   0.003673423   0.03278  -0.08430  -0.14391  -0.07049
  38   37170.9    269.0   0.032222182   0.28538   0.00889   0.51128   0.15459
  39   37311.5    268.0   0.033969123   0.29972   0.38021   0.11451  -0.37690
  40   37442.7    267.1   0.004059717   0.03569  -0.02882   0.11155   0.14973
  41   37727.2    265.1   0.071434267   0.62334   0.15655  -0.32941   0.70023
  42   37859.5    264.1   0.046864562   0.40752   0.04404   0.43626  -0.46396
  43   37989.1    263.2   0.206599531   1.79038  -0.43968   0.87963  -0.90736
  44   38510.1    259.7   0.372933532   3.18811  -0.53108  -1.10486   1.29821
  45   38837.0    257.5   0.119318465   1.01143  -0.58077   0.18112   0.80084
  46   39174.5    255.3   0.105749738   0.88869   0.09569  -0.86915   0.35231
  47   39369.5    254.0   0.003259880   0.02726   0.13425   0.08851  -0.03746
  48   39476.2    253.3   0.011427116   0.09530   0.12492   0.07108  -0.27320
  49   40266.3    248.3   0.002722637   0.02226   0.09771   0.10156  -0.04896

FINAL SINGLE POINT ENERGY     -3996.405853958354

DIPOLE MOMENT
-------------
                                X             Y             Z
Electronic contribution:     21.59782      16.75162       2.02764
Nuclear contribution   :    -23.24660     -17.52019      -1.81018
                        -----------------------------------------
Total Dipole Moment    :     -1.64877      -0.76858       0.21746
                        -----------------------------------------
Magnitude (a.u.)       :      1.83206
Magnitude (Debye)      :      4.65673

Rotational constants in cm-1:     0.001761     0.000136     0.000132
Rotational constants in MHz :    52.779400     4.089317     3.954384

                             ****ORCA TERMINATED NORMALLY****
TOTAL RUN TIME: 0 days 0 hours 9 minutes 58 seconds 501 msec
