                         Program Version 4.2.0 -  RELEASE  -
|  1> # ORCA input file
|  2> # SCF done       -205.887877610681          0.000595272561
|  3> ! CAM-B3LYP def2-SVP def2/J RIJCOSX Grid4 TightSCF
|  4> %maxcore 5000
|  5> %tddft
|  6>     Mode sTDDFT
|  7>     Ethresh 5.0
|  8>     maxcore 5000
|  9> end
| 10>
| 11> %pal
| 12>   nprocs 6
| 13>   end
| 14> * xyz 0 1
| 15>    C        3.85281        -5.32381         1.88026
| 16>    C        2.99830        -5.91467         2.76888
| 17>    F        3.15659        -5.69223         4.08727
| 18>    C        1.95075        -6.75121         2.36175
| 19>    C        1.77343        -6.98562         1.02636
| 20>    C        2.62336        -6.39980         0.06644
| 21>    C        3.68546        -5.55512         0.50128
| 22>    C        4.55749        -4.96335        -0.44311
| 23>    C        4.36310        -5.20011        -1.77617
| 24>    C        3.28840        -6.03080        -2.20566
| 25>    C        2.44179        -6.62643        -1.31686
| 26>    C        3.27637        -6.08411        -3.68123
| 27>    O        2.53573        -6.72141        -4.39540
| 28>    C        4.33948        -5.13663        -4.11551
| 29>    C        5.10519        -4.76123        -2.95618
| 30>    C        6.39186        -4.27978        -2.95192
| 31>    C        7.17009        -4.16993        -4.11929
| 32>    N        7.82723        -4.08557        -5.05700
| 33>    C        7.07315        -3.86466        -1.79360
| 34>    N        7.64763        -3.44855        -0.88985
| 35>    C        4.35140        -4.72546        -5.41863
| 36>    C        4.94283        -3.60031        -6.02471
| 37>    S        5.09576        -3.56373        -7.76353
| 38>    C        5.81130        -2.01324        -7.71838
| 39>    C        5.90377        -1.50775        -6.46042
| 40>    C        5.40233        -2.39506        -5.48170
| 41>    O        5.36002        -2.19136        -4.15136
| 42>    C        5.46677        -0.94349        -3.60263
| 43>    C        4.96422         0.18938        -4.10015
| 44>    C        5.07245         1.49214        -3.47723
| 45>    C        4.22971         2.49860        -3.88085
| 46>    C        4.30058         3.77457        -3.28238
| 47>    C        3.58790         4.94059        -3.51896
| 48>    C        2.54405         5.12273        -4.56809
| 49>    C        1.11639         5.21387        -3.99101
| 50>    N        0.94497         6.39750        -3.16361
| 51>    C        2.83807         6.33780        -5.48725
| 52>    N        2.28510         6.23465        -6.81963
| 53>    C        4.09894         5.93007        -2.59605
| 54>    C        3.82138         7.23750        -2.43326
| 55>    C        4.47848         8.05526        -1.37723
| 56>    C        5.47969         7.31715        -0.54091
| 57>    C        5.79075         6.02696        -0.75614
| 58>    C        5.14189         5.29347        -1.77768
| 59>    C        5.27561         3.99639        -2.22334
| 60>    C        6.16685         2.95820        -1.86765
| 61>    C        6.06532         1.74999        -2.47503
| 62>    C        3.40975         8.63975        -0.48721
| 63>    C        3.46572         9.87025         0.02369
| 64>    C        2.46483        10.46090         0.86816
| 65>    S        2.82225        11.90651         1.75466
| 66>    C        1.24498        11.95833         2.42308
| 67>    C        0.46654        10.93371         1.99170
| 68>    C        1.15715        10.07864         1.09995
| 69>    O        0.63043         8.94889         0.52616
| 70>    C       -0.67963         8.89379         0.28133
| 71>    C       -1.31891         7.76012        -0.10125
| 72>    C       -0.80942         6.44654        -0.23187
| 73>    C        0.31285         5.82302         0.24273
| 74>    C        0.70891         4.53001        -0.38851
| 75>    O        0.06413         3.89689        -1.19782
| 76>    C        2.04147         4.21148         0.14893
| 77>    C        2.81550         3.10901        -0.07063
| 78>    C        4.03125         2.97139         0.63416
| 79>    C        4.45859         4.02220         1.49568
| 80>    C        5.68050         3.88725         2.18167
| 81>    C        6.40995         2.73970         2.03407
| 82>    C        5.98854         1.67995         1.22063
| 83>    C        4.81764         1.80675         0.52498
| 84>    F        7.57483         2.60923         2.69491
| 85>    C        3.64180         5.15999         1.69398
| 86>    C        2.43169         5.23386         1.06114
| 87>    C        1.31385         6.16333         1.21748
| 88>    C        1.17225         7.04132         2.26807
| 89>    C       -0.06084         7.59395         2.65034
| 90>    N       -1.05873         8.05920         2.97861
| 91>    C        2.22720         7.45414         3.10379
| 92>    N        3.05305         7.88712         3.77388
| 93>    H        4.65094        -4.68818         2.23094
| 94>    H        1.30858        -7.19052         3.10849
| 95>    H        0.97291        -7.62602         0.68778
| 96>    H        5.35352        -4.32888        -0.08629
| 97>    H        1.64038        -7.26155        -1.66348
| 98>    H        3.74501        -5.33629        -6.08181
| 99>    H        6.14034        -1.55328        -8.62904
|100>    H        6.34663        -0.55644        -6.22858
|101>    H        5.95474        -1.00481        -2.63951
|102>    H        4.39902         0.15154        -5.02321
|103>    H        3.49746         2.30651        -4.65289
|104>    H        2.56286         4.22502        -5.19932
|105>    H        0.89260         4.28181        -3.44904
|106>    H        0.41187         5.29205        -4.82505
|107>    H        1.43150         6.26681        -2.28259
|108>    H       -0.03809         6.52421        -2.94978
|109>    H        3.91994         6.45881        -5.58740
|110>    H        2.42252         7.23656        -5.03107
|111>    H        2.64483         5.41502        -7.29746
|112>    H        1.27467         6.15942        -6.78243
|113>    H        3.08317         7.74431        -3.03600
|114>    H        4.99738         8.89379        -1.86598
|115>    H        5.94746         7.88911         0.24547
|116>    H        6.53719         5.53089        -0.15245
|117>    H        6.93287         3.14662        -1.13027
|118>    H        6.76104         0.96398        -2.22713
|119>    H        2.58633         7.98215        -0.25852
|120>    H        4.31967        10.50315        -0.18092
|121>    H        0.98484        12.73852         3.10928
|122>    H       -0.54120        10.76376         2.32489
|123>    H       -1.22950         9.82663         0.33516
|124>    H       -2.34738         7.89116        -0.40437
|125>    H       -1.40492         5.79933        -0.87216
|126>    H        2.49219         2.33550        -0.75094
|127>    H        6.02823         4.67607         2.83051
|128>    H        6.59870         0.79316         1.15493
|129>    H        4.47274         1.00757        -0.11320
|130>    H        3.98437         5.93384         2.36254
|131> *
|132>
|133>                          ****END OF INPUT****

CARTESIAN COORDINATES (ANGSTROEM)
---------------------------------
  C      3.852810   -5.323810    1.880260
  C      2.998300   -5.914670    2.768880
  F      3.156590   -5.692230    4.087270
  C      1.950750   -6.751210    2.361750
  C      1.773430   -6.985620    1.026360
  C      2.623360   -6.399800    0.066440
  C      3.685460   -5.555120    0.501280
  C      4.557490   -4.963350   -0.443110
  C      4.363100   -5.200110   -1.776170
  C      3.288400   -6.030800   -2.205660
  C      2.441790   -6.626430   -1.316860
  C      3.276370   -6.084110   -3.681230
  O      2.535730   -6.721410   -4.395400
  C      4.339480   -5.136630   -4.115510
  C      5.105190   -4.761230   -2.956180
  C      6.391860   -4.279780   -2.951920
  C      7.170090   -4.169930   -4.119290
  N      7.827230   -4.085570   -5.057000
  C      7.073150   -3.864660   -1.793600
  N      7.647630   -3.448550   -0.889850
  C      4.351400   -4.725460   -5.418630
  C      4.942830   -3.600310   -6.024710
  S      5.095760   -3.563730   -7.763530
  C      5.811300   -2.013240   -7.718380
  C      5.903770   -1.507750   -6.460420
  C      5.402330   -2.395060   -5.481700
  O      5.360020   -2.191360   -4.151360
  C      5.466770   -0.943490   -3.602630
  C      4.964220    0.189380   -4.100150
  C      5.072450    1.492140   -3.477230
  C      4.229710    2.498600   -3.880850
  C      4.300580    3.774570   -3.282380
  C      3.587900    4.940590   -3.518960
  C      2.544050    5.122730   -4.568090
  C      1.116390    5.213870   -3.991010
  N      0.944970    6.397500   -3.163610
  C      2.838070    6.337800   -5.487250
  N      2.285100    6.234650   -6.819630
  C      4.098940    5.930070   -2.596050
  C      3.821380    7.237500   -2.433260
  C      4.478480    8.055260   -1.377230
  C      5.479690    7.317150   -0.540910
  C      5.790750    6.026960   -0.756140
  C      5.141890    5.293470   -1.777680
  C      5.275610    3.996390   -2.223340
  C      6.166850    2.958200   -1.867650
  C      6.065320    1.749990   -2.475030
  C      3.409750    8.639750   -0.487210
  C      3.465720    9.870250    0.023690
  C      2.464830   10.460900    0.868160
  S      2.822250   11.906510    1.754660
  C      1.244980   11.958330    2.423080
  C      0.466540   10.933710    1.991700
  C      1.157150   10.078640    1.099950
  O      0.630430    8.948890    0.526160
  C     -0.679630    8.893790    0.281330
  C     -1.318910    7.760120   -0.101250
  C     -0.809420    6.446540   -0.231870
  C      0.312850    5.823020    0.242730
  C      0.708910    4.530010   -0.388510
  O      0.064130    3.896890   -1.197820
  C      2.041470    4.211480    0.148930
  C      2.815500    3.109010   -0.070630
  C      4.031250    2.971390    0.634160
  C      4.458590    4.022200    1.495680
  C      5.680500    3.887250    2.181670
  C      6.409950    2.739700    2.034070
  C      5.988540    1.679950    1.220630
  C      4.817640    1.806750    0.524980
  F      7.574830    2.609230    2.694910
  C      3.641800    5.159990    1.693980
  C      2.431690    5.233860    1.061140
  C      1.313850    6.163330    1.217480
  C      1.172250    7.041320    2.268070
  C     -0.060840    7.593950    2.650340
  N     -1.058730    8.059200    2.978610
  C      2.227200    7.454140    3.103790
  N      3.053050    7.887120    3.773880
  H      4.650940   -4.688180    2.230940
  H      1.308580   -7.190520    3.108490
  H      0.972910   -7.626020    0.687780
  H      5.353520   -4.328880   -0.086290
  H      1.640380   -7.261550   -1.663480
  H      3.745010   -5.336290   -6.081810
  H      6.140340   -1.553280   -8.629040
  H      6.346630   -0.556440   -6.228580
  H      5.954740   -1.004810   -2.639510
  H      4.399020    0.151540   -5.023210
  H      3.497460    2.306510   -4.652890
  H      2.562860    4.225020   -5.199320
  H      0.892600    4.281810   -3.449040
  H      0.411870    5.292050   -4.825050
  H      1.431500    6.266810   -2.282590
  H     -0.038090    6.524210   -2.949780
  H      3.919940    6.458810   -5.587400
  H      2.422520    7.236560   -5.031070
  H      2.644830    5.415020   -7.297460
  H      1.274670    6.159420   -6.782430
  H      3.083170    7.744310   -3.036000
  H      4.997380    8.893790   -1.865980
  H      5.947460    7.889110    0.245470
  H      6.537190    5.530890   -0.152450
  H      6.932870    3.146620   -1.130270
  H      6.761040    0.963980   -2.227130
  H      2.586330    7.982150   -0.258520
  H      4.319670   10.503150   -0.180920
  H      0.984840   12.738520    3.109280
  H     -0.541200   10.763760    2.324890
  H     -1.229500    9.826630    0.335160
  H     -2.347380    7.891160   -0.404370
  H     -1.404920    5.799330   -0.872160
  H      2.492190    2.335500   -0.750940
  H      6.028230    4.676070    2.830510
  H      6.598700    0.793160    1.154930
  H      4.472740    1.007570   -0.113200
  H      3.984370    5.933840    2.362540

 Total Charge           Charge          ....    0
 Multiplicity           Mult            ....    1
 Number of Electrons    NEL             ....  546
 Basis Dimension        Dim             .... 1290

ORBITAL ENERGIES
----------------

  NO   OCC          E(Eh)            E(eV)
   0   2.0000     -88.968906     -2420.9670
   1   2.0000     -88.966532     -2420.9024
   2   2.0000     -24.782235      -674.3589
   3   2.0000     -24.781882      -674.3493
   4   2.0000     -19.309238      -525.4311
   5   2.0000     -19.292220      -524.9680
   6   2.0000     -19.215831      -522.8893
   7   2.0000     -19.208036      -522.6772
   8   2.0000     -14.416926      -392.3045
   9   2.0000     -14.415123      -392.2554
  10   2.0000     -14.413374      -392.2078
  11   2.0000     -14.406715      -392.0267
  12   2.0000     -14.382978      -391.3807
  13   2.0000     -14.372376      -391.0922
  14   2.0000     -10.374560      -282.3061
  15   2.0000     -10.365557      -282.0612
  16   2.0000     -10.365226      -282.0521
  17   2.0000     -10.364854      -282.0420
  18   2.0000     -10.364677      -282.0372
  19   2.0000     -10.358836      -281.8783
  20   2.0000     -10.349342      -281.6199
  21   2.0000     -10.343040      -281.4484
  22   2.0000     -10.340749      -281.3861
  23   2.0000     -10.336210      -281.2626
  24   2.0000     -10.333790      -281.1967
  25   2.0000     -10.329688      -281.0851
  26   2.0000     -10.318786      -280.7884
  27   2.0000     -10.318388      -280.7776
  28   2.0000     -10.317511      -280.7538
  29   2.0000     -10.317488      -280.7531
  30   2.0000     -10.316765      -280.7334
  31   2.0000     -10.316462      -280.7252
  32   2.0000     -10.313316      -280.6396
  33   2.0000     -10.310485      -280.5626
  34   2.0000     -10.308269      -280.5023
  35   2.0000     -10.305244      -280.4199
  36   2.0000     -10.301173      -280.3092
  37   2.0000     -10.300824      -280.2997
  38   2.0000     -10.300628      -280.2943
  39   2.0000     -10.299608      -280.2666
  40   2.0000     -10.297373      -280.2058
  41   2.0000     -10.297347      -280.2051
  42   2.0000     -10.295673      -280.1595
  43   2.0000     -10.295483      -280.1543
  44   2.0000     -10.294657      -280.1319
  45   2.0000     -10.294359      -280.1238
  46   2.0000     -10.294033      -280.1149
  47   2.0000     -10.293848      -280.1098
  48   2.0000     -10.293392      -280.0974
  49   2.0000     -10.292515      -280.0736
  50   2.0000     -10.292297      -280.0676
  51   2.0000     -10.291681      -280.0509
  52   2.0000     -10.289816      -280.0001
  53   2.0000     -10.289805      -279.9998
  54   2.0000     -10.289709      -279.9972
  55   2.0000     -10.289360      -279.9877
  56   2.0000     -10.287488      -279.9368
  57   2.0000     -10.287300      -279.9317
  58   2.0000     -10.285820      -279.8914
  59   2.0000     -10.284709      -279.8612
  60   2.0000     -10.284685      -279.8605
  61   2.0000     -10.284185      -279.8469
  62   2.0000     -10.284124      -279.8452
  63   2.0000     -10.283851      -279.8378
  64   2.0000     -10.283498      -279.8282
  65   2.0000     -10.278496      -279.6921
  66   2.0000     -10.273694      -279.5614
  67   2.0000     -10.272330      -279.5243
  68   2.0000     -10.271741      -279.5083
  69   2.0000     -10.270974      -279.4874
  70   2.0000     -10.270956      -279.4869
  71   2.0000     -10.270423      -279.4724
  72   2.0000     -10.268716      -279.4260
  73   2.0000     -10.263322      -279.2792
  74   2.0000     -10.263274      -279.2779
  75   2.0000     -10.261060      -279.2176
  76   2.0000     -10.260299      -279.1969
  77   2.0000     -10.259575      -279.1772
  78   2.0000      -8.064987      -219.4594
  79   2.0000      -8.062577      -219.3939
  80   2.0000      -6.034339      -164.2027
  81   2.0000      -6.031806      -164.1338
  82   2.0000      -6.030142      -164.0885
  83   2.0000      -6.027633      -164.0202
  84   2.0000      -6.026916      -164.0007
  85   2.0000      -6.024772      -163.9424
  86   2.0000      -1.297088       -35.2956
  87   2.0000      -1.296516       -35.2800
  88   2.0000      -1.216710       -33.1084
  89   2.0000      -1.199334       -32.6355
  90   2.0000      -1.129507       -30.7354
  91   2.0000      -1.123019       -30.5589
  92   2.0000      -1.017570       -27.6895
  93   2.0000      -1.012764       -27.5587
  94   2.0000      -0.998620       -27.1738
  95   2.0000      -0.998322       -27.1657
  96   2.0000      -0.996391       -27.1132
  97   2.0000      -0.994989       -27.0750
  98   2.0000      -0.993859       -27.0443
  99   2.0000      -0.987763       -26.8784
 100   2.0000      -0.984213       -26.7818
 101   2.0000      -0.972743       -26.4697
 102   2.0000      -0.969886       -26.3919
 103   2.0000      -0.965746       -26.2793
 104   2.0000      -0.948287       -25.8042
 105   2.0000      -0.946927       -25.7672
 106   2.0000      -0.929122       -25.2827
 107   2.0000      -0.923004       -25.1162
 108   2.0000      -0.921133       -25.0653
 109   2.0000      -0.916641       -24.9431
 110   2.0000      -0.899745       -24.4833
 111   2.0000      -0.892656       -24.2904
 112   2.0000      -0.888481       -24.1768
 113   2.0000      -0.883429       -24.0393
 114   2.0000      -0.881431       -23.9850
 115   2.0000      -0.879676       -23.9372
 116   2.0000      -0.873827       -23.7780
 117   2.0000      -0.864435       -23.5225
 118   2.0000      -0.857302       -23.3284
 119   2.0000      -0.845766       -23.0145
 120   2.0000      -0.837375       -22.7861
 121   2.0000      -0.833521       -22.6813
 122   2.0000      -0.831522       -22.6269
 123   2.0000      -0.829282       -22.5659
 124   2.0000      -0.827214       -22.5096
 125   2.0000      -0.824816       -22.4444
 126   2.0000      -0.815692       -22.1961
 127   2.0000      -0.795068       -21.6349
 128   2.0000      -0.786434       -21.3999
 129   2.0000      -0.777400       -21.1541
 130   2.0000      -0.759841       -20.6763
 131   2.0000      -0.756295       -20.5798
 132   2.0000      -0.754428       -20.5290
 133   2.0000      -0.745502       -20.2861
 134   2.0000      -0.738466       -20.0947
 135   2.0000      -0.724641       -19.7185
 136   2.0000      -0.721860       -19.6428
 137   2.0000      -0.717028       -19.5113
 138   2.0000      -0.712981       -19.4012
 139   2.0000      -0.704640       -19.1742
 140   2.0000      -0.704228       -19.1630
 141   2.0000      -0.698722       -19.0132
 142   2.0000      -0.695525       -18.9262
 143   2.0000      -0.687706       -18.7134
 144   2.0000      -0.682168       -18.5627
 145   2.0000      -0.681179       -18.5358
 146   2.0000      -0.677442       -18.4341
 147   2.0000      -0.673610       -18.3299
 148   2.0000      -0.669924       -18.2296
 149   2.0000      -0.668210       -18.1829
 150   2.0000      -0.656773       -17.8717
 151   2.0000      -0.654672       -17.8145
 152   2.0000      -0.652157       -17.7461
 153   2.0000      -0.633050       -17.2262
 154   2.0000      -0.631775       -17.1915
 155   2.0000      -0.628759       -17.1094
 156   2.0000      -0.625785       -17.0285
 157   2.0000      -0.623615       -16.9694
 158   2.0000      -0.623024       -16.9533
 159   2.0000      -0.616712       -16.7816
 160   2.0000      -0.612494       -16.6668
 161   2.0000      -0.599361       -16.3094
 162   2.0000      -0.598586       -16.2884
 163   2.0000      -0.594754       -16.1841
 164   2.0000      -0.592788       -16.1306
 165   2.0000      -0.590802       -16.0765
 166   2.0000      -0.586996       -15.9730
 167   2.0000      -0.575700       -15.6656
 168   2.0000      -0.572004       -15.5650
 169   2.0000      -0.568725       -15.4758
 170   2.0000      -0.566208       -15.4073
 171   2.0000      -0.564628       -15.3643
 172   2.0000      -0.562683       -15.3114
 173   2.0000      -0.559270       -15.2185
 174   2.0000      -0.557830       -15.1793
 175   2.0000      -0.555819       -15.1246
 176   2.0000      -0.554755       -15.0956
 177   2.0000      -0.553950       -15.0738
 178   2.0000      -0.550955       -14.9923
 179   2.0000      -0.550461       -14.9788
 180   2.0000      -0.547869       -14.9083
 181   2.0000      -0.545521       -14.8444
 182   2.0000      -0.542829       -14.7711
 183   2.0000      -0.541572       -14.7369
 184   2.0000      -0.540722       -14.7138
 185   2.0000      -0.534575       -14.5465
 186   2.0000      -0.533340       -14.5129
 187   2.0000      -0.532142       -14.4803
 188   2.0000      -0.526813       -14.3353
 189   2.0000      -0.523373       -14.2417
 190   2.0000      -0.520553       -14.1650
 191   2.0000      -0.519387       -14.1333
 192   2.0000      -0.519039       -14.1238
 193   2.0000      -0.518548       -14.1104
 194   2.0000      -0.517040       -14.0694
 195   2.0000      -0.513524       -13.9737
 196   2.0000      -0.510340       -13.8871
 197   2.0000      -0.505567       -13.7572
 198   2.0000      -0.503275       -13.6948
 199   2.0000      -0.500900       -13.6302
 200   2.0000      -0.500240       -13.6122
 201   2.0000      -0.496944       -13.5225
 202   2.0000      -0.494289       -13.4503
 203   2.0000      -0.492466       -13.4007
 204   2.0000      -0.492012       -13.3883
 205   2.0000      -0.487960       -13.2781
 206   2.0000      -0.486800       -13.2465
 207   2.0000      -0.483429       -13.1548
 208   2.0000      -0.481833       -13.1113
 209   2.0000      -0.479221       -13.0403
 210   2.0000      -0.477782       -13.0011
 211   2.0000      -0.475780       -12.9466
 212   2.0000      -0.474751       -12.9186
 213   2.0000      -0.472734       -12.8638
 214   2.0000      -0.470303       -12.7976
 215   2.0000      -0.467096       -12.7103
 216   2.0000      -0.463112       -12.6019
 217   2.0000      -0.460669       -12.5354
 218   2.0000      -0.457627       -12.4527
 219   2.0000      -0.456108       -12.4113
 220   2.0000      -0.452750       -12.3199
 221   2.0000      -0.452391       -12.3102
 222   2.0000      -0.451494       -12.2858
 223   2.0000      -0.449834       -12.2406
 224   2.0000      -0.446638       -12.1536
 225   2.0000      -0.445347       -12.1185
 226   2.0000      -0.441431       -12.0119
 227   2.0000      -0.439094       -11.9483
 228   2.0000      -0.438572       -11.9341
 229   2.0000      -0.437840       -11.9142
 230   2.0000      -0.436399       -11.8750
 231   2.0000      -0.435567       -11.8524
 232   2.0000      -0.433657       -11.8004
 233   2.0000      -0.433461       -11.7951
 234   2.0000      -0.432497       -11.7689
 235   2.0000      -0.427423       -11.6308
 236   2.0000      -0.426147       -11.5961
 237   2.0000      -0.424231       -11.5439
 238   2.0000      -0.422802       -11.5050
 239   2.0000      -0.421450       -11.4682
 240   2.0000      -0.418513       -11.3883
 241   2.0000      -0.416878       -11.3438
 242   2.0000      -0.415275       -11.3002
 243   2.0000      -0.413770       -11.2593
 244   2.0000      -0.410064       -11.1584
 245   2.0000      -0.405829       -11.0432
 246   2.0000      -0.400875       -10.9084
 247   2.0000      -0.394804       -10.7432
 248   2.0000      -0.393078       -10.6962
 249   2.0000      -0.388650       -10.5757
 250   2.0000      -0.381673       -10.3858
 251   2.0000      -0.379830       -10.3357
 252   2.0000      -0.376548       -10.2464
 253   2.0000      -0.367491        -9.9999
 254   2.0000      -0.366934        -9.9848
 255   2.0000      -0.359247        -9.7756
 256   2.0000      -0.353646        -9.6232
 257   2.0000      -0.338697        -9.2164
 258   2.0000      -0.331390        -9.0176
 259   2.0000      -0.331036        -9.0080
 260   2.0000      -0.328543        -8.9401
 261   2.0000      -0.322494        -8.7755
 262   2.0000      -0.312594        -8.5061
 263   2.0000      -0.307791        -8.3754
 264   2.0000      -0.305134        -8.3031
 265   2.0000      -0.301511        -8.2045
 266   2.0000      -0.296987        -8.0814
 267   2.0000      -0.294829        -8.0227
 268   2.0000      -0.291005        -7.9187
 269   2.0000      -0.286711        -7.8018
 270   2.0000      -0.280289        -7.6270
 271   2.0000      -0.276312        -7.5188
 272   2.0000      -0.222005        -6.0411
 273   0.0000      -0.085651        -2.3307
 274   0.0000      -0.081871        -2.2278
 275   0.0000      -0.067224        -1.8293
 276   0.0000      -0.057112        -1.5541
 277   0.0000      -0.049992        -1.3603

MULLIKEN ATOMIC CHARGES
-----------------------
   0 C :   -0.101318
   1 C :    0.303331
   2 F :   -0.192513
   3 C :   -0.030023
   4 C :   -0.010324
   5 C :    0.098003
   6 C :    0.105259
   7 C :   -0.099353
   8 C :    0.055660
   9 C :    0.009647
  10 C :   -0.080617
  11 C :    0.133048
  12 O :   -0.146207
  13 C :   -0.140337
  14 C :    0.281297
  15 C :   -0.319559
  16 C :   -0.214467
  17 N :    0.168781
  18 C :   -0.179163
  19 N :    0.134140
  20 C :    0.080308
  21 C :   -0.192098
  22 S :    0.154050
  23 C :   -0.024212
  24 C :   -0.031904
  25 C :    0.247097
  26 O :   -0.250286
  27 C :    0.142959
  28 C :   -0.022853
  29 C :    0.106971
  30 C :   -0.117737
  31 C :    0.056860
  32 C :   -0.049765
  33 C :   -0.015290
  34 C :    0.125509
  35 N :   -0.245656
  36 C :    0.110184
  37 N :   -0.204000
  38 C :    0.082755
  39 C :   -0.165999
  40 C :    0.151283
  41 C :   -0.024581
  42 C :    0.039115
  43 C :   -0.002023
  44 C :    0.027563
  45 C :    0.039669
  46 C :   -0.051861
  47 C :   -0.081016
  48 C :    0.071490
  49 C :   -0.143481
  50 S :    0.145146
  51 C :   -0.056809
  52 C :   -0.003638
  53 C :    0.180693
  54 O :   -0.242318
  55 C :    0.171746
  56 C :   -0.009453
  57 C :   -0.000152
  58 C :   -0.112189
  59 C :    0.110534
  60 O :   -0.153826
  61 C :    0.021632
  62 C :   -0.064304
  63 C :    0.085944
  64 C :    0.106581
  65 C :   -0.115423
  66 C :    0.308360
  67 C :   -0.064348
  68 C :    0.042400
  69 F :   -0.190229
  70 C :   -0.089117
  71 C :    0.052995
  72 C :    0.289182
  73 C :   -0.331530
  74 C :   -0.212026
  75 N :    0.153316
  76 C :   -0.164333
  77 N :    0.144174
  78 H :   -0.004953
  79 H :    0.001840
  80 H :   -0.010390
  81 H :   -0.012272
  82 H :   -0.013351
  83 H :    0.021766
  84 H :    0.043271
  85 H :    0.016967
  86 H :    0.023299
  87 H :    0.010740
  88 H :   -0.042727
  89 H :   -0.049548
  90 H :    0.012274
  91 H :   -0.026093
  92 H :    0.118205
  93 H :    0.098562
  94 H :    0.003720
  95 H :    0.017386
  96 H :    0.085053
  97 H :    0.083013
  98 H :    0.015686
  99 H :    0.034229
 100 H :   -0.012828
 101 H :   -0.036425
 102 H :   -0.034320
 103 H :   -0.029177
 104 H :    0.024308
 105 H :   -0.017670
 106 H :    0.038133
 107 H :    0.008997
 108 H :    0.037141
 109 H :    0.016199
 110 H :    0.029880
 111 H :   -0.015189
 112 H :   -0.007601
 113 H :    0.003525
 114 H :   -0.010609
 115 H :   -0.012382
Sum of atomic charges:   -0.0000000

LOEWDIN ATOMIC CHARGES
----------------------
   0 C :   -0.044795
   1 C :    0.092683
   2 F :   -0.066834
   3 C :   -0.039801
   4 C :    0.004530
   5 C :   -0.021118
   6 C :    0.003497
   7 C :    0.002256
   8 C :   -0.013296
   9 C :   -0.060310
  10 C :    0.033901
  11 C :    0.083353
  12 O :   -0.147713
  13 C :   -0.096357
  14 C :    0.063444
  15 C :   -0.139570
  16 C :   -0.021532
  17 N :   -0.055596
  18 C :   -0.018152
  19 N :   -0.067354
  20 C :    0.048370
  21 C :   -0.211868
  22 S :    0.463443
  23 C :   -0.143166
  24 C :   -0.083409
  25 C :    0.050046
  26 O :   -0.013313
  27 C :    0.054800
  28 C :   -0.053601
  29 C :   -0.031047
  30 C :   -0.020829
  31 C :   -0.023862
  32 C :   -0.037998
  33 C :   -0.054162
  34 C :    0.026604
  35 N :   -0.105454
  36 C :    0.020205
  37 N :   -0.106187
  38 C :   -0.024937
  39 C :    0.069237
  40 C :   -0.029410
  41 C :   -0.026933
  42 C :   -0.017780
  43 C :   -0.032278
  44 C :   -0.037258
  45 C :    0.004900
  46 C :   -0.038803
  47 C :   -0.000079
  48 C :   -0.048923
  49 C :   -0.191739
  50 S :    0.462730
  51 C :   -0.172343
  52 C :   -0.081654
  53 C :    0.000411
  54 O :    0.005111
  55 C :    0.118393
  56 C :   -0.093593
  57 C :    0.057254
  58 C :   -0.098405
  59 C :    0.081111
  60 O :   -0.147855
  61 C :   -0.065149
  62 C :    0.047279
  63 C :   -0.018486
  64 C :    0.006933
  65 C :   -0.050504
  66 C :    0.090373
  67 C :   -0.044678
  68 C :    0.018708
  69 F :   -0.065719
  70 C :    0.012619
  71 C :   -0.019664
  72 C :    0.057517
  73 C :   -0.137371
  74 C :   -0.012125
  75 N :   -0.064662
  76 C :   -0.018942
  77 N :   -0.053625
  78 H :    0.041779
  79 H :    0.041177
  80 H :    0.035182
  81 H :    0.036505
  82 H :    0.038962
  83 H :    0.045611
  84 H :    0.032214
  85 H :    0.040318
  86 H :    0.025294
  87 H :    0.035912
  88 H :    0.022424
  89 H :    0.019379
  90 H :    0.005423
  91 H :    0.007434
  92 H :    0.044163
  93 H :    0.054212
  94 H :    0.016791
  95 H :    0.017970
  96 H :    0.048564
  97 H :    0.047020
  98 H :    0.033438
  99 H :    0.059024
 100 H :    0.024730
 101 H :    0.028465
 102 H :    0.027563
 103 H :    0.023471
 104 H :    0.024059
 105 H :    0.027944
 106 H :    0.029088
 107 H :    0.037326
 108 H :    0.033356
 109 H :    0.046346
 110 H :    0.044623
 111 H :    0.039978
 112 H :    0.040963
 113 H :    0.041862
 114 H :    0.034735
 115 H :    0.037225

  Mayer bond orders larger than 0.100000
B(  0-C ,  1-C ) :   1.4406 B(  0-C ,  6-C ) :   1.2042 B(  0-C , 78-H ) :   1.0061
B(  1-C ,  2-F ) :   1.0867 B(  1-C ,  3-C ) :   1.2558 B(  3-C ,  4-C ) :   1.4598
B(  3-C , 79-H ) :   0.9929 B(  4-C ,  5-C ) :   1.2356 B(  4-C , 80-H ) :   0.9967
B(  5-C ,  6-C ) :   1.2600 B(  5-C , 10-C ) :   1.1887 B(  6-C ,  7-C ) :   1.1970
B(  7-C ,  8-C ) :   1.4667 B(  7-C , 81-H ) :   0.9940 B(  8-C ,  9-C ) :   1.2166
B(  8-C , 14-C ) :   0.9995 B(  9-C , 10-C ) :   1.4739 B(  9-C , 11-C ) :   0.9206
B( 10-C , 82-H ) :   1.0153 B( 11-C , 12-O ) :   2.2660 B( 11-C , 13-C ) :   0.9440
B( 13-C , 14-C ) :   1.0753 B( 13-C , 20-C ) :   1.6325 B( 14-C , 15-C ) :   1.6186
B( 15-C , 16-C ) :   1.1687 B( 15-C , 18-C ) :   1.1500 B( 16-C , 17-N ) :   3.0110
B( 18-C , 19-N ) :   2.9536 B( 20-C , 21-C ) :   1.1866 B( 20-C , 83-H ) :   0.9235
B( 21-C , 22-S ) :   1.1122 B( 21-C , 25-C ) :   1.4062 B( 22-S , 23-C ) :   1.1932
B( 23-C , 24-C ) :   1.5387 B( 23-C , 84-H ) :   0.9673 B( 24-C , 25-C ) :   1.2423
B( 24-C , 85-H ) :   0.9929 B( 25-C , 26-O ) :   1.1207 B( 26-O , 27-C ) :   1.0017
B( 27-C , 28-C ) :   1.7451 B( 27-C , 86-H ) :   0.9808 B( 28-C , 29-C ) :   1.0697
B( 28-C , 87-H ) :   0.9658 B( 29-C , 30-C ) :   1.5243 B( 29-C , 46-C ) :   1.1237
B( 30-C , 31-C ) :   1.1142 B( 30-C , 88-H ) :   1.0014 B( 31-C , 32-C ) :   1.5064
B( 31-C , 44-C ) :   1.1251 B( 32-C , 33-C ) :   1.0203 B( 32-C , 38-C ) :   1.0824
B( 33-C , 34-C ) :   1.0273 B( 33-C , 36-C ) :   0.9985 B( 33-C , 89-H ) :   0.8735
B( 34-C , 35-N ) :   1.0967 B( 34-C , 90-H ) :   0.9281 B( 34-C , 91-H ) :   0.9325
B( 35-N , 92-H ) :   0.9541 B( 35-N , 93-H ) :   0.9662 B( 36-C , 37-N ) :   1.1249
B( 36-C , 94-H ) :   0.9577 B( 36-C , 95-H ) :   0.9333 B( 37-N , 96-H ) :   0.9786
B( 37-N , 97-H ) :   0.9810 B( 38-C , 39-C ) :   1.6288 B( 38-C , 43-C ) :   1.0593
B( 39-C , 40-C ) :   0.9486 B( 39-C , 98-H ) :   0.9704 B( 40-C , 41-C ) :   0.9962
B( 40-C , 47-C ) :   0.9501 B( 40-C , 99-H ) :   0.8693 B( 41-C , 42-C ) :   1.7003
B( 41-C ,100-H ) :   0.9723 B( 42-C , 43-C ) :   1.1431 B( 42-C ,101-H ) :   0.9835
B( 43-C , 44-C ) :   1.4292 B( 44-C , 45-C ) :   1.1645 B( 45-C , 46-C ) :   1.5865
B( 45-C ,102-H ) :   0.9850 B( 46-C ,103-H ) :   0.9853 B( 47-C , 48-C ) :   1.8284
B( 47-C ,104-H ) :   0.9742 B( 48-C , 49-C ) :   1.0808 B( 48-C ,105-H ) :   0.9536
B( 49-C , 50-S ) :   1.1470 B( 49-C , 53-C ) :   1.5255 B( 50-S , 51-C ) :   1.1781
B( 51-C , 52-C ) :   1.5527 B( 51-C ,106-H ) :   0.9683 B( 52-C , 53-C ) :   1.2389
B( 52-C ,107-H ) :   0.9899 B( 53-C , 54-O ) :   0.9883 B( 54-O , 55-C ) :   1.1498
B( 55-C , 56-C ) :   1.6482 B( 55-C ,108-H ) :   0.9446 B( 56-C , 57-C ) :   1.2019
B( 56-C ,109-H ) :   0.9413 B( 57-C , 58-C ) :   1.6152 B( 57-C ,110-H ) :   0.9207
B( 58-C , 59-C ) :   0.9474 B( 58-C , 72-C ) :   1.0782 B( 59-C , 60-O ) :   2.1996
B( 59-C , 61-C ) :   0.9283 B( 61-C , 62-C ) :   1.4640 B( 61-C , 71-C ) :   1.2178
B( 62-C , 63-C ) :   1.1810 B( 62-C ,111-H ) :   1.0172 B( 63-C , 64-C ) :   1.2730
B( 63-C , 68-C ) :   1.2536 B( 64-C , 65-C ) :   1.2006 B( 64-C , 70-C ) :   1.1835
B( 65-C , 66-C ) :   1.4205 B( 65-C ,112-H ) :   1.0090 B( 66-C , 67-C ) :   1.2524
B( 66-C , 69-F ) :   1.0915 B( 67-C , 68-C ) :   1.4423 B( 67-C ,113-H ) :   1.0003
B( 68-C ,114-H ) :   0.9875 B( 70-C , 71-C ) :   1.4621 B( 70-C ,115-H ) :   0.9953
B( 71-C , 72-C ) :   1.0021 B( 72-C , 73-C ) :   1.5946 B( 73-C , 74-C ) :   1.1985
B( 73-C , 76-C ) :   1.1349 B( 74-C , 75-N ) :   2.9411 B( 76-C , 77-N ) :   2.9640

-----------------------------------------------------------------------------
         ABSORPTION SPECTRUM VIA TRANSITION ELECTRIC DIPOLE MOMENTS
-----------------------------------------------------------------------------
State   Energy  Wavelength   fosc         T2         TX        TY        TZ
        (cm-1)    (nm)                  (au**2)     (au)      (au)      (au)
-----------------------------------------------------------------------------
   0   13450.6    743.5   0.001252536   0.03066   0.10715  -0.06327   0.12318
   1   14847.6    673.5   0.051269082   1.13678   0.73054  -0.07698   0.77277
   2   17818.0    561.2   0.010622526   0.19627   0.18974   0.25354  -0.30981
   3   18406.4    543.3   0.081715230   1.46153  -0.06104   1.20530   0.07115
   4   22674.8    441.0   0.050758789   0.73696   0.06735  -0.77427   0.36459
   5   25018.8    399.7   0.450406697   5.92672   0.20601  -1.91301   1.49153
   6   25434.4    393.2   0.040354316   0.52233  -0.04326   0.67937  -0.24274
   7   26316.3    380.0   0.018111895   0.22658   0.08462   0.46501   0.05639
   8   26731.2    374.1   0.009436521   0.11622  -0.26670   0.17060   0.12642
   9   27074.8    369.3   0.017570497   0.21365  -0.13585  -0.07467  -0.43545
  10   27428.1    364.6   0.127187839   1.52660   0.78569  -0.90661   0.29556
  11   28023.8    356.8   0.009945081   0.11683  -0.17631   0.19896  -0.21485
  12   28229.8    354.2   0.066285937   0.77302  -0.49881  -0.26033  -0.67560
  13   28965.2    345.2   0.065896218   0.74896   0.07381  -0.41124  -0.75789
  14   29023.4    344.5   0.037998837   0.43102  -0.24869   0.58213   0.17406
  15   29106.7    343.6   0.120838415   1.36675   0.01832   0.60113   1.00252
  16   29182.0    342.7   0.064728094   0.73022  -0.19763  -0.19983  -0.80699
  17   29431.8    339.8   0.060767026   0.67971  -0.15043   0.08196   0.80645
  18   29907.3    334.4   0.026467275   0.29135  -0.32011  -0.24179  -0.36113
  19   30046.0    332.8   0.100551635   1.10174  -0.44176   0.75079  -0.58558
  20   30433.7    328.6   0.123638250   1.33744   0.32286  -1.11001   0.03277
  21   30675.3    326.0   0.019818560   0.21270  -0.23834   0.22116  -0.32708
  22   30880.1    323.8   0.015981377   0.17038   0.00985  -0.20953   0.35550
  23   31139.4    321.1   0.062464007   0.66038  -0.08723   0.76593   0.25714
  24   31895.7    313.5   0.164635768   1.69929   0.68945  -0.97490  -0.52299
  25   32015.3    312.4   0.038813450   0.39912   0.31426  -0.11142  -0.53661
  26   32143.3    311.1   0.283032850   2.89883  -0.84607  -1.17722   0.89283
  27   32426.2    308.4   0.003332757   0.03384   0.09933   0.15064  -0.03572
  28   32771.8    305.1   0.311837631   3.13260   0.10181  -1.72544  -0.38089
  29   32972.9    303.3   0.016645522   0.16619  -0.02635  -0.40552   0.03243
  30   33432.2    299.1   0.360290849   3.54784  -1.03163  -1.25799   0.94923
  31   33672.2    297.0   0.153423944   1.50002  -0.74354   0.97317  -0.01065
  32   34102.5    293.2   0.086167510   0.83183   0.52602  -0.68518   0.29267
  33   34303.4    291.5   0.256878134   2.46527  -0.84625   1.01317   0.85008
  34   34322.2    291.4   0.191401260   1.83588   0.91408   0.22590  -0.97433
  35   34392.3    290.8   0.024274769   0.23236  -0.21690  -0.14625   0.40488
  36   34602.7    289.0   0.106582562   1.01403   0.49582  -0.66344  -0.57276
  37   35129.0    284.7   0.261929169   2.45467   0.76655   0.06280  -1.36496
  38   35245.4    283.7   0.017033314   0.15910  -0.39277  -0.04453   0.05335
  39   35598.8    280.9   0.044015213   0.40705  -0.02006  -0.31345   0.55533
  40   35649.7    280.5   0.299963219   2.77005   0.95542   0.71655  -1.15922
  41   35893.5    278.6   0.207394888   1.90220  -0.04772  -0.85074  -1.08451
  42   36076.3    277.2   0.457310393   4.17316  -1.20942   1.64411   0.08576
  43   36100.0    277.0   0.084413238   0.76980  -0.85622  -0.04464  -0.18627
  44   36120.6    276.9   0.157776007   1.43801   0.81194  -0.84632  -0.25002
  45   36526.1    273.8   0.018237941   0.16438  -0.01932   0.38881  -0.11327
  46   36636.7    273.0   0.097274942   0.87410   0.29645  -0.76981  -0.44000
  47   36782.7    271.9   0.046395953   0.41525  -0.22236   0.60478   0.00656
  48   36962.1    270.5   0.017406124   0.15503   0.06538  -0.27362  -0.27548
  49   37075.0    269.7   0.067610710   0.60036   0.29322   0.47403  -0.53822
  50   37416.5    267.3   0.191698619   1.68668   0.39640  -1.17502  -0.38584
  51   37455.3    267.0   0.119571981   1.05097   0.91066   0.44867   0.14272
  52   37876.9    264.0   0.012094480   0.10512   0.05462  -0.29173  -0.13049
  53   38383.9    260.5   0.028985911   0.24861  -0.36592   0.18601  -0.28303
  54   39074.6    255.9   0.003452469   0.02909   0.04344  -0.10609  -0.12628
  55   39208.7    255.0   0.006133631   0.05150  -0.08394   0.08345  -0.19362
  56   39348.6    254.1   0.076648650   0.64128  -0.24039   0.11921   0.75451
  57   39446.9    253.5   0.005541322   0.04625  -0.09303   0.17571   0.08196
  58   39516.1    253.1   0.090160658   0.75114  -0.28388   0.74334   0.34349
  59   39631.7    252.3   0.075522741   0.62735   0.08751  -0.77369   0.14525
  60   40258.9    248.4   0.085034068   0.69536  -0.51812  -0.49818  -0.42276
  61   40274.9    248.3   0.211955001   1.73255   0.96096  -0.86994  -0.22871

FINAL SINGLE POINT ENERGY     -4082.580533205483

DIPOLE MOMENT
-------------
                                X             Y             Z
Electronic contribution:     16.09448     -48.61478      30.43787
Nuclear contribution   :    -17.86143      50.42761     -31.33460
                        -----------------------------------------
Total Dipole Moment    :     -1.76695       1.81282      -0.89673
                        -----------------------------------------
Magnitude (a.u.)       :      2.68562
Magnitude (Debye)      :      6.82631

Rotational constants in cm-1:     0.001381     0.000414     0.000371
Rotational constants in MHz :    41.403952    12.417345    11.114410

                             ****ORCA TERMINATED NORMALLY****
TOTAL RUN TIME: 0 days 0 hours 14 minutes 47 seconds 342 msec
