                         Program Version 4.2.0 -  RELEASE  -
|  1> # ORCA input file
|  2> # SCF done       -199.787232743146          0.000530057737
|  3> ! CAM-B3LYP def2-SVP def2/J RIJCOSX Grid4 TightSCF
|  4> %maxcore 5000
|  5> %tddft
|  6>     Mode sTDDFT
|  7>     Ethresh 5.0
|  8>     maxcore 5000
|  9> end
| 10>
| 11> %pal
| 12>   nprocs 6
| 13>   end
| 14> * xyz 0 1
| 15>    C       12.79821         7.43044       -13.55011
| 16>    C       12.52730         8.21251       -14.63907
| 17>    F       13.51517         8.92632       -15.20209
| 18>    C       11.24546         8.30175       -15.20109
| 19>    C       10.22671         7.58170       -14.64298
| 20>    C       10.45037         6.75768       -13.51992
| 21>    C       11.76111         6.68193       -12.96130
| 22>    C       12.00855         5.86955       -11.82993
| 23>    C       10.97960         5.15584       -11.27781
| 24>    C        9.67522         5.22039       -11.85303
| 25>    C        9.40765         6.00255       -12.94190
| 26>    C        8.76768         4.33460       -11.11139
| 27>    O        7.58423         4.15577       -11.26734
| 28>    C        9.64944         3.60868       -10.13515
| 29>    C       10.93225         4.28422       -10.10633
| 30>    C       11.81689         4.29560        -9.06558
| 31>    C       11.57051         3.67996        -7.81756
| 32>    N       11.37426         3.32467        -6.74374
| 33>    C       13.01295         5.04537        -9.06944
| 34>    N       13.99502         5.63683        -9.03721
| 35>    C        9.20445         2.44018        -9.60748
| 36>    C        9.97431         1.42824        -8.97362
| 37>    N       11.29524         1.48466        -8.90594
| 38>    C       11.68150         0.42469        -8.16947
| 39>    C       10.51803        -0.35171        -7.71704
| 40>    C       10.94512        -1.49994        -6.89132
| 41>    O       10.26209        -2.34785        -6.37099
| 42>    C       12.41581        -1.34687        -6.87872
| 43>    C       12.81841        -0.16452        -7.68135
| 44>    N       14.16749        -0.03462        -7.69817
| 45>    C       14.61592        -1.02856        -6.97522
| 46>    C       13.57446        -1.89248        -6.43836
| 47>    C        9.41795         0.24332        -8.27099
| 48>    C        8.05910        -0.19087        -8.18008
| 49>    C        7.14357        -0.09698        -9.16915
| 50>    C        5.81879        -0.59153        -9.03249
| 51>    N        5.29172        -1.06199        -7.94074
| 52>    C        4.03955        -1.45994        -8.14124
| 53>    C        3.54281        -1.30471        -9.46301
| 54>    S        4.74635        -0.60411       -10.46086
| 55>    N        2.30496        -1.71858        -9.67607
| 56>    C        1.77852        -2.19333        -8.57739
| 57>    S        2.83431        -2.15461        -7.14552
| 58>    C        0.48015        -2.73550        -8.45098
| 59>    N        0.04187        -3.15003        -7.27253
| 60>    C       -1.20052        -3.62295        -7.48983
| 61>    C       -1.56694        -3.52746        -8.91238
| 62>    C       -2.92833        -4.05097        -9.12803
| 63>    O       -3.53474        -4.17622       -10.17108
| 64>    C       -3.35675        -4.40694        -7.76588
| 65>    C       -2.26592        -4.14561        -6.79801
| 66>    N       -2.65617        -4.46668        -5.54174
| 67>    C       -3.89089        -4.88839        -5.66279
| 68>    C       -4.39384        -4.87074        -7.02440
| 69>    C       -0.49977        -2.93614        -9.54436
| 70>    C       -0.31585        -2.55619       -10.90175
| 71>    C       -1.24947        -2.81639       -11.84945
| 72>    C       -1.12185        -2.42959       -13.20654
| 73>    C       -2.11722        -2.49370       -14.13069
| 74>    C       -1.81385        -2.47251       -15.58871
| 75>    O       -0.78547        -2.10911       -16.11073
| 76>    C       -3.00730        -3.05467       -16.23203
| 77>    C       -3.19689        -3.38631       -17.54297
| 78>    C       -4.41798        -3.97788       -17.93502
| 79>    C       -5.42392        -4.21917       -16.95380
| 80>    C       -6.63442        -4.82012       -17.35064
| 81>    C       -6.81850        -5.15625       -18.66291
| 82>    C       -5.84263        -4.92572       -19.64248
| 83>    C       -4.66185        -4.34333       -19.27504
| 84>    F       -7.97349        -5.73114       -19.04367
| 85>    C       -5.20458        -3.85711       -15.60420
| 86>    C       -4.01625        -3.27839       -15.24929
| 87>    C       -3.52896        -2.78341       -13.96439
| 88>    C       -4.30376        -2.45227       -12.88655
| 89>    C       -3.84743        -1.69232       -11.78620
| 90>    N       -3.55144        -1.00856       -10.91369
| 91>    C       -5.68707        -2.71977       -12.80952
| 92>    N       -6.81197        -2.92086       -12.70644
| 93>    H       13.79614         7.38926       -13.14254
| 94>    H       11.09233         8.93549       -16.06008
| 95>    H        9.23136         7.63412       -15.05749
| 96>    H       13.01010         5.82357       -11.43285
| 97>    H        8.41155         6.04204       -13.35663
| 98>    H        8.14773         2.24548        -9.74353
| 99>    H       15.67360        -1.15404        -6.82058
|100>    H       13.73843        -2.75870        -5.82881
|101>    H        7.78256        -0.70639        -7.26954
|102>    H        7.39054         0.30521       -10.14139
|103>    H       -4.44148        -5.21160        -4.79640
|104>    H       -5.37666        -5.16951        -7.33068
|105>    H        0.58753        -2.01346       -11.14064
|106>    H       -2.13603        -3.36769       -11.56731
|107>    H       -0.14488        -2.12519       -13.56573
|108>    H       -2.42209        -3.20268       -18.27227
|109>    H       -7.40905        -5.00993       -16.62423
|110>    H       -6.04431        -5.21282       -20.66226
|111>    H       -3.89464        -4.15579       -20.01113
|112>    H       -5.97793        -4.05823       -14.87986
|113> *
|114>
|115>                          ****END OF INPUT****

CARTESIAN COORDINATES (ANGSTROEM)
---------------------------------
  C     12.798210    7.430440  -13.550110
  C     12.527300    8.212510  -14.639070
  F     13.515170    8.926320  -15.202090
  C     11.245460    8.301750  -15.201090
  C     10.226710    7.581700  -14.642980
  C     10.450370    6.757680  -13.519920
  C     11.761110    6.681930  -12.961300
  C     12.008550    5.869550  -11.829930
  C     10.979600    5.155840  -11.277810
  C      9.675220    5.220390  -11.853030
  C      9.407650    6.002550  -12.941900
  C      8.767680    4.334600  -11.111390
  O      7.584230    4.155770  -11.267340
  C      9.649440    3.608680  -10.135150
  C     10.932250    4.284220  -10.106330
  C     11.816890    4.295600   -9.065580
  C     11.570510    3.679960   -7.817560
  N     11.374260    3.324670   -6.743740
  C     13.012950    5.045370   -9.069440
  N     13.995020    5.636830   -9.037210
  C      9.204450    2.440180   -9.607480
  C      9.974310    1.428240   -8.973620
  N     11.295240    1.484660   -8.905940
  C     11.681500    0.424690   -8.169470
  C     10.518030   -0.351710   -7.717040
  C     10.945120   -1.499940   -6.891320
  O     10.262090   -2.347850   -6.370990
  C     12.415810   -1.346870   -6.878720
  C     12.818410   -0.164520   -7.681350
  N     14.167490   -0.034620   -7.698170
  C     14.615920   -1.028560   -6.975220
  C     13.574460   -1.892480   -6.438360
  C      9.417950    0.243320   -8.270990
  C      8.059100   -0.190870   -8.180080
  C      7.143570   -0.096980   -9.169150
  C      5.818790   -0.591530   -9.032490
  N      5.291720   -1.061990   -7.940740
  C      4.039550   -1.459940   -8.141240
  C      3.542810   -1.304710   -9.463010
  S      4.746350   -0.604110  -10.460860
  N      2.304960   -1.718580   -9.676070
  C      1.778520   -2.193330   -8.577390
  S      2.834310   -2.154610   -7.145520
  C      0.480150   -2.735500   -8.450980
  N      0.041870   -3.150030   -7.272530
  C     -1.200520   -3.622950   -7.489830
  C     -1.566940   -3.527460   -8.912380
  C     -2.928330   -4.050970   -9.128030
  O     -3.534740   -4.176220  -10.171080
  C     -3.356750   -4.406940   -7.765880
  C     -2.265920   -4.145610   -6.798010
  N     -2.656170   -4.466680   -5.541740
  C     -3.890890   -4.888390   -5.662790
  C     -4.393840   -4.870740   -7.024400
  C     -0.499770   -2.936140   -9.544360
  C     -0.315850   -2.556190  -10.901750
  C     -1.249470   -2.816390  -11.849450
  C     -1.121850   -2.429590  -13.206540
  C     -2.117220   -2.493700  -14.130690
  C     -1.813850   -2.472510  -15.588710
  O     -0.785470   -2.109110  -16.110730
  C     -3.007300   -3.054670  -16.232030
  C     -3.196890   -3.386310  -17.542970
  C     -4.417980   -3.977880  -17.935020
  C     -5.423920   -4.219170  -16.953800
  C     -6.634420   -4.820120  -17.350640
  C     -6.818500   -5.156250  -18.662910
  C     -5.842630   -4.925720  -19.642480
  C     -4.661850   -4.343330  -19.275040
  F     -7.973490   -5.731140  -19.043670
  C     -5.204580   -3.857110  -15.604200
  C     -4.016250   -3.278390  -15.249290
  C     -3.528960   -2.783410  -13.964390
  C     -4.303760   -2.452270  -12.886550
  C     -3.847430   -1.692320  -11.786200
  N     -3.551440   -1.008560  -10.913690
  C     -5.687070   -2.719770  -12.809520
  N     -6.811970   -2.920860  -12.706440
  H     13.796140    7.389260  -13.142540
  H     11.092330    8.935490  -16.060080
  H      9.231360    7.634120  -15.057490
  H     13.010100    5.823570  -11.432850
  H      8.411550    6.042040  -13.356630
  H      8.147730    2.245480   -9.743530
  H     15.673600   -1.154040   -6.820580
  H     13.738430   -2.758700   -5.828810
  H      7.782560   -0.706390   -7.269540
  H      7.390540    0.305210  -10.141390
  H     -4.441480   -5.211600   -4.796400
  H     -5.376660   -5.169510   -7.330680
  H      0.587530   -2.013460  -11.140640
  H     -2.136030   -3.367690  -11.567310
  H     -0.144880   -2.125190  -13.565730
  H     -2.422090   -3.202680  -18.272270
  H     -7.409050   -5.009930  -16.624230
  H     -6.044310   -5.212820  -20.662260
  H     -3.894640   -4.155790  -20.011130
  H     -5.977930   -4.058230  -14.879860

 Total Charge           Charge          ....    0
 Multiplicity           Mult            ....    1
 Number of Electrons    NEL             ....  532
 Basis Dimension        Dim             .... 1200

ORBITAL ENERGIES
----------------

  NO   OCC          E(Eh)            E(eV)
   0   2.0000     -88.987539     -2421.4740
   1   2.0000     -88.985756     -2421.4255
   2   2.0000     -24.794578      -674.6948
   3   2.0000     -24.783559      -674.3949
   4   2.0000     -19.235073      -523.4129
   5   2.0000     -19.222247      -523.0639
   6   2.0000     -19.219302      -522.9838
   7   2.0000     -19.211225      -522.7640
   8   2.0000     -14.450606      -393.2210
   9   2.0000     -14.438722      -392.8976
  10   2.0000     -14.432629      -392.7318
  11   2.0000     -14.428387      -392.6164
  12   2.0000     -14.421563      -392.4307
  13   2.0000     -14.421421      -392.4268
  14   2.0000     -14.420121      -392.3914
  15   2.0000     -14.411091      -392.1457
  16   2.0000     -14.410339      -392.1253
  17   2.0000     -14.406395      -392.0179
  18   2.0000     -10.384587      -282.5790
  19   2.0000     -10.383251      -282.5426
  20   2.0000     -10.379280      -282.4346
  21   2.0000     -10.378680      -282.4182
  22   2.0000     -10.367951      -282.1263
  23   2.0000     -10.366997      -282.1003
  24   2.0000     -10.362486      -281.9776
  25   2.0000     -10.361303      -281.9454
  26   2.0000     -10.360946      -281.9357
  27   2.0000     -10.360459      -281.9224
  28   2.0000     -10.354823      -281.7691
  29   2.0000     -10.352879      -281.7162
  30   2.0000     -10.351185      -281.6701
  31   2.0000     -10.349506      -281.6244
  32   2.0000     -10.346396      -281.5397
  33   2.0000     -10.343087      -281.4497
  34   2.0000     -10.342331      -281.4291
  35   2.0000     -10.340682      -281.3843
  36   2.0000     -10.339432      -281.3502
  37   2.0000     -10.335309      -281.2380
  38   2.0000     -10.330731      -281.1135
  39   2.0000     -10.330415      -281.1049
  40   2.0000     -10.329934      -281.0918
  41   2.0000     -10.328732      -281.0591
  42   2.0000     -10.327959      -281.0380
  43   2.0000     -10.325594      -280.9737
  44   2.0000     -10.320978      -280.8481
  45   2.0000     -10.318799      -280.7888
  46   2.0000     -10.316973      -280.7391
  47   2.0000     -10.313688      -280.6497
  48   2.0000     -10.313223      -280.6371
  49   2.0000     -10.313124      -280.6344
  50   2.0000     -10.312619      -280.6206
  51   2.0000     -10.312213      -280.6096
  52   2.0000     -10.311568      -280.5920
  53   2.0000     -10.309477      -280.5351
  54   2.0000     -10.308541      -280.5097
  55   2.0000     -10.308068      -280.4968
  56   2.0000     -10.307159      -280.4721
  57   2.0000     -10.306833      -280.4632
  58   2.0000     -10.304407      -280.3972
  59   2.0000     -10.303499      -280.3725
  60   2.0000     -10.303335      -280.3680
  61   2.0000     -10.303327      -280.3678
  62   2.0000     -10.302802      -280.3535
  63   2.0000     -10.302738      -280.3518
  64   2.0000     -10.299672      -280.2683
  65   2.0000     -10.298356      -280.2325
  66   2.0000     -10.297632      -280.2128
  67   2.0000     -10.297105      -280.1985
  68   2.0000     -10.295360      -280.1510
  69   2.0000     -10.294768      -280.1349
  70   2.0000     -10.294350      -280.1235
  71   2.0000     -10.294199      -280.1194
  72   2.0000     -10.294128      -280.1175
  73   2.0000     -10.293451      -280.0991
  74   2.0000     -10.292117      -280.0627
  75   2.0000     -10.286952      -279.9222
  76   2.0000     -10.286275      -279.9038
  77   2.0000     -10.285203      -279.8746
  78   2.0000      -8.082655      -219.9402
  79   2.0000      -8.081935      -219.9206
  80   2.0000      -6.051671      -164.6743
  81   2.0000      -6.050958      -164.6549
  82   2.0000      -6.047871      -164.5709
  83   2.0000      -6.047385      -164.5577
  84   2.0000      -6.044805      -164.4875
  85   2.0000      -6.043765      -164.4592
  86   2.0000      -1.310408       -35.6580
  87   2.0000      -1.298532       -35.3349
  88   2.0000      -1.150407       -31.3042
  89   2.0000      -1.138130       -30.9701
  90   2.0000      -1.133199       -30.8359
  91   2.0000      -1.126196       -30.6453
  92   2.0000      -1.115852       -30.3639
  93   2.0000      -1.096936       -29.8492
  94   2.0000      -1.088560       -29.6212
  95   2.0000      -1.076370       -29.2895
  96   2.0000      -1.072812       -29.1927
  97   2.0000      -1.063762       -28.9464
  98   2.0000      -1.029659       -28.0184
  99   2.0000      -1.013357       -27.5748
 100   2.0000      -1.011685       -27.5293
 101   2.0000      -1.002647       -27.2834
 102   2.0000      -0.996016       -27.1030
 103   2.0000      -0.988116       -26.8880
 104   2.0000      -0.987193       -26.8629
 105   2.0000      -0.972850       -26.4726
 106   2.0000      -0.953829       -25.9550
 107   2.0000      -0.947195       -25.7745
 108   2.0000      -0.943606       -25.6768
 109   2.0000      -0.937177       -25.5019
 110   2.0000      -0.933212       -25.3940
 111   2.0000      -0.929143       -25.2833
 112   2.0000      -0.920010       -25.0348
 113   2.0000      -0.915988       -24.9253
 114   2.0000      -0.901508       -24.5313
 115   2.0000      -0.897822       -24.4310
 116   2.0000      -0.894357       -24.3367
 117   2.0000      -0.888902       -24.1882
 118   2.0000      -0.884252       -24.0617
 119   2.0000      -0.882998       -24.0276
 120   2.0000      -0.874372       -23.7929
 121   2.0000      -0.870092       -23.6764
 122   2.0000      -0.867091       -23.5948
 123   2.0000      -0.845582       -23.0095
 124   2.0000      -0.843243       -22.9458
 125   2.0000      -0.834210       -22.7000
 126   2.0000      -0.828629       -22.5481
 127   2.0000      -0.825006       -22.4496
 128   2.0000      -0.797455       -21.6999
 129   2.0000      -0.791445       -21.5363
 130   2.0000      -0.781146       -21.2561
 131   2.0000      -0.768832       -20.9210
 132   2.0000      -0.765808       -20.8387
 133   2.0000      -0.763624       -20.7793
 134   2.0000      -0.756010       -20.5721
 135   2.0000      -0.745979       -20.2991
 136   2.0000      -0.739445       -20.1213
 137   2.0000      -0.724295       -19.7091
 138   2.0000      -0.723660       -19.6918
 139   2.0000      -0.719919       -19.5900
 140   2.0000      -0.714705       -19.4481
 141   2.0000      -0.709221       -19.2989
 142   2.0000      -0.705599       -19.2003
 143   2.0000      -0.700170       -19.0526
 144   2.0000      -0.692591       -18.8464
 145   2.0000      -0.686718       -18.6865
 146   2.0000      -0.680618       -18.5206
 147   2.0000      -0.676181       -18.3998
 148   2.0000      -0.673495       -18.3267
 149   2.0000      -0.666377       -18.1330
 150   2.0000      -0.657666       -17.8960
 151   2.0000      -0.654829       -17.8188
 152   2.0000      -0.647156       -17.6100
 153   2.0000      -0.639817       -17.4103
 154   2.0000      -0.637934       -17.3591
 155   2.0000      -0.633938       -17.2503
 156   2.0000      -0.629710       -17.1353
 157   2.0000      -0.627456       -17.0740
 158   2.0000      -0.625987       -17.0340
 159   2.0000      -0.624754       -17.0004
 160   2.0000      -0.618748       -16.8370
 161   2.0000      -0.610498       -16.6125
 162   2.0000      -0.607367       -16.5273
 163   2.0000      -0.597277       -16.2527
 164   2.0000      -0.593644       -16.1539
 165   2.0000      -0.589060       -16.0291
 166   2.0000      -0.586967       -15.9722
 167   2.0000      -0.579531       -15.7698
 168   2.0000      -0.576100       -15.6765
 169   2.0000      -0.570495       -15.5239
 170   2.0000      -0.567458       -15.4413
 171   2.0000      -0.567291       -15.4368
 172   2.0000      -0.566162       -15.4061
 173   2.0000      -0.562537       -15.3074
 174   2.0000      -0.561501       -15.2792
 175   2.0000      -0.559076       -15.2132
 176   2.0000      -0.557809       -15.1787
 177   2.0000      -0.556106       -15.1324
 178   2.0000      -0.555759       -15.1230
 179   2.0000      -0.549954       -14.9650
 180   2.0000      -0.548957       -14.9379
 181   2.0000      -0.548166       -14.9163
 182   2.0000      -0.546354       -14.8670
 183   2.0000      -0.544226       -14.8091
 184   2.0000      -0.537521       -14.6267
 185   2.0000      -0.535595       -14.5743
 186   2.0000      -0.534845       -14.5539
 187   2.0000      -0.533293       -14.5116
 188   2.0000      -0.533253       -14.5105
 189   2.0000      -0.528168       -14.3722
 190   2.0000      -0.525908       -14.3107
 191   2.0000      -0.521345       -14.1865
 192   2.0000      -0.520826       -14.1724
 193   2.0000      -0.518419       -14.1069
 194   2.0000      -0.517421       -14.0797
 195   2.0000      -0.515869       -14.0375
 196   2.0000      -0.513246       -13.9661
 197   2.0000      -0.511708       -13.9243
 198   2.0000      -0.509618       -13.8674
 199   2.0000      -0.505570       -13.7573
 200   2.0000      -0.504606       -13.7310
 201   2.0000      -0.500408       -13.6168
 202   2.0000      -0.496639       -13.5142
 203   2.0000      -0.494681       -13.4609
 204   2.0000      -0.490942       -13.3592
 205   2.0000      -0.490044       -13.3348
 206   2.0000      -0.489188       -13.3115
 207   2.0000      -0.485517       -13.2116
 208   2.0000      -0.482961       -13.1420
 209   2.0000      -0.480952       -13.0874
 210   2.0000      -0.478760       -13.0277
 211   2.0000      -0.476569       -12.9681
 212   2.0000      -0.475058       -12.9270
 213   2.0000      -0.474023       -12.8988
 214   2.0000      -0.473292       -12.8789
 215   2.0000      -0.468531       -12.7494
 216   2.0000      -0.467505       -12.7215
 217   2.0000      -0.467046       -12.7090
 218   2.0000      -0.458483       -12.4760
 219   2.0000      -0.454710       -12.3733
 220   2.0000      -0.452064       -12.3013
 221   2.0000      -0.449232       -12.2242
 222   2.0000      -0.447607       -12.1800
 223   2.0000      -0.445034       -12.1100
 224   2.0000      -0.442006       -12.0276
 225   2.0000      -0.439805       -11.9677
 226   2.0000      -0.439450       -11.9580
 227   2.0000      -0.437951       -11.9173
 228   2.0000      -0.436065       -11.8659
 229   2.0000      -0.431629       -11.7452
 230   2.0000      -0.431470       -11.7409
 231   2.0000      -0.424063       -11.5393
 232   2.0000      -0.423653       -11.5282
 233   2.0000      -0.418525       -11.3886
 234   2.0000      -0.417717       -11.3667
 235   2.0000      -0.413190       -11.2435
 236   2.0000      -0.412219       -11.2170
 237   2.0000      -0.408573       -11.1178
 238   2.0000      -0.399972       -10.8838
 239   2.0000      -0.395988       -10.7754
 240   2.0000      -0.392268       -10.6742
 241   2.0000      -0.386552       -10.5186
 242   2.0000      -0.377495       -10.2722
 243   2.0000      -0.377252       -10.2655
 244   2.0000      -0.376153       -10.2356
 245   2.0000      -0.369434       -10.0528
 246   2.0000      -0.367650       -10.0043
 247   2.0000      -0.365090        -9.9346
 248   2.0000      -0.359792        -9.7904
 249   2.0000      -0.358745        -9.7619
 250   2.0000      -0.354913        -9.6577
 251   2.0000      -0.351882        -9.5752
 252   2.0000      -0.348577        -9.4853
 253   2.0000      -0.343388        -9.3441
 254   2.0000      -0.341538        -9.2937
 255   2.0000      -0.338965        -9.2237
 256   2.0000      -0.336731        -9.1629
 257   2.0000      -0.332125        -9.0376
 258   2.0000      -0.331168        -9.0115
 259   2.0000      -0.326835        -8.8936
 260   2.0000      -0.318921        -8.6783
 261   2.0000      -0.310485        -8.4487
 262   2.0000      -0.306250        -8.3335
 263   2.0000      -0.297306        -8.0901
 264   2.0000      -0.285347        -7.7647
 265   2.0000      -0.276897        -7.5347
 266   0.0000      -0.140806        -3.8315
 267   0.0000      -0.126371        -3.4387
 268   0.0000      -0.095568        -2.6005
 269   0.0000      -0.087631        -2.3846
 270   0.0000      -0.070391        -1.9154

MULLIKEN ATOMIC CHARGES
-----------------------
   0 C :   -0.095675
   1 C :    0.306104
   2 F :   -0.184947
   3 C :   -0.031026
   4 C :   -0.005101
   5 C :    0.096077
   6 C :    0.102542
   7 C :   -0.081967
   8 C :    0.046133
   9 C :    0.002398
  10 C :   -0.068272
  11 C :    0.135651
  12 O :   -0.131272
  13 C :   -0.059104
  14 C :    0.262900
  15 C :   -0.256100
  16 C :   -0.169481
  17 N :    0.161689
  18 C :   -0.183926
  19 N :    0.164103
  20 C :   -0.012323
  21 C :    0.034967
  22 N :   -0.064878
  23 C :    0.076793
  24 C :   -0.103914
  25 C :    0.210663
  26 O :   -0.111474
  27 C :   -0.040601
  28 C :   -0.000638
  29 N :   -0.050099
  30 C :    0.101122
  31 C :   -0.086972
  32 C :    0.031489
  33 C :    0.001456
  34 C :    0.045570
  35 C :   -0.118126
  36 N :   -0.020865
  37 C :   -0.039920
  38 C :   -0.071527
  39 S :    0.146131
  40 N :   -0.006281
  41 C :   -0.179299
  42 S :    0.220395
  43 C :    0.089866
  44 N :   -0.045664
  45 C :    0.084323
  46 C :   -0.159894
  47 C :    0.245157
  48 O :   -0.146044
  49 C :   -0.007245
  50 C :   -0.035551
  51 N :   -0.049761
  52 C :    0.096464
  53 C :   -0.094077
  54 C :    0.028544
  55 C :   -0.010240
  56 C :    0.022480
  57 C :    0.034272
  58 C :   -0.103148
  59 C :    0.142707
  60 O :   -0.141220
  61 C :    0.000381
  62 C :   -0.079869
  63 C :    0.101421
  64 C :    0.102590
  65 C :   -0.097775
  66 C :    0.303105
  67 C :   -0.030827
  68 C :   -0.010768
  69 F :   -0.190887
  70 C :   -0.088325
  71 C :    0.050712
  72 C :    0.260384
  73 C :   -0.299727
  74 C :   -0.201440
  75 N :    0.161305
  76 C :   -0.176096
  77 N :    0.150639
  78 H :    0.000869
  79 H :    0.007693
  80 H :   -0.005862
  81 H :   -0.000369
  82 H :   -0.007197
  83 H :    0.006847
  84 H :    0.019707
  85 H :    0.003174
  86 H :    0.046633
  87 H :    0.007257
  88 H :    0.013775
  89 H :    0.001099
  90 H :   -0.001096
  91 H :    0.039224
  92 H :    0.013605
  93 H :   -0.012252
  94 H :   -0.001361
  95 H :    0.002657
  96 H :   -0.009483
  97 H :   -0.003108
Sum of atomic charges:   -0.0000000

LOEWDIN ATOMIC CHARGES
----------------------
   0 C :   -0.041582
   1 C :    0.096631
   2 F :   -0.059511
   3 C :   -0.034331
   4 C :    0.007255
   5 C :   -0.019196
   6 C :    0.007419
   7 C :    0.011454
   8 C :   -0.013612
   9 C :   -0.065795
  10 C :    0.041904
  11 C :    0.084477
  12 O :   -0.129380
  13 C :   -0.015210
  14 C :    0.057547
  15 C :   -0.087793
  16 C :   -0.013228
  17 N :   -0.044269
  18 C :   -0.014616
  19 N :   -0.033612
  20 C :    0.023600
  21 C :    0.058531
  22 N :   -0.071421
  23 C :    0.042990
  24 C :   -0.025878
  25 C :    0.066272
  26 O :   -0.123739
  27 C :   -0.036338
  28 C :    0.045930
  29 N :   -0.093191
  30 C :    0.092482
  31 C :   -0.026226
  32 C :   -0.028580
  33 C :    0.032602
  34 C :   -0.055374
  35 C :   -0.098762
  36 N :   -0.094417
  37 C :   -0.193028
  38 C :   -0.214743
  39 S :    0.421496
  40 N :   -0.068404
  41 C :   -0.140083
  42 S :    0.488790
  43 C :    0.039944
  44 N :   -0.104276
  45 C :    0.044589
  46 C :   -0.028424
  47 C :    0.078218
  48 O :   -0.136039
  49 C :   -0.036741
  50 C :    0.031645
  51 N :   -0.093191
  52 C :    0.082239
  53 C :   -0.027775
  54 C :   -0.018502
  55 C :    0.011566
  56 C :   -0.001321
  57 C :    0.065160
  58 C :   -0.077771
  59 C :    0.081429
  60 O :   -0.143381
  61 C :   -0.060188
  62 C :    0.033706
  63 C :   -0.019230
  64 C :    0.003889
  65 C :   -0.042309
  66 C :    0.092821
  67 C :   -0.037868
  68 C :    0.004150
  69 F :   -0.065158
  70 C :    0.010597
  71 C :   -0.015093
  72 C :    0.066431
  73 C :   -0.117971
  74 C :   -0.017344
  75 N :   -0.051503
  76 C :   -0.012734
  77 N :   -0.049781
  78 H :    0.044508
  79 H :    0.043579
  80 H :    0.037080
  81 H :    0.040648
  82 H :    0.041632
  83 H :    0.044311
  84 H :    0.027995
  85 H :    0.037923
  86 H :    0.053112
  87 H :    0.031774
  88 H :    0.025723
  89 H :    0.037177
  90 H :    0.031764
  91 H :    0.032394
  92 H :    0.044420
  93 H :    0.039236
  94 H :    0.043356
  95 H :    0.041466
  96 H :    0.035428
  97 H :    0.039628

  Mayer bond orders larger than 0.100000
B(  0-C ,  1-C ) :   1.4390 B(  0-C ,  6-C ) :   1.2048 B(  0-C , 78-H ) :   1.0066
B(  1-C ,  2-F ) :   1.0943 B(  1-C ,  3-C ) :   1.2521 B(  3-C ,  4-C ) :   1.4640
B(  3-C , 79-H ) :   0.9935 B(  4-C ,  5-C ) :   1.2301 B(  4-C , 80-H ) :   0.9976
B(  5-C ,  6-C ) :   1.2495 B(  5-C , 10-C ) :   1.2032 B(  6-C ,  7-C ) :   1.2064
B(  7-C ,  8-C ) :   1.4640 B(  7-C , 81-H ) :   0.9945 B(  8-C ,  9-C ) :   1.2117
B(  8-C , 14-C ) :   0.9941 B(  9-C , 10-C ) :   1.4595 B(  9-C , 11-C ) :   0.9332
B( 10-C , 82-H ) :   1.0150 B( 11-C , 12-O ) :   2.2624 B( 11-C , 13-C ) :   0.9145
B( 13-C , 14-C ) :   1.0094 B( 13-C , 20-C ) :   1.6984 B( 14-C , 15-C ) :   1.7103
B( 15-C , 16-C ) :   1.1511 B( 15-C , 18-C ) :   1.1413 B( 16-C , 17-N ) :   2.9676
B( 18-C , 19-N ) :   2.9825 B( 20-C , 21-C ) :   1.0845 B( 20-C , 83-H ) :   0.9342
B( 21-C , 22-N ) :   1.5695 B( 21-C , 23-C ) :   0.1069 B( 21-C , 32-C ) :   1.0272
B( 22-N , 23-C ) :   1.3002 B( 23-C , 24-C ) :   1.0537 B( 23-C , 28-C ) :   1.4358
B( 24-C , 25-C ) :   0.8839 B( 24-C , 32-C ) :   1.5925 B( 25-C , 26-O ) :   2.3075
B( 25-C , 27-C ) :   0.8898 B( 27-C , 28-C ) :   1.0399 B( 27-C , 31-C ) :   1.6376
B( 28-C , 29-N ) :   1.3056 B( 29-N , 30-C ) :   1.6634 B( 30-C , 31-C ) :   1.0516
B( 30-C , 84-H ) :   0.9886 B( 31-C , 85-H ) :   1.0097 B( 32-C , 33-C ) :   1.0821
B( 33-C , 34-C ) :   1.7122 B( 33-C , 86-H ) :   0.9639 B( 34-C , 35-C ) :   1.1218
B( 34-C , 87-H ) :   0.9414 B( 35-C , 36-N ) :   1.6910 B( 35-C , 39-S ) :   1.0857
B( 36-N , 37-C ) :   1.4105 B( 36-N , 39-S ) :   0.1006 B( 37-C , 38-C ) :   1.2331
B( 37-C , 42-S ) :   1.1285 B( 38-C , 39-S ) :   1.1003 B( 38-C , 40-N ) :   1.4389
B( 40-N , 41-C ) :   1.6705 B( 40-N , 42-S ) :   0.1137 B( 41-C , 42-S ) :   1.0871
B( 41-C , 43-C ) :   1.1081 B( 43-C , 44-N ) :   1.6479 B( 43-C , 45-C ) :   0.1226
B( 43-C , 54-C ) :   1.0286 B( 44-N , 45-C ) :   1.3490 B( 45-C , 46-C ) :   1.0677
B( 45-C , 50-C ) :   1.4149 B( 46-C , 47-C ) :   0.8902 B( 46-C , 54-C ) :   1.5400
B( 47-C , 48-O ) :   2.1532 B( 47-C , 49-C ) :   0.9349 B( 49-C , 50-C ) :   1.0642
B( 49-C , 53-C ) :   1.6094 B( 50-C , 51-N ) :   1.3176 B( 51-N , 52-C ) :   1.6518
B( 52-C , 53-C ) :   1.0648 B( 52-C , 88-H ) :   0.9888 B( 53-C , 89-H ) :   1.0106
B( 54-C , 55-C ) :   1.1166 B( 55-C , 56-C ) :   1.6369 B( 55-C , 90-H ) :   0.9647
B( 56-C , 57-C ) :   1.1015 B( 56-C , 91-H ) :   0.9318 B( 57-C , 58-C ) :   1.6323
B( 57-C , 92-H ) :   0.9671 B( 58-C , 59-C ) :   0.9327 B( 58-C , 72-C ) :   1.0290
B( 59-C , 60-O ) :   2.2783 B( 59-C , 61-C ) :   0.9216 B( 61-C , 62-C ) :   1.4691
B( 61-C , 71-C ) :   1.2153 B( 62-C , 63-C ) :   1.1954 B( 62-C , 93-H ) :   1.0146
B( 63-C , 64-C ) :   1.2555 B( 63-C , 68-C ) :   1.2325 B( 64-C , 65-C ) :   1.2030
B( 64-C , 70-C ) :   1.2020 B( 65-C , 66-C ) :   1.4413 B( 65-C , 94-H ) :   1.0062
B( 66-C , 67-C ) :   1.2543 B( 66-C , 69-F ) :   1.0873 B( 67-C , 68-C ) :   1.4621
B( 67-C , 95-H ) :   0.9928 B( 68-C , 96-H ) :   0.9971 B( 70-C , 71-C ) :   1.4645
B( 70-C , 97-H ) :   0.9944 B( 71-C , 72-C ) :   0.9989 B( 72-C , 73-C ) :   1.6728
B( 73-C , 74-C ) :   1.1529 B( 73-C , 76-C ) :   1.1396 B( 74-C , 75-N ) :   2.9989
B( 76-C , 77-N ) :   2.9843

-----------------------------------------------------------------------------
         ABSORPTION SPECTRUM VIA TRANSITION ELECTRIC DIPOLE MOMENTS
-----------------------------------------------------------------------------
State   Energy  Wavelength   fosc         T2         TX        TY        TZ
        (cm-1)    (nm)                  (au**2)     (au)      (au)      (au)
-----------------------------------------------------------------------------
   0   15718.7    636.2   0.124647246   2.61061   1.57846  -0.15922   0.30614
   1   16558.3    603.9   0.061625275   1.22523   0.01506   0.34593  -1.05135
   2   19155.0    522.1   0.610437966  10.49145   2.58077   1.90164  -0.46355
   3   19383.6    515.9   0.900571949  15.29538   3.78542   0.94526  -0.26919
   4   20577.7    486.0   0.036149197   0.57833  -0.39363   0.64865  -0.05140
   5   21629.0    462.3   0.001682046   0.02560   0.11821   0.10764   0.00643
   6   22357.3    447.3   0.047050288   0.69282   0.48209  -0.50472   0.45350
   7   22744.7    439.7   0.282382716   4.08727   1.07154  -0.04621   1.71375
   8   23112.1    432.7   0.150508967   2.14387  -0.96848   0.17779  -1.08365
   9   23616.1    423.4   0.060682921   0.84593  -0.53627   0.27368  -0.69530
  10   24066.8    415.5   0.032815619   0.44889   0.21897  -0.32526   0.54327
  11   24311.0    411.3   0.106805300   1.44632  -0.24996   0.03679  -1.17579
  12   24590.1    406.7   0.069141678   0.92567  -0.72721  -0.54160  -0.32171
  13   24734.0    404.3   0.147190333   1.95912   0.45547  -0.99445   0.87335
  14   25399.3    393.7   0.366377545   4.74879  -0.08881  -1.92328   1.02073
  15   25649.6    389.9   0.006559168   0.08419  -0.15169   0.22240  -0.10823
  16   25718.7    388.8   0.014584384   0.18669  -0.29086   0.31819  -0.02898
  17   26481.2    377.6   0.339484571   4.22044   1.94617  -0.33550   0.56596
  18   26591.1    376.1   0.058974090   0.73013  -0.80179   0.17470   0.23822
  19   26951.2    371.0   0.023672765   0.28917  -0.37895  -0.03470  -0.37994
  20   27599.0    362.3   0.001087775   0.01298  -0.02038   0.11086  -0.01644
  21   27845.2    359.1   0.013975335   0.16523  -0.01865   0.16406   0.37144
  22   28274.1    353.7   0.002245180   0.02614  -0.12075   0.03363  -0.10213
  23   28399.4    352.1   0.172370246   1.99816  -0.69232   0.85208  -0.89040
  24   29085.8    343.8   0.062840055   0.71127   0.50521   0.49690   0.45730
  25   29451.2    339.5   0.002195922   0.02455  -0.11849  -0.03099  -0.09771
  26   29877.4    334.7   0.014806817   0.16315   0.23387   0.15789  -0.28902
  27   29886.5    334.6   0.021372396   0.23543  -0.15145  -0.07797   0.45432
  28   30135.8    331.8   0.052482389   0.57333  -0.61910  -0.34128   0.27125
  29   30699.2    325.7   0.074996260   0.80425  -0.64401  -0.22066   0.58379
  30   30882.9    323.8   0.043722800   0.46608  -0.61154  -0.29199  -0.08272
  31   31022.8    322.3   0.024797058   0.26314  -0.05560   0.48606  -0.15426
  32   31081.2    321.7   0.023285154   0.24664   0.21122  -0.30999   0.32547
  33   31324.5    319.2   0.425731965   4.47432  -0.13449  -0.14401   2.10606
  34   31378.8    318.7   0.008318668   0.08728   0.01971   0.09927   0.27755
  35   31733.4    315.1   0.011658353   0.12095   0.20343   0.00579   0.28201
  36   31870.8    313.8   0.014701518   0.15186  -0.08129  -0.09701  -0.36857
  37   31980.0    312.7   0.217422115   2.23821  -0.51499   0.28406  -1.37561
  38   32181.9    310.7   0.089271354   0.91322  -0.55658   0.43258   0.64522
  39   32688.4    305.9   0.151917690   1.53000  -0.09838   0.81896  -0.92175
  40   33230.8    300.9   0.254633850   2.52261  -0.29682  -0.28456   1.53412
  41   33591.4    297.7   0.149453620   1.46472  -0.54845  -0.70439  -0.81716
  42   34031.1    293.8   0.082431415   0.79743  -0.69664  -0.48644   0.27478
  43   34151.2    292.8   0.174357821   1.68078  -0.14718   0.36219   1.23610
  44   34173.7    292.6   0.079317808   0.76411   0.36711   0.67385  -0.41865
  45   34416.5    290.6   0.062818264   0.60089   0.36449  -0.26020   0.63272
  46   34861.4    286.9   0.043688536   0.41257  -0.34689  -0.54056   0.00585
  47   34942.1    286.2   0.046075790   0.43411   0.08528  -0.09095   0.64697
  48   35179.2    284.3   0.235158127   2.20065  -0.47553   0.71370  -1.21043
  49   35249.6    283.7   0.168494966   1.57365  -0.54265  -0.57526  -0.97378
  50   35269.0    283.5   0.031683792   0.29575  -0.29268   0.38483  -0.24897
  51   35708.8    280.0   0.001686724   0.01555   0.07976   0.06284   0.07238
  52   35732.8    279.9   0.053346398   0.49149  -0.60116  -0.10916  -0.34378
  53   35853.4    278.9   0.181665469   1.66808  -1.07983  -0.17978  -0.68537
  54   36032.2    277.5   0.070495517   0.64409   0.05074  -0.35130   0.71979
  55   36248.5    275.9   0.018342192   0.16659  -0.24541   0.12648   0.30060
  56   36458.4    274.3   0.068108957   0.61501  -0.04481   0.53170  -0.57472
  57   36641.1    272.9   0.049221263   0.44224  -0.35531  -0.36111   0.43081
  58   36713.8    272.4   0.049670199   0.44539   0.60100  -0.23648   0.16813
  59   37109.1    269.5   0.055819519   0.49520  -0.62278   0.01876  -0.32711
  60   37163.3    269.1   0.326375803   2.89121   0.38485  -0.62504   1.53376
  61   37587.9    266.0   0.144886221   1.26898   0.48016   0.67197   0.76608
  62   37749.3    264.9   0.012247925   0.10681   0.20442   0.25343  -0.02832
  63   37954.1    263.5   0.069467477   0.60256   0.04532  -0.05585  -0.77291
  64   38047.2    262.8   0.003986386   0.03449  -0.14264   0.11363   0.03512
  65   38187.2    261.9   0.063983532   0.55160  -0.61242   0.33310  -0.25612
  66   38202.4    261.8   0.058569339   0.50473   0.04655  -0.31916   0.63301
  67   38382.6    260.5   0.024172540   0.20733  -0.19881  -0.02095  -0.40910
  68   38428.5    260.2   0.024265517   0.20788  -0.21108  -0.26047  -0.30900
  69   38661.9    258.7   0.028975676   0.24673   0.03942  -0.09377  -0.48619
  70   38823.3    257.6   0.014012975   0.11883   0.03167  -0.04936  -0.33969
  71   38920.3    256.9   0.006596692   0.05580   0.09117   0.21402  -0.04102
  72   38982.7    256.5   0.004765521   0.04025   0.16753  -0.10841   0.02064
  73   39002.8    256.4   0.050559549   0.42676   0.20698   0.50831  -0.35432
  74   39185.9    255.2   0.188767487   1.58589  -0.46902  -0.66759   0.95929
  75   39275.7    254.6   0.011652866   0.09768  -0.05496   0.30766  -0.00002
  76   39642.4    252.3   0.074828797   0.62142  -0.70852  -0.30134  -0.16915
  77   39668.0    252.1   0.082989248   0.68874   0.64799  -0.25293  -0.45263
  78   39976.5    250.1   0.051631457   0.42519  -0.38508  -0.17693   0.49558
  79   39988.3    250.1   0.218737294   1.80080   1.26539   0.33207  -0.29886
  80   40192.0    248.8   0.034423978   0.28197   0.02469   0.07521   0.52507
  81   40248.7    248.5   0.018113929   0.14816  -0.19930  -0.17361   0.27982

FINAL SINGLE POINT ENERGY     -4138.264306202947

DIPOLE MOMENT
-------------
                                X             Y             Z
Electronic contribution:      5.46228       2.72970      11.20358
Nuclear contribution   :     -3.58601      -3.11434     -13.74226
                        -----------------------------------------
Total Dipole Moment    :      1.87627      -0.38464      -2.53868
                        -----------------------------------------
Magnitude (a.u.)       :      3.18013
Magnitude (Debye)      :      8.08324

Rotational constants in cm-1:     0.000978     0.000247     0.000210
Rotational constants in MHz :    29.324095     7.415489     6.294132

                             ****ORCA TERMINATED NORMALLY****
TOTAL RUN TIME: 0 days 0 hours 11 minutes 3 seconds 478 msec
