                         Program Version 4.2.0 -  RELEASE  -
|  1> # ORCA input file
|  2> # SCF done       -222.450101335566          0.000951652002
|  3> ! CAM-B3LYP def2-SVP def2/J RIJCOSX Grid4 TightSCF
|  4> %maxcore 5000
|  5> %tddft
|  6>     Mode sTDDFT
|  7>     Ethresh 5.0
|  8>     maxcore 5000
|  9> end
| 10>
| 11> %pal
| 12>   nprocs 6
| 13>   end
| 14> * xyz 0 1
| 15>    C        3.29313         4.27672        -6.80758
| 16>    C        2.40118         5.19992        -7.27820
| 17>    F        2.01845         5.15400        -8.56530
| 18>    C        1.86039         6.20575        -6.46430
| 19>    C        2.23669         6.26932        -5.15162
| 20>    C        3.15318         5.34236        -4.61325
| 21>    C        3.69027         4.32512        -5.45667
| 22>    C        4.60178         3.37774        -4.93844
| 23>    C        4.96139         3.44110        -3.61727
| 24>    C        4.43426         4.47154        -2.78448
| 25>    C        3.55309         5.40044        -3.26039
| 26>    C        5.00552         4.35493        -1.43413
| 27>    O        4.77749         5.02484        -0.45872
| 28>    C        6.00953         3.24532        -1.53383
| 29>    C        5.83493         2.58898        -2.82193
| 30>    C        6.28096         1.34840        -3.18176
| 31>    C        6.96198         0.44697        -2.33895
| 32>    N        7.49571        -0.36103        -1.72135
| 33>    C        6.06500         0.77071        -4.45345
| 34>    N        5.94352         0.25242        -5.46947
| 35>    C        6.95451         3.13022        -0.58466
| 36>    C        8.15328         2.31695        -0.61416
| 37>    C        9.11848         2.38221        -1.63463
| 38>    C        9.08669         3.36901        -2.73688
| 39>    O        8.21796         4.14635        -3.00799
| 40>    S       10.59466         3.23849        -3.67773
| 41>    C       11.24801         1.91988        -2.62789
| 42>    O       12.38047         1.55624        -2.71149
| 43>    C       10.21136         1.52885        -1.65467
| 44>    C       10.38235         0.46891        -0.71785
| 45>    C        9.56570         0.59212         0.44124
| 46>    C        8.47561         1.46256         0.44736
| 47>    C        7.58781         1.34395         1.61897
| 48>    O        6.53629         1.88256         1.79267
| 49>    S        8.32025         0.20513         2.78207
| 50>    C        9.71732        -0.12413         1.71584
| 51>    O       10.63542        -0.79940         2.10163
| 52>    C       11.20975        -0.63382        -1.07014
| 53>    N       11.78643        -1.52311        -0.19270
| 54>    C       12.40111        -2.49139        -0.90487
| 55>    C       13.14496        -3.66203        -0.80205
| 56>    C       13.37905        -4.08798        -2.11677
| 57>    N       12.79862        -3.20731        -3.00201
| 58>    C       12.19614        -2.22191        -2.29014
| 59>    C       11.45213        -1.06106        -2.39421
| 60>    C       14.08393        -5.25629        -2.50839
| 61>    C       14.37141        -5.59224        -3.78596
| 62>    C       15.10083        -6.75774        -4.19830
| 63>    C       14.93592        -8.04945        -3.64891
| 64>    C       13.84525        -8.41726        -2.72490
| 65>    O       12.94797        -7.75341        -2.30609
| 66>    S       13.98326       -10.17186        -2.31623
| 67>    C       15.39518       -10.41101        -3.37435
| 68>    O       15.95656       -11.46269        -3.48173
| 69>    C       15.70597        -9.13796        -4.06185
| 70>    C       16.67592        -9.03031        -5.06683
| 71>    C       16.79933        -7.76276        -5.64942
| 72>    C       16.04025        -6.67383        -5.25097
| 73>    C       16.31515        -5.44820        -6.02631
| 74>    O       15.84058        -4.35940        -5.89329
| 75>    S       17.54353        -5.81066        -7.28984
| 76>    C       17.68571        -7.52229        -6.80487
| 77>    O       18.38242        -8.32107        -7.35594
| 78>    C       17.52005       -10.12565        -5.51480
| 79>    C       17.16322       -11.31670        -6.02096
| 80>    C       18.20586       -12.38994        -6.14424
| 81>    O       19.39855       -12.23325        -6.07568
| 82>    C       17.44769       -13.64101        -6.29073
| 83>    C       17.91657       -14.92365        -6.32892
| 84>    C       16.99922       -15.99032        -6.44748
| 85>    C       15.60269       -15.70624        -6.50864
| 86>    C       14.69133       -16.77481        -6.62114
| 87>    C       15.16389       -18.05669        -6.67334
| 88>    C       16.53278       -18.35616        -6.61594
| 89>    C       17.43104       -17.33182        -6.50407
| 90>    F       14.29750       -19.07738        -6.78439
| 91>    C       15.14489       -14.37022        -6.46366
| 92>    C       16.05426       -13.34893        -6.36811
| 93>    C       15.86867       -11.90446        -6.33900
| 94>    C       14.72351       -11.24352        -6.68321
| 95>    C       14.60276        -9.84764        -6.82797
| 96>    N       14.43137        -8.72329        -6.98642
| 97>    C       13.50582       -11.88691        -7.00263
| 98>    N       12.48896       -12.34576        -7.26830
| 99>    H        3.68682         3.51482        -7.46204
|100>    H        1.16075         6.90638        -6.89178
|101>    H        1.83403         7.03502        -4.50599
|102>    H        5.00114         2.62886        -5.60359
|103>    H        3.16516         6.17002        -2.61008
|104>    H        6.79915         3.73303         0.30561
|105>    H       11.72250        -1.44353         0.81544
|106>    H       13.47690        -4.16469         0.08342
|107>    H       12.84108        -3.28077        -4.00362
|108>    H       11.07330        -0.60275        -3.28427
|109>    H       14.42726        -5.87460        -1.69189
|110>    H       14.13679        -4.90361        -4.58445
|111>    H       18.59048        -9.96537        -5.41352
|112>    H       18.97653       -15.12044        -6.27049
|113>    H       13.63124       -16.58098        -6.67042
|114>    H       16.84592       -19.38718        -6.66101
|115>    H       18.48960       -17.53814        -6.45783
|116>    H       14.08267       -14.18793        -6.49676
|117> *
|118>
|119>                          ****END OF INPUT****

CARTESIAN COORDINATES (ANGSTROEM)
---------------------------------
  C      3.293130    4.276720   -6.807580
  C      2.401180    5.199920   -7.278200
  F      2.018450    5.154000   -8.565300
  C      1.860390    6.205750   -6.464300
  C      2.236690    6.269320   -5.151620
  C      3.153180    5.342360   -4.613250
  C      3.690270    4.325120   -5.456670
  C      4.601780    3.377740   -4.938440
  C      4.961390    3.441100   -3.617270
  C      4.434260    4.471540   -2.784480
  C      3.553090    5.400440   -3.260390
  C      5.005520    4.354930   -1.434130
  O      4.777490    5.024840   -0.458720
  C      6.009530    3.245320   -1.533830
  C      5.834930    2.588980   -2.821930
  C      6.280960    1.348400   -3.181760
  C      6.961980    0.446970   -2.338950
  N      7.495710   -0.361030   -1.721350
  C      6.065000    0.770710   -4.453450
  N      5.943520    0.252420   -5.469470
  C      6.954510    3.130220   -0.584660
  C      8.153280    2.316950   -0.614160
  C      9.118480    2.382210   -1.634630
  C      9.086690    3.369010   -2.736880
  O      8.217960    4.146350   -3.007990
  S     10.594660    3.238490   -3.677730
  C     11.248010    1.919880   -2.627890
  O     12.380470    1.556240   -2.711490
  C     10.211360    1.528850   -1.654670
  C     10.382350    0.468910   -0.717850
  C      9.565700    0.592120    0.441240
  C      8.475610    1.462560    0.447360
  C      7.587810    1.343950    1.618970
  O      6.536290    1.882560    1.792670
  S      8.320250    0.205130    2.782070
  C      9.717320   -0.124130    1.715840
  O     10.635420   -0.799400    2.101630
  C     11.209750   -0.633820   -1.070140
  N     11.786430   -1.523110   -0.192700
  C     12.401110   -2.491390   -0.904870
  C     13.144960   -3.662030   -0.802050
  C     13.379050   -4.087980   -2.116770
  N     12.798620   -3.207310   -3.002010
  C     12.196140   -2.221910   -2.290140
  C     11.452130   -1.061060   -2.394210
  C     14.083930   -5.256290   -2.508390
  C     14.371410   -5.592240   -3.785960
  C     15.100830   -6.757740   -4.198300
  C     14.935920   -8.049450   -3.648910
  C     13.845250   -8.417260   -2.724900
  O     12.947970   -7.753410   -2.306090
  S     13.983260  -10.171860   -2.316230
  C     15.395180  -10.411010   -3.374350
  O     15.956560  -11.462690   -3.481730
  C     15.705970   -9.137960   -4.061850
  C     16.675920   -9.030310   -5.066830
  C     16.799330   -7.762760   -5.649420
  C     16.040250   -6.673830   -5.250970
  C     16.315150   -5.448200   -6.026310
  O     15.840580   -4.359400   -5.893290
  S     17.543530   -5.810660   -7.289840
  C     17.685710   -7.522290   -6.804870
  O     18.382420   -8.321070   -7.355940
  C     17.520050  -10.125650   -5.514800
  C     17.163220  -11.316700   -6.020960
  C     18.205860  -12.389940   -6.144240
  O     19.398550  -12.233250   -6.075680
  C     17.447690  -13.641010   -6.290730
  C     17.916570  -14.923650   -6.328920
  C     16.999220  -15.990320   -6.447480
  C     15.602690  -15.706240   -6.508640
  C     14.691330  -16.774810   -6.621140
  C     15.163890  -18.056690   -6.673340
  C     16.532780  -18.356160   -6.615940
  C     17.431040  -17.331820   -6.504070
  F     14.297500  -19.077380   -6.784390
  C     15.144890  -14.370220   -6.463660
  C     16.054260  -13.348930   -6.368110
  C     15.868670  -11.904460   -6.339000
  C     14.723510  -11.243520   -6.683210
  C     14.602760   -9.847640   -6.827970
  N     14.431370   -8.723290   -6.986420
  C     13.505820  -11.886910   -7.002630
  N     12.488960  -12.345760   -7.268300
  H      3.686820    3.514820   -7.462040
  H      1.160750    6.906380   -6.891780
  H      1.834030    7.035020   -4.505990
  H      5.001140    2.628860   -5.603590
  H      3.165160    6.170020   -2.610080
  H      6.799150    3.733030    0.305610
  H     11.722500   -1.443530    0.815440
  H     13.476900   -4.164690    0.083420
  H     12.841080   -3.280770   -4.003620
  H     11.073300   -0.602750   -3.284270
  H     14.427260   -5.874600   -1.691890
  H     14.136790   -4.903610   -4.584450
  H     18.590480   -9.965370   -5.413520
  H     18.976530  -15.120440   -6.270490
  H     13.631240  -16.580980   -6.670420
  H     16.845920  -19.387180   -6.661010
  H     18.489600  -17.538140   -6.457830
  H     14.082670  -14.187930   -6.496760

 Total Charge           Charge          ....    0
 Multiplicity           Mult            ....    1
 Number of Electrons    NEL             ....  594
 Basis Dimension        Dim             .... 1282

ORBITAL ENERGIES
----------------

  NO   OCC          E(Eh)            E(eV)
   0   2.0000     -88.960994     -2420.7517
   1   2.0000     -88.958721     -2420.6899
   2   2.0000     -88.957576     -2420.6587
   3   2.0000     -88.954992     -2420.5884
   4   2.0000     -24.790171      -674.5749
   5   2.0000     -24.788780      -674.5370
   6   2.0000     -19.256841      -524.0053
   7   2.0000     -19.252256      -523.8805
   8   2.0000     -19.251720      -523.8659
   9   2.0000     -19.251128      -523.8498
  10   2.0000     -19.250659      -523.8371
  11   2.0000     -19.248746      -523.7850
  12   2.0000     -19.248537      -523.7793
  13   2.0000     -19.243186      -523.6337
  14   2.0000     -19.221791      -523.0515
  15   2.0000     -19.218864      -522.9719
  16   2.0000     -14.465874      -393.6364
  17   2.0000     -14.458183      -393.4272
  18   2.0000     -14.429691      -392.6519
  19   2.0000     -14.426268      -392.5587
  20   2.0000     -14.425164      -392.5287
  21   2.0000     -14.423557      -392.4849
  22   2.0000     -10.419154      -283.5196
  23   2.0000     -10.414721      -283.3990
  24   2.0000     -10.413163      -283.3566
  25   2.0000     -10.412980      -283.3516
  26   2.0000     -10.412387      -283.3355
  27   2.0000     -10.412080      -283.3271
  28   2.0000     -10.411253      -283.3046
  29   2.0000     -10.408249      -283.2228
  30   2.0000     -10.374555      -282.3060
  31   2.0000     -10.372867      -282.2601
  32   2.0000     -10.371910      -282.2340
  33   2.0000     -10.369058      -282.1564
  34   2.0000     -10.355908      -281.7986
  35   2.0000     -10.352866      -281.7158
  36   2.0000     -10.352741      -281.7124
  37   2.0000     -10.349982      -281.6373
  38   2.0000     -10.345388      -281.5123
  39   2.0000     -10.341440      -281.4049
  40   2.0000     -10.341297      -281.4010
  41   2.0000     -10.338330      -281.3203
  42   2.0000     -10.334908      -281.2272
  43   2.0000     -10.334483      -281.2156
  44   2.0000     -10.333433      -281.1870
  45   2.0000     -10.333021      -281.1758
  46   2.0000     -10.332990      -281.1749
  47   2.0000     -10.332296      -281.1561
  48   2.0000     -10.331479      -281.1338
  49   2.0000     -10.330357      -281.1033
  50   2.0000     -10.329893      -281.0907
  51   2.0000     -10.328376      -281.0494
  52   2.0000     -10.327237      -281.0184
  53   2.0000     -10.327166      -281.0165
  54   2.0000     -10.325772      -280.9786
  55   2.0000     -10.321950      -280.8746
  56   2.0000     -10.321351      -280.8582
  57   2.0000     -10.320690      -280.8403
  58   2.0000     -10.312766      -280.6246
  59   2.0000     -10.311804      -280.5984
  60   2.0000     -10.310614      -280.5661
  61   2.0000     -10.309933      -280.5475
  62   2.0000     -10.308529      -280.5093
  63   2.0000     -10.307145      -280.4717
  64   2.0000     -10.306270      -280.4479
  65   2.0000     -10.305621      -280.4302
  66   2.0000     -10.305233      -280.4197
  67   2.0000     -10.305096      -280.4159
  68   2.0000     -10.305020      -280.4138
  69   2.0000     -10.304708      -280.4053
  70   2.0000     -10.303620      -280.3757
  71   2.0000     -10.303383      -280.3693
  72   2.0000     -10.303000      -280.3589
  73   2.0000     -10.302448      -280.3439
  74   2.0000     -10.300774      -280.2983
  75   2.0000     -10.299567      -280.2655
  76   2.0000     -10.297987      -280.2225
  77   2.0000     -10.296213      -280.1742
  78   2.0000     -10.293932      -280.1121
  79   2.0000     -10.293882      -280.1108
  80   2.0000     -10.292297      -280.0676
  81   2.0000     -10.288511      -279.9646
  82   2.0000     -10.281571      -279.7758
  83   2.0000     -10.278009      -279.6789
  84   2.0000      -8.060283      -219.3315
  85   2.0000      -8.058028      -219.2701
  86   2.0000      -8.056812      -219.2370
  87   2.0000      -8.054252      -219.1673
  88   2.0000      -6.029227      -164.0636
  89   2.0000      -6.026835      -163.9985
  90   2.0000      -6.025871      -163.9723
  91   2.0000      -6.025699      -163.9676
  92   2.0000      -6.023604      -163.9106
  93   2.0000      -6.023086      -163.8965
  94   2.0000      -6.022383      -163.8774
  95   2.0000      -6.021236      -163.8461
  96   2.0000      -6.019893      -163.8096
  97   2.0000      -6.019125      -163.7887
  98   2.0000      -6.017845      -163.7539
  99   2.0000      -6.015280      -163.6841
 100   2.0000      -1.305726       -35.5306
 101   2.0000      -1.304283       -35.4914
 102   2.0000      -1.180269       -32.1168
 103   2.0000      -1.176761       -32.0213
 104   2.0000      -1.176082       -32.0028
 105   2.0000      -1.174900       -31.9707
 106   2.0000      -1.173276       -31.9265
 107   2.0000      -1.172463       -31.9044
 108   2.0000      -1.172159       -31.8961
 109   2.0000      -1.167576       -31.7714
 110   2.0000      -1.138293       -30.9745
 111   2.0000      -1.135303       -30.8932
 112   2.0000      -1.100221       -29.9385
 113   2.0000      -1.063485       -28.9389
 114   2.0000      -1.033553       -28.1244
 115   2.0000      -1.030714       -28.0471
 116   2.0000      -1.023942       -27.8629
 117   2.0000      -1.020792       -27.7772
 118   2.0000      -1.009575       -27.4719
 119   2.0000      -1.006953       -27.4006
 120   2.0000      -1.004772       -27.3412
 121   2.0000      -1.002563       -27.2811
 122   2.0000      -0.983362       -26.7587
 123   2.0000      -0.981247       -26.7011
 124   2.0000      -0.973322       -26.4854
 125   2.0000      -0.972863       -26.4730
 126   2.0000      -0.946186       -25.7470
 127   2.0000      -0.940778       -25.5999
 128   2.0000      -0.934241       -25.4220
 129   2.0000      -0.928297       -25.2603
 130   2.0000      -0.927273       -25.2324
 131   2.0000      -0.923752       -25.1366
 132   2.0000      -0.904460       -24.6116
 133   2.0000      -0.901007       -24.5177
 134   2.0000      -0.895938       -24.3797
 135   2.0000      -0.891877       -24.2692
 136   2.0000      -0.890090       -24.2206
 137   2.0000      -0.877056       -23.8659
 138   2.0000      -0.872065       -23.7301
 139   2.0000      -0.863686       -23.5021
 140   2.0000      -0.859134       -23.3782
 141   2.0000      -0.857131       -23.3237
 142   2.0000      -0.854430       -23.2502
 143   2.0000      -0.840392       -22.8682
 144   2.0000      -0.838477       -22.8161
 145   2.0000      -0.818704       -22.2781
 146   2.0000      -0.807025       -21.9603
 147   2.0000      -0.803740       -21.8709
 148   2.0000      -0.801003       -21.7964
 149   2.0000      -0.793805       -21.6005
 150   2.0000      -0.776600       -21.1324
 151   2.0000      -0.769643       -20.9431
 152   2.0000      -0.765991       -20.8437
 153   2.0000      -0.755145       -20.5485
 154   2.0000      -0.741090       -20.1661
 155   2.0000      -0.735912       -20.0252
 156   2.0000      -0.734303       -19.9814
 157   2.0000      -0.722449       -19.6588
 158   2.0000      -0.719847       -19.5880
 159   2.0000      -0.715359       -19.4659
 160   2.0000      -0.713478       -19.4147
 161   2.0000      -0.708911       -19.2904
 162   2.0000      -0.702430       -19.1141
 163   2.0000      -0.700076       -19.0500
 164   2.0000      -0.693473       -18.8704
 165   2.0000      -0.689836       -18.7714
 166   2.0000      -0.687404       -18.7052
 167   2.0000      -0.679575       -18.4922
 168   2.0000      -0.669644       -18.2219
 169   2.0000      -0.663068       -18.0430
 170   2.0000      -0.661120       -17.9900
 171   2.0000      -0.659378       -17.9426
 172   2.0000      -0.645701       -17.5704
 173   2.0000      -0.643718       -17.5165
 174   2.0000      -0.638395       -17.3716
 175   2.0000      -0.636280       -17.3140
 176   2.0000      -0.635455       -17.2916
 177   2.0000      -0.635069       -17.2811
 178   2.0000      -0.633197       -17.2302
 179   2.0000      -0.630682       -17.1617
 180   2.0000      -0.622186       -16.9305
 181   2.0000      -0.617556       -16.8046
 182   2.0000      -0.614992       -16.7348
 183   2.0000      -0.613911       -16.7054
 184   2.0000      -0.607609       -16.5339
 185   2.0000      -0.606012       -16.4904
 186   2.0000      -0.600253       -16.3337
 187   2.0000      -0.588242       -16.0069
 188   2.0000      -0.586099       -15.9486
 189   2.0000      -0.583368       -15.8743
 190   2.0000      -0.578825       -15.7506
 191   2.0000      -0.577903       -15.7255
 192   2.0000      -0.572385       -15.5754
 193   2.0000      -0.571460       -15.5502
 194   2.0000      -0.570284       -15.5182
 195   2.0000      -0.567958       -15.4549
 196   2.0000      -0.563322       -15.3288
 197   2.0000      -0.562831       -15.3154
 198   2.0000      -0.561304       -15.2739
 199   2.0000      -0.558791       -15.2055
 200   2.0000      -0.558642       -15.2014
 201   2.0000      -0.554513       -15.0891
 202   2.0000      -0.553796       -15.0695
 203   2.0000      -0.552951       -15.0466
 204   2.0000      -0.552230       -15.0269
 205   2.0000      -0.549894       -14.9634
 206   2.0000      -0.548973       -14.9383
 207   2.0000      -0.548526       -14.9262
 208   2.0000      -0.546443       -14.8695
 209   2.0000      -0.545394       -14.8409
 210   2.0000      -0.544280       -14.8106
 211   2.0000      -0.542339       -14.7578
 212   2.0000      -0.539868       -14.6906
 213   2.0000      -0.538931       -14.6651
 214   2.0000      -0.537603       -14.6289
 215   2.0000      -0.532504       -14.4902
 216   2.0000      -0.530283       -14.4297
 217   2.0000      -0.528927       -14.3928
 218   2.0000      -0.527964       -14.3666
 219   2.0000      -0.527097       -14.3430
 220   2.0000      -0.526041       -14.3143
 221   2.0000      -0.522745       -14.2246
 222   2.0000      -0.521732       -14.1971
 223   2.0000      -0.520175       -14.1547
 224   2.0000      -0.516449       -14.0533
 225   2.0000      -0.514900       -14.0111
 226   2.0000      -0.513361       -13.9693
 227   2.0000      -0.510668       -13.8960
 228   2.0000      -0.507376       -13.8064
 229   2.0000      -0.507081       -13.7984
 230   2.0000      -0.504087       -13.7169
 231   2.0000      -0.503729       -13.7072
 232   2.0000      -0.502028       -13.6609
 233   2.0000      -0.495785       -13.4910
 234   2.0000      -0.494305       -13.4507
 235   2.0000      -0.492085       -13.3903
 236   2.0000      -0.489912       -13.3312
 237   2.0000      -0.487111       -13.2550
 238   2.0000      -0.485716       -13.2170
 239   2.0000      -0.482780       -13.1371
 240   2.0000      -0.481038       -13.0897
 241   2.0000      -0.478382       -13.0174
 242   2.0000      -0.477700       -12.9989
 243   2.0000      -0.476651       -12.9703
 244   2.0000      -0.473854       -12.8942
 245   2.0000      -0.472811       -12.8659
 246   2.0000      -0.467864       -12.7312
 247   2.0000      -0.465121       -12.6566
 248   2.0000      -0.462885       -12.5957
 249   2.0000      -0.462409       -12.5828
 250   2.0000      -0.461216       -12.5503
 251   2.0000      -0.458890       -12.4870
 252   2.0000      -0.452740       -12.3197
 253   2.0000      -0.449776       -12.2390
 254   2.0000      -0.449342       -12.2272
 255   2.0000      -0.446358       -12.1460
 256   2.0000      -0.444421       -12.0933
 257   2.0000      -0.439170       -11.9504
 258   2.0000      -0.436564       -11.8795
 259   2.0000      -0.434696       -11.8287
 260   2.0000      -0.433446       -11.7947
 261   2.0000      -0.432538       -11.7700
 262   2.0000      -0.426384       -11.6025
 263   2.0000      -0.422028       -11.4840
 264   2.0000      -0.418889       -11.3985
 265   2.0000      -0.410691       -11.1755
 266   2.0000      -0.407962       -11.1012
 267   2.0000      -0.401318       -10.9204
 268   2.0000      -0.387446       -10.5429
 269   2.0000      -0.386698       -10.5226
 270   2.0000      -0.385220       -10.4824
 271   2.0000      -0.383474       -10.4349
 272   2.0000      -0.380861       -10.3638
 273   2.0000      -0.380199       -10.3458
 274   2.0000      -0.379533       -10.3276
 275   2.0000      -0.372906       -10.1473
 276   2.0000      -0.371305       -10.1037
 277   2.0000      -0.366253        -9.9663
 278   2.0000      -0.364434        -9.9168
 279   2.0000      -0.360829        -9.8187
 280   2.0000      -0.358833        -9.7643
 281   2.0000      -0.357933        -9.7399
 282   2.0000      -0.354101        -9.6356
 283   2.0000      -0.350766        -9.5448
 284   2.0000      -0.349250        -9.5036
 285   2.0000      -0.347400        -9.4532
 286   2.0000      -0.343646        -9.3511
 287   2.0000      -0.341472        -9.2919
 288   2.0000      -0.331428        -9.0186
 289   2.0000      -0.327684        -8.9167
 290   2.0000      -0.319960        -8.7066
 291   2.0000      -0.318492        -8.6666
 292   2.0000      -0.313276        -8.5247
 293   2.0000      -0.303095        -8.2476
 294   2.0000      -0.301005        -8.1908
 295   2.0000      -0.295857        -8.0507
 296   2.0000      -0.246343        -6.7033
 297   0.0000      -0.106383        -2.8948
 298   0.0000      -0.105863        -2.8807
 299   0.0000      -0.101833        -2.7710
 300   0.0000      -0.097959        -2.6656
 301   0.0000      -0.079725        -2.1694

MULLIKEN ATOMIC CHARGES
-----------------------
   0 C :   -0.095648
   1 C :    0.302643
   2 F :   -0.187846
   3 C :   -0.028331
   4 C :   -0.009187
   5 C :    0.103178
   6 C :    0.102897
   7 C :   -0.082170
   8 C :    0.045523
   9 C :    0.005788
  10 C :   -0.076397
  11 C :    0.140356
  12 O :   -0.127395
  13 C :   -0.081305
  14 C :    0.320067
  15 C :   -0.362252
  16 C :   -0.176307
  17 N :    0.163182
  18 C :   -0.191506
  19 N :    0.162050
  20 C :    0.012058
  21 C :   -0.066227
  22 C :    0.049536
  23 C :    0.046123
  24 O :   -0.135227
  25 S :    0.024269
  26 C :    0.015401
  27 O :   -0.108051
  28 C :   -0.028907
  29 C :    0.149928
  30 C :    0.038380
  31 C :    0.062602
  32 C :    0.048619
  33 O :   -0.121752
  34 S :    0.042828
  35 C :    0.051844
  36 O :   -0.179314
  37 C :   -0.015589
  38 N :   -0.018514
  39 C :    0.123514
  40 C :   -0.149646
  41 C :    0.057633
  42 N :   -0.026417
  43 C :    0.110139
  44 C :   -0.107053
  45 C :    0.120748
  46 C :   -0.085655
  47 C :    0.062633
  48 C :    0.031022
  49 C :    0.019446
  50 O :   -0.110611
  51 S :    0.028384
  52 C :    0.040627
  53 O :   -0.133726
  54 C :    0.059337
  55 C :   -0.071503
  56 C :    0.062416
  57 C :    0.060828
  58 C :    0.039345
  59 O :   -0.130439
  60 S :    0.033416
  61 C :    0.051038
  62 O :   -0.121558
  63 C :   -0.000802
  64 C :   -0.076683
  65 C :    0.144028
  66 O :   -0.127779
  67 C :    0.005907
  68 C :   -0.072448
  69 C :    0.099971
  70 C :    0.100639
  71 C :   -0.094552
  72 C :    0.300294
  73 C :   -0.026600
  74 C :   -0.006315
  75 F :   -0.187333
  76 C :   -0.079477
  77 C :    0.040009
  78 C :    0.324967
  79 C :   -0.357706
  80 C :   -0.175008
  81 N :    0.156853
  82 C :   -0.190746
  83 N :    0.166892
  84 H :   -0.000658
  85 H :    0.005837
  86 H :   -0.006306
  87 H :   -0.004090
  88 H :   -0.008997
  89 H :    0.045796
  90 H :    0.138170
  91 H :   -0.024859
  92 H :    0.135792
  93 H :   -0.018081
  94 H :   -0.010358
  95 H :    0.005640
  96 H :    0.048082
  97 H :   -0.008184
  98 H :    0.000237
  99 H :    0.006230
 100 H :   -0.005454
 101 H :   -0.002174
Sum of atomic charges:   -0.0000000

LOEWDIN ATOMIC CHARGES
----------------------
   0 C :   -0.040565
   1 C :    0.093669
   2 F :   -0.062252
   3 C :   -0.033553
   4 C :    0.005513
   5 C :   -0.015419
   6 C :    0.004262
   7 C :    0.018104
   8 C :   -0.014626
   9 C :   -0.055941
  10 C :    0.037732
  11 C :    0.088579
  12 O :   -0.128277
  13 C :   -0.063077
  14 C :    0.080570
  15 C :   -0.135998
  16 C :   -0.014326
  17 N :   -0.054982
  18 C :   -0.018363
  19 N :   -0.045290
  20 C :    0.070081
  21 C :   -0.009054
  22 C :   -0.044130
  23 C :   -0.048879
  24 O :   -0.118509
  25 S :    0.306383
  26 C :   -0.047178
  27 O :   -0.102724
  28 C :   -0.059527
  29 C :    0.046942
  30 C :   -0.061640
  31 C :   -0.035176
  32 C :   -0.042007
  33 O :   -0.099101
  34 S :    0.328674
  35 C :   -0.028873
  36 O :   -0.133261
  37 C :   -0.009950
  38 N :    0.083377
  39 C :   -0.001103
  40 C :   -0.072880
  41 C :    0.012799
  42 N :    0.074729
  43 C :   -0.010263
  44 C :   -0.041983
  45 C :    0.027649
  46 C :   -0.059256
  47 C :    0.047029
  48 C :   -0.058730
  49 C :   -0.040792
  50 O :   -0.099810
  51 S :    0.312614
  52 C :   -0.051788
  53 O :   -0.119292
  54 C :   -0.044820
  55 C :    0.004141
  56 C :   -0.037403
  57 C :   -0.045107
  58 C :   -0.034610
  59 O :   -0.111438
  60 S :    0.318078
  61 C :   -0.044388
  62 O :   -0.100741
  63 C :    0.072337
  64 C :   -0.060939
  65 C :    0.089899
  66 O :   -0.127434
  67 C :   -0.056645
  68 C :    0.038644
  69 C :   -0.015460
  70 C :    0.004384
  71 C :   -0.040176
  72 C :    0.094033
  73 C :   -0.032940
  74 C :    0.005793
  75 F :   -0.061639
  76 C :    0.018864
  77 C :   -0.015487
  78 C :    0.079742
  79 C :   -0.133814
  80 C :   -0.012396
  81 N :   -0.056634
  82 C :   -0.018574
  83 N :   -0.041220
  84 H :    0.043867
  85 H :    0.042866
  86 H :    0.036757
  87 H :    0.039851
  88 H :    0.041004
  89 H :    0.053163
  90 H :    0.070946
  91 H :    0.030057
  92 H :    0.094480
  93 H :    0.027932
  94 H :    0.036004
  95 H :    0.027491
  96 H :    0.055635
  97 H :    0.041260
  98 H :    0.044179
  99 H :    0.043044
 100 H :    0.036980
 101 H :    0.040302

  Mayer bond orders larger than 0.100000
B(  0-C ,  1-C ) :   1.4433 B(  0-C ,  6-C ) :   1.1987 B(  0-C , 84-H ) :   1.0060
B(  1-C ,  2-F ) :   1.0913 B(  1-C ,  3-C ) :   1.2518 B(  3-C ,  4-C ) :   1.4632
B(  3-C , 85-H ) :   0.9933 B(  4-C ,  5-C ) :   1.2316 B(  4-C , 86-H ) :   0.9974
B(  5-C ,  6-C ) :   1.2505 B(  5-C , 10-C ) :   1.1969 B(  6-C ,  7-C ) :   1.2135
B(  7-C ,  8-C ) :   1.4491 B(  7-C , 87-H ) :   0.9914 B(  8-C ,  9-C ) :   1.2173
B(  8-C , 14-C ) :   1.0134 B(  9-C , 10-C ) :   1.4652 B(  9-C , 11-C ) :   0.9227
B( 10-C , 88-H ) :   1.0149 B( 11-C , 12-O ) :   2.2864 B( 11-C , 13-C ) :   0.9227
B( 13-C , 14-C ) :   0.9878 B( 13-C , 20-C ) :   1.8150 B( 14-C , 15-C ) :   1.6621
B( 15-C , 16-C ) :   1.1743 B( 15-C , 18-C ) :   1.1276 B( 16-C , 17-N ) :   2.9792
B( 18-C , 19-N ) :   2.9858 B( 20-C , 21-C ) :   0.9937 B( 20-C , 89-H ) :   0.9130
B( 21-C , 22-C ) :   1.3406 B( 21-C , 31-C ) :   1.4115 B( 22-C , 23-C ) :   0.8420
B( 22-C , 28-C ) :   1.3702 B( 23-C , 24-O ) :   2.1548 B( 23-C , 25-S ) :   1.0494
B( 24-O , 25-S ) :   0.1100 B( 25-S , 26-C ) :   0.9998 B( 25-S , 27-O ) :   0.1003
B( 26-C , 27-O ) :   2.2026 B( 26-C , 28-C ) :   0.8543 B( 28-C , 29-C ) :   1.2685
B( 29-C , 30-C ) :   1.2731 B( 29-C , 37-C ) :   1.1420 B( 30-C , 31-C ) :   1.3446
B( 30-C , 35-C ) :   0.8676 B( 31-C , 32-C ) :   0.8464 B( 32-C , 33-O ) :   2.1582
B( 32-C , 34-S ) :   1.0290 B( 33-O , 34-S ) :   0.1038 B( 34-S , 35-C ) :   1.0545
B( 35-C , 36-O ) :   2.0543 B( 36-O , 90-H ) :   0.1037 B( 37-C , 38-N ) :   1.2213
B( 37-C , 44-C ) :   1.3427 B( 38-N , 39-C ) :   1.2076 B( 38-N , 90-H ) :   0.8850
B( 39-C , 40-C ) :   1.2429 B( 39-C , 43-C ) :   1.2664 B( 40-C , 41-C ) :   1.3555
B( 40-C , 91-H ) :   1.0413 B( 41-C , 42-N ) :   1.2045 B( 41-C , 45-C ) :   1.1900
B( 42-N , 43-C ) :   1.1594 B( 42-N , 92-H ) :   0.9285 B( 43-C , 44-C ) :   1.3594
B( 44-C , 93-H ) :   1.0079 B( 45-C , 46-C ) :   1.6342 B( 45-C , 94-H ) :   0.9477
B( 46-C , 47-C ) :   1.1414 B( 46-C , 95-H ) :   0.9351 B( 47-C , 48-C ) :   1.3312
B( 47-C , 57-C ) :   1.3336 B( 48-C , 49-C ) :   0.8435 B( 48-C , 54-C ) :   1.3141
B( 49-C , 50-O ) :   2.1962 B( 49-C , 51-S ) :   1.0123 B( 50-O , 51-S ) :   0.1021
B( 51-S , 52-C ) :   1.0489 B( 51-S , 53-O ) :   0.1110 B( 52-C , 53-O ) :   2.1598
B( 52-C , 54-C ) :   0.8376 B( 54-C , 55-C ) :   1.3936 B( 55-C , 56-C ) :   1.4006
B( 55-C , 63-C ) :   0.9828 B( 56-C , 57-C ) :   1.3396 B( 56-C , 61-C ) :   0.8432
B( 57-C , 58-C ) :   0.8499 B( 58-C , 59-O ) :   2.1528 B( 58-C , 60-S ) :   1.0324
B( 59-O , 60-S ) :   0.1031 B( 60-S , 61-C ) :   1.0398 B( 60-S , 62-O ) :   0.1076
B( 61-C , 62-O ) :   2.1611 B( 63-C , 64-C ) :   1.8373 B( 63-C , 96-H ) :   0.9095
B( 64-C , 65-C ) :   0.9219 B( 64-C , 78-C ) :   0.9873 B( 65-C , 66-O ) :   2.2852
B( 65-C , 67-C ) :   0.9220 B( 67-C , 68-C ) :   1.4660 B( 67-C , 77-C ) :   1.2179
B( 68-C , 69-C ) :   1.1960 B( 68-C , 97-H ) :   1.0153 B( 69-C , 70-C ) :   1.2511
B( 69-C , 74-C ) :   1.2331 B( 70-C , 71-C ) :   1.1980 B( 70-C , 76-C ) :   1.2161
B( 71-C , 72-C ) :   1.4437 B( 71-C , 98-H ) :   1.0065 B( 72-C , 73-C ) :   1.2521
B( 72-C , 75-F ) :   1.0920 B( 73-C , 74-C ) :   1.4626 B( 73-C , 99-H ) :   0.9932
B( 74-C ,100-H ) :   0.9975 B( 76-C , 77-C ) :   1.4465 B( 76-C ,101-H ) :   0.9916
B( 77-C , 78-C ) :   1.0154 B( 78-C , 79-C ) :   1.6599 B( 79-C , 80-C ) :   1.1818
B( 79-C , 82-C ) :   1.1255 B( 80-C , 81-N ) :   2.9737 B( 82-C , 83-N ) :   2.9873

-----------------------------------------------------------------------------
         ABSORPTION SPECTRUM VIA TRANSITION ELECTRIC DIPOLE MOMENTS
-----------------------------------------------------------------------------
State   Energy  Wavelength   fosc         T2         TX        TY        TZ
        (cm-1)    (nm)                  (au**2)     (au)      (au)      (au)
-----------------------------------------------------------------------------
   0   13498.5    740.8   0.039229765   0.95677  -0.63396   0.03522   0.74405
   1   15097.8    662.3   0.044512350   0.97060   0.16148  -0.94547   0.22497
   2   16386.5    610.3   1.092224029  21.94320   2.83426  -3.61944  -0.89989
   3   19242.2    519.7   0.325429596   5.56772   0.59598  -1.85092  -1.33664
   4   21484.0    465.5   0.302543101   4.63605   1.17501  -1.60474  -0.82476
   5   23090.1    433.1   0.010068490   0.14355   0.17816  -0.33364  -0.02232
   6   24326.8    411.1   0.007021590   0.09502  -0.00528   0.15484  -0.26649
   7   24564.9    407.1   0.006034911   0.08088  -0.09720  -0.22946   0.13703
   8   25745.7    388.4   0.037544599   0.48009   0.21527  -0.65820   0.02286
   9   26292.2    380.3   0.001924784   0.02410  -0.05012   0.14642   0.01232
  10   26392.5    378.9   0.016854080   0.21023   0.08970   0.33915  -0.29523
  11   26459.7    377.9   0.060371345   0.75114   0.38883  -0.38956   0.66948
  12   26799.8    373.1   0.007216782   0.08865  -0.22351   0.14187   0.13626
  13   27790.8    359.8   0.040163505   0.47578   0.22462   0.23715   0.60752
  14   27970.1    357.5   0.032716081   0.38507   0.26925   0.54622   0.11923
  15   28025.5    356.8   0.091640720   1.07649  -0.36877   0.96171   0.12493
  16   28150.1    355.2   0.050362120   0.58898   0.58253   0.23850   0.43904
  17   28392.4    352.2   0.009444301   0.10951  -0.09367   0.14992   0.27975
  18   29126.3    343.3   0.110937763   1.25392   0.29756  -1.01810  -0.35895
  19   29211.3    342.3   0.030090510   0.33912  -0.44203  -0.19454  -0.32540
  20   29510.9    338.9   0.013080839   0.14592  -0.17030   0.24081   0.24276
  21   29753.4    336.1   0.088061937   0.97438  -0.66055   0.63966  -0.35900
  22   29826.7    335.3   0.063090327   0.69636   0.44336  -0.63218   0.31644
  23   30116.5    332.0   0.050387444   0.55080   0.29710   0.02162   0.67975
  24   30268.5    330.4   0.031118480   0.33846   0.34389  -0.12295   0.45285
  25   30541.1    327.4   0.110677143   1.19302   0.08324   1.08840  -0.03854
  26   30698.4    325.8   0.039721684   0.42598  -0.10091   0.16453   0.62348
  27   30740.4    325.3   0.062486719   0.66920   0.29542   0.75060  -0.13609
  28   31321.8    319.3   0.034136019   0.35879   0.53926  -0.02705   0.25934
  29   31451.8    317.9   0.006343645   0.06640   0.19005   0.04343   0.16850
  30   31720.1    315.3   0.012132393   0.12592  -0.17033   0.30815  -0.04414
  31   31777.6    314.7   0.015424003   0.15979  -0.38682  -0.02877   0.09662
  32   31855.2    313.9   0.006436779   0.06652  -0.20190  -0.14824  -0.06151
  33   31983.9    312.7   0.013971579   0.14381  -0.10432  -0.04175   0.36219
  34   32645.8    306.3   0.006869427   0.06927   0.03157   0.09446   0.24363
  35   32755.1    305.3   0.003886587   0.03906   0.00578   0.16315   0.11140
  36   32865.5    304.3   0.004661446   0.04669   0.08211  -0.18869  -0.06593
  37   32951.1    303.5   0.008421800   0.08414   0.22678   0.12105  -0.13438
  38   33626.5    297.4   0.058161981   0.56942   0.24237  -0.70153   0.13617
  39   33652.7    297.2   0.004096161   0.04007  -0.10170  -0.15904  -0.06660
  40   33831.4    295.6   0.091819420   0.89349  -0.34141   0.87985  -0.05281
  41   33978.5    294.3   0.155924185   1.51072  -0.40673   1.15609   0.09351
  42   34292.9    291.6   0.309424818   2.97048   0.69919  -1.54042   0.32970
  43   34410.7    290.6   0.247129252   2.36432  -1.03834   0.86120  -0.73791
  44   34674.7    288.4   0.084618098   0.80339   0.18891  -0.82991   0.28097
  45   34813.3    287.2   0.347536498   3.28648   0.82651  -1.53641   0.49273
  46   34990.0    285.8   0.168277458   1.58328  -0.21935  -1.18836  -0.35068
  47   35172.8    284.3   0.090693683   0.84888   0.35070   0.82161   0.22551
  48   35189.7    284.2   0.057594789   0.53882  -0.36590   0.63394   0.05525
  49   35309.8    283.2   0.397097868   3.70236   1.01072  -1.03563   1.26817
  50   35565.4    281.2   0.018777041   0.17381  -0.35860   0.06294   0.20312
  51   35597.1    280.9   0.045179146   0.41783   0.20426   0.29423  -0.53809
  52   35805.6    279.3   0.007589407   0.06978  -0.18219  -0.10879   0.15733
  53   35841.7    279.0   0.002688458   0.02469  -0.09616  -0.12295   0.01818
  54   36091.1    277.1   0.015603647   0.14233   0.11997   0.02644   0.35671
  55   36337.1    275.2   0.033473530   0.30327  -0.36032   0.35661  -0.21510
  56   36456.7    274.3   0.030824023   0.27835   0.25185   0.32756  -0.32806
  57   36527.1    273.8   0.046927827   0.42295  -0.15982  -0.49342   0.39236
  58   36892.8    271.1   0.037865524   0.33789   0.11772  -0.56831   0.03249
  59   37305.5    268.1   0.008086099   0.07136  -0.17760   0.19887  -0.01630
  60   37511.9    266.6   0.113354349   0.99482  -0.70438   0.63017  -0.31867
  61   37594.8    266.0   0.102648417   0.89888   0.38735  -0.38782   0.77358
  62   37911.6    263.8   0.051483565   0.44707   0.29380   0.30229  -0.51901
  63   37961.7    263.4   0.047800187   0.41453   0.42423  -0.20002  -0.44108
  64   38175.8    261.9   0.155046179   1.33705   0.40124  -1.04857   0.27669
  65   38492.0    259.8   0.018962329   0.16218   0.02015   0.36544   0.16800
  66   38710.3    258.3   0.047809082   0.40659  -0.27695  -0.43159  -0.37897
  67   38824.5    257.6   0.011742497   0.09957  -0.03716  -0.03481   0.31141
  68   38891.0    257.1   0.015463441   0.13090   0.34714  -0.09757   0.02953
  69   39022.8    256.3   0.012804694   0.10803  -0.10453  -0.29638  -0.09623
  70   39084.1    255.9   0.135463352   1.14103   0.57421  -0.86909  -0.23664
  71   39243.2    254.8   0.023782082   0.19951  -0.11079  -0.43250  -0.01339
  72   39476.8    253.3   0.146938739   1.22538  -0.71539   0.84432   0.02660
  73   39550.9    252.8   0.008696010   0.07238  -0.23818   0.11936   0.03749
  74   39656.8    252.2   0.036874376   0.30611  -0.38113   0.33348  -0.22281
  75   39677.4    252.0   0.029570377   0.24535   0.22336   0.15372   0.41453
  76   39813.8    251.2   0.185691399   1.53544   0.52333  -1.11684  -0.11928
  77   40065.5    249.6   0.039270909   0.32268   0.25320   0.41869   0.28857
  78   40155.8    249.0   0.042466744   0.34816  -0.17723   0.54844  -0.12635
  79   40288.8    248.2   0.038206450   0.31220   0.19878  -0.40398  -0.33088

FINAL SINGLE POINT ENERGY     -5241.668820847289

DIPOLE MOMENT
-------------
                                X             Y             Z
Electronic contribution:      1.55201       3.63572       2.25451
Nuclear contribution   :     -0.82344      -3.80013      -1.65567
                        -----------------------------------------
Total Dipole Moment    :      0.72857      -0.16441       0.59884
                        -----------------------------------------
Magnitude (a.u.)       :      0.95732
Magnitude (Debye)      :      2.43331

Rotational constants in cm-1:     0.001317     0.000191     0.000185
Rotational constants in MHz :    39.473681     5.733322     5.542986

                             ****ORCA TERMINATED NORMALLY****
TOTAL RUN TIME: 0 days 0 hours 11 minutes 42 seconds 254 msec
