                         Program Version 4.2.0 -  RELEASE  -
|  1> # ORCA input file
|  2> # SCF done       -187.175285743288          0.007076705157
|  3> ! CAM-B3LYP def2-SVP def2/J RIJCOSX Grid4 TightSCF
|  4> %maxcore 5000
|  5> %tddft
|  6>     Mode sTDDFT
|  7>     Ethresh 5.0
|  8>     maxcore 5000
|  9> end
| 10>
| 11> %pal
| 12>   nprocs 6
| 13>   end
| 14> * xyz 0 1
| 15>    C        2.07292         5.55523         6.28743
| 16>    C        1.08568         6.36805         6.77140
| 17>    F        1.20328         6.89148         8.00422
| 18>    C       -0.05944         6.68351         6.02711
| 19>    C       -0.19910         6.15905         4.77225
| 20>    C        0.78598         5.31073         4.22477
| 21>    C        1.94374         5.00333         4.99804
| 22>    C        2.94131         4.14870         4.47605
| 23>    C        2.78167         3.61537         3.22554
| 24>    C        1.62850         3.93495         2.45050
| 25>    C        0.65108         4.75972         2.93084
| 26>    C        1.71772         3.26235         1.14253
| 27>    O        0.91411         3.26560         0.23829
| 28>    C        3.06283         2.61485         1.12639
| 29>    C        3.61297         2.68837         2.46792
| 30>    C        4.57897         1.87505         2.99266
| 31>    C        5.19412         0.82478         2.28097
| 32>    N        5.69366        -0.06798         1.76069
| 33>    C        5.01820         1.93561         4.33239
| 34>    N        5.42150         1.94949         5.40640
| 35>    C        3.58052         2.17544        -0.04331
| 36>    C        4.95526         1.90893        -0.36038
| 37>    C        6.00851         2.63280         0.13242
| 38>    F        5.92094         3.64357         0.99844
| 39>    S        7.54162         2.22349        -0.52426
| 40>    C        6.76083         1.00089        -1.46760
| 41>    F        7.52152         0.25451        -2.26678
| 42>    C        5.40283         0.92300        -1.31637
| 43>    C        4.50928        -0.01092        -1.94210
| 44>    C        4.87529        -1.01049        -2.77148
| 45>    C        3.97442        -1.91969        -3.38888
| 46>    N        4.44818        -2.91561        -4.21371
| 47>    C        3.39567        -3.63380        -4.67520
| 48>    C        3.03175        -4.68410        -5.51597
| 49>    C        1.64044        -4.76461        -5.45177
| 50>    N        1.16333        -3.78873        -4.59843
| 51>    C        2.21965        -3.08481        -4.11166
| 52>    C        2.58144        -2.00776        -3.30768
| 53>    C        0.73200        -5.53001        -6.23476
| 54>    C        1.06036        -6.42439        -7.18650
| 55>    C        0.10122        -6.91993        -8.15286
| 56>    C        0.06915        -8.20921        -8.58882
| 57>    F        0.88507        -9.18341        -8.19268
| 58>    S       -1.20302        -8.58286        -9.70982
| 59>    C       -1.70822        -6.94004        -9.59931
| 60>    F       -2.73806        -6.52617       -10.33437
| 61>    C       -0.94441        -6.14233        -8.78555
| 62>    C       -1.17640        -4.72509        -8.69054
| 63>    C       -0.23898        -3.81584        -8.33287
| 64>    C       -0.52635        -2.45974        -8.06263
| 65>    C        0.31202        -1.52372        -7.52562
| 66>    C       -0.31172        -0.33544        -6.87831
| 67>    O       -1.47208         0.00526        -6.96218
| 68>    C        0.75808         0.28933        -6.08187
| 69>    C        0.67970         1.36159        -5.24081
| 70>    C        1.85886         1.84736        -4.63156
| 71>    C        3.10220         1.22118        -4.93407
| 72>    C        4.28615         1.76484        -4.39767
| 73>    C        4.21193         2.86265        -3.58633
| 74>    C        2.99452         3.46212        -3.23755
| 75>    C        1.83598         2.95634        -3.76088
| 76>    F        5.34736         3.39216        -3.08155
| 77>    C        3.14229         0.08117        -5.76929
| 78>    C        1.98401        -0.39154        -6.32998
| 79>    C        1.73441        -1.49535        -7.25698
| 80>    C        2.72112        -2.25724        -7.83062
| 81>    C        2.58068        -3.12545        -8.93240
| 82>    N        2.59036        -3.80223        -9.86019
| 83>    C        4.07065        -2.22176        -7.42626
| 84>    N        5.17453        -2.28713        -7.11377
| 85>    H        2.94047         5.33193         6.88790
| 86>    H       -0.80441         7.33110         6.46137
| 87>    H       -1.07286         6.38753         4.18183
| 88>    H        3.81390         3.94348         5.07470
| 89>    H       -0.21745         4.98832         2.33144
| 90>    H        2.88057         2.11031        -0.87099
| 91>    H        3.46562         0.11191        -1.69772
| 92>    H        5.91728        -1.16362        -3.00830
| 93>    H        5.40887        -3.02262        -4.48921
| 94>    H        3.66968        -5.30516        -6.10848
| 95>    H        0.19542        -3.66307        -4.36394
| 96>    H        1.94165        -1.36831        -2.73676
| 97>    H       -0.31289        -5.27240        -6.10670
| 98>    H        2.06970        -6.79493        -7.27537
| 99>    H       -2.16983        -4.39178        -8.97109
|100>    H        0.76539        -4.15785        -8.15089
|101>    H       -1.56285        -2.14394        -8.14503
|102>    H       -0.27178         1.84728        -5.05421
|103>    H        5.24033         1.32700        -4.63772
|104>    H        2.99454         4.31372        -2.57579
|105>    H        0.88752         3.40743        -3.51249
|106>    H        4.09756        -0.37754        -5.95633
|107> *
|108>
|109>                          ****END OF INPUT****

CARTESIAN COORDINATES (ANGSTROEM)
---------------------------------
  C      2.072920    5.555230    6.287430
  C      1.085680    6.368050    6.771400
  F      1.203280    6.891480    8.004220
  C     -0.059440    6.683510    6.027110
  C     -0.199100    6.159050    4.772250
  C      0.785980    5.310730    4.224770
  C      1.943740    5.003330    4.998040
  C      2.941310    4.148700    4.476050
  C      2.781670    3.615370    3.225540
  C      1.628500    3.934950    2.450500
  C      0.651080    4.759720    2.930840
  C      1.717720    3.262350    1.142530
  O      0.914110    3.265600    0.238290
  C      3.062830    2.614850    1.126390
  C      3.612970    2.688370    2.467920
  C      4.578970    1.875050    2.992660
  C      5.194120    0.824780    2.280970
  N      5.693660   -0.067980    1.760690
  C      5.018200    1.935610    4.332390
  N      5.421500    1.949490    5.406400
  C      3.580520    2.175440   -0.043310
  C      4.955260    1.908930   -0.360380
  C      6.008510    2.632800    0.132420
  F      5.920940    3.643570    0.998440
  S      7.541620    2.223490   -0.524260
  C      6.760830    1.000890   -1.467600
  F      7.521520    0.254510   -2.266780
  C      5.402830    0.923000   -1.316370
  C      4.509280   -0.010920   -1.942100
  C      4.875290   -1.010490   -2.771480
  C      3.974420   -1.919690   -3.388880
  N      4.448180   -2.915610   -4.213710
  C      3.395670   -3.633800   -4.675200
  C      3.031750   -4.684100   -5.515970
  C      1.640440   -4.764610   -5.451770
  N      1.163330   -3.788730   -4.598430
  C      2.219650   -3.084810   -4.111660
  C      2.581440   -2.007760   -3.307680
  C      0.732000   -5.530010   -6.234760
  C      1.060360   -6.424390   -7.186500
  C      0.101220   -6.919930   -8.152860
  C      0.069150   -8.209210   -8.588820
  F      0.885070   -9.183410   -8.192680
  S     -1.203020   -8.582860   -9.709820
  C     -1.708220   -6.940040   -9.599310
  F     -2.738060   -6.526170  -10.334370
  C     -0.944410   -6.142330   -8.785550
  C     -1.176400   -4.725090   -8.690540
  C     -0.238980   -3.815840   -8.332870
  C     -0.526350   -2.459740   -8.062630
  C      0.312020   -1.523720   -7.525620
  C     -0.311720   -0.335440   -6.878310
  O     -1.472080    0.005260   -6.962180
  C      0.758080    0.289330   -6.081870
  C      0.679700    1.361590   -5.240810
  C      1.858860    1.847360   -4.631560
  C      3.102200    1.221180   -4.934070
  C      4.286150    1.764840   -4.397670
  C      4.211930    2.862650   -3.586330
  C      2.994520    3.462120   -3.237550
  C      1.835980    2.956340   -3.760880
  F      5.347360    3.392160   -3.081550
  C      3.142290    0.081170   -5.769290
  C      1.984010   -0.391540   -6.329980
  C      1.734410   -1.495350   -7.256980
  C      2.721120   -2.257240   -7.830620
  C      2.580680   -3.125450   -8.932400
  N      2.590360   -3.802230   -9.860190
  C      4.070650   -2.221760   -7.426260
  N      5.174530   -2.287130   -7.113770
  H      2.940470    5.331930    6.887900
  H     -0.804410    7.331100    6.461370
  H     -1.072860    6.387530    4.181830
  H      3.813900    3.943480    5.074700
  H     -0.217450    4.988320    2.331440
  H      2.880570    2.110310   -0.870990
  H      3.465620    0.111910   -1.697720
  H      5.917280   -1.163620   -3.008300
  H      5.408870   -3.022620   -4.489210
  H      3.669680   -5.305160   -6.108480
  H      0.195420   -3.663070   -4.363940
  H      1.941650   -1.368310   -2.736760
  H     -0.312890   -5.272400   -6.106700
  H      2.069700   -6.794930   -7.275370
  H     -2.169830   -4.391780   -8.971090
  H      0.765390   -4.157850   -8.150890
  H     -1.562850   -2.143940   -8.145030
  H     -0.271780    1.847280   -5.054210
  H      5.240330    1.327000   -4.637720
  H      2.994540    4.313720   -2.575790
  H      0.887520    3.407430   -3.512490
  H      4.097560   -0.377540   -5.956330

 Total Charge           Charge          ....    0
 Multiplicity           Mult            ....    1
 Number of Electrons    NEL             ....  490
 Basis Dimension        Dim             .... 1098

ORBITAL ENERGIES
----------------

  NO   OCC          E(Eh)            E(eV)
   0   2.0000     -88.985990     -2421.4319
   1   2.0000     -88.985795     -2421.4266
   2   2.0000     -24.822505      -675.4547
   3   2.0000     -24.817164      -675.3094
   4   2.0000     -24.812619      -675.1857
   5   2.0000     -24.807392      -675.0435
   6   2.0000     -24.789689      -674.5617
   7   2.0000     -24.787278      -674.4961
   8   2.0000     -19.221803      -523.0518
   9   2.0000     -19.209752      -522.7239
  10   2.0000     -14.458820      -393.4445
  11   2.0000     -14.452395      -393.2697
  12   2.0000     -14.419560      -392.3762
  13   2.0000     -14.418083      -392.3360
  14   2.0000     -14.415353      -392.2617
  15   2.0000     -14.409654      -392.1066
  16   2.0000     -10.397750      -282.9372
  17   2.0000     -10.396118      -282.8927
  18   2.0000     -10.384996      -282.5901
  19   2.0000     -10.384578      -282.5787
  20   2.0000     -10.373738      -282.2838
  21   2.0000     -10.372547      -282.2514
  22   2.0000     -10.365859      -282.0694
  23   2.0000     -10.360269      -281.9173
  24   2.0000     -10.348061      -281.5851
  25   2.0000     -10.344110      -281.4775
  26   2.0000     -10.337980      -281.3107
  27   2.0000     -10.336585      -281.2728
  28   2.0000     -10.323796      -280.9248
  29   2.0000     -10.321754      -280.8692
  30   2.0000     -10.319977      -280.8208
  31   2.0000     -10.319408      -280.8054
  32   2.0000     -10.312862      -280.6272
  33   2.0000     -10.311598      -280.5928
  34   2.0000     -10.310846      -280.5724
  35   2.0000     -10.310590      -280.5654
  36   2.0000     -10.310254      -280.5563
  37   2.0000     -10.305976      -280.4399
  38   2.0000     -10.305646      -280.4309
  39   2.0000     -10.305361      -280.4231
  40   2.0000     -10.305216      -280.4192
  41   2.0000     -10.303706      -280.3781
  42   2.0000     -10.303285      -280.3666
  43   2.0000     -10.302318      -280.3403
  44   2.0000     -10.302186      -280.3367
  45   2.0000     -10.302074      -280.3337
  46   2.0000     -10.301594      -280.3206
  47   2.0000     -10.299888      -280.2742
  48   2.0000     -10.298570      -280.2383
  49   2.0000     -10.298455      -280.2352
  50   2.0000     -10.298233      -280.2292
  51   2.0000     -10.297471      -280.2084
  52   2.0000     -10.295572      -280.1568
  53   2.0000     -10.295389      -280.1518
  54   2.0000     -10.293961      -280.1129
  55   2.0000     -10.293206      -280.0924
  56   2.0000     -10.292918      -280.0845
  57   2.0000     -10.292789      -280.0810
  58   2.0000     -10.292289      -280.0674
  59   2.0000     -10.290834      -280.0278
  60   2.0000     -10.288704      -279.9699
  61   2.0000     -10.287943      -279.9492
  62   2.0000     -10.285699      -279.8881
  63   2.0000     -10.284963      -279.8681
  64   2.0000     -10.284527      -279.8562
  65   2.0000     -10.281426      -279.7718
  66   2.0000     -10.280692      -279.7518
  67   2.0000     -10.279259      -279.7129
  68   2.0000     -10.262982      -279.2699
  69   2.0000     -10.261144      -279.2199
  70   2.0000      -8.083158      -219.9539
  71   2.0000      -8.083061      -219.9513
  72   2.0000      -6.052301      -164.6915
  73   2.0000      -6.052206      -164.6889
  74   2.0000      -6.048637      -164.5918
  75   2.0000      -6.048634      -164.5917
  76   2.0000      -6.044639      -164.4830
  77   2.0000      -6.044431      -164.4773
  78   2.0000      -1.336627       -36.3715
  79   2.0000      -1.332980       -36.2722
  80   2.0000      -1.327593       -36.1256
  81   2.0000      -1.323117       -36.0039
  82   2.0000      -1.304809       -35.5057
  83   2.0000      -1.299499       -35.3612
  84   2.0000      -1.136597       -30.9284
  85   2.0000      -1.124196       -30.5909
  86   2.0000      -1.088741       -29.6261
  87   2.0000      -1.052296       -28.6344
  88   2.0000      -1.023442       -27.8493
  89   2.0000      -1.015314       -27.6281
  90   2.0000      -1.007953       -27.4278
  91   2.0000      -1.006250       -27.3815
  92   2.0000      -1.004556       -27.3354
  93   2.0000      -0.996935       -27.1280
  94   2.0000      -0.996147       -27.1065
  95   2.0000      -0.991166       -26.9710
  96   2.0000      -0.980315       -26.6757
  97   2.0000      -0.972273       -26.4569
  98   2.0000      -0.933471       -25.4010
  99   2.0000      -0.932579       -25.3768
 100   2.0000      -0.919583       -25.0231
 101   2.0000      -0.915175       -24.9032
 102   2.0000      -0.906013       -24.6539
 103   2.0000      -0.905647       -24.6439
 104   2.0000      -0.893131       -24.3033
 105   2.0000      -0.891776       -24.2665
 106   2.0000      -0.885588       -24.0981
 107   2.0000      -0.882029       -24.0012
 108   2.0000      -0.873298       -23.7636
 109   2.0000      -0.866224       -23.5712
 110   2.0000      -0.861819       -23.4513
 111   2.0000      -0.848329       -23.0842
 112   2.0000      -0.840046       -22.8588
 113   2.0000      -0.835731       -22.7414
 114   2.0000      -0.830544       -22.6003
 115   2.0000      -0.825497       -22.4629
 116   2.0000      -0.818737       -22.2790
 117   2.0000      -0.791805       -21.5461
 118   2.0000      -0.785232       -21.3672
 119   2.0000      -0.774263       -21.0688
 120   2.0000      -0.765803       -20.8386
 121   2.0000      -0.758448       -20.6384
 122   2.0000      -0.743432       -20.2298
 123   2.0000      -0.733588       -19.9619
 124   2.0000      -0.727376       -19.7929
 125   2.0000      -0.714187       -19.4340
 126   2.0000      -0.713209       -19.4074
 127   2.0000      -0.711980       -19.3740
 128   2.0000      -0.705964       -19.2103
 129   2.0000      -0.702050       -19.1038
 130   2.0000      -0.699131       -19.0243
 131   2.0000      -0.693145       -18.8614
 132   2.0000      -0.687631       -18.7114
 133   2.0000      -0.685361       -18.6496
 134   2.0000      -0.683326       -18.5942
 135   2.0000      -0.677317       -18.4307
 136   2.0000      -0.671762       -18.2796
 137   2.0000      -0.669865       -18.2280
 138   2.0000      -0.657124       -17.8813
 139   2.0000      -0.644718       -17.5437
 140   2.0000      -0.643724       -17.5166
 141   2.0000      -0.638672       -17.3792
 142   2.0000      -0.634097       -17.2547
 143   2.0000      -0.632112       -17.2006
 144   2.0000      -0.628842       -17.1117
 145   2.0000      -0.625040       -17.0082
 146   2.0000      -0.623829       -16.9753
 147   2.0000      -0.612085       -16.6557
 148   2.0000      -0.610273       -16.6064
 149   2.0000      -0.606971       -16.5165
 150   2.0000      -0.603766       -16.4293
 151   2.0000      -0.599062       -16.3013
 152   2.0000      -0.596145       -16.2219
 153   2.0000      -0.594017       -16.1640
 154   2.0000      -0.589677       -16.0459
 155   2.0000      -0.584307       -15.8998
 156   2.0000      -0.578979       -15.7548
 157   2.0000      -0.576268       -15.6810
 158   2.0000      -0.575294       -15.6546
 159   2.0000      -0.571353       -15.5473
 160   2.0000      -0.570945       -15.5362
 161   2.0000      -0.564427       -15.3588
 162   2.0000      -0.562231       -15.2991
 163   2.0000      -0.561783       -15.2869
 164   2.0000      -0.560466       -15.2511
 165   2.0000      -0.556757       -15.1501
 166   2.0000      -0.555345       -15.1117
 167   2.0000      -0.552207       -15.0263
 168   2.0000      -0.549425       -14.9506
 169   2.0000      -0.546669       -14.8756
 170   2.0000      -0.546182       -14.8624
 171   2.0000      -0.543218       -14.7817
 172   2.0000      -0.537791       -14.6340
 173   2.0000      -0.535228       -14.5643
 174   2.0000      -0.532735       -14.4965
 175   2.0000      -0.527820       -14.3627
 176   2.0000      -0.525861       -14.3094
 177   2.0000      -0.523276       -14.2391
 178   2.0000      -0.520766       -14.1708
 179   2.0000      -0.520002       -14.1500
 180   2.0000      -0.519783       -14.1440
 181   2.0000      -0.517942       -14.0939
 182   2.0000      -0.513128       -13.9629
 183   2.0000      -0.510617       -13.8946
 184   2.0000      -0.505786       -13.7631
 185   2.0000      -0.502179       -13.6650
 186   2.0000      -0.498766       -13.5721
 187   2.0000      -0.494774       -13.4635
 188   2.0000      -0.494317       -13.4510
 189   2.0000      -0.493181       -13.4201
 190   2.0000      -0.488418       -13.2905
 191   2.0000      -0.486587       -13.2407
 192   2.0000      -0.484722       -13.1900
 193   2.0000      -0.480305       -13.0698
 194   2.0000      -0.477518       -12.9939
 195   2.0000      -0.477288       -12.9877
 196   2.0000      -0.473969       -12.8974
 197   2.0000      -0.472411       -12.8550
 198   2.0000      -0.467572       -12.7233
 199   2.0000      -0.465517       -12.6674
 200   2.0000      -0.462838       -12.5945
 201   2.0000      -0.461329       -12.5534
 202   2.0000      -0.456797       -12.4301
 203   2.0000      -0.454803       -12.3758
 204   2.0000      -0.453159       -12.3311
 205   2.0000      -0.452718       -12.3191
 206   2.0000      -0.452369       -12.3096
 207   2.0000      -0.447779       -12.1847
 208   2.0000      -0.444611       -12.0985
 209   2.0000      -0.444292       -12.0898
 210   2.0000      -0.441496       -12.0137
 211   2.0000      -0.440878       -11.9969
 212   2.0000      -0.438628       -11.9357
 213   2.0000      -0.436919       -11.8892
 214   2.0000      -0.433090       -11.7850
 215   2.0000      -0.430022       -11.7015
 216   2.0000      -0.429714       -11.6931
 217   2.0000      -0.428567       -11.6619
 218   2.0000      -0.425245       -11.5715
 219   2.0000      -0.423604       -11.5268
 220   2.0000      -0.422484       -11.4964
 221   2.0000      -0.415378       -11.3030
 222   2.0000      -0.413944       -11.2640
 223   2.0000      -0.405733       -11.0405
 224   2.0000      -0.402156       -10.9432
 225   2.0000      -0.399528       -10.8717
 226   2.0000      -0.385506       -10.4901
 227   2.0000      -0.384796       -10.4708
 228   2.0000      -0.381594       -10.3837
 229   2.0000      -0.371408       -10.1065
 230   2.0000      -0.363567        -9.8932
 231   2.0000      -0.353108        -9.6085
 232   2.0000      -0.341963        -9.3053
 233   2.0000      -0.341516        -9.2931
 234   2.0000      -0.333492        -9.0748
 235   2.0000      -0.323239        -8.7958
 236   2.0000      -0.317053        -8.6275
 237   2.0000      -0.310959        -8.4616
 238   2.0000      -0.305641        -8.3169
 239   2.0000      -0.298531        -8.1234
 240   2.0000      -0.295577        -8.0431
 241   2.0000      -0.287795        -7.8313
 242   2.0000      -0.282314        -7.6822
 243   2.0000      -0.276844        -7.5333
 244   2.0000      -0.222977        -6.0675
 245   0.0000      -0.093138        -2.5344
 246   0.0000      -0.092061        -2.5051
 247   0.0000      -0.059132        -1.6091
 248   0.0000      -0.055217        -1.5025
 249   0.0000      -0.038138        -1.0378

MULLIKEN ATOMIC CHARGES
-----------------------
   0 C :   -0.098227
   1 C :    0.305305
   2 F :   -0.188060
   3 C :   -0.028431
   4 C :   -0.009064
   5 C :    0.100772
   6 C :    0.102313
   7 C :   -0.084081
   8 C :    0.038816
   9 C :    0.009430
  10 C :   -0.079285
  11 C :    0.133766
  12 O :   -0.146522
  13 C :   -0.095496
  14 C :    0.279315
  15 C :   -0.321736
  16 C :   -0.214375
  17 N :    0.186399
  18 C :   -0.184226
  19 N :    0.157945
  20 C :   -0.006448
  21 C :    0.006485
  22 C :    0.087291
  23 F :   -0.152765
  24 S :    0.137485
  25 C :    0.027709
  26 F :   -0.159155
  27 C :    0.151661
  28 C :   -0.019510
  29 C :    0.011669
  30 C :    0.073966
  31 N :   -0.018945
  32 C :    0.089569
  33 C :   -0.149151
  34 C :    0.075062
  35 N :   -0.039761
  36 C :    0.117721
  37 C :   -0.168518
  38 C :    0.009782
  39 C :   -0.042666
  40 C :    0.076184
  41 C :    0.061040
  42 F :   -0.155324
  43 S :    0.112082
  44 C :    0.080614
  45 F :   -0.153708
  46 C :    0.050269
  47 C :   -0.007757
  48 C :    0.007223
  49 C :    0.005459
  50 C :   -0.118736
  51 C :    0.130881
  52 O :   -0.149275
  53 C :   -0.003393
  54 C :   -0.093893
  55 C :    0.105776
  56 C :    0.081801
  57 C :   -0.042605
  58 C :    0.280789
  59 C :   -0.035276
  60 C :   -0.012755
  61 F :   -0.199643
  62 C :   -0.056874
  63 C :    0.053127
  64 C :    0.347632
  65 C :   -0.344607
  66 C :   -0.231322
  67 N :    0.170578
  68 C :   -0.168506
  69 N :    0.113803
  70 H :   -0.000774
  71 H :    0.005069
  72 H :   -0.008937
  73 H :   -0.003407
  74 H :   -0.012343
  75 H :    0.038313
  76 H :   -0.020447
  77 H :   -0.019494
  78 H :    0.128116
  79 H :   -0.027436
  80 H :    0.120616
  81 H :   -0.038318
  82 H :   -0.014279
  83 H :    0.012646
  84 H :    0.009099
  85 H :    0.059668
  86 H :    0.013860
  87 H :   -0.011803
  88 H :   -0.011804
  89 H :    0.004006
  90 H :   -0.004817
  91 H :   -0.017156
Sum of atomic charges:   -0.0000000

LOEWDIN ATOMIC CHARGES
----------------------
   0 C :   -0.041275
   1 C :    0.094375
   2 F :   -0.062962
   3 C :   -0.035668
   4 C :    0.005315
   5 C :   -0.018758
   6 C :    0.004499
   7 C :    0.013166
   8 C :   -0.016166
   9 C :   -0.061853
  10 C :    0.036044
  11 C :    0.085002
  12 O :   -0.147821
  13 C :   -0.083273
  14 C :    0.067201
  15 C :   -0.129472
  16 C :   -0.021605
  17 N :   -0.039701
  18 C :   -0.018047
  19 N :   -0.047298
  20 C :    0.069800
  21 C :   -0.100334
  22 C :   -0.065078
  23 F :   -0.040448
  24 S :    0.454560
  25 C :   -0.078198
  26 F :   -0.045034
  27 C :   -0.075558
  28 C :   -0.027946
  29 C :   -0.021641
  30 C :   -0.004928
  31 N :    0.085203
  32 C :   -0.023914
  33 C :   -0.082816
  34 C :   -0.012622
  35 N :    0.071751
  36 C :   -0.024581
  37 C :   -0.092505
  38 C :   -0.018593
  39 C :   -0.036760
  40 C :   -0.081809
  41 C :   -0.080627
  42 F :   -0.048597
  43 S :    0.430205
  44 C :   -0.067761
  45 F :   -0.045491
  46 C :   -0.097301
  47 C :    0.036629
  48 C :   -0.030548
  49 C :    0.067418
  50 C :   -0.095236
  51 C :    0.079847
  52 O :   -0.151936
  53 C :   -0.060715
  54 C :    0.028733
  55 C :   -0.020605
  56 C :    0.002405
  57 C :   -0.028206
  58 C :    0.082707
  59 C :   -0.041632
  60 C :    0.002803
  61 F :   -0.068492
  62 C :    0.020436
  63 C :   -0.016686
  64 C :    0.070401
  65 C :   -0.137757
  66 C :   -0.026526
  67 N :   -0.052699
  68 C :   -0.000332
  69 N :   -0.078614
  70 H :    0.043849
  71 H :    0.042549
  72 H :    0.035777
  73 H :    0.039865
  74 H :    0.039526
  75 H :    0.044268
  76 H :    0.027580
  77 H :    0.025705
  78 H :    0.089217
  79 H :    0.026834
  80 H :    0.087649
  81 H :    0.021952
  82 H :    0.028326
  83 H :    0.034005
  84 H :    0.037957
  85 H :    0.037501
  86 H :    0.042130
  87 H :    0.039953
  88 H :    0.039383
  89 H :    0.041178
  90 H :    0.038012
  91 H :    0.034711

  Mayer bond orders larger than 0.100000
B(  0-C ,  1-C ) :   1.4411 B(  0-C ,  6-C ) :   1.2014 B(  0-C , 70-H ) :   1.0070
B(  1-C ,  2-F ) :   1.0911 B(  1-C ,  3-C ) :   1.2526 B(  3-C ,  4-C ) :   1.4622
B(  3-C , 71-H ) :   0.9933 B(  4-C ,  5-C ) :   1.2324 B(  4-C , 72-H ) :   0.9974
B(  5-C ,  6-C ) :   1.2538 B(  5-C , 10-C ) :   1.1954 B(  6-C ,  7-C ) :   1.2056
B(  7-C ,  8-C ) :   1.4578 B(  7-C , 73-H ) :   0.9937 B(  8-C ,  9-C ) :   1.2129
B(  8-C , 14-C ) :   1.0037 B(  9-C , 10-C ) :   1.4639 B(  9-C , 11-C ) :   0.9248
B( 10-C , 74-H ) :   1.0154 B( 11-C , 12-O ) :   2.2624 B( 11-C , 13-C ) :   0.9321
B( 13-C , 14-C ) :   1.0184 B( 13-C , 20-C ) :   1.7308 B( 14-C , 15-C ) :   1.6699
B( 15-C , 16-C ) :   1.1653 B( 15-C , 18-C ) :   1.1307 B( 16-C , 17-N ) :   3.0205
B( 18-C , 19-N ) :   2.9868 B( 20-C , 21-C ) :   1.0478 B( 20-C , 75-H ) :   0.9242
B( 21-C , 22-C ) :   1.4401 B( 21-C , 27-C ) :   1.1544 B( 22-C , 23-F ) :   1.1190
B( 22-C , 24-S ) :   1.1539 B( 24-S , 25-C ) :   1.1110 B( 25-C , 26-F ) :   1.1014
B( 25-C , 27-C ) :   1.4401 B( 27-C , 28-C ) :   1.1072 B( 28-C , 29-C ) :   1.6830
B( 28-C , 76-H ) :   0.9671 B( 29-C , 30-C ) :   1.0961 B( 29-C , 77-H ) :   0.9685
B( 30-C , 31-N ) :   1.1887 B( 30-C , 37-C ) :   1.3892 B( 31-N , 32-C ) :   1.1747
B( 31-N , 78-H ) :   0.9268 B( 32-C , 33-C ) :   1.2443 B( 32-C , 36-C ) :   1.3290
B( 33-C , 34-C ) :   1.4080 B( 33-C , 79-H ) :   1.0413 B( 34-C , 35-N ) :   1.1693
B( 34-C , 38-C ) :   1.1126 B( 35-N , 36-C ) :   1.1587 B( 35-N , 80-H ) :   0.9354
B( 36-C , 37-C ) :   1.2491 B( 37-C , 81-H ) :   1.0416 B( 38-C , 39-C ) :   1.7510
B( 38-C , 82-H ) :   0.9492 B( 39-C , 40-C ) :   1.0382 B( 39-C , 83-H ) :   0.9726
B( 40-C , 41-C ) :   1.5057 B( 40-C , 46-C ) :   1.1510 B( 41-C , 42-F ) :   1.1469
B( 41-C , 43-S ) :   1.0914 B( 43-S , 44-C ) :   1.1371 B( 44-C , 45-F ) :   1.1403
B( 44-C , 46-C ) :   1.4443 B( 46-C , 47-C ) :   1.0737 B( 47-C , 48-C ) :   1.6657
B( 47-C , 84-H ) :   0.9822 B( 48-C , 49-C ) :   1.1521 B( 48-C , 85-H ) :   0.9343
B( 49-C , 50-C ) :   1.5954 B( 49-C , 86-H ) :   0.9539 B( 50-C , 51-C ) :   0.9411
B( 50-C , 64-C ) :   1.0380 B( 51-C , 52-O ) :   2.2565 B( 51-C , 53-C ) :   0.9267
B( 53-C , 54-C ) :   1.4674 B( 53-C , 63-C ) :   1.2155 B( 54-C , 55-C ) :   1.1750
B( 54-C , 87-H ) :   1.0142 B( 55-C , 56-C ) :   1.2639 B( 55-C , 60-C ) :   1.2328
B( 56-C , 57-C ) :   1.2148 B( 56-C , 62-C ) :   1.2097 B( 57-C , 58-C ) :   1.4396
B( 57-C , 88-H ) :   0.9967 B( 58-C , 59-C ) :   1.2643 B( 58-C , 61-F ) :   1.0500
B( 59-C , 60-C ) :   1.4428 B( 59-C , 89-H ) :   0.9922 B( 60-C , 90-H ) :   0.9994
B( 62-C , 63-C ) :   1.4545 B( 62-C , 91-H ) :   0.9778 B( 63-C , 64-C ) :   1.0154
B( 64-C , 65-C ) :   1.6102 B( 65-C , 66-C ) :   1.1578 B( 65-C , 68-C ) :   1.1489
B( 66-C , 67-N ) :   2.9981 B( 68-C , 69-N ) :   2.9180

-----------------------------------------------------------------------------
         ABSORPTION SPECTRUM VIA TRANSITION ELECTRIC DIPOLE MOMENTS
-----------------------------------------------------------------------------
State   Energy  Wavelength   fosc         T2         TX        TY        TZ
        (cm-1)    (nm)                  (au**2)     (au)      (au)      (au)
-----------------------------------------------------------------------------
   0   10922.5    915.5   0.044017767   1.32672   0.38196  -0.59083   0.91200
   1   14789.8    676.1   0.055344806   1.23194   0.14816   0.73986   0.81400
   2   19041.9    525.2   0.008115806   0.14031   0.15114   0.33798   0.05693
   3   22085.4    452.8   0.073143878   1.09030   0.81851   0.59278   0.26260
   4   23076.1    433.3   0.173455583   2.47457  -0.63928  -1.00738  -1.02522
   5   23524.5    425.1   0.005131202   0.07181  -0.26490   0.03664   0.01711
   6   24194.3    413.3   0.086748023   1.18038  -0.47781  -0.18046   0.95891
   7   24801.6    403.2   0.654147977   8.68304  -0.55448  -1.92504  -2.16097
   8   25947.3    385.4   1.318618378  16.73024   2.37763   3.01982   1.39920
   9   26539.7    376.8   0.016569022   0.20553   0.29271  -0.29213   0.18578
  10   27911.1    358.3   0.037890079   0.44691  -0.32594  -0.36979  -0.45159
  11   28065.4    356.3   0.022265385   0.26118   0.08916   0.48881   0.11953
  12   28230.7    354.2   0.017146452   0.19995   0.38100   0.09477  -0.21403
  13   28436.0    351.7   0.019854998   0.22987   0.45855   0.08325  -0.11254
  14   29173.5    342.8   0.056211225   0.63432   0.03736   0.22243  -0.76384
  15   29527.8    338.7   0.031727531   0.35374   0.14341  -0.55970  -0.14108
  16   29580.2    338.1   0.031563202   0.35128  -0.56127  -0.10232   0.16060
  17   29785.5    335.7   0.067564918   0.74678  -0.33088   0.56247   0.56650
  18   30637.7    326.4   0.301782831   3.24276   0.21167   1.63964   0.71381
  19   30705.6    325.7   0.015709991   0.16844  -0.04721   0.36045   0.19048
  20   31214.2    320.4   0.287788638   3.03526   0.28764   1.27869   1.14782
  21   32173.4    310.8   0.014143728   0.14472   0.15299  -0.34811  -0.01176
  22   32519.0    307.5   0.103529953   1.04810  -0.08736   0.94332   0.38809
  23   32711.9    305.7   0.057655887   0.58025   0.30522  -0.55004  -0.42959
  24   32912.3    303.8   0.098004796   0.98031  -0.18977  -0.77307  -0.58879
  25   32992.1    303.1   0.429542074   4.28619   0.46823   1.56451   1.27250
  26   33387.3    299.5   0.085083299   0.83896  -0.80477   0.23220   0.37066
  27   33424.4    299.2   0.163324076   1.60865  -0.69251   0.64485   0.84454
  28   34143.9    292.9   0.559591842   5.39553   1.58980  -1.53144  -0.72301
  29   34288.6    291.6   0.270722097   2.59926  -0.36725   1.29202   0.89167
  30   34457.9    290.2   0.082053871   0.78395  -0.78516   0.29746   0.28104
  31   34585.5    289.1   0.429726922   4.09048  -0.30041  -1.54964  -1.26446
  32   35120.9    284.7   0.029441875   0.27598   0.18056   0.35911   0.33825
  33   35346.3    282.9   0.257091899   2.39453   1.01540  -0.95817  -0.66738
  34   35913.9    278.4   0.099023374   0.90772  -0.24230  -0.57820  -0.71742
  35   36233.1    276.0   0.032364165   0.29406   0.53322  -0.05913   0.07900
  36   36680.7    272.6   0.016955802   0.15218   0.38004  -0.07906   0.03876
  37   36894.5    271.0   0.037544733   0.33501   0.43782   0.08254   0.36947
  38   37219.0    268.7   0.075154562   0.66476   0.00761  -0.76322  -0.28671
  39   37664.0    265.5   0.022996496   0.20101  -0.01971   0.21703   0.39181
  40   37852.7    264.2   0.039584026   0.34427  -0.30387  -0.45799  -0.20538
  41   37919.8    263.7   0.081355327   0.70631  -0.25320   0.55744   0.57573
  42   38044.6    262.8   0.070086665   0.60648  -0.36236   0.52272   0.44939
  43   38458.8    260.0   0.027456873   0.23503  -0.24995  -0.41536  -0.00557
  44   38793.5    257.8   0.043919164   0.37271   0.46179  -0.39396  -0.06523
  45   38849.1    257.4   0.041813024   0.35433  -0.27483   0.42880   0.30810
  46   38962.4    256.7   0.151437139   1.27957  -0.73212   0.21630  -0.83474
  47   39326.6    254.3   0.044461062   0.37219   0.60149   0.02853   0.09790
  48   39510.4    253.1   0.085762312   0.71460   0.40182   0.41235   0.61895
  49   40077.9    249.5   0.014637097   0.12023   0.30133  -0.05590   0.16219
  50   40219.1    248.6   0.035843642   0.29340   0.38277  -0.26450  -0.27735

FINAL SINGLE POINT ENERGY     -3941.125219490534

DIPOLE MOMENT
-------------
                                X             Y             Z
Electronic contribution:     15.00860      -7.79670      -0.96823
Nuclear contribution   :    -16.98235       8.92227       1.52069
                        -----------------------------------------
Total Dipole Moment    :     -1.97374       1.12557       0.55246
                        -----------------------------------------
Magnitude (a.u.)       :      2.33833
Magnitude (Debye)      :      5.94356

Rotational constants in cm-1:     0.002094     0.000403     0.000384
Rotational constants in MHz :    62.776011    12.073800    11.513851

                             ****ORCA TERMINATED NORMALLY****
TOTAL RUN TIME: 0 days 0 hours 19 minutes 2 seconds 233 msec
