                         Program Version 4.2.0 -  RELEASE  -
|  1> # ORCA input file
|  2> # SCF done       -181.954709724645          0.000842263941
|  3> ! CAM-B3LYP def2-SVP def2/J RIJCOSX Grid4 TightSCF
|  4> %maxcore 5000
|  5> %tddft
|  6>     Mode sTDDFT
|  7>     Ethresh 5.0
|  8>     maxcore 5000
|  9> end
| 10>
| 11> %pal
| 12>   nprocs 6
| 13>   end
| 14> * xyz 0 1
| 15>    C        6.60263        -6.01867         4.83401
| 16>    C        5.68111        -6.60688         5.65503
| 17>    F        6.09686        -7.43214         6.63168
| 18>    C        4.30379        -6.38342         5.52069
| 19>    C        3.86214        -5.54658         4.53379
| 20>    C        4.76845        -4.91301         3.65898
| 21>    C        6.16521        -5.15578         3.81026
| 22>    C        7.09263        -4.54369         2.93539
| 23>    C        6.63605        -3.71493         1.94595
| 24>    C        5.23978        -3.46249         1.81009
| 25>    C        4.32304        -4.04507         2.63674
| 26>    C        5.01476        -2.52346         0.69191
| 27>    O        3.96134        -2.11954         0.26300
| 28>    C        6.38101        -2.12869         0.23939
| 29>    C        7.33540        -3.01188         0.87489
| 30>    C        8.58782        -3.32361         0.41034
| 31>    C        9.08858        -2.88572        -0.83358
| 32>    N        9.51274        -2.59648        -1.86031
| 33>    C        9.49743        -4.15344         1.09287
| 34>    N       10.30534        -4.75951         1.63985
| 35>    C        6.55215        -1.01354        -0.52304
| 36>    C        7.74597        -0.28158        -0.72248
| 37>    O        8.83179        -0.47218         0.06543
| 38>    C        9.82089         0.33578        -0.37479
| 39>    C        9.37843         1.07109        -1.46040
| 40>    C        8.04252         0.69142        -1.68149
| 41>    C        7.10203         1.20338        -2.70386
| 42>    O        5.91116         1.09017        -2.61932
| 43>    O        7.66840         1.82991        -3.74557
| 44>    C       11.08567         0.28843         0.26848
| 45>    N       11.29771        -0.51099         1.37041
| 46>    C       12.59745        -0.38354         1.74260
| 47>    C       13.54683        -0.80699         2.66099
| 48>    C       14.73814        -0.15072         2.30694
| 49>    N       14.51475         0.65836         1.20996
| 50>    C       13.22001         0.52782         0.84265
| 51>    C       12.26530         0.95278        -0.07762
| 52>    C       16.02576        -0.21897         2.87692
| 53>    C       16.44039        -1.01027         3.90395
| 54>    C       17.80004        -1.01998         4.30859
| 55>    O       18.65441        -0.15759         3.72726
| 56>    C       19.90084        -0.37351         4.22599
| 57>    C       19.83243        -1.36549         5.19590
| 58>    C       18.50205        -1.80229         5.23984
| 59>    C       17.98774        -2.87292         6.12281
| 60>    O       18.38754        -3.04988         7.23780
| 61>    O       17.02789        -3.65512         5.59232
| 62>    C       21.00855         0.36858         3.76861
| 63>    C       21.05640         1.29530         2.76439
| 64>    C       22.16911         2.28365         2.73289
| 65>    O       23.22077         2.21341         3.32489
| 66>    C       21.67980         3.38596         1.87826
| 67>    C       22.27803         4.57553         1.58055
| 68>    C       21.61014         5.49255         0.73688
| 69>    C       20.32489         5.15850         0.21835
| 70>    C       19.66518         6.07866        -0.61901
| 71>    C       20.27135         7.26656        -0.92059
| 72>    C       21.53568         7.61174        -0.42469
| 73>    C       22.18876         6.73102         0.39253
| 74>    F       19.64205         8.14427        -1.72208
| 75>    C       19.73280         3.91388         0.53545
| 76>    C       20.40135         3.04143         1.35059
| 77>    C       20.08159         1.68333         1.77515
| 78>    C       19.15459         0.86699         1.17106
| 79>    C       19.18001        -0.53966         1.28263
| 80>    N       19.20482        -1.68721         1.28483
| 81>    C       18.06867         1.32215         0.41127
| 82>    N       17.07456         1.62044        -0.08850
| 83>    H        7.65506        -6.21731         4.96414
| 84>    H        3.62395        -6.87617         6.19739
| 85>    H        2.80615        -5.35935         4.41035
| 86>    H        8.14378        -4.74331         3.07369
| 87>    H        3.26898        -3.84937         2.50933
| 88>    H        5.66909        -0.58871        -0.98661
| 89>    H        9.95962         1.80132        -1.98671
| 90>    H        8.63370         1.79858        -3.72177
| 91>    H       10.60079        -1.10282         1.78826
| 92>    H       13.42307        -1.48913         3.47674
| 93>    H       15.24156         1.16411         0.71660
| 94>    H       12.38772         1.63256        -0.89484
| 95>    H       16.76345         0.42164         2.41508
| 96>    H       15.75014        -1.65657         4.42236
| 97>    H       20.64341        -1.75064         5.77920
| 98>    H       16.88370        -3.48944         4.65111
| 99>    H       21.91717         0.25085         4.34664
|100>    H       23.25315         4.81339         1.97810
|101>    H       18.69192         5.84567        -1.02212
|102>    H       21.96523         8.56237        -0.69792
|103>    H       23.16360         6.97489         0.78689
|104>    H       18.75987         3.68300         0.12914
|105> *
|106>
|107>                          ****END OF INPUT****

CARTESIAN COORDINATES (ANGSTROEM)
---------------------------------
  C      6.602630   -6.018670    4.834010
  C      5.681110   -6.606880    5.655030
  F      6.096860   -7.432140    6.631680
  C      4.303790   -6.383420    5.520690
  C      3.862140   -5.546580    4.533790
  C      4.768450   -4.913010    3.658980
  C      6.165210   -5.155780    3.810260
  C      7.092630   -4.543690    2.935390
  C      6.636050   -3.714930    1.945950
  C      5.239780   -3.462490    1.810090
  C      4.323040   -4.045070    2.636740
  C      5.014760   -2.523460    0.691910
  O      3.961340   -2.119540    0.263000
  C      6.381010   -2.128690    0.239390
  C      7.335400   -3.011880    0.874890
  C      8.587820   -3.323610    0.410340
  C      9.088580   -2.885720   -0.833580
  N      9.512740   -2.596480   -1.860310
  C      9.497430   -4.153440    1.092870
  N     10.305340   -4.759510    1.639850
  C      6.552150   -1.013540   -0.523040
  C      7.745970   -0.281580   -0.722480
  O      8.831790   -0.472180    0.065430
  C      9.820890    0.335780   -0.374790
  C      9.378430    1.071090   -1.460400
  C      8.042520    0.691420   -1.681490
  C      7.102030    1.203380   -2.703860
  O      5.911160    1.090170   -2.619320
  O      7.668400    1.829910   -3.745570
  C     11.085670    0.288430    0.268480
  N     11.297710   -0.510990    1.370410
  C     12.597450   -0.383540    1.742600
  C     13.546830   -0.806990    2.660990
  C     14.738140   -0.150720    2.306940
  N     14.514750    0.658360    1.209960
  C     13.220010    0.527820    0.842650
  C     12.265300    0.952780   -0.077620
  C     16.025760   -0.218970    2.876920
  C     16.440390   -1.010270    3.903950
  C     17.800040   -1.019980    4.308590
  O     18.654410   -0.157590    3.727260
  C     19.900840   -0.373510    4.225990
  C     19.832430   -1.365490    5.195900
  C     18.502050   -1.802290    5.239840
  C     17.987740   -2.872920    6.122810
  O     18.387540   -3.049880    7.237800
  O     17.027890   -3.655120    5.592320
  C     21.008550    0.368580    3.768610
  C     21.056400    1.295300    2.764390
  C     22.169110    2.283650    2.732890
  O     23.220770    2.213410    3.324890
  C     21.679800    3.385960    1.878260
  C     22.278030    4.575530    1.580550
  C     21.610140    5.492550    0.736880
  C     20.324890    5.158500    0.218350
  C     19.665180    6.078660   -0.619010
  C     20.271350    7.266560   -0.920590
  C     21.535680    7.611740   -0.424690
  C     22.188760    6.731020    0.392530
  F     19.642050    8.144270   -1.722080
  C     19.732800    3.913880    0.535450
  C     20.401350    3.041430    1.350590
  C     20.081590    1.683330    1.775150
  C     19.154590    0.866990    1.171060
  C     19.180010   -0.539660    1.282630
  N     19.204820   -1.687210    1.284830
  C     18.068670    1.322150    0.411270
  N     17.074560    1.620440   -0.088500
  H      7.655060   -6.217310    4.964140
  H      3.623950   -6.876170    6.197390
  H      2.806150   -5.359350    4.410350
  H      8.143780   -4.743310    3.073690
  H      3.268980   -3.849370    2.509330
  H      5.669090   -0.588710   -0.986610
  H      9.959620    1.801320   -1.986710
  H      8.633700    1.798580   -3.721770
  H     10.600790   -1.102820    1.788260
  H     13.423070   -1.489130    3.476740
  H     15.241560    1.164110    0.716600
  H     12.387720    1.632560   -0.894840
  H     16.763450    0.421640    2.415080
  H     15.750140   -1.656570    4.422360
  H     20.643410   -1.750640    5.779200
  H     16.883700   -3.489440    4.651110
  H     21.917170    0.250850    4.346640
  H     23.253150    4.813390    1.978100
  H     18.691920    5.845670   -1.022120
  H     21.965230    8.562370   -0.697920
  H     23.163600    6.974890    0.786890
  H     18.759870    3.683000    0.129140

 Total Charge           Charge          ....    0
 Multiplicity           Mult            ....    1
 Number of Electrons    NEL             ....  458
 Basis Dimension        Dim             .... 1062

ORBITAL ENERGIES
----------------

  NO   OCC          E(Eh)            E(eV)
   0   2.0000     -24.791934      -674.6228
   1   2.0000     -24.787803      -674.5104
   2   2.0000     -19.325431      -525.8717
   3   2.0000     -19.314893      -525.5850
   4   2.0000     -19.272845      -524.4408
   5   2.0000     -19.265525      -524.2416
   6   2.0000     -19.217444      -522.9332
   7   2.0000     -19.214266      -522.8468
   8   2.0000     -19.212137      -522.7888
   9   2.0000     -19.203419      -522.5516
  10   2.0000     -14.477666      -393.9573
  11   2.0000     -14.465198      -393.6181
  12   2.0000     -14.439591      -392.9212
  13   2.0000     -14.423087      -392.4721
  14   2.0000     -14.416450      -392.2915
  15   2.0000     -14.416081      -392.2815
  16   2.0000     -10.420080      -283.5448
  17   2.0000     -10.411272      -283.3051
  18   2.0000     -10.375662      -282.3361
  19   2.0000     -10.375333      -282.3272
  20   2.0000     -10.373332      -282.2727
  21   2.0000     -10.371625      -282.2263
  22   2.0000     -10.369366      -282.1648
  23   2.0000     -10.366063      -282.0749
  24   2.0000     -10.363183      -281.9965
  25   2.0000     -10.355831      -281.7965
  26   2.0000     -10.349329      -281.6196
  27   2.0000     -10.346868      -281.5526
  28   2.0000     -10.346438      -281.5409
  29   2.0000     -10.346318      -281.5376
  30   2.0000     -10.344906      -281.4992
  31   2.0000     -10.335216      -281.2355
  32   2.0000     -10.329001      -281.0664
  33   2.0000     -10.325717      -280.9770
  34   2.0000     -10.322148      -280.8799
  35   2.0000     -10.320624      -280.8385
  36   2.0000     -10.319881      -280.8182
  37   2.0000     -10.319754      -280.8148
  38   2.0000     -10.317857      -280.7632
  39   2.0000     -10.313512      -280.6449
  40   2.0000     -10.312959      -280.6299
  41   2.0000     -10.312778      -280.6249
  42   2.0000     -10.312654      -280.6216
  43   2.0000     -10.312560      -280.6190
  44   2.0000     -10.312398      -280.6146
  45   2.0000     -10.309163      -280.5266
  46   2.0000     -10.308605      -280.5114
  47   2.0000     -10.307395      -280.4785
  48   2.0000     -10.307091      -280.4702
  49   2.0000     -10.306205      -280.4461
  50   2.0000     -10.305223      -280.4194
  51   2.0000     -10.303318      -280.3675
  52   2.0000     -10.303256      -280.3658
  53   2.0000     -10.303210      -280.3646
  54   2.0000     -10.301691      -280.3233
  55   2.0000     -10.301599      -280.3208
  56   2.0000     -10.301335      -280.3136
  57   2.0000     -10.301333      -280.3135
  58   2.0000     -10.300792      -280.2988
  59   2.0000     -10.300032      -280.2781
  60   2.0000     -10.299546      -280.2649
  61   2.0000     -10.296398      -280.1792
  62   2.0000     -10.295652      -280.1589
  63   2.0000     -10.295571      -280.1567
  64   2.0000     -10.291891      -280.0566
  65   2.0000     -10.291265      -280.0395
  66   2.0000     -10.289205      -279.9835
  67   2.0000     -10.284476      -279.8548
  68   2.0000      -1.306964       -35.5643
  69   2.0000      -1.302982       -35.4559
  70   2.0000      -1.245178       -33.8830
  71   2.0000      -1.238443       -33.6997
  72   2.0000      -1.196364       -32.5547
  73   2.0000      -1.186908       -32.2974
  74   2.0000      -1.133077       -30.8326
  75   2.0000      -1.130338       -30.7581
  76   2.0000      -1.111313       -30.2404
  77   2.0000      -1.107837       -30.1458
  78   2.0000      -1.102409       -29.9981
  79   2.0000      -1.070117       -29.1194
  80   2.0000      -1.032988       -28.1090
  81   2.0000      -1.022757       -27.8306
  82   2.0000      -1.011933       -27.5361
  83   2.0000      -1.003895       -27.3174
  84   2.0000      -1.001438       -27.2505
  85   2.0000      -0.998413       -27.1682
  86   2.0000      -0.982770       -26.7425
  87   2.0000      -0.979131       -26.6435
  88   2.0000      -0.945084       -25.7170
  89   2.0000      -0.939291       -25.5594
  90   2.0000      -0.935712       -25.4620
  91   2.0000      -0.932269       -25.3683
  92   2.0000      -0.931550       -25.3488
  93   2.0000      -0.921716       -25.0812
  94   2.0000      -0.911681       -24.8081
  95   2.0000      -0.900409       -24.5014
  96   2.0000      -0.896294       -24.3894
  97   2.0000      -0.891579       -24.2611
  98   2.0000      -0.888421       -24.1752
  99   2.0000      -0.881995       -24.0003
 100   2.0000      -0.879610       -23.9354
 101   2.0000      -0.860791       -23.4233
 102   2.0000      -0.846548       -23.0357
 103   2.0000      -0.840204       -22.8631
 104   2.0000      -0.836499       -22.7623
 105   2.0000      -0.818802       -22.2807
 106   2.0000      -0.805114       -21.9083
 107   2.0000      -0.785687       -21.3796
 108   2.0000      -0.772213       -21.0130
 109   2.0000      -0.767548       -20.8860
 110   2.0000      -0.765993       -20.8437
 111   2.0000      -0.753711       -20.5095
 112   2.0000      -0.747366       -20.3369
 113   2.0000      -0.735328       -20.0093
 114   2.0000      -0.729170       -19.8417
 115   2.0000      -0.718527       -19.5521
 116   2.0000      -0.715686       -19.4748
 117   2.0000      -0.713285       -19.4095
 118   2.0000      -0.711031       -19.3481
 119   2.0000      -0.710174       -19.3248
 120   2.0000      -0.707659       -19.2564
 121   2.0000      -0.701300       -19.0834
 122   2.0000      -0.695458       -18.9244
 123   2.0000      -0.693811       -18.8795
 124   2.0000      -0.692652       -18.8480
 125   2.0000      -0.685839       -18.6626
 126   2.0000      -0.682137       -18.5619
 127   2.0000      -0.670807       -18.2536
 128   2.0000      -0.663968       -18.0675
 129   2.0000      -0.651380       -17.7249
 130   2.0000      -0.645416       -17.5627
 131   2.0000      -0.640812       -17.4374
 132   2.0000      -0.635166       -17.2837
 133   2.0000      -0.635133       -17.2829
 134   2.0000      -0.630680       -17.1617
 135   2.0000      -0.618623       -16.8336
 136   2.0000      -0.607521       -16.5315
 137   2.0000      -0.604195       -16.4410
 138   2.0000      -0.601124       -16.3574
 139   2.0000      -0.597413       -16.2564
 140   2.0000      -0.594203       -16.1691
 141   2.0000      -0.590215       -16.0606
 142   2.0000      -0.586626       -15.9629
 143   2.0000      -0.576861       -15.6972
 144   2.0000      -0.572680       -15.5834
 145   2.0000      -0.571626       -15.5547
 146   2.0000      -0.568012       -15.4564
 147   2.0000      -0.567726       -15.4486
 148   2.0000      -0.564428       -15.3589
 149   2.0000      -0.560787       -15.2598
 150   2.0000      -0.559998       -15.2383
 151   2.0000      -0.556815       -15.1517
 152   2.0000      -0.554547       -15.0900
 153   2.0000      -0.551102       -14.9962
 154   2.0000      -0.550318       -14.9749
 155   2.0000      -0.548625       -14.9289
 156   2.0000      -0.544034       -14.8039
 157   2.0000      -0.542016       -14.7490
 158   2.0000      -0.540641       -14.7116
 159   2.0000      -0.537923       -14.6376
 160   2.0000      -0.537440       -14.6245
 161   2.0000      -0.533993       -14.5307
 162   2.0000      -0.532056       -14.4780
 163   2.0000      -0.530436       -14.4339
 164   2.0000      -0.530134       -14.4257
 165   2.0000      -0.528401       -14.3785
 166   2.0000      -0.525894       -14.3103
 167   2.0000      -0.521110       -14.1801
 168   2.0000      -0.520915       -14.1748
 169   2.0000      -0.518200       -14.1010
 170   2.0000      -0.513685       -13.9781
 171   2.0000      -0.512785       -13.9536
 172   2.0000      -0.507779       -13.8174
 173   2.0000      -0.504457       -13.7270
 174   2.0000      -0.500525       -13.6200
 175   2.0000      -0.497969       -13.5504
 176   2.0000      -0.493834       -13.4379
 177   2.0000      -0.491091       -13.3633
 178   2.0000      -0.489308       -13.3148
 179   2.0000      -0.487933       -13.2773
 180   2.0000      -0.487128       -13.2554
 181   2.0000      -0.483200       -13.1485
 182   2.0000      -0.482299       -13.1240
 183   2.0000      -0.479788       -13.0557
 184   2.0000      -0.473101       -12.8737
 185   2.0000      -0.471041       -12.8177
 186   2.0000      -0.469427       -12.7737
 187   2.0000      -0.466927       -12.7057
 188   2.0000      -0.464236       -12.6325
 189   2.0000      -0.460206       -12.5228
 190   2.0000      -0.459422       -12.5015
 191   2.0000      -0.458615       -12.4796
 192   2.0000      -0.455276       -12.3887
 193   2.0000      -0.453632       -12.3439
 194   2.0000      -0.447838       -12.1863
 195   2.0000      -0.445953       -12.1350
 196   2.0000      -0.442316       -12.0360
 197   2.0000      -0.440431       -11.9847
 198   2.0000      -0.433773       -11.8036
 199   2.0000      -0.433677       -11.8010
 200   2.0000      -0.432850       -11.7784
 201   2.0000      -0.430962       -11.7271
 202   2.0000      -0.429579       -11.6894
 203   2.0000      -0.425127       -11.5683
 204   2.0000      -0.420306       -11.4371
 205   2.0000      -0.417186       -11.3522
 206   2.0000      -0.411367       -11.1939
 207   2.0000      -0.404815       -11.0156
 208   2.0000      -0.404594       -11.0096
 209   2.0000      -0.401658       -10.9297
 210   2.0000      -0.393699       -10.7131
 211   2.0000      -0.388922       -10.5831
 212   2.0000      -0.385169       -10.4810
 213   2.0000      -0.384905       -10.4738
 214   2.0000      -0.379646       -10.3307
 215   2.0000      -0.370739       -10.0883
 216   2.0000      -0.366038        -9.9604
 217   2.0000      -0.358155        -9.7459
 218   2.0000      -0.351088        -9.5536
 219   2.0000      -0.340658        -9.2698
 220   2.0000      -0.336504        -9.1567
 221   2.0000      -0.322975        -8.7886
 222   2.0000      -0.318190        -8.6584
 223   2.0000      -0.313244        -8.5238
 224   2.0000      -0.305185        -8.3045
 225   2.0000      -0.304737        -8.2923
 226   2.0000      -0.299840        -8.1591
 227   2.0000      -0.285637        -7.7726
 228   2.0000      -0.240367        -6.5407
 229   0.0000      -0.112241        -3.0542
 230   0.0000      -0.100212        -2.7269
 231   0.0000      -0.066017        -1.7964
 232   0.0000      -0.058066        -1.5801
 233   0.0000      -0.050129        -1.3641

MULLIKEN ATOMIC CHARGES
-----------------------
   0 C :   -0.098948
   1 C :    0.302995
   2 F :   -0.189080
   3 C :   -0.029718
   4 C :   -0.009162
   5 C :    0.099743
   6 C :    0.103417
   7 C :   -0.092275
   8 C :    0.051232
   9 C :    0.002636
  10 C :   -0.077605
  11 C :    0.135582
  12 O :   -0.129198
  13 C :   -0.099342
  14 C :    0.265932
  15 C :   -0.354498
  16 C :   -0.198360
  17 N :    0.164043
  18 C :   -0.177272
  19 N :    0.143452
  20 C :    0.006094
  21 C :    0.093872
  22 O :   -0.220445
  23 C :    0.209361
  24 C :   -0.100953
  25 C :    0.010927
  26 C :    0.173724
  27 O :   -0.161234
  28 O :   -0.148188
  29 C :    0.068007
  30 N :   -0.033723
  31 C :    0.122815
  32 C :   -0.159408
  33 C :    0.108131
  34 N :   -0.023789
  35 C :    0.123241
  36 C :   -0.148788
  37 C :    0.053600
  38 C :   -0.097288
  39 C :    0.191980
  40 O :   -0.223564
  41 C :    0.158586
  42 C :   -0.000241
  43 C :   -0.073102
  44 C :    0.162601
  45 O :   -0.163367
  46 O :   -0.161913
  47 C :    0.037815
  48 C :   -0.124079
  49 C :    0.139639
  50 O :   -0.141948
  51 C :    0.000464
  52 C :   -0.075317
  53 C :    0.098079
  54 C :    0.106482
  55 C :   -0.097952
  56 C :    0.301262
  57 C :   -0.027482
  58 C :   -0.008010
  59 F :   -0.190113
  60 C :   -0.094766
  61 C :    0.058046
  62 C :    0.275949
  63 C :   -0.329530
  64 C :   -0.219342
  65 N :    0.165821
  66 C :   -0.099135
  67 N :    0.058612
  68 H :   -0.002205
  69 H :    0.005514
  70 H :   -0.006867
  71 H :   -0.008581
  72 H :   -0.008546
  73 H :    0.050641
  74 H :   -0.011273
  75 H :    0.184042
  76 H :    0.135782
  77 H :   -0.020736
  78 H :    0.121550
  79 H :   -0.027408
  80 H :   -0.017883
  81 H :   -0.003110
  82 H :    0.013628
  83 H :    0.188218
  84 H :    0.025815
  85 H :   -0.010339
  86 H :   -0.007291
  87 H :    0.004965
  88 H :   -0.007270
  89 H :   -0.013653
Sum of atomic charges:    0.0000000

LOEWDIN ATOMIC CHARGES
----------------------
   0 C :   -0.043170
   1 C :    0.093421
   2 F :   -0.063548
   3 C :   -0.035916
   4 C :    0.005350
   5 C :   -0.018013
   6 C :    0.003225
   7 C :    0.007189
   8 C :   -0.017976
   9 C :   -0.058869
  10 C :    0.035273
  11 C :    0.080860
  12 O :   -0.133098
  13 C :   -0.085682
  14 C :    0.069598
  15 C :   -0.145843
  16 C :   -0.025857
  17 N :   -0.056957
  18 C :   -0.023887
  19 N :   -0.057669
  20 C :    0.054450
  21 C :    0.035936
  22 O :    0.027318
  23 C :    0.067180
  24 C :   -0.066045
  25 C :   -0.073257
  26 C :    0.085274
  27 O :   -0.142162
  28 O :   -0.019977
  29 C :   -0.009506
  30 N :    0.078414
  31 C :   -0.007144
  32 C :   -0.069838
  33 C :   -0.004535
  34 N :    0.082794
  35 C :   -0.003797
  36 C :   -0.071651
  37 C :    0.027134
  38 C :   -0.084207
  39 C :    0.086654
  40 O :    0.026542
  41 C :    0.008860
  42 C :    0.032784
  43 C :   -0.127574
  44 C :    0.078148
  45 O :   -0.145498
  46 O :   -0.029783
  47 C :    0.058681
  48 C :   -0.102954
  49 C :    0.081810
  50 O :   -0.144129
  51 C :   -0.057522
  52 C :    0.035252
  53 C :   -0.018095
  54 C :    0.002996
  55 C :   -0.044338
  56 C :    0.093503
  57 C :   -0.035824
  58 C :    0.006128
  59 F :   -0.064167
  60 C :    0.005470
  61 C :   -0.016725
  62 C :    0.081233
  63 C :   -0.159178
  64 C :   -0.030050
  65 N :   -0.059680
  66 C :    0.013883
  67 N :   -0.090469
  68 H :    0.042774
  69 H :    0.042525
  70 H :    0.036486
  71 H :    0.037558
  72 H :    0.040722
  73 H :    0.060547
  74 H :    0.030532
  75 H :    0.096578
  76 H :    0.093482
  77 H :    0.029533
  78 H :    0.075879
  79 H :    0.029400
  80 H :    0.036857
  81 H :    0.031779
  82 H :    0.047776
  83 H :    0.093117
  84 H :    0.056923
  85 H :    0.040522
  86 H :    0.041088
  87 H :    0.042593
  88 H :    0.036554
  89 H :    0.036008

  Mayer bond orders larger than 0.100000
B(  0-C ,  1-C ) :   1.4415 B(  0-C ,  6-C ) :   1.2034 B(  0-C , 68-H ) :   1.0062
B(  1-C ,  2-F ) :   1.0904 B(  1-C ,  3-C ) :   1.2545 B(  3-C ,  4-C ) :   1.4625
B(  3-C , 69-H ) :   0.9925 B(  4-C ,  5-C ) :   1.2336 B(  4-C , 70-H ) :   0.9972
B(  5-C ,  6-C ) :   1.2555 B(  5-C , 10-C ) :   1.1933 B(  6-C ,  7-C ) :   1.2051
B(  7-C ,  8-C ) :   1.4576 B(  7-C , 71-H ) :   0.9937 B(  8-C ,  9-C ) :   1.2150
B(  8-C , 14-C ) :   1.0091 B(  9-C , 10-C ) :   1.4754 B(  9-C , 11-C ) :   0.9186
B( 10-C , 72-H ) :   1.0150 B( 11-C , 12-O ) :   2.2859 B( 11-C , 13-C ) :   0.9332
B( 13-C , 14-C ) :   1.0468 B( 13-C , 20-C ) :   1.5708 B( 14-C , 15-C ) :   1.6430
B( 15-C , 16-C ) :   1.1614 B( 15-C , 18-C ) :   1.1363 B( 16-C , 17-N ) :   3.0042
B( 18-C , 19-N ) :   2.9699 B( 20-C , 21-C ) :   1.1707 B( 20-C , 73-H ) :   0.9362
B( 21-C , 22-O ) :   1.1049 B( 21-C , 23-C ) :   0.1070 B( 21-C , 25-C ) :   1.4212
B( 22-O , 23-C ) :   1.1511 B( 23-C , 24-C ) :   1.4887 B( 23-C , 29-C ) :   1.0456
B( 24-C , 25-C ) :   1.2316 B( 24-C , 74-H ) :   0.9826 B( 25-C , 26-C ) :   0.8944
B( 26-C , 27-O ) :   2.1563 B( 26-C , 28-O ) :   1.2587 B( 28-O , 75-H ) :   0.9539
B( 29-C , 30-N ) :   1.2080 B( 29-C , 36-C ) :   1.4195 B( 30-N , 31-C ) :   1.1578
B( 30-N , 76-H ) :   0.9321 B( 31-C , 32-C ) :   1.3007 B( 31-C , 35-C ) :   1.2754
B( 32-C , 33-C ) :   1.3523 B( 32-C , 77-H ) :   1.0306 B( 33-C , 34-N ) :   1.1872
B( 33-C , 37-C ) :   1.1448 B( 34-N , 35-C ) :   1.2058 B( 34-N , 78-H ) :   0.8928
B( 35-C , 36-C ) :   1.2699 B( 36-C , 79-H ) :   1.0237 B( 37-C , 38-C ) :   1.5896
B( 37-C , 80-H ) :   0.9661 B( 38-C , 39-C ) :   1.1972 B( 38-C , 81-H ) :   0.9554
B( 39-C , 40-O ) :   1.1657 B( 39-C , 43-C ) :   1.3342 B( 40-O , 41-C ) :   1.0699
B( 41-C , 42-C ) :   1.3608 B( 41-C , 47-C ) :   1.1970 B( 42-C , 43-C ) :   1.2971
B( 42-C , 82-H ) :   1.0227 B( 43-C , 44-C ) :   0.8951 B( 44-C , 45-O ) :   2.2214
B( 44-C , 46-O ) :   1.2214 B( 46-O , 83-H ) :   0.9476 B( 47-C , 48-C ) :   1.5402
B( 47-C , 84-H ) :   0.9466 B( 48-C , 49-C ) :   0.9438 B( 48-C , 62-C ) :   1.0784
B( 49-C , 50-O ) :   2.2720 B( 49-C , 51-C ) :   0.9184 B( 51-C , 52-C ) :   1.4805
B( 51-C , 61-C ) :   1.2145 B( 52-C , 53-C ) :   1.1881 B( 52-C , 85-H ) :   1.0148
B( 53-C , 54-C ) :   1.2589 B( 53-C , 58-C ) :   1.2367 B( 54-C , 55-C ) :   1.2025
B( 54-C , 60-C ) :   1.2064 B( 55-C , 56-C ) :   1.4407 B( 55-C , 86-H ) :   1.0052
B( 56-C , 57-C ) :   1.2565 B( 56-C , 59-F ) :   1.0889 B( 57-C , 58-C ) :   1.4594
B( 57-C , 87-H ) :   0.9930 B( 58-C , 88-H ) :   0.9971 B( 60-C , 61-C ) :   1.4582
B( 60-C , 89-H ) :   0.9930 B( 61-C , 62-C ) :   1.0244 B( 62-C , 63-C ) :   1.5905
B( 63-C , 64-C ) :   1.1587 B( 63-C , 66-C ) :   1.1466 B( 64-C , 65-N ) :   3.0099
B( 66-C , 67-N ) :   2.8405 B( 67-N , 78-H ) :   0.1070

-----------------------------------------------------------------------------
         ABSORPTION SPECTRUM VIA TRANSITION ELECTRIC DIPOLE MOMENTS
-----------------------------------------------------------------------------
State   Energy  Wavelength   fosc         T2         TX        TY        TZ
        (cm-1)    (nm)                  (au**2)     (au)      (au)      (au)
-----------------------------------------------------------------------------
   0   12396.4    806.7   0.895278068  23.77589  -4.52472  -1.81691  -0.04063
   1   15759.7    634.5   0.047316575   0.98842   0.55963   0.69051   0.44546
   2   22823.1    438.2   0.043179889   0.62285   0.67629  -0.13560  -0.38353
   3   23426.7    426.9   0.580047238   8.15130  -2.47038   0.06139  -1.42995
   4   24983.1    400.3   0.154780673   2.03961  -1.15537   0.59150  -0.59570
   5   25671.9    389.5   0.109569241   1.40510   1.07718  -0.16846   0.46518
   6   25978.4    384.9   0.024557164   0.31120   0.43264   0.33576   0.10625
   7   26258.7    380.8   0.002578819   0.03233   0.03357  -0.16227  -0.06981
   8   26704.3    374.5   0.182281831   2.24718   0.85789  -0.88118   0.85716
   9   27326.1    365.9   0.120659393   1.45364  -0.92061  -0.65846   0.41540
  10   27639.5    361.8   0.066066047   0.78691   0.54079   0.57105   0.41032
  11   28130.3    355.5   0.494746744   5.79008  -0.88564   1.48070  -1.67727
  12   28711.4    348.3   0.076795175   0.88055  -0.54166   0.55636  -0.52689
  13   28804.5    347.2   0.161930572   1.85073  -0.55282  -0.64032   1.06542
  14   29403.5    340.1   0.024737297   0.27697  -0.32628  -0.31006  -0.27272
  15   31264.3    319.9   0.242584043   2.55440  -0.34428   1.07052  -1.13572
  16   32233.1    310.2   0.157194708   1.60550   0.21896   1.21650   0.27872
  17   32696.7    305.8   0.053433584   0.53800  -0.59444  -0.05660   0.42596
  18   32821.7    304.7   0.328407031   3.29403   0.76732   1.36878  -0.91197
  19   33124.2    301.9   0.066344327   0.65938   0.34326   0.47524  -0.56187
  20   33744.7    296.3   0.684969988   6.68253   0.29083   2.07491  -1.51417
  21   33973.8    294.3   0.060852535   0.58967  -0.47414  -0.51810   0.31054
  22   34277.7    291.7   0.333715022   3.20508  -0.70905  -0.82723   1.42057
  23   34612.0    288.9   0.073609815   0.70014  -0.41248   0.34141  -0.64300
  24   34829.3    287.1   0.180918625   1.71007   0.55659   1.16798  -0.18997
  25   35178.5    284.3   0.232664754   2.17736  -0.57476  -0.88099   1.03483
  26   36042.9    277.4   0.025641642   0.23421  -0.33680   0.31421  -0.14847
  27   36167.0    276.5   0.062397940   0.56798   0.45602   0.45058  -0.39625
  28   36659.4    272.8   0.140646940   1.26305   0.06635  -0.69414   0.88138
  29   36957.0    270.6   0.223771364   1.99335  -0.88847  -0.94224   0.56228
  30   37007.7    270.2   0.073398859   0.65294   0.68160  -0.00509  -0.43398
  31   37670.6    265.5   0.030237430   0.26425   0.02621  -0.43801   0.26779
  32   37764.4    264.8   0.095009337   0.82825   0.50594   0.54515   0.52449
  33   38560.0    259.3   0.014941026   0.12756   0.33493  -0.11096  -0.05545
  34   39390.6    253.9   0.013264094   0.11086  -0.31894   0.08148   0.04993
  35   39548.4    252.9   0.027585052   0.22963   0.37350  -0.29108  -0.07344
  36   39914.1    250.5   0.186808039   1.54080  -0.96565   0.46410  -0.62685
  37   40103.6    249.4   0.000847234   0.00695  -0.03338   0.07394  -0.01933
  38   40250.0    248.4   0.102592849   0.83913   0.53701  -0.37999   0.63746

FINAL SINGLE POINT ENERGY     -3120.891085535256

DIPOLE MOMENT
-------------
                                X             Y             Z
Electronic contribution:     -3.86864      -3.45862      -3.26069
Nuclear contribution   :      4.43461       5.98154       3.81097
                        -----------------------------------------
Total Dipole Moment    :      0.56596       2.52292       0.55028
                        -----------------------------------------
Magnitude (a.u.)       :      2.64353
Magnitude (Debye)      :      6.71933

Rotational constants in cm-1:     0.001545     0.000402     0.000328
Rotational constants in MHz :    46.321174    12.041994     9.844086

                             ****ORCA TERMINATED NORMALLY****
TOTAL RUN TIME: 0 days 0 hours 8 minutes 42 seconds 64 msec
