                         Program Version 4.2.0 -  RELEASE  -
|  1> # ORCA input file
|  2> # SCF done       -203.031796070763          0.000769428254
|  3> ! CAM-B3LYP def2-SVP def2/J RIJCOSX Grid4 TightSCF
|  4> %maxcore 5000
|  5> %tddft
|  6>     Mode sTDDFT
|  7>     Ethresh 5.0
|  8>     maxcore 5000
|  9> end
| 10>
| 11> %pal
| 12>   nprocs 6
| 13>   end
| 14> * xyz 0 1
| 15>    C       11.08025        -5.29030       -13.46052
| 16>    C       10.45780        -5.22536       -14.67591
| 17>    F       10.11520        -6.36564       -15.30711
| 18>    C       10.15546        -4.00913       -15.30131
| 19>    C       10.49542        -2.84196       -14.67484
| 20>    C       11.13821        -2.85040       -13.42069
| 21>    C       11.43765        -4.09813       -12.80184
| 22>    C       12.08766        -4.13241       -11.54489
| 23>    C       12.41854        -2.95715       -10.92919
| 24>    C       12.10489        -1.71270       -11.54668
| 25>    C       11.48815        -1.64941       -12.76133
| 26>    C       12.53044        -0.61313       -10.65606
| 27>    O       12.46525         0.57997       -10.86873
| 28>    C       13.00608        -1.27105        -9.41798
| 29>    C       13.10276        -2.68318        -9.66540
| 30>    C       13.89894        -3.58204        -8.99364
| 31>    C       14.77596        -3.21246        -7.95801
| 32>    N       15.53197        -2.95069        -7.13367
| 33>    C       13.99618        -4.94638        -9.32148
| 34>    N       14.09376        -6.07290        -9.52611
| 35>    C       13.19249        -0.50126        -8.29544
| 36>    C       13.19725        -0.85359        -6.94067
| 37>    N       13.53219         0.08817        -5.97817
| 38>    C       13.37976        -0.46640        -4.75519
| 39>    C       13.48870        -0.22997        -3.38644
| 40>    C       13.07622        -1.40431        -2.75328
| 41>    N       12.71776        -2.33455        -3.70267
| 42>    C       12.89276        -1.78948        -4.93659
| 43>    C       12.78131        -2.03554        -6.29191
| 44>    C       12.99765        -1.68560        -1.34020
| 45>    C       12.88702        -2.97408        -0.87120
| 46>    C       12.77992        -3.22987         0.51228
| 47>    C       12.64020        -4.41037         1.22517
| 48>    C       12.59843        -5.81516         0.72294
| 49>    C       11.32298        -6.08906        -0.09374
| 50>    N       10.16822        -6.11781         0.79109
| 51>    C       13.85342        -6.17942        -0.09003
| 52>    N       13.87621        -7.61126        -0.34159
| 53>    C       12.51048        -4.04087         2.61399
| 54>    C       12.26344        -4.78207         3.70836
| 55>    C       12.12113        -4.16639         5.06080
| 56>    C       12.32681        -2.68508         5.09227
| 57>    C       12.55269        -1.95491         3.98482
| 58>    C       12.62678        -2.57936         2.71628
| 59>    C       12.78324        -2.09808         1.43448
| 60>    C       12.91996        -0.78507         0.92496
| 61>    C       13.02534        -0.59023        -0.41161
| 62>    C       13.07379        -4.87048         5.99176
| 63>    C       12.69701        -5.81703         6.85591
| 64>    C       13.57093        -6.56190         7.71432
| 65>    N       13.07209        -7.59785         8.47191
| 66>    C       14.10241        -8.17417         9.14709
| 67>    C       14.43946        -9.21013        10.00004
| 68>    C       15.82858        -9.10770        10.20854
| 69>    N       16.30598        -8.00637         9.51484
| 70>    C       15.28248        -7.44916         8.82917
| 71>    C       14.94268        -6.43969         7.92855
| 72>    C       16.68449        -9.85498        11.03161
| 73>    C       16.48931       -11.06927        11.63733
| 74>    C       17.32083       -11.42287        12.81278
| 75>    O       18.30254       -10.83282        13.21154
| 76>    C       16.67045       -12.60504        13.41340
| 77>    C       16.97962       -13.26764        14.56501
| 78>    C       16.19105       -14.37337        14.95782
| 79>    C       15.08771       -14.76619        14.14643
| 80>    C       14.30229       -15.86463        14.54590
| 81>    C       14.61702       -16.53155        15.69699
| 82>    C       15.69893       -16.16293        16.50707
| 83>    C       16.47006       -15.09666        16.13502
| 84>    F       13.86797       -17.58346        16.07922
| 85>    C       14.79546       -14.06421        12.95300
| 86>    C       15.57996       -13.00469        12.58880
| 87>    C       15.55012       -12.13652        11.41214
| 88>    C       14.93229       -12.45205        10.22506
| 89>    C       15.16329       -11.76625         9.01867
| 90>    N       15.35562       -11.26712         8.00204
| 91>    C       14.06548       -13.54770        10.05500
| 92>    N       13.32700       -14.40695         9.86445
| 93>    H       11.30070        -6.24550       -13.00998
| 94>    H        9.66263        -4.01935       -16.26057
| 95>    H       10.27278        -1.89172       -15.13678
| 96>    H       12.29813        -5.09090       -11.09719
| 97>    H       11.26705        -0.69538       -13.21611
| 98>    H       13.24282         0.56491        -8.50164
| 99>    H       13.91134         0.99573        -6.18791
|100>    H       13.84448         0.65833        -2.90629
|101>    H       12.37187        -3.25665        -3.50443
|102>    H       12.40781        -2.91628        -6.77427
|103>    H       12.89252        -3.80873        -1.55544
|104>    H       12.57471        -6.48717         1.58808
|105>    H       11.47590        -7.02765        -0.64867
|106>    H       11.16479        -5.28074        -0.81069
|107>    H       10.21917        -6.92786         1.40069
|108>    H        9.31367        -6.19546         0.25099
|109>    H       14.73988        -5.81537         0.45637
|110>    H       13.83341        -5.68032        -1.06009
|111>    H       13.99482        -8.12008         0.52875
|112>    H       14.65323        -7.85224        -0.94659
|113>    H       12.14949        -5.85632         3.66460
|114>    H       11.09741        -4.38056         5.40562
|115>    H       12.27229        -2.22505         6.06745
|116>    H       12.67633        -0.88330         4.04904
|117>    H       12.92891         0.05112         1.60877
|118>    H       13.10870         0.40898        -0.80757
|119>    H       14.11115        -4.59141         5.88950
|120>    H       11.64824        -6.08418         6.92372
|121>    H       12.11755        -7.91351         8.45333
|122>    H       13.78870        -9.92706        10.45908
|123>    H       17.27928        -7.76070         9.45144
|124>    H       15.58682        -5.71132         7.48072
|125>    H       17.61885        -9.37107        11.30417
|126>    H       17.81730       -12.95494        15.17026
|127>    H       13.46399       -16.17914        13.94399
|128>    H       15.89985       -16.72703        17.40402
|129>    H       17.30930       -14.79364        16.74296
|130>    H       13.95173       -14.38086        12.36043
|131> *
|132>
|133>                          ****END OF INPUT****

CARTESIAN COORDINATES (ANGSTROEM)
---------------------------------
  C     11.080250   -5.290300  -13.460520
  C     10.457800   -5.225360  -14.675910
  F     10.115200   -6.365640  -15.307110
  C     10.155460   -4.009130  -15.301310
  C     10.495420   -2.841960  -14.674840
  C     11.138210   -2.850400  -13.420690
  C     11.437650   -4.098130  -12.801840
  C     12.087660   -4.132410  -11.544890
  C     12.418540   -2.957150  -10.929190
  C     12.104890   -1.712700  -11.546680
  C     11.488150   -1.649410  -12.761330
  C     12.530440   -0.613130  -10.656060
  O     12.465250    0.579970  -10.868730
  C     13.006080   -1.271050   -9.417980
  C     13.102760   -2.683180   -9.665400
  C     13.898940   -3.582040   -8.993640
  C     14.775960   -3.212460   -7.958010
  N     15.531970   -2.950690   -7.133670
  C     13.996180   -4.946380   -9.321480
  N     14.093760   -6.072900   -9.526110
  C     13.192490   -0.501260   -8.295440
  C     13.197250   -0.853590   -6.940670
  N     13.532190    0.088170   -5.978170
  C     13.379760   -0.466400   -4.755190
  C     13.488700   -0.229970   -3.386440
  C     13.076220   -1.404310   -2.753280
  N     12.717760   -2.334550   -3.702670
  C     12.892760   -1.789480   -4.936590
  C     12.781310   -2.035540   -6.291910
  C     12.997650   -1.685600   -1.340200
  C     12.887020   -2.974080   -0.871200
  C     12.779920   -3.229870    0.512280
  C     12.640200   -4.410370    1.225170
  C     12.598430   -5.815160    0.722940
  C     11.322980   -6.089060   -0.093740
  N     10.168220   -6.117810    0.791090
  C     13.853420   -6.179420   -0.090030
  N     13.876210   -7.611260   -0.341590
  C     12.510480   -4.040870    2.613990
  C     12.263440   -4.782070    3.708360
  C     12.121130   -4.166390    5.060800
  C     12.326810   -2.685080    5.092270
  C     12.552690   -1.954910    3.984820
  C     12.626780   -2.579360    2.716280
  C     12.783240   -2.098080    1.434480
  C     12.919960   -0.785070    0.924960
  C     13.025340   -0.590230   -0.411610
  C     13.073790   -4.870480    5.991760
  C     12.697010   -5.817030    6.855910
  C     13.570930   -6.561900    7.714320
  N     13.072090   -7.597850    8.471910
  C     14.102410   -8.174170    9.147090
  C     14.439460   -9.210130   10.000040
  C     15.828580   -9.107700   10.208540
  N     16.305980   -8.006370    9.514840
  C     15.282480   -7.449160    8.829170
  C     14.942680   -6.439690    7.928550
  C     16.684490   -9.854980   11.031610
  C     16.489310  -11.069270   11.637330
  C     17.320830  -11.422870   12.812780
  O     18.302540  -10.832820   13.211540
  C     16.670450  -12.605040   13.413400
  C     16.979620  -13.267640   14.565010
  C     16.191050  -14.373370   14.957820
  C     15.087710  -14.766190   14.146430
  C     14.302290  -15.864630   14.545900
  C     14.617020  -16.531550   15.696990
  C     15.698930  -16.162930   16.507070
  C     16.470060  -15.096660   16.135020
  F     13.867970  -17.583460   16.079220
  C     14.795460  -14.064210   12.953000
  C     15.579960  -13.004690   12.588800
  C     15.550120  -12.136520   11.412140
  C     14.932290  -12.452050   10.225060
  C     15.163290  -11.766250    9.018670
  N     15.355620  -11.267120    8.002040
  C     14.065480  -13.547700   10.055000
  N     13.327000  -14.406950    9.864450
  H     11.300700   -6.245500  -13.009980
  H      9.662630   -4.019350  -16.260570
  H     10.272780   -1.891720  -15.136780
  H     12.298130   -5.090900  -11.097190
  H     11.267050   -0.695380  -13.216110
  H     13.242820    0.564910   -8.501640
  H     13.911340    0.995730   -6.187910
  H     13.844480    0.658330   -2.906290
  H     12.371870   -3.256650   -3.504430
  H     12.407810   -2.916280   -6.774270
  H     12.892520   -3.808730   -1.555440
  H     12.574710   -6.487170    1.588080
  H     11.475900   -7.027650   -0.648670
  H     11.164790   -5.280740   -0.810690
  H     10.219170   -6.927860    1.400690
  H      9.313670   -6.195460    0.250990
  H     14.739880   -5.815370    0.456370
  H     13.833410   -5.680320   -1.060090
  H     13.994820   -8.120080    0.528750
  H     14.653230   -7.852240   -0.946590
  H     12.149490   -5.856320    3.664600
  H     11.097410   -4.380560    5.405620
  H     12.272290   -2.225050    6.067450
  H     12.676330   -0.883300    4.049040
  H     12.928910    0.051120    1.608770
  H     13.108700    0.408980   -0.807570
  H     14.111150   -4.591410    5.889500
  H     11.648240   -6.084180    6.923720
  H     12.117550   -7.913510    8.453330
  H     13.788700   -9.927060   10.459080
  H     17.279280   -7.760700    9.451440
  H     15.586820   -5.711320    7.480720
  H     17.618850   -9.371070   11.304170
  H     17.817300  -12.954940   15.170260
  H     13.463990  -16.179140   13.943990
  H     15.899850  -16.727030   17.404020
  H     17.309300  -14.793640   16.742960
  H     13.951730  -14.380860   12.360430

 Total Charge           Charge          ....    0
 Multiplicity           Mult            ....    1
 Number of Electrons    NEL             ....  526
 Basis Dimension        Dim             .... 1282

ORBITAL ENERGIES
----------------

  NO   OCC          E(Eh)            E(eV)
   0   2.0000     -24.779663      -674.2889
   1   2.0000     -24.775938      -674.1875
   2   2.0000     -19.200884      -522.4826
   3   2.0000     -19.195679      -522.3410
   4   2.0000     -14.471226      -393.7821
   5   2.0000     -14.469594      -393.7377
   6   2.0000     -14.465210      -393.6184
   7   2.0000     -14.463049      -393.5596
   8   2.0000     -14.405215      -391.9858
   9   2.0000     -14.404796      -391.9744
  10   2.0000     -14.399890      -391.8409
  11   2.0000     -14.398900      -391.8140
  12   2.0000     -14.382793      -391.3757
  13   2.0000     -14.376214      -391.1967
  14   2.0000     -10.362524      -281.9786
  15   2.0000     -10.358605      -281.8720
  16   2.0000     -10.352788      -281.7137
  17   2.0000     -10.347768      -281.5771
  18   2.0000     -10.330145      -281.0975
  19   2.0000     -10.328108      -281.0421
  20   2.0000     -10.326204      -280.9903
  21   2.0000     -10.324214      -280.9361
  22   2.0000     -10.322112      -280.8790
  23   2.0000     -10.321136      -280.8524
  24   2.0000     -10.316434      -280.7244
  25   2.0000     -10.312778      -280.6249
  26   2.0000     -10.312107      -280.6067
  27   2.0000     -10.310355      -280.5590
  28   2.0000     -10.309181      -280.5271
  29   2.0000     -10.308459      -280.5074
  30   2.0000     -10.307091      -280.4702
  31   2.0000     -10.305270      -280.4206
  32   2.0000     -10.305224      -280.4194
  33   2.0000     -10.304025      -280.3868
  34   2.0000     -10.303017      -280.3594
  35   2.0000     -10.300999      -280.3044
  36   2.0000     -10.300973      -280.3037
  37   2.0000     -10.300057      -280.2788
  38   2.0000     -10.297977      -280.2222
  39   2.0000     -10.296363      -280.1783
  40   2.0000     -10.295675      -280.1596
  41   2.0000     -10.294716      -280.1335
  42   2.0000     -10.293768      -280.1077
  43   2.0000     -10.292966      -280.0858
  44   2.0000     -10.291559      -280.0476
  45   2.0000     -10.290805      -280.0270
  46   2.0000     -10.290784      -280.0265
  47   2.0000     -10.288967      -279.9770
  48   2.0000     -10.288874      -279.9745
  49   2.0000     -10.288735      -279.9707
  50   2.0000     -10.287661      -279.9415
  51   2.0000     -10.287015      -279.9239
  52   2.0000     -10.286312      -279.9048
  53   2.0000     -10.286088      -279.8987
  54   2.0000     -10.285890      -279.8933
  55   2.0000     -10.284375      -279.8521
  56   2.0000     -10.283761      -279.8354
  57   2.0000     -10.282245      -279.7941
  58   2.0000     -10.281682      -279.7788
  59   2.0000     -10.281168      -279.7648
  60   2.0000     -10.280236      -279.7394
  61   2.0000     -10.278430      -279.6903
  62   2.0000     -10.277280      -279.6590
  63   2.0000     -10.276377      -279.6344
  64   2.0000     -10.275834      -279.6197
  65   2.0000     -10.275600      -279.6133
  66   2.0000     -10.275307      -279.6053
  67   2.0000     -10.274321      -279.5785
  68   2.0000     -10.273992      -279.5695
  69   2.0000     -10.273902      -279.5671
  70   2.0000     -10.273473      -279.5554
  71   2.0000     -10.272377      -279.5256
  72   2.0000     -10.269581      -279.4495
  73   2.0000     -10.267966      -279.4055
  74   2.0000     -10.267309      -279.3877
  75   2.0000     -10.265256      -279.3318
  76   2.0000     -10.264440      -279.3096
  77   2.0000     -10.261722      -279.2357
  78   2.0000      -1.294176       -35.2163
  79   2.0000      -1.290136       -35.1064
  80   2.0000      -1.115593       -30.3568
  81   2.0000      -1.110141       -30.2085
  82   2.0000      -1.104080       -30.0435
  83   2.0000      -1.098833       -29.9008
  84   2.0000      -1.067286       -29.0423
  85   2.0000      -1.061843       -28.8942
  86   2.0000      -1.007962       -27.4280
  87   2.0000      -1.002532       -27.2803
  88   2.0000      -0.991172       -26.9712
  89   2.0000      -0.986369       -26.8405
  90   2.0000      -0.985791       -26.8247
  91   2.0000      -0.983804       -26.7707
  92   2.0000      -0.978211       -26.6185
  93   2.0000      -0.967863       -26.3369
  94   2.0000      -0.966893       -26.3105
  95   2.0000      -0.962295       -26.1854
  96   2.0000      -0.950786       -25.8722
  97   2.0000      -0.949439       -25.8356
  98   2.0000      -0.921320       -25.0704
  99   2.0000      -0.919785       -25.0286
 100   2.0000      -0.915172       -24.9031
 101   2.0000      -0.901102       -24.5202
 102   2.0000      -0.896151       -24.3855
 103   2.0000      -0.894021       -24.3275
 104   2.0000      -0.882781       -24.0217
 105   2.0000      -0.880925       -23.9712
 106   2.0000      -0.878431       -23.9033
 107   2.0000      -0.876798       -23.8589
 108   2.0000      -0.876092       -23.8397
 109   2.0000      -0.872133       -23.7319
 110   2.0000      -0.868383       -23.6299
 111   2.0000      -0.860609       -23.4184
 112   2.0000      -0.853715       -23.2308
 113   2.0000      -0.841096       -22.8874
 114   2.0000      -0.833361       -22.6769
 115   2.0000      -0.827643       -22.5213
 116   2.0000      -0.825276       -22.4569
 117   2.0000      -0.821886       -22.3646
 118   2.0000      -0.809929       -22.0393
 119   2.0000      -0.801936       -21.8218
 120   2.0000      -0.779515       -21.2117
 121   2.0000      -0.763354       -20.7719
 122   2.0000      -0.759364       -20.6633
 123   2.0000      -0.751945       -20.4615
 124   2.0000      -0.747211       -20.3326
 125   2.0000      -0.739294       -20.1172
 126   2.0000      -0.729623       -19.8540
 127   2.0000      -0.721338       -19.6286
 128   2.0000      -0.715842       -19.4791
 129   2.0000      -0.711675       -19.3657
 130   2.0000      -0.706002       -19.2113
 131   2.0000      -0.705679       -19.2025
 132   2.0000      -0.701382       -19.0856
 133   2.0000      -0.700448       -19.0602
 134   2.0000      -0.695915       -18.9368
 135   2.0000      -0.691439       -18.8150
 136   2.0000      -0.687011       -18.6945
 137   2.0000      -0.679812       -18.4986
 138   2.0000      -0.676279       -18.4025
 139   2.0000      -0.672707       -18.3053
 140   2.0000      -0.669816       -18.2266
 141   2.0000      -0.665355       -18.1052
 142   2.0000      -0.662773       -18.0350
 143   2.0000      -0.659450       -17.9446
 144   2.0000      -0.650192       -17.6926
 145   2.0000      -0.641764       -17.4633
 146   2.0000      -0.637408       -17.3448
 147   2.0000      -0.631339       -17.1796
 148   2.0000      -0.626150       -17.0384
 149   2.0000      -0.622142       -16.9294
 150   2.0000      -0.620431       -16.8828
 151   2.0000      -0.616902       -16.7868
 152   2.0000      -0.610340       -16.6082
 153   2.0000      -0.603638       -16.4258
 154   2.0000      -0.599194       -16.3049
 155   2.0000      -0.594979       -16.1902
 156   2.0000      -0.590266       -16.0620
 157   2.0000      -0.579548       -15.7703
 158   2.0000      -0.578432       -15.7399
 159   2.0000      -0.577803       -15.7228
 160   2.0000      -0.571227       -15.5439
 161   2.0000      -0.567867       -15.4525
 162   2.0000      -0.567213       -15.4347
 163   2.0000      -0.560814       -15.2605
 164   2.0000      -0.557249       -15.1635
 165   2.0000      -0.554216       -15.0810
 166   2.0000      -0.552394       -15.0314
 167   2.0000      -0.551912       -15.0183
 168   2.0000      -0.548435       -14.9237
 169   2.0000      -0.548112       -14.9149
 170   2.0000      -0.546534       -14.8719
 171   2.0000      -0.545698       -14.8492
 172   2.0000      -0.544295       -14.8110
 173   2.0000      -0.541219       -14.7273
 174   2.0000      -0.540269       -14.7015
 175   2.0000      -0.536167       -14.5898
 176   2.0000      -0.535342       -14.5674
 177   2.0000      -0.531967       -14.4756
 178   2.0000      -0.528589       -14.3836
 179   2.0000      -0.526934       -14.3386
 180   2.0000      -0.525444       -14.2980
 181   2.0000      -0.522374       -14.2145
 182   2.0000      -0.521660       -14.1951
 183   2.0000      -0.520881       -14.1739
 184   2.0000      -0.517794       -14.0899
 185   2.0000      -0.516058       -14.0427
 186   2.0000      -0.515601       -14.0302
 187   2.0000      -0.514244       -13.9933
 188   2.0000      -0.511996       -13.9321
 189   2.0000      -0.511309       -13.9134
 190   2.0000      -0.508608       -13.8399
 191   2.0000      -0.508411       -13.8346
 192   2.0000      -0.499718       -13.5980
 193   2.0000      -0.498177       -13.5561
 194   2.0000      -0.493532       -13.4297
 195   2.0000      -0.491051       -13.3622
 196   2.0000      -0.489082       -13.3086
 197   2.0000      -0.486649       -13.2424
 198   2.0000      -0.485911       -13.2223
 199   2.0000      -0.483959       -13.1692
 200   2.0000      -0.480918       -13.0864
 201   2.0000      -0.480449       -13.0737
 202   2.0000      -0.478118       -13.0102
 203   2.0000      -0.475231       -12.9317
 204   2.0000      -0.473102       -12.8738
 205   2.0000      -0.471427       -12.8282
 206   2.0000      -0.471003       -12.8166
 207   2.0000      -0.465990       -12.6802
 208   2.0000      -0.461661       -12.5624
 209   2.0000      -0.458417       -12.4742
 210   2.0000      -0.456386       -12.4189
 211   2.0000      -0.453275       -12.3343
 212   2.0000      -0.452384       -12.3100
 213   2.0000      -0.451929       -12.2976
 214   2.0000      -0.449078       -12.2200
 215   2.0000      -0.448661       -12.2087
 216   2.0000      -0.444368       -12.0919
 217   2.0000      -0.441698       -12.0192
 218   2.0000      -0.441133       -12.0038
 219   2.0000      -0.438130       -11.9221
 220   2.0000      -0.435603       -11.8533
 221   2.0000      -0.434605       -11.8262
 222   2.0000      -0.430819       -11.7232
 223   2.0000      -0.429067       -11.6755
 224   2.0000      -0.426447       -11.6042
 225   2.0000      -0.425659       -11.5828
 226   2.0000      -0.421974       -11.4825
 227   2.0000      -0.417438       -11.3591
 228   2.0000      -0.416599       -11.3362
 229   2.0000      -0.415090       -11.2952
 230   2.0000      -0.412770       -11.2321
 231   2.0000      -0.411802       -11.2057
 232   2.0000      -0.410414       -11.1679
 233   2.0000      -0.409155       -11.1337
 234   2.0000      -0.404682       -11.0119
 235   2.0000      -0.400203       -10.8901
 236   2.0000      -0.399601       -10.8737
 237   2.0000      -0.393086       -10.6964
 238   2.0000      -0.391742       -10.6599
 239   2.0000      -0.386739       -10.5237
 240   2.0000      -0.386573       -10.5192
 241   2.0000      -0.373396       -10.1606
 242   2.0000      -0.369357       -10.0507
 243   2.0000      -0.368813       -10.0359
 244   2.0000      -0.358947        -9.7675
 245   2.0000      -0.357088        -9.7169
 246   2.0000      -0.344400        -9.3716
 247   2.0000      -0.333618        -9.0782
 248   2.0000      -0.327072        -8.9001
 249   2.0000      -0.321170        -8.7395
 250   2.0000      -0.319572        -8.6960
 251   2.0000      -0.315293        -8.5795
 252   2.0000      -0.306970        -8.3531
 253   2.0000      -0.305883        -8.3235
 254   2.0000      -0.300842        -8.1863
 255   2.0000      -0.299460        -8.1487
 256   2.0000      -0.294458        -8.0126
 257   2.0000      -0.290330        -7.9003
 258   2.0000      -0.289517        -7.8782
 259   2.0000      -0.285763        -7.7760
 260   2.0000      -0.246088        -6.6964
 261   2.0000      -0.243476        -6.6253
 262   2.0000      -0.221526        -6.0280
 263   0.0000      -0.086282        -2.3478
 264   0.0000      -0.082611        -2.2480
 265   0.0000      -0.064279        -1.7491
 266   0.0000      -0.046391        -1.2624
 267   0.0000      -0.040315        -1.0970

MULLIKEN ATOMIC CHARGES
-----------------------
   0 C :   -0.102834
   1 C :    0.302691
   2 F :   -0.195162
   3 C :   -0.029209
   4 C :   -0.014205
   5 C :    0.103488
   6 C :    0.104563
   7 C :   -0.094973
   8 C :    0.038898
   9 C :    0.017961
  10 C :   -0.090202
  11 C :    0.136501
  12 O :   -0.163850
  13 C :   -0.166715
  14 C :    0.281815
  15 C :   -0.351894
  16 C :   -0.216268
  17 N :    0.159510
  18 C :   -0.175732
  19 N :    0.138929
  20 C :    0.029665
  21 C :    0.091632
  22 N :   -0.033164
  23 C :    0.138941
  24 C :   -0.178811
  25 C :    0.086552
  26 N :   -0.038743
  27 C :    0.116765
  28 C :   -0.115239
  29 C :    0.141365
  30 C :   -0.112895
  31 C :    0.024700
  32 C :    0.031324
  33 C :   -0.070880
  34 C :    0.153475
  35 N :   -0.224590
  36 C :    0.144779
  37 N :   -0.216992
  38 C :    0.111035
  39 C :   -0.121685
  40 C :    0.129968
  41 C :   -0.054538
  42 C :    0.022622
  43 C :    0.010991
  44 C :    0.027129
  45 C :    0.007567
  46 C :   -0.020363
  47 C :   -0.054111
  48 C :    0.019442
  49 C :    0.118864
  50 N :   -0.034365
  51 C :    0.113662
  52 C :   -0.119950
  53 C :    0.086126
  54 N :   -0.026839
  55 C :    0.130304
  56 C :   -0.173200
  57 C :    0.026611
  58 C :   -0.157855
  59 C :    0.133698
  60 O :   -0.159936
  61 C :    0.014676
  62 C :   -0.084979
  63 C :    0.100592
  64 C :    0.101096
  65 C :   -0.098780
  66 C :    0.300700
  67 C :   -0.030631
  68 C :   -0.010970
  69 F :   -0.193632
  70 C :   -0.091488
  71 C :    0.039152
  72 C :    0.278229
  73 C :   -0.352602
  74 C :   -0.211015
  75 N :    0.159913
  76 C :   -0.172729
  77 N :    0.138139
  78 H :   -0.005782
  79 H :   -0.001046
  80 H :   -0.013294
  81 H :   -0.009236
  82 H :   -0.017748
  83 H :    0.001240
  84 H :    0.127577
  85 H :   -0.029705
  86 H :    0.129312
  87 H :   -0.011154
  88 H :   -0.060829
  89 H :   -0.043422
  90 H :    0.000637
  91 H :   -0.026229
  92 H :    0.080782
  93 H :    0.089884
  94 H :   -0.001609
  95 H :   -0.016179
  96 H :    0.090323
  97 H :    0.095261
  98 H :   -0.014980
  99 H :    0.036720
 100 H :   -0.012350
 101 H :   -0.034453
 102 H :   -0.035526
 103 H :   -0.030385
 104 H :    0.012977
 105 H :   -0.027477
 106 H :    0.125913
 107 H :   -0.011021
 108 H :    0.127693
 109 H :   -0.030376
 110 H :    0.003072
 111 H :   -0.015782
 112 H :   -0.005212
 113 H :    0.000577
 114 H :   -0.011450
 115 H :   -0.008772
Sum of atomic charges:   -0.0000000

LOEWDIN ATOMIC CHARGES
----------------------
   0 C :   -0.043757
   1 C :    0.090672
   2 F :   -0.069580
   3 C :   -0.041526
   4 C :    0.002621
   5 C :   -0.020682
   6 C :    0.001812
   7 C :    0.004883
   8 C :   -0.014859
   9 C :   -0.056135
  10 C :    0.028209
  11 C :    0.079128
  12 O :   -0.164368
  13 C :   -0.118488
  14 C :    0.065322
  15 C :   -0.160963
  16 C :   -0.019610
  17 N :   -0.057588
  18 C :   -0.021750
  19 N :   -0.069277
  20 C :    0.050300
  21 C :   -0.015137
  22 N :    0.079786
  23 C :    0.011971
  24 C :   -0.104860
  25 C :    0.041671
  26 N :    0.071307
  27 C :   -0.015496
  28 C :   -0.032986
  29 C :   -0.031889
  30 C :   -0.023883
  31 C :   -0.018183
  32 C :   -0.020876
  33 C :   -0.040255
  34 C :    0.024953
  35 N :   -0.122770
  36 C :    0.027797
  37 N :   -0.116443
  38 C :   -0.011428
  39 C :    0.066335
  40 C :   -0.028969
  41 C :   -0.038045
  42 C :   -0.013893
  43 C :   -0.035827
  44 C :   -0.028164
  45 C :   -0.003518
  46 C :   -0.024761
  47 C :    0.012075
  48 C :   -0.050006
  49 C :    0.025347
  50 N :    0.072000
  51 C :   -0.019958
  52 C :   -0.034879
  53 C :   -0.016810
  54 N :    0.079976
  55 C :    0.011330
  56 C :   -0.101763
  57 C :    0.051674
  58 C :   -0.115791
  59 C :    0.079130
  60 O :   -0.161046
  61 C :   -0.056991
  62 C :    0.029673
  63 C :   -0.020312
  64 C :    0.001947
  65 C :   -0.043365
  66 C :    0.091050
  67 C :   -0.040229
  68 C :    0.003130
  69 F :   -0.068009
  70 C :    0.005890
  71 C :   -0.015574
  72 C :    0.066167
  73 C :   -0.158087
  74 C :   -0.017907
  75 N :   -0.057822
  76 C :   -0.021533
  77 N :   -0.067303
  78 H :    0.041787
  79 H :    0.040016
  80 H :    0.034085
  81 H :    0.037572
  82 H :    0.037370
  83 H :    0.042218
  84 H :    0.093924
  85 H :    0.025791
  86 H :    0.089395
  87 H :    0.031850
  88 H :    0.013039
  89 H :    0.017120
  90 H :    0.000733
  91 H :    0.010802
  92 H :    0.047349
  93 H :    0.054240
  94 H :    0.004901
  95 H :    0.014424
  96 H :    0.052070
  97 H :    0.057481
  98 H :    0.027072
  99 H :    0.058567
 100 H :    0.024680
 101 H :    0.029934
 102 H :    0.028232
 103 H :    0.026182
 104 H :    0.030665
 105 H :    0.026444
 106 H :    0.091922
 107 H :    0.031604
 108 H :    0.094255
 109 H :    0.025951
 110 H :    0.042686
 111 H :    0.038019
 112 H :    0.041986
 113 H :    0.040529
 114 H :    0.034618
 115 H :    0.037682

  Mayer bond orders larger than 0.100000
B(  0-C ,  1-C ) :   1.4386 B(  0-C ,  6-C ) :   1.2023 B(  0-C , 78-H ) :   1.0075
B(  1-C ,  2-F ) :   1.0836 B(  1-C ,  3-C ) :   1.2598 B(  3-C ,  4-C ) :   1.4550
B(  3-C , 79-H ) :   0.9922 B(  4-C ,  5-C ) :   1.2373 B(  4-C , 80-H ) :   0.9971
B(  5-C ,  6-C ) :   1.2640 B(  5-C , 10-C ) :   1.1798 B(  6-C ,  7-C ) :   1.1926
B(  7-C ,  8-C ) :   1.4691 B(  7-C , 81-H ) :   0.9949 B(  8-C ,  9-C ) :   1.2196
B(  8-C , 14-C ) :   0.9881 B(  9-C , 10-C ) :   1.4790 B(  9-C , 11-C ) :   0.9153
B( 10-C , 82-H ) :   1.0160 B( 11-C , 12-O ) :   2.2453 B( 11-C , 13-C ) :   0.9717
B( 13-C , 14-C ) :   1.0916 B( 13-C , 20-C ) :   1.5311 B( 14-C , 15-C ) :   1.5980
B( 15-C , 16-C ) :   1.1711 B( 15-C , 18-C ) :   1.1375 B( 16-C , 17-N ) :   2.9948
B( 18-C , 19-N ) :   2.9770 B( 20-C , 21-C ) :   1.2003 B( 20-C , 83-H ) :   0.9346
B( 21-C , 22-N ) :   1.1387 B( 21-C , 28-C ) :   1.2884 B( 22-N , 23-C ) :   1.2108
B( 22-N , 84-H ) :   0.9346 B( 23-C , 24-C ) :   1.2345 B( 23-C , 27-C ) :   1.2740
B( 24-C , 25-C ) :   1.4220 B( 24-C , 85-H ) :   1.0290 B( 25-C , 26-N ) :   1.2272
B( 25-C , 29-C ) :   1.0133 B( 26-N , 27-C ) :   1.1389 B( 26-N , 86-H ) :   0.9312
B( 27-C , 28-C ) :   1.3600 B( 28-C , 87-H ) :   1.0205 B( 29-C , 30-C ) :   1.5152
B( 29-C , 46-C ) :   1.1305 B( 30-C , 31-C ) :   1.1513 B( 30-C , 88-H ) :   0.9793
B( 31-C , 32-C ) :   1.4840 B( 31-C , 44-C ) :   1.1204 B( 32-C , 33-C ) :   0.9986
B( 32-C , 38-C ) :   1.1198 B( 33-C , 34-C ) :   1.0357 B( 33-C , 36-C ) :   1.0390
B( 33-C , 89-H ) :   0.8929 B( 34-C , 35-N ) :   1.0747 B( 34-C , 90-H ) :   0.9364
B( 34-C , 91-H ) :   0.9348 B( 35-N , 92-H ) :   0.9738 B( 35-N , 93-H ) :   0.9695
B( 36-C , 37-N ) :   1.0742 B( 36-C , 94-H ) :   0.9462 B( 36-C , 95-H ) :   0.9313
B( 37-N , 96-H ) :   0.9711 B( 37-N , 97-H ) :   0.9672 B( 38-C , 39-C ) :   1.6450
B( 38-C , 43-C ) :   1.0481 B( 39-C , 40-C ) :   0.9744 B( 39-C , 98-H ) :   0.9697
B( 40-C , 41-C ) :   0.9760 B( 40-C , 47-C ) :   0.9607 B( 40-C , 99-H ) :   0.8651
B( 41-C , 42-C ) :   1.7123 B( 41-C ,100-H ) :   0.9799 B( 42-C , 43-C ) :   1.1271
B( 42-C ,101-H ) :   0.9895 B( 43-C , 44-C ) :   1.4446 B( 44-C , 45-C ) :   1.1376
B( 45-C , 46-C ) :   1.6119 B( 45-C ,102-H ) :   0.9912 B( 46-C ,103-H ) :   0.9858
B( 47-C , 48-C ) :   1.8071 B( 47-C ,104-H ) :   0.9713 B( 48-C , 49-C ) :   1.0562
B( 48-C ,105-H ) :   0.9621 B( 49-C , 50-N ) :   1.1938 B( 49-C , 56-C ) :   1.4335
B( 50-N , 51-C ) :   1.1426 B( 50-N ,106-H ) :   0.9367 B( 51-C , 52-C ) :   1.3474
B( 51-C , 55-C ) :   1.2816 B( 52-C , 53-C ) :   1.3040 B( 52-C ,107-H ) :   1.0222
B( 53-C , 54-N ) :   1.1448 B( 53-C , 57-C ) :   1.1773 B( 54-N , 55-C ) :   1.2069
B( 54-N ,108-H ) :   0.9347 B( 55-C , 56-C ) :   1.2481 B( 56-C ,109-H ) :   1.0311
B( 57-C , 58-C ) :   1.5499 B( 57-C ,110-H ) :   0.9360 B( 58-C , 59-C ) :   0.9659
B( 58-C , 72-C ) :   1.0836 B( 59-C , 60-O ) :   2.2498 B( 59-C , 61-C ) :   0.9171
B( 61-C , 62-C ) :   1.4779 B( 61-C , 71-C ) :   1.2200 B( 62-C , 63-C ) :   1.1852
B( 62-C ,111-H ) :   1.0152 B( 63-C , 64-C ) :   1.2617 B( 63-C , 68-C ) :   1.2349
B( 64-C , 65-C ) :   1.2059 B( 64-C , 70-C ) :   1.1953 B( 65-C , 66-C ) :   1.4382
B( 65-C ,112-H ) :   1.0067 B( 66-C , 67-C ) :   1.2589 B( 66-C , 69-F ) :   1.0856
B( 67-C , 68-C ) :   1.4574 B( 67-C ,113-H ) :   0.9928 B( 68-C ,114-H ) :   0.9973
B( 70-C , 71-C ) :   1.4685 B( 70-C ,115-H ) :   0.9942 B( 71-C , 72-C ) :   0.9914
B( 72-C , 73-C ) :   1.6058 B( 73-C , 74-C ) :   1.1723 B( 73-C , 76-C ) :   1.1327
B( 74-C , 75-N ) :   2.9951 B( 76-C , 77-N ) :   2.9780

-----------------------------------------------------------------------------
         ABSORPTION SPECTRUM VIA TRANSITION ELECTRIC DIPOLE MOMENTS
-----------------------------------------------------------------------------
State   Energy  Wavelength   fosc         T2         TX        TY        TZ
        (cm-1)    (nm)                  (au**2)     (au)      (au)      (au)
-----------------------------------------------------------------------------
   0   14493.2    690.0   0.181208950   4.11615  -0.06811   1.12470  -1.68717
   1   17253.3    579.6   1.404397947  26.79742  -0.08957   0.59613  -5.14140
   2   17894.4    558.8   0.672567901  12.37355   0.79787  -3.39462   0.46207
   3   20881.2    478.9   0.063010688   0.99342   0.09791  -0.71309  -0.68945
   4   21197.9    471.7   0.081246464   1.26179  -0.06576  -0.46633   1.01981
   5   23902.8    418.4   0.107871363   1.48570  -0.34263   0.41700  -1.09290
   6   24590.6    406.7   0.458867472   6.14319   0.17417  -1.06114   2.23312
   7   25988.4    384.8   0.268217921   3.39769   0.79590  -1.17144   1.17981
   8   26149.3    382.4   0.056999081   0.71760  -0.15046  -0.35270  -0.75536
   9   27048.2    369.7   0.002545384   0.03098  -0.03306  -0.17224   0.01485
  10   27844.3    359.1   0.058779598   0.69497  -0.15207   0.73384  -0.36514
  11   27914.2    358.2   0.080408652   0.94832   0.27093  -0.41242   0.83954
  12   28031.3    356.7   0.050913470   0.59795  -0.59984  -0.19091  -0.44911
  13   28407.2    352.0   0.085336403   0.98897   0.24538   0.75717  -0.59619
  14   28636.9    349.2   0.088236892   1.01438   0.32709   0.50867   0.80538
  15   29575.6    338.1   0.222257576   2.47399   0.30042  -0.68016   1.38605
  16   29780.9    335.8   0.198062826   2.18948  -0.58895   0.18502  -1.34476
  17   30067.8    332.6   0.045250670   0.49545   0.11954  -0.07671  -0.68940
  18   30686.2    325.9   0.006273530   0.06730  -0.00083   0.09229  -0.24246
  19   30972.4    322.9   0.081548318   0.86679  -0.06364   0.56905  -0.73411
  20   31102.7    321.5   0.061024551   0.64592  -0.35860   0.09450  -0.71302
  21   31442.0    318.0   0.035561873   0.37235  -0.19444   0.01347   0.57824
  22   32581.5    306.9   0.152721727   1.54314  -0.43906   0.00021  -1.16205
  23   32918.0    303.8   0.894872680   8.94961   0.68448  -1.36155   2.57435
  24   33123.5    301.9   0.287346950   2.85592   0.39091  -0.65757   1.50689
  25   33356.1    299.8   0.077419234   0.76410  -0.21954  -0.60563  -0.59086
  26   33415.5    299.3   0.035069942   0.34551  -0.19483   0.51144  -0.21444
  27   33623.9    297.4   0.041464028   0.40597   0.37680   0.42516  -0.28850
  28   34070.4    293.5   0.013284703   0.12837   0.10047   0.30505  -0.15880
  29   34328.0    291.3   0.078771653   0.75543   0.37855  -0.63446   0.45782
  30   35126.6    284.7   0.105483918   0.98861  -0.19703   0.10131  -0.96929
  31   35193.3    284.1   0.286288027   2.67805  -0.41007   0.18310  -1.57365
  32   35267.9    283.5   0.234077006   2.18501   1.15389   0.78302   0.49032
  33   35752.6    279.7   0.077078016   0.70974   0.51675  -0.12446   0.65362
  34   35988.8    277.9   0.078415282   0.71731  -0.41087  -0.51351   0.53368
  35   36118.6    276.9   0.079016742   0.72022  -0.08505  -0.53994   0.64919
  36   36352.8    275.1   0.055922523   0.50644   0.27727   0.49812  -0.42596
  37   36869.0    271.2   0.001431976   0.01279  -0.00163  -0.06736  -0.09081
  38   37087.1    269.6   0.018729583   0.16626  -0.00875   0.02604  -0.40682
  39   37749.6    264.9   0.004376782   0.03817   0.04845   0.14417  -0.12262
  40   38264.1    261.3   0.338352719   2.91108   0.57380  -0.51635   1.52158
  41   38349.0    260.8   0.053822117   0.46204   0.14279  -0.54846   0.37529
  42   38491.7    259.8   0.015135809   0.12945  -0.24269   0.01330   0.26529
  43   38661.9    258.7   0.051079054   0.43495   0.33105  -0.04446   0.56866
  44   38817.5    257.6   0.051948173   0.44057   0.04562  -0.33689   0.57009
  45   38963.6    256.6   0.006229901   0.05264   0.11210   0.13862   0.14442
  46   39106.4    255.7   0.018861052   0.15878  -0.02811   0.29779  -0.26327
  47   39469.6    253.4   0.011219128   0.09358  -0.28825  -0.05316   0.08756
  48   39544.6    252.9   0.108214031   0.90089   0.69981   0.46514   0.44137
  49   39745.2    251.6   0.040734200   0.33740   0.42374  -0.28214  -0.27972
  50   39851.2    250.9   0.133657869   1.10415   0.16482  -0.76507   0.70118

FINAL SINGLE POINT ENERGY     -3354.990753264094

DIPOLE MOMENT
-------------
                                X             Y             Z
Electronic contribution:     10.65295     -27.09948      -7.12819
Nuclear contribution   :    -12.11197      29.52151       9.97485
                        -----------------------------------------
Total Dipole Moment    :     -1.45902       2.42203       2.84666
                        -----------------------------------------
Magnitude (a.u.)       :      4.01229
Magnitude (Debye)      :     10.19842

Rotational constants in cm-1:     0.001754     0.000145     0.000137
Rotational constants in MHz :    52.575756     4.346755     4.121553

                             ****ORCA TERMINATED NORMALLY****
TOTAL RUN TIME: 0 days 0 hours 10 minutes 57 seconds 117 msec
