                         Program Version 4.2.0 -  RELEASE  -
|  1> # ORCA input file
|  2> # SCF done       -202.289155806944          0.005204054988
|  3> ! CAM-B3LYP def2-SVP def2/J RIJCOSX Grid4 TightSCF
|  4> %maxcore 5000
|  5> %tddft
|  6>     Mode sTDDFT
|  7>     Ethresh 5.0
|  8>     maxcore 5000
|  9> end
| 10>
| 11> %pal
| 12>   nprocs 6
| 13>   end
| 14> * xyz 0 1
| 15>    C        6.18402         4.43738        13.20587
| 16>    C        5.13745         5.00284        13.88034
| 17>    F        5.06005         4.86698        15.21579
| 18>    C        4.12804         5.72839        13.23098
| 19>    C        4.18746         5.87537        11.87299
| 20>    C        5.24341         5.31110        11.12731
| 21>    C        6.26358         4.58176        11.80685
| 22>    C        7.34065         4.01859        11.08293
| 23>    C        7.39087         4.17663         9.72381
| 24>    C        6.35406         4.88428         9.04803
| 25>    C        5.30833         5.44641         9.72298
| 26>    C        6.61354         4.85977         7.59912
| 27>    O        5.98358         5.39164         6.71367
| 28>    C        7.80455         3.97524         7.42655
| 29>    C        8.37837         3.74308         8.73726
| 30>    C        9.68287         3.42728         9.01418
| 31>    C       10.66518         3.23674         8.02148
| 32>    N       11.49576         3.10707         7.23916
| 33>    C       10.20216         3.33762        10.32368
| 34>    N       10.65265         3.24636        11.37557
| 35>    C        8.08617         3.51790         6.17807
| 36>    C        8.88663         2.41026         5.78606
| 37>    C        9.18298         1.31803         6.55939
| 38>    C       10.01283         0.41696         5.80182
| 39>    C       10.44087        -0.84280         6.24225
| 40>    N       10.78472        -1.88040         6.59214
| 41>    C       10.29040         0.99048         4.58881
| 42>    C        9.58391         2.23759         4.49678
| 43>    C        9.58012         3.04459         3.38251
| 44>    C       10.56282         2.94675         2.26280
| 45>    C       10.06852         3.68875         1.22317
| 46>    C        8.83664         4.29775         1.64282
| 47>    C        8.57378         3.95773         2.95118
| 48>    C        8.04008         5.10929         0.82210
| 49>    N        7.39634         5.76538         0.13505
| 50>    C       11.84295         2.34373         2.35229
| 51>    C       12.61639         2.04647         1.27107
| 52>    C       13.89877         1.46258         1.34944
| 53>    O       14.48673         1.20705         2.54430
| 54>    C       15.69999         0.67091         2.30353
| 55>    C       15.88750         0.54238         0.93194
| 56>    C       14.74400         1.04789         0.31173
| 57>    C       14.48154         1.13376        -1.14726
| 58>    C       16.48227         0.18417         3.39400
| 59>    C       15.95545        -0.35788         4.53337
| 60>    C       17.01957        -0.98758         5.27831
| 61>    C       16.88485        -1.68011         6.48924
| 62>    N       16.83345        -2.20916         7.50677
| 63>    C       18.20522        -0.78182         4.62546
| 64>    C       17.95694         0.08503         3.50162
| 65>    C       18.89294         0.87256         2.88033
| 66>    C       20.34831         0.94575         3.18395
| 67>    C       20.95563         1.53595         2.10999
| 68>    C       19.93768         1.98413         1.19117
| 69>    C       18.70523         1.64591         1.68466
| 70>    C       20.18732         2.67268        -0.00503
| 71>    N       20.39202         3.22252        -0.99120
| 72>    C       21.02044         0.68196         4.41163
| 73>    C       20.41885         0.71341         5.62842
| 74>    C       21.08752         0.44202         6.84376
| 75>    C       20.52504         0.19872         8.05967
| 76>    C       21.39677        -0.39624         9.11924
| 77>    O       22.60666        -0.39324         9.12949
| 78>    C       20.47475        -1.03014        10.07226
| 79>    C       20.76131        -1.83477        11.13798
| 80>    C       19.69970        -2.41737        11.86425
| 81>    C       18.35605        -2.16445        11.45890
| 82>    C       17.30212        -2.77332        12.16766
| 83>    C       17.58962        -3.58668        13.22832
| 84>    C       18.90342        -3.84217        13.64639
| 85>    C       19.93861        -3.26138        12.96846
| 86>    F       16.58715        -4.17151        13.90755
| 87>    C       18.08817        -1.31461        10.36092
| 88>    C       19.13343        -0.74250         9.68651
| 89>    C       19.15452         0.16433         8.53974
| 90>    C       18.08310         0.92156         8.14980
| 91>    C       18.06775         1.92655         7.16173
| 92>    N       17.96176         2.76300         6.38051
| 93>    C       16.80757         0.85053         8.75835
| 94>    N       15.74532         0.86032         9.19412
| 95>    H        6.94547         3.88929        13.73893
| 96>    H        3.32772         6.15318        13.81605
| 97>    H        3.42137         6.42878        11.35016
| 98>    H        8.09388         3.46587        11.62227
| 99>    H        4.53900         5.98650         9.19091
|100>    H        7.53913         4.03579         5.39924
|101>    H        8.82430         1.11270         7.55149
|102>    H       10.84496         0.53007         3.79448
|103>    H       10.52830         3.86439         0.26950
|104>    H        7.68944         4.24582         3.48298
|105>    H       12.23668         2.13708         3.33727
|106>    H       12.24870         2.22611         0.27192
|107>    H       16.72642         0.08324         0.44834
|108>    H       15.17544         0.49908        -1.68980
|109>    H       14.61238         2.15860        -1.49474
|110>    H       13.46437         0.82610        -1.37871
|111>    H       14.91781        -0.39295         4.80676
|112>    H       19.15456        -1.20276         4.89170
|113>    H       22.00469         1.73561         1.99495
|114>    H       17.76573         1.88079         1.22875
|115>    H       22.09478         0.55512         4.35152
|116>    H       19.36701         0.93629         5.67236
|117>    H       22.16372         0.30409         6.80167
|118>    H       21.78580        -2.03299        11.41573
|119>    H       16.27977        -2.59688        11.87265
|120>    H       19.06851        -4.49246        14.49089
|121>    H       20.95889        -3.44515        13.27030
|122>    H       17.06400        -1.16297        10.06251
|123> *
|124>
|125>                          ****END OF INPUT****

CARTESIAN COORDINATES (ANGSTROEM)
---------------------------------
  C      6.184020    4.437380   13.205870
  C      5.137450    5.002840   13.880340
  F      5.060050    4.866980   15.215790
  C      4.128040    5.728390   13.230980
  C      4.187460    5.875370   11.872990
  C      5.243410    5.311100   11.127310
  C      6.263580    4.581760   11.806850
  C      7.340650    4.018590   11.082930
  C      7.390870    4.176630    9.723810
  C      6.354060    4.884280    9.048030
  C      5.308330    5.446410    9.722980
  C      6.613540    4.859770    7.599120
  O      5.983580    5.391640    6.713670
  C      7.804550    3.975240    7.426550
  C      8.378370    3.743080    8.737260
  C      9.682870    3.427280    9.014180
  C     10.665180    3.236740    8.021480
  N     11.495760    3.107070    7.239160
  C     10.202160    3.337620   10.323680
  N     10.652650    3.246360   11.375570
  C      8.086170    3.517900    6.178070
  C      8.886630    2.410260    5.786060
  C      9.182980    1.318030    6.559390
  C     10.012830    0.416960    5.801820
  C     10.440870   -0.842800    6.242250
  N     10.784720   -1.880400    6.592140
  C     10.290400    0.990480    4.588810
  C      9.583910    2.237590    4.496780
  C      9.580120    3.044590    3.382510
  C     10.562820    2.946750    2.262800
  C     10.068520    3.688750    1.223170
  C      8.836640    4.297750    1.642820
  C      8.573780    3.957730    2.951180
  C      8.040080    5.109290    0.822100
  N      7.396340    5.765380    0.135050
  C     11.842950    2.343730    2.352290
  C     12.616390    2.046470    1.271070
  C     13.898770    1.462580    1.349440
  O     14.486730    1.207050    2.544300
  C     15.699990    0.670910    2.303530
  C     15.887500    0.542380    0.931940
  C     14.744000    1.047890    0.311730
  C     14.481540    1.133760   -1.147260
  C     16.482270    0.184170    3.394000
  C     15.955450   -0.357880    4.533370
  C     17.019570   -0.987580    5.278310
  C     16.884850   -1.680110    6.489240
  N     16.833450   -2.209160    7.506770
  C     18.205220   -0.781820    4.625460
  C     17.956940    0.085030    3.501620
  C     18.892940    0.872560    2.880330
  C     20.348310    0.945750    3.183950
  C     20.955630    1.535950    2.109990
  C     19.937680    1.984130    1.191170
  C     18.705230    1.645910    1.684660
  C     20.187320    2.672680   -0.005030
  N     20.392020    3.222520   -0.991200
  C     21.020440    0.681960    4.411630
  C     20.418850    0.713410    5.628420
  C     21.087520    0.442020    6.843760
  C     20.525040    0.198720    8.059670
  C     21.396770   -0.396240    9.119240
  O     22.606660   -0.393240    9.129490
  C     20.474750   -1.030140   10.072260
  C     20.761310   -1.834770   11.137980
  C     19.699700   -2.417370   11.864250
  C     18.356050   -2.164450   11.458900
  C     17.302120   -2.773320   12.167660
  C     17.589620   -3.586680   13.228320
  C     18.903420   -3.842170   13.646390
  C     19.938610   -3.261380   12.968460
  F     16.587150   -4.171510   13.907550
  C     18.088170   -1.314610   10.360920
  C     19.133430   -0.742500    9.686510
  C     19.154520    0.164330    8.539740
  C     18.083100    0.921560    8.149800
  C     18.067750    1.926550    7.161730
  N     17.961760    2.763000    6.380510
  C     16.807570    0.850530    8.758350
  N     15.745320    0.860320    9.194120
  H      6.945470    3.889290   13.738930
  H      3.327720    6.153180   13.816050
  H      3.421370    6.428780   11.350160
  H      8.093880    3.465870   11.622270
  H      4.539000    5.986500    9.190910
  H      7.539130    4.035790    5.399240
  H      8.824300    1.112700    7.551490
  H     10.844960    0.530070    3.794480
  H     10.528300    3.864390    0.269500
  H      7.689440    4.245820    3.482980
  H     12.236680    2.137080    3.337270
  H     12.248700    2.226110    0.271920
  H     16.726420    0.083240    0.448340
  H     15.175440    0.499080   -1.689800
  H     14.612380    2.158600   -1.494740
  H     13.464370    0.826100   -1.378710
  H     14.917810   -0.392950    4.806760
  H     19.154560   -1.202760    4.891700
  H     22.004690    1.735610    1.994950
  H     17.765730    1.880790    1.228750
  H     22.094780    0.555120    4.351520
  H     19.367010    0.936290    5.672360
  H     22.163720    0.304090    6.801670
  H     21.785800   -2.032990   11.415730
  H     16.279770   -2.596880   11.872650
  H     19.068510   -4.492460   14.490890
  H     20.958890   -3.445150   13.270300
  H     17.064000   -1.162970   10.062510

 Total Charge           Charge          ....    0
 Multiplicity           Mult            ....    1
 Number of Electrons    NEL             ....  528
 Basis Dimension        Dim             .... 1260

ORBITAL ENERGIES
----------------

  NO   OCC          E(Eh)            E(eV)
   0   2.0000     -24.788875      -674.5396
   1   2.0000     -24.780316      -674.3067
   2   2.0000     -19.309688      -525.4433
   3   2.0000     -19.220628      -523.0199
   4   2.0000     -19.213985      -522.8391
   5   2.0000     -14.422666      -392.4607
   6   2.0000     -14.422619      -392.4594
   7   2.0000     -14.421387      -392.4259
   8   2.0000     -14.419776      -392.3820
   9   2.0000     -14.419371      -392.3710
  10   2.0000     -14.418266      -392.3410
  11   2.0000     -14.415694      -392.2710
  12   2.0000     -14.411614      -392.1600
  13   2.0000     -10.373265      -282.2709
  14   2.0000     -10.371318      -282.2179
  15   2.0000     -10.364686      -282.0375
  16   2.0000     -10.364040      -282.0199
  17   2.0000     -10.357899      -281.8528
  18   2.0000     -10.350781      -281.6591
  19   2.0000     -10.348734      -281.6034
  20   2.0000     -10.345408      -281.5129
  21   2.0000     -10.344379      -281.4849
  22   2.0000     -10.342893      -281.4444
  23   2.0000     -10.342380      -281.4305
  24   2.0000     -10.338995      -281.3384
  25   2.0000     -10.334739      -281.2225
  26   2.0000     -10.334380      -281.2128
  27   2.0000     -10.331961      -281.1470
  28   2.0000     -10.331851      -281.1439
  29   2.0000     -10.331792      -281.1423
  30   2.0000     -10.328710      -281.0585
  31   2.0000     -10.325181      -280.9625
  32   2.0000     -10.323284      -280.9109
  33   2.0000     -10.321719      -280.8683
  34   2.0000     -10.321709      -280.8680
  35   2.0000     -10.321530      -280.8631
  36   2.0000     -10.319680      -280.8128
  37   2.0000     -10.317553      -280.7549
  38   2.0000     -10.316795      -280.7343
  39   2.0000     -10.316392      -280.7233
  40   2.0000     -10.315539      -280.7001
  41   2.0000     -10.314573      -280.6738
  42   2.0000     -10.314262      -280.6653
  43   2.0000     -10.314237      -280.6647
  44   2.0000     -10.313726      -280.6508
  45   2.0000     -10.312257      -280.6108
  46   2.0000     -10.311540      -280.5913
  47   2.0000     -10.310628      -280.5664
  48   2.0000     -10.310606      -280.5658
  49   2.0000     -10.310558      -280.5646
  50   2.0000     -10.309985      -280.5489
  51   2.0000     -10.309468      -280.5349
  52   2.0000     -10.306559      -280.4557
  53   2.0000     -10.306193      -280.4458
  54   2.0000     -10.306065      -280.4423
  55   2.0000     -10.305545      -280.4281
  56   2.0000     -10.304965      -280.4123
  57   2.0000     -10.304821      -280.4084
  58   2.0000     -10.303187      -280.3640
  59   2.0000     -10.302860      -280.3551
  60   2.0000     -10.301457      -280.3169
  61   2.0000     -10.301280      -280.3121
  62   2.0000     -10.300744      -280.2975
  63   2.0000     -10.300238      -280.2837
  64   2.0000     -10.300133      -280.2809
  65   2.0000     -10.298142      -280.2267
  66   2.0000     -10.298101      -280.2256
  67   2.0000     -10.296620      -280.1853
  68   2.0000     -10.296473      -280.1813
  69   2.0000     -10.296028      -280.1692
  70   2.0000     -10.295795      -280.1628
  71   2.0000     -10.295079      -280.1433
  72   2.0000     -10.293040      -280.0879
  73   2.0000     -10.292536      -280.0741
  74   2.0000     -10.291573      -280.0479
  75   2.0000     -10.291315      -280.0409
  76   2.0000     -10.290078      -280.0073
  77   2.0000     -10.287867      -279.9471
  78   2.0000     -10.286407      -279.9074
  79   2.0000     -10.283058      -279.8162
  80   2.0000      -1.303955       -35.4824
  81   2.0000      -1.295489       -35.2521
  82   2.0000      -1.228125       -33.4190
  83   2.0000      -1.135730       -30.9048
  84   2.0000      -1.129179       -30.7265
  85   2.0000      -1.027745       -27.9664
  86   2.0000      -1.026960       -27.9450
  87   2.0000      -1.020256       -27.7626
  88   2.0000      -1.018528       -27.7156
  89   2.0000      -1.013282       -27.5728
  90   2.0000      -1.008717       -27.4486
  91   2.0000      -1.005269       -27.3548
  92   2.0000      -1.000673       -27.2297
  93   2.0000      -0.999185       -27.1892
  94   2.0000      -0.998587       -27.1729
  95   2.0000      -0.994763       -27.0689
  96   2.0000      -0.991631       -26.9837
  97   2.0000      -0.990432       -26.9510
  98   2.0000      -0.985839       -26.8260
  99   2.0000      -0.980075       -26.6692
 100   2.0000      -0.973365       -26.4866
 101   2.0000      -0.936877       -25.4937
 102   2.0000      -0.935030       -25.4435
 103   2.0000      -0.933083       -25.3905
 104   2.0000      -0.924681       -25.1618
 105   2.0000      -0.920292       -25.0424
 106   2.0000      -0.912025       -24.8175
 107   2.0000      -0.897691       -24.4274
 108   2.0000      -0.894439       -24.3389
 109   2.0000      -0.892763       -24.2933
 110   2.0000      -0.888659       -24.1816
 111   2.0000      -0.886001       -24.1093
 112   2.0000      -0.882133       -24.0040
 113   2.0000      -0.880613       -23.9627
 114   2.0000      -0.869244       -23.6533
 115   2.0000      -0.846734       -23.0408
 116   2.0000      -0.840803       -22.8794
 117   2.0000      -0.835294       -22.7295
 118   2.0000      -0.833310       -22.6755
 119   2.0000      -0.828309       -22.5394
 120   2.0000      -0.822692       -22.3866
 121   2.0000      -0.811460       -22.0810
 122   2.0000      -0.808661       -22.0048
 123   2.0000      -0.796965       -21.6865
 124   2.0000      -0.794116       -21.6090
 125   2.0000      -0.790742       -21.5172
 126   2.0000      -0.766205       -20.8495
 127   2.0000      -0.762149       -20.7391
 128   2.0000      -0.751330       -20.4447
 129   2.0000      -0.738132       -20.0856
 130   2.0000      -0.736180       -20.0325
 131   2.0000      -0.732090       -19.9212
 132   2.0000      -0.730824       -19.8867
 133   2.0000      -0.715990       -19.4831
 134   2.0000      -0.714841       -19.4518
 135   2.0000      -0.713430       -19.4134
 136   2.0000      -0.713104       -19.4045
 137   2.0000      -0.704481       -19.1699
 138   2.0000      -0.701594       -19.0913
 139   2.0000      -0.688689       -18.7402
 140   2.0000      -0.684908       -18.6373
 141   2.0000      -0.679900       -18.5010
 142   2.0000      -0.673985       -18.3401
 143   2.0000      -0.673235       -18.3197
 144   2.0000      -0.661231       -17.9930
 145   2.0000      -0.651230       -17.7209
 146   2.0000      -0.646934       -17.6040
 147   2.0000      -0.640726       -17.4350
 148   2.0000      -0.638567       -17.3763
 149   2.0000      -0.637755       -17.3542
 150   2.0000      -0.635901       -17.3037
 151   2.0000      -0.633167       -17.2294
 152   2.0000      -0.629310       -17.1244
 153   2.0000      -0.625647       -17.0247
 154   2.0000      -0.620856       -16.8943
 155   2.0000      -0.616709       -16.7815
 156   2.0000      -0.608918       -16.5695
 157   2.0000      -0.604642       -16.4531
 158   2.0000      -0.601142       -16.3579
 159   2.0000      -0.596541       -16.2327
 160   2.0000      -0.593298       -16.1445
 161   2.0000      -0.581305       -15.8181
 162   2.0000      -0.577833       -15.7236
 163   2.0000      -0.577328       -15.7099
 164   2.0000      -0.566945       -15.4274
 165   2.0000      -0.565088       -15.3768
 166   2.0000      -0.562216       -15.2987
 167   2.0000      -0.561278       -15.2732
 168   2.0000      -0.558316       -15.1925
 169   2.0000      -0.552868       -15.0443
 170   2.0000      -0.552561       -15.0359
 171   2.0000      -0.551023       -14.9941
 172   2.0000      -0.549322       -14.9478
 173   2.0000      -0.545559       -14.8454
 174   2.0000      -0.540468       -14.7069
 175   2.0000      -0.539606       -14.6834
 176   2.0000      -0.537883       -14.6365
 177   2.0000      -0.536744       -14.6055
 178   2.0000      -0.533967       -14.5300
 179   2.0000      -0.532376       -14.4867
 180   2.0000      -0.529416       -14.4061
 181   2.0000      -0.527704       -14.3595
 182   2.0000      -0.527309       -14.3488
 183   2.0000      -0.524942       -14.2844
 184   2.0000      -0.523006       -14.2317
 185   2.0000      -0.519330       -14.1317
 186   2.0000      -0.518336       -14.1046
 187   2.0000      -0.517402       -14.0792
 188   2.0000      -0.516274       -14.0485
 189   2.0000      -0.513926       -13.9846
 190   2.0000      -0.511223       -13.9111
 191   2.0000      -0.510352       -13.8874
 192   2.0000      -0.509514       -13.8646
 193   2.0000      -0.506880       -13.7929
 194   2.0000      -0.505619       -13.7586
 195   2.0000      -0.502983       -13.6869
 196   2.0000      -0.502080       -13.6623
 197   2.0000      -0.498588       -13.5673
 198   2.0000      -0.497992       -13.5510
 199   2.0000      -0.497122       -13.5274
 200   2.0000      -0.493286       -13.4230
 201   2.0000      -0.489694       -13.3252
 202   2.0000      -0.488826       -13.3016
 203   2.0000      -0.487494       -13.2654
 204   2.0000      -0.486037       -13.2257
 205   2.0000      -0.484972       -13.1967
 206   2.0000      -0.480787       -13.0829
 207   2.0000      -0.477832       -13.0025
 208   2.0000      -0.473172       -12.8757
 209   2.0000      -0.468940       -12.7605
 210   2.0000      -0.466695       -12.6994
 211   2.0000      -0.462219       -12.5776
 212   2.0000      -0.461766       -12.5653
 213   2.0000      -0.461245       -12.5511
 214   2.0000      -0.455652       -12.3989
 215   2.0000      -0.454480       -12.3670
 216   2.0000      -0.452539       -12.3142
 217   2.0000      -0.451076       -12.2744
 218   2.0000      -0.450106       -12.2480
 219   2.0000      -0.449331       -12.2269
 220   2.0000      -0.448703       -12.2098
 221   2.0000      -0.448523       -12.2049
 222   2.0000      -0.446412       -12.1475
 223   2.0000      -0.444957       -12.1079
 224   2.0000      -0.443167       -12.0592
 225   2.0000      -0.441759       -12.0209
 226   2.0000      -0.441534       -12.0148
 227   2.0000      -0.438415       -11.9299
 228   2.0000      -0.437765       -11.9122
 229   2.0000      -0.433556       -11.7977
 230   2.0000      -0.433015       -11.7829
 231   2.0000      -0.430274       -11.7083
 232   2.0000      -0.429566       -11.6891
 233   2.0000      -0.424617       -11.5544
 234   2.0000      -0.423136       -11.5141
 235   2.0000      -0.421461       -11.4685
 236   2.0000      -0.418910       -11.3991
 237   2.0000      -0.418489       -11.3877
 238   2.0000      -0.417399       -11.3580
 239   2.0000      -0.416319       -11.3286
 240   2.0000      -0.414630       -11.2826
 241   2.0000      -0.413352       -11.2479
 242   2.0000      -0.405260       -11.0277
 243   2.0000      -0.403821       -10.9885
 244   2.0000      -0.395850       -10.7716
 245   2.0000      -0.384828       -10.4717
 246   2.0000      -0.383959       -10.4480
 247   2.0000      -0.374521       -10.1912
 248   2.0000      -0.371118       -10.0986
 249   2.0000      -0.364621        -9.9218
 250   2.0000      -0.350682        -9.5425
 251   2.0000      -0.348399        -9.4804
 252   2.0000      -0.341609        -9.2956
 253   2.0000      -0.339461        -9.2372
 254   2.0000      -0.335233        -9.1221
 255   2.0000      -0.332671        -9.0524
 256   2.0000      -0.319215        -8.6863
 257   2.0000      -0.311276        -8.4702
 258   2.0000      -0.311075        -8.4648
 259   2.0000      -0.305400        -8.3103
 260   2.0000      -0.294756        -8.0207
 261   2.0000      -0.294494        -8.0136
 262   2.0000      -0.283607        -7.7173
 263   2.0000      -0.254114        -6.9148
 264   0.0000      -0.138661        -3.7732
 265   0.0000      -0.129826        -3.5327
 266   0.0000      -0.092972        -2.5299
 267   0.0000      -0.090796        -2.4707
 268   0.0000      -0.058848        -1.6013

MULLIKEN ATOMIC CHARGES
-----------------------
   0 C :   -0.097834
   1 C :    0.304891
   2 F :   -0.188182
   3 C :   -0.028061
   4 C :   -0.008712
   5 C :    0.101084
   6 C :    0.100299
   7 C :   -0.084557
   8 C :    0.035974
   9 C :    0.014954
  10 C :   -0.077734
  11 C :    0.136093
  12 O :   -0.143899
  13 C :   -0.109277
  14 C :    0.250457
  15 C :   -0.327818
  16 C :   -0.186573
  17 N :    0.174659
  18 C :   -0.172508
  19 N :    0.160114
  20 C :    0.030831
  21 C :    0.070646
  22 C :   -0.010223
  23 C :   -0.096456
  24 C :   -0.131528
  25 N :    0.156095
  26 C :   -0.023200
  27 C :    0.078860
  28 C :    0.067210
  29 C :    0.081852
  30 C :   -0.030157
  31 C :   -0.089724
  32 C :   -0.040394
  33 C :   -0.131237
  34 N :    0.148485
  35 C :   -0.033190
  36 C :   -0.054487
  37 C :    0.150956
  38 O :   -0.190331
  39 C :    0.149661
  40 C :   -0.108823
  41 C :   -0.103206
  42 C :    0.122700
  43 C :    0.067223
  44 C :    0.009331
  45 C :   -0.113012
  46 C :   -0.114693
  47 N :    0.150214
  48 C :   -0.064291
  49 C :    0.047190
  50 C :    0.068683
  51 C :    0.060825
  52 C :    0.011332
  53 C :   -0.103298
  54 C :   -0.015482
  55 C :   -0.130879
  56 N :    0.143095
  57 C :    0.006282
  58 C :   -0.025828
  59 C :    0.024163
  60 C :   -0.107681
  61 C :    0.136041
  62 O :   -0.145197
  63 C :    0.008979
  64 C :   -0.082595
  65 C :    0.102314
  66 C :    0.094123
  67 C :   -0.092003
  68 C :    0.301985
  69 C :   -0.029161
  70 C :   -0.010172
  71 F :   -0.189968
  72 C :   -0.050722
  73 C :    0.026290
  74 C :    0.315006
  75 C :   -0.350211
  76 C :   -0.193751
  77 N :    0.162748
  78 C :   -0.193301
  79 N :    0.172867
  80 H :    0.000054
  81 H :    0.005572
  82 H :   -0.006408
  83 H :   -0.001005
  84 H :   -0.008797
  85 H :    0.005276
  86 H :    0.010142
  87 H :    0.012409
  88 H :   -0.009874
  89 H :    0.006705
  90 H :    0.028864
  91 H :   -0.003985
  92 H :   -0.003852
  93 H :    0.021510
  94 H :    0.042412
  95 H :    0.030444
  96 H :    0.008245
  97 H :    0.024857
  98 H :    0.001245
  99 H :    0.012383
 100 H :    0.005311
 101 H :    0.048585
 102 H :    0.014294
 103 H :   -0.013464
 104 H :    0.002928
 105 H :    0.002915
 106 H :   -0.010994
 107 H :    0.010076
Sum of atomic charges:   -0.0000000

LOEWDIN ATOMIC CHARGES
----------------------
   0 C :   -0.041079
   1 C :    0.094765
   2 F :   -0.062765
   3 C :   -0.034757
   4 C :    0.005514
   5 C :   -0.018030
   6 C :    0.004325
   7 C :    0.013244
   8 C :   -0.018245
   9 C :   -0.061088
  10 C :    0.037371
  11 C :    0.084127
  12 O :   -0.142692
  13 C :   -0.081687
  14 C :    0.064587
  15 C :   -0.131924
  16 C :   -0.014032
  17 N :   -0.038060
  18 C :   -0.019557
  19 N :   -0.041477
  20 C :    0.068155
  21 C :   -0.048979
  22 C :    0.056705
  23 C :   -0.056901
  24 C :   -0.031605
  25 N :   -0.036916
  26 C :    0.026247
  27 C :    0.036878
  28 C :    0.055838
  29 C :   -0.017428
  30 C :   -0.010786
  31 C :   -0.033160
  32 C :   -0.021556
  33 C :   -0.028714
  34 N :   -0.033212
  35 C :   -0.023949
  36 C :   -0.016693
  37 C :    0.020171
  38 O :    0.023976
  39 C :    0.043924
  40 C :   -0.063633
  41 C :   -0.046371
  42 C :   -0.044380
  43 C :   -0.038432
  44 C :    0.024406
  45 C :   -0.059791
  46 C :   -0.020807
  47 N :   -0.041306
  48 C :    0.007284
  49 C :    0.046546
  50 C :    0.040157
  51 C :   -0.028708
  52 C :    0.023883
  53 C :   -0.056202
  54 C :    0.015630
  55 C :   -0.031807
  56 N :   -0.037804
  57 C :    0.022546
  58 C :   -0.026935
  59 C :    0.056001
  60 C :   -0.076283
  61 C :    0.082848
  62 O :   -0.144670
  63 C :   -0.061205
  64 C :    0.032371
  65 C :   -0.017232
  66 C :    0.004801
  67 C :   -0.035981
  68 C :    0.092571
  69 C :   -0.035942
  70 C :    0.002860
  71 F :   -0.064356
  72 C :    0.030314
  73 C :   -0.017990
  74 C :    0.072882
  75 C :   -0.133105
  76 C :   -0.022180
  77 N :   -0.050192
  78 C :   -0.020880
  79 N :   -0.039664
  80 H :    0.044148
  81 H :    0.042812
  82 H :    0.036725
  83 H :    0.040113
  84 H :    0.041031
  85 H :    0.041486
  86 H :    0.037539
  87 H :    0.038801
  88 H :    0.030529
  89 H :    0.034718
  90 H :    0.038523
  91 H :    0.037196
  92 H :    0.032267
  93 H :    0.039108
  94 H :    0.044317
  95 H :    0.037747
  96 H :    0.041056
  97 H :    0.038988
  98 H :    0.037050
  99 H :    0.037438
 100 H :    0.040102
 101 H :    0.032351
 102 H :    0.043536
 103 H :    0.038808
 104 H :    0.045998
 105 H :    0.041453
 106 H :    0.034868
 107 H :    0.041511

  Mayer bond orders larger than 0.100000
B(  0-C ,  1-C ) :   1.4411 B(  0-C ,  6-C ) :   1.2032 B(  0-C , 80-H ) :   1.0066
B(  1-C ,  2-F ) :   1.0911 B(  1-C ,  3-C ) :   1.2532 B(  3-C ,  4-C ) :   1.4633
B(  3-C , 81-H ) :   0.9923 B(  4-C ,  5-C ) :   1.2320 B(  4-C , 82-H ) :   0.9971
B(  5-C ,  6-C ) :   1.2534 B(  5-C , 10-C ) :   1.1938 B(  6-C ,  7-C ) :   1.2067
B(  7-C ,  8-C ) :   1.4581 B(  7-C , 83-H ) :   0.9952 B(  8-C ,  9-C ) :   1.2153
B(  8-C , 14-C ) :   0.9939 B(  9-C , 10-C ) :   1.4669 B(  9-C , 11-C ) :   0.9307
B( 10-C , 84-H ) :   1.0156 B( 11-C , 12-O ) :   2.2441 B( 11-C , 13-C ) :   0.9336
B( 13-C , 14-C ) :   1.0139 B( 13-C , 20-C ) :   1.7173 B( 14-C , 15-C ) :   1.6736
B( 15-C , 16-C ) :   1.1730 B( 15-C , 18-C ) :   1.1250 B( 16-C , 17-N ) :   2.9833
B( 18-C , 19-N ) :   2.9883 B( 20-C , 21-C ) :   1.0517 B( 20-C , 85-H ) :   0.9287
B( 21-C , 22-C ) :   1.5449 B( 21-C , 27-C ) :   1.0793 B( 22-C , 23-C ) :   1.1280
B( 22-C , 86-H ) :   1.0129 B( 23-C , 24-C ) :   1.0549 B( 23-C , 26-C ) :   1.6140
B( 24-C , 25-N ) :   3.0470 B( 26-C , 27-C ) :   1.0946 B( 26-C , 87-H ) :   1.0130
B( 27-C , 28-C ) :   1.4714 B( 28-C , 29-C ) :   1.0239 B( 28-C , 32-C ) :   1.0954
B( 29-C , 30-C ) :   1.5908 B( 29-C , 35-C ) :   1.0882 B( 30-C , 31-C ) :   1.1170
B( 30-C , 88-H ) :   1.0132 B( 31-C , 32-C ) :   1.6057 B( 31-C , 33-C ) :   1.0590
B( 32-C , 89-H ) :   1.0180 B( 33-C , 34-N ) :   3.0389 B( 35-C , 36-C ) :   1.6142
B( 35-C , 90-H ) :   0.9774 B( 36-C , 37-C ) :   1.1870 B( 36-C , 91-H ) :   0.9609
B( 37-C , 38-O ) :   1.1280 B( 37-C , 39-C ) :   0.1102 B( 37-C , 41-C ) :   1.3977
B( 38-O , 39-C ) :   1.1936 B( 39-C , 40-C ) :   1.4312 B( 39-C , 43-C ) :   0.9986
B( 40-C , 41-C ) :   1.2637 B( 40-C , 92-H ) :   1.0167 B( 41-C , 42-C ) :   1.0969
B( 42-C , 93-H ) :   0.9485 B( 42-C , 94-H ) :   0.9454 B( 42-C , 95-H ) :   0.9433
B( 43-C , 44-C ) :   1.6145 B( 43-C , 49-C ) :   1.0699 B( 44-C , 45-C ) :   1.0840
B( 44-C , 96-H ) :   1.0284 B( 45-C , 46-C ) :   1.0748 B( 45-C , 48-C ) :   1.6418
B( 46-C , 47-N ) :   3.0082 B( 48-C , 49-C ) :   1.0615 B( 48-C , 97-H ) :   1.0045
B( 49-C , 50-C ) :   1.5557 B( 50-C , 51-C ) :   1.0209 B( 50-C , 54-C ) :   1.0828
B( 51-C , 52-C ) :   1.5898 B( 51-C , 57-C ) :   1.0992 B( 52-C , 53-C ) :   1.1057
B( 52-C , 98-H ) :   1.0182 B( 53-C , 54-C ) :   1.6206 B( 53-C , 55-C ) :   1.0627
B( 54-C , 99-H ) :   1.0165 B( 55-C , 56-N ) :   3.0427 B( 57-C , 58-C ) :   1.6497
B( 57-C ,100-H ) :   0.9763 B( 58-C , 59-C ) :   1.1313 B( 58-C ,101-H ) :   0.9342
B( 59-C , 60-C ) :   1.6523 B( 59-C ,102-H ) :   0.9557 B( 60-C , 61-C ) :   0.9319
B( 60-C , 74-C ) :   1.0082 B( 61-C , 62-O ) :   2.2582 B( 61-C , 63-C ) :   0.9279
B( 63-C , 64-C ) :   1.4678 B( 63-C , 73-C ) :   1.2120 B( 64-C , 65-C ) :   1.1933
B( 64-C ,103-H ) :   1.0161 B( 65-C , 66-C ) :   1.2514 B( 65-C , 70-C ) :   1.2342
B( 66-C , 67-C ) :   1.2024 B( 66-C , 72-C ) :   1.2147 B( 67-C , 68-C ) :   1.4406
B( 67-C ,104-H ) :   1.0080 B( 68-C , 69-C ) :   1.2522 B( 68-C , 71-F ) :   1.0892
B( 69-C , 70-C ) :   1.4617 B( 69-C ,105-H ) :   0.9930 B( 70-C ,106-H ) :   0.9973
B( 72-C , 73-C ) :   1.4627 B( 72-C ,107-H ) :   0.9843 B( 73-C , 74-C ) :   1.0041
B( 74-C , 75-C ) :   1.6488 B( 75-C , 76-C ) :   1.1641 B( 75-C , 78-C ) :   1.1263
B( 76-C , 77-N ) :   2.9645 B( 78-C , 79-N ) :   2.9925

-----------------------------------------------------------------------------
         ABSORPTION SPECTRUM VIA TRANSITION ELECTRIC DIPOLE MOMENTS
-----------------------------------------------------------------------------
State   Energy  Wavelength   fosc         T2         TX        TY        TZ
        (cm-1)    (nm)                  (au**2)     (au)      (au)      (au)
-----------------------------------------------------------------------------
   0    7900.9   1265.7   0.146901370   6.12105   2.31663  -0.59656  -0.63119
   1   10048.0    995.2   0.050167678   1.64369   0.74724  -0.15139   1.03073
   2   14302.7    699.2   0.029661216   0.68272  -0.05911  -0.18206  -0.80379
   3   15691.1    637.3   0.049347681   1.03536   0.16508  -0.23846  -0.97532
   4   20140.8    496.5   0.058997862   0.96435  -0.82102   0.47295  -0.25808
   5   20948.3    477.4   0.026371130   0.41444  -0.52603   0.33887  -0.15130
   6   21268.0    470.2   0.080352893   1.24380  -1.00584   0.30716   0.37113
   7   21728.0    460.2   0.018744241   0.28400   0.33354  -0.05946   0.41136
   8   22044.9    453.6   0.014429285   0.21548   0.03956  -0.04747   0.46007
   9   22476.9    444.9   0.007349196   0.10764   0.23981   0.07092  -0.21237
  10   22617.2    442.1   0.095291452   1.38704   0.88811  -0.51065   0.58098
  11   23884.7    418.7   0.030676215   0.42282  -0.56889   0.30854   0.06321
  12   24148.1    414.1   0.144888743   1.97527  -0.36024   0.30523   1.32376
  13   24583.0    406.8   0.190318973   2.54872   0.29358  -0.25633  -1.54817
  14   24777.1    403.6   0.223558466   2.97041  -0.00011  -0.24208  -1.70640
  15   25110.9    398.2   0.124071862   1.62662  -0.10919   0.02967   1.27036
  16   25374.8    394.1   0.005392176   0.06996   0.06153  -0.17468   0.18883
  17   26823.4    372.8   0.032318235   0.39665   0.34455   0.39165  -0.35292
  18   26947.6    371.1   0.032107479   0.39225  -0.55781  -0.18199   0.21903
  19   27313.9    366.1   0.357941327   4.31424   1.38933   0.76172  -1.34305
  20   27702.7    361.0   0.200341237   2.38081  -0.44295  -0.72935   1.28555
  21   27910.2    358.3   0.028245745   0.33317  -0.19329  -0.05163   0.54143
  22   28654.3    349.0   0.025399803   0.29182   0.42174  -0.33369  -0.05104
  23   28793.8    347.3   0.046811264   0.53521   0.23997  -0.06053  -0.68845
  24   29343.6    340.8   0.010908731   0.12239   0.25073   0.06090  -0.23625
  25   29722.1    336.4   0.276885671   3.06688   1.58739  -0.69458  -0.25422
  26   29849.2    335.0   0.134617498   1.48472  -1.12103   0.44997  -0.15982
  27   30065.8    332.6   0.185802206   2.03448  -1.28089   0.54900  -0.30400
  28   30345.1    329.5   0.038033155   0.41262   0.28072  -0.04355   0.57613
  29   30624.7    326.5   0.135418231   1.45573  -0.64048  -0.33148   0.96728
  30   30874.5    323.9   0.112140183   1.19574  -0.76770   0.35420  -0.69349
  31   30984.8    322.7   0.065962611   0.70085   0.70903  -0.30255  -0.32649
  32   31893.3    313.5   0.097017103   1.00144   0.11238  -0.98362   0.14594
  33   31990.1    312.6   0.006077918   0.06255  -0.22657   0.09284  -0.05093
  34   32054.8    312.0   0.426624849   4.38156  -0.02797   1.00999  -1.83322
  35   32363.3    309.0   0.016959026   0.17251  -0.01245  -0.32185   0.26224
  36   32528.9    307.4   0.085330124   0.86359   0.19151  -0.09926   0.90392
  37   32650.4    306.3   0.012555711   0.12660   0.02696   0.08853  -0.34356
  38   32822.5    304.7   0.032090627   0.32187   0.50500   0.18127  -0.18434
  39   32902.1    303.9   0.015265259   0.15274  -0.10082   0.29296   0.23822
  40   32937.6    303.6   0.009575126   0.09570  -0.02749   0.24538  -0.18637
  41   33156.1    301.6   0.035356759   0.35106  -0.32490   0.12906   0.47838
  42   33518.6    298.3   0.400106485   3.92976   0.12663  -1.16925   1.59580
  43   33547.1    298.1   0.925199628   9.07938  -0.21397  -1.98339   2.25827
  44   34039.8    293.8   0.446052349   4.31394   1.18026  -0.11614  -1.70512
  45   34251.7    292.0   0.361272471   3.47239  -1.26240   1.36986  -0.04730
  46   34386.5    290.8   0.016873259   0.16154   0.29616  -0.12848  -0.23943
  47   34534.5    289.6   0.340615134   3.24703   1.25672  -1.28827   0.08975
  48   34753.7    287.7   0.027499264   0.26049   0.24080   0.21380  -0.39598
  49   35026.1    285.5   0.048854082   0.45918  -0.00328   0.51031  -0.44581
  50   35210.5    284.0   0.046058244   0.43064  -0.02914  -0.27090   0.59699
  51   35379.3    282.7   0.448440532   4.17284  -1.58709   0.47698   1.19435
  52   35960.5    278.1   0.003555626   0.03255  -0.03419   0.04695  -0.17082
  53   36267.7    275.7   0.070290773   0.63805   0.47760  -0.57037   0.29091
  54   36771.6    271.9   0.002202015   0.01971   0.14035   0.00378  -0.00157
  55   36899.9    271.0   0.032463832   0.28963   0.45720  -0.06512  -0.27634
  56   37214.6    268.7   0.160523851   1.42004  -0.74439   0.89796  -0.24411
  57   37563.4    266.2   0.069741386   0.61122   0.37738  -0.58946   0.34835
  58   37717.7    265.1   0.027732244   0.24206   0.04922  -0.44336   0.20751
  59   37745.6    264.9   0.023445438   0.20449   0.21991   0.39233  -0.04694
  60   38435.3    260.2   0.188724575   1.61649   0.39906  -0.37169   1.14852
  61   38510.1    259.7   0.011463893   0.09800  -0.08078   0.04458  -0.29915
  62   38708.4    258.3   0.002207992   0.01878   0.01109  -0.09480   0.09833
  63   38767.9    257.9   0.010880665   0.09240   0.13012  -0.07894   0.26312
  64   39018.4    256.3   0.111876768   0.94394   0.59866  -0.38851   0.65925
  65   39593.5    252.6   0.044104284   0.36672   0.06399   0.39911  -0.45093
  66   39803.6    251.2   0.026775581   0.22146  -0.41219   0.06610  -0.21723
  67   40010.0    249.9   0.025452794   0.20943   0.41231  -0.17896   0.08604
  68   40290.3    248.2   0.056552903   0.46209   0.66526   0.10906   0.08735

FINAL SINGLE POINT ENERGY     -3428.711449848411

DIPOLE MOMENT
-------------
                                X             Y             Z
Electronic contribution:    -10.69230       1.61791      33.72252
Nuclear contribution   :     10.70008      -3.01847     -34.12513
                        -----------------------------------------
Total Dipole Moment    :      0.00778      -1.40056      -0.40261
                        -----------------------------------------
Magnitude (a.u.)       :      1.45730
Magnitude (Debye)      :      3.70416

Rotational constants in cm-1:     0.000806     0.000448     0.000311
Rotational constants in MHz :    24.155721    13.421047     9.316567

                             ****ORCA TERMINATED NORMALLY****
TOTAL RUN TIME: 0 days 0 hours 20 minutes 41 seconds 396 msec
