                         Program Version 4.2.0 -  RELEASE  -
|  1> # ORCA input file
|  2> # SCF done       -217.236471839299          0.000439120946
|  3> ! CAM-B3LYP def2-SVP def2/J RIJCOSX Grid4 TightSCF
|  4> %maxcore 5000
|  5> %tddft
|  6>     Mode sTDDFT
|  7>     Ethresh 5.0
|  8>     maxcore 5000
|  9> end
| 10>
| 11> %pal
| 12>   nprocs 6
| 13>   end
| 14> * xyz 0 1
| 15>    C        4.42531         5.16455        -8.15583
| 16>    C        3.81119         6.19688        -8.80907
| 17>    F        3.04168         5.93787        -9.87934
| 18>    C        3.95216         7.53220        -8.40494
| 19>    C        4.73181         7.81661        -7.31884
| 20>    C        5.38912         6.79093        -6.60816
| 21>    C        5.23075         5.43868        -7.03334
| 22>    C        5.87050         4.39185        -6.33078
| 23>    C        6.64406         4.68949        -5.24065
| 24>    C        6.81327         6.04526        -4.83074
| 25>    C        6.20157         7.07425        -5.48845
| 26>    C        7.71457         6.09801        -3.66653
| 27>    O        8.05004         7.05901        -3.01585
| 28>    C        8.19095         4.69447        -3.48296
| 29>    C        7.37438         3.82913        -4.31732
| 30>    C        7.15464         2.49372        -4.11917
| 31>    C        6.28973         1.71517        -4.91726
| 32>    N        5.60944         1.04392        -5.55178
| 33>    C        7.69851         1.77055        -3.03736
| 34>    N        8.07637         1.16019        -2.14161
| 35>    C        9.27917         4.43543        -2.72423
| 36>    C       10.07507         3.24236        -2.74067
| 37>    C       10.48778         2.57477        -3.85011
| 38>    C       11.41125         1.52717        -3.44735
| 39>    C       12.00139         0.62556        -4.34496
| 40>    N       12.47782        -0.09565        -5.09911
| 41>    C       11.58320         1.57719        -2.09506
| 42>    C       10.74470         2.62870        -1.57344
| 43>    C       10.47077         2.91089        -0.26640
| 44>    C       11.17804         2.42345         0.94185
| 45>    C       10.42508         2.77416         2.02002
| 46>    C        9.25042         3.49529         1.55787
| 47>    C        9.30438         3.61814         0.19991
| 48>    C        8.24247         3.98082         2.40396
| 49>    N        7.42640         4.37761         3.10577
| 50>    C       12.47482         1.81455         0.94061
| 51>    C       12.97060         1.11945         1.98319
| 52>    C       14.27309         0.50025         2.06209
| 53>    C       14.75642         0.09428         3.31781
| 54>    F       13.99334         0.29969         4.39901
| 55>    C       15.99493        -0.49858         3.48065
| 56>    F       16.38544        -0.87438         4.70560
| 57>    C       16.83692        -0.73600         2.39038
| 58>    C       16.34816        -0.37690         1.13370
| 59>    C       15.11353         0.23056         0.97277
| 60>    F       14.72446         0.53693        -0.27489
| 61>    F       17.10863        -0.59873         0.05234
| 62>    C       18.13379        -1.38403         2.54307
| 63>    C       18.52394        -2.51190         1.90249
| 64>    C       19.81385        -2.91819         2.43947
| 65>    C       20.53565        -4.04307         2.02224
| 66>    N       21.11920        -4.98509         1.72238
| 67>    C       20.16827        -2.06076         3.44134
| 68>    C       19.14816        -1.04809         3.55641
| 69>    C       19.11547         0.04470         4.38753
| 70>    C       19.73515         0.19484         5.73266
| 71>    C       19.38474         1.42734         6.20797
| 72>    C       18.59738         2.10189         5.20463
| 73>    C       18.39453         1.25633         4.14290
| 74>    C       18.11833         3.41545         5.31469
| 75>    N       17.72929         4.49120         5.40203
| 76>    C       20.32314        -0.89495         6.42076
| 77>    C       20.54172        -1.02424         7.75505
| 78>    C       21.02098        -2.23803         8.31840
| 79>    C       20.96080        -3.49212         7.78589
| 80>    C       21.91133        -4.53757         8.27702
| 81>    O       22.53543        -4.51346         9.31078
| 82>    C       21.96942        -5.53598         7.19421
| 83>    C       22.79891        -6.61235         7.05843
| 84>    C       22.71444        -7.40507         5.89201
| 85>    C       21.77029        -7.06372         4.87867
| 86>    C       21.71367        -7.83563         3.70267
| 87>    C       22.55332        -8.90662         3.56632
| 88>    C       23.47704        -9.26929         4.55725
| 89>    C       23.55304        -8.52222         5.69966
| 90>    F       22.50319        -9.65180         2.45052
| 91>    C       20.90236        -5.96225         5.05905
| 92>    C       21.00051        -5.21170         6.19909
| 93>    C       20.24871        -4.04641         6.64972
| 94>    C       18.99788        -3.68894         6.21133
| 95>    C       18.21325        -2.71294         6.86296
| 96>    N       17.54219        -1.95292         7.39887
| 97>    C       18.36390        -4.23429         5.08108
| 98>    N       17.83290        -4.57906         4.12226
| 99>    H        4.29134         4.14842        -8.49244
|100>    H        3.44295         8.30437        -8.95943
|101>    H        4.85527         8.83705        -6.98898
|102>    H        5.74070         3.37872        -6.67741
|103>    H        6.33601         8.09292        -5.15689
|104>    H        9.63997         5.25747        -2.11271
|105>    H       10.23041         2.79048        -4.87127
|106>    H       12.15167         0.87902        -1.51353
|107>    H       10.64774         2.60851         3.05709
|108>    H        8.55282         4.05859        -0.42598
|109>    H       13.06920         1.97485         0.05558
|110>    H       12.36526         1.00078         2.87070
|111>    H       17.98409        -3.05489         1.15079
|112>    H       21.11783        -2.06143         3.94223
|113>    H       19.63385         1.85131         7.16171
|114>    H       17.87781         1.50102         3.23429
|115>    H       20.57448        -1.74651         5.81051
|116>    H       20.38775        -0.19075         8.42437
|117>    H       21.55222        -2.16906         9.26245
|118>    H       23.51632        -6.85235         7.82882
|119>    H       21.02371        -7.57358         2.91634
|120>    H       24.11131       -10.12628         4.39436
|121>    H       24.26193        -8.77840         6.47256
|122>    H       20.19550        -5.72923         4.27894
|123> *
|124>
|125>                          ****END OF INPUT****

CARTESIAN COORDINATES (ANGSTROEM)
---------------------------------
  C      4.425310    5.164550   -8.155830
  C      3.811190    6.196880   -8.809070
  F      3.041680    5.937870   -9.879340
  C      3.952160    7.532200   -8.404940
  C      4.731810    7.816610   -7.318840
  C      5.389120    6.790930   -6.608160
  C      5.230750    5.438680   -7.033340
  C      5.870500    4.391850   -6.330780
  C      6.644060    4.689490   -5.240650
  C      6.813270    6.045260   -4.830740
  C      6.201570    7.074250   -5.488450
  C      7.714570    6.098010   -3.666530
  O      8.050040    7.059010   -3.015850
  C      8.190950    4.694470   -3.482960
  C      7.374380    3.829130   -4.317320
  C      7.154640    2.493720   -4.119170
  C      6.289730    1.715170   -4.917260
  N      5.609440    1.043920   -5.551780
  C      7.698510    1.770550   -3.037360
  N      8.076370    1.160190   -2.141610
  C      9.279170    4.435430   -2.724230
  C     10.075070    3.242360   -2.740670
  C     10.487780    2.574770   -3.850110
  C     11.411250    1.527170   -3.447350
  C     12.001390    0.625560   -4.344960
  N     12.477820   -0.095650   -5.099110
  C     11.583200    1.577190   -2.095060
  C     10.744700    2.628700   -1.573440
  C     10.470770    2.910890   -0.266400
  C     11.178040    2.423450    0.941850
  C     10.425080    2.774160    2.020020
  C      9.250420    3.495290    1.557870
  C      9.304380    3.618140    0.199910
  C      8.242470    3.980820    2.403960
  N      7.426400    4.377610    3.105770
  C     12.474820    1.814550    0.940610
  C     12.970600    1.119450    1.983190
  C     14.273090    0.500250    2.062090
  C     14.756420    0.094280    3.317810
  F     13.993340    0.299690    4.399010
  C     15.994930   -0.498580    3.480650
  F     16.385440   -0.874380    4.705600
  C     16.836920   -0.736000    2.390380
  C     16.348160   -0.376900    1.133700
  C     15.113530    0.230560    0.972770
  F     14.724460    0.536930   -0.274890
  F     17.108630   -0.598730    0.052340
  C     18.133790   -1.384030    2.543070
  C     18.523940   -2.511900    1.902490
  C     19.813850   -2.918190    2.439470
  C     20.535650   -4.043070    2.022240
  N     21.119200   -4.985090    1.722380
  C     20.168270   -2.060760    3.441340
  C     19.148160   -1.048090    3.556410
  C     19.115470    0.044700    4.387530
  C     19.735150    0.194840    5.732660
  C     19.384740    1.427340    6.207970
  C     18.597380    2.101890    5.204630
  C     18.394530    1.256330    4.142900
  C     18.118330    3.415450    5.314690
  N     17.729290    4.491200    5.402030
  C     20.323140   -0.894950    6.420760
  C     20.541720   -1.024240    7.755050
  C     21.020980   -2.238030    8.318400
  C     20.960800   -3.492120    7.785890
  C     21.911330   -4.537570    8.277020
  O     22.535430   -4.513460    9.310780
  C     21.969420   -5.535980    7.194210
  C     22.798910   -6.612350    7.058430
  C     22.714440   -7.405070    5.892010
  C     21.770290   -7.063720    4.878670
  C     21.713670   -7.835630    3.702670
  C     22.553320   -8.906620    3.566320
  C     23.477040   -9.269290    4.557250
  C     23.553040   -8.522220    5.699660
  F     22.503190   -9.651800    2.450520
  C     20.902360   -5.962250    5.059050
  C     21.000510   -5.211700    6.199090
  C     20.248710   -4.046410    6.649720
  C     18.997880   -3.688940    6.211330
  C     18.213250   -2.712940    6.862960
  N     17.542190   -1.952920    7.398870
  C     18.363900   -4.234290    5.081080
  N     17.832900   -4.579060    4.122260
  H      4.291340    4.148420   -8.492440
  H      3.442950    8.304370   -8.959430
  H      4.855270    8.837050   -6.988980
  H      5.740700    3.378720   -6.677410
  H      6.336010    8.092920   -5.156890
  H      9.639970    5.257470   -2.112710
  H     10.230410    2.790480   -4.871270
  H     12.151670    0.879020   -1.513530
  H     10.647740    2.608510    3.057090
  H      8.552820    4.058590   -0.425980
  H     13.069200    1.974850    0.055580
  H     12.365260    1.000780    2.870700
  H     17.984090   -3.054890    1.150790
  H     21.117830   -2.061430    3.942230
  H     19.633850    1.851310    7.161710
  H     17.877810    1.501020    3.234290
  H     20.574480   -1.746510    5.810510
  H     20.387750   -0.190750    8.424370
  H     21.552220   -2.169060    9.262450
  H     23.516320   -6.852350    7.828820
  H     21.023710   -7.573580    2.916340
  H     24.111310  -10.126280    4.394360
  H     24.261930   -8.778400    6.472560
  H     20.195500   -5.729230    4.278940

 Total Charge           Charge          ....    0
 Multiplicity           Mult            ....    1
 Number of Electrons    NEL             ....  558
 Basis Dimension        Dim             .... 1296

ORBITAL ENERGIES
----------------

  NO   OCC          E(Eh)            E(eV)
   0   2.0000     -24.818144      -675.3360
   1   2.0000     -24.811622      -675.1586
   2   2.0000     -24.810872      -675.1382
   3   2.0000     -24.810292      -675.1224
   4   2.0000     -24.793724      -674.6715
   5   2.0000     -24.784526      -674.4212
   6   2.0000     -19.227632      -523.2105
   7   2.0000     -19.220002      -523.0028
   8   2.0000     -14.429743      -392.6533
   9   2.0000     -14.428481      -392.6189
  10   2.0000     -14.427406      -392.5897
  11   2.0000     -14.427264      -392.5858
  12   2.0000     -14.423786      -392.4912
  13   2.0000     -14.422269      -392.4499
  14   2.0000     -14.419487      -392.3742
  15   2.0000     -14.418196      -392.3390
  16   2.0000     -10.393210      -282.8136
  17   2.0000     -10.392589      -282.7967
  18   2.0000     -10.391088      -282.7559
  19   2.0000     -10.389934      -282.7245
  20   2.0000     -10.378770      -282.4207
  21   2.0000     -10.378454      -282.4121
  22   2.0000     -10.371965      -282.2355
  23   2.0000     -10.368855      -282.1509
  24   2.0000     -10.357935      -281.8537
  25   2.0000     -10.355230      -281.7801
  26   2.0000     -10.351940      -281.6906
  27   2.0000     -10.351351      -281.6746
  28   2.0000     -10.342959      -281.4462
  29   2.0000     -10.340920      -281.3907
  30   2.0000     -10.339264      -281.3457
  31   2.0000     -10.338672      -281.3296
  32   2.0000     -10.335821      -281.2520
  33   2.0000     -10.335284      -281.2374
  34   2.0000     -10.334425      -281.2140
  35   2.0000     -10.333462      -281.1878
  36   2.0000     -10.333310      -281.1837
  37   2.0000     -10.330596      -281.1098
  38   2.0000     -10.330561      -281.1089
  39   2.0000     -10.330128      -281.0971
  40   2.0000     -10.329070      -281.0683
  41   2.0000     -10.328972      -281.0656
  42   2.0000     -10.328449      -281.0514
  43   2.0000     -10.324752      -280.9508
  44   2.0000     -10.322919      -280.9009
  45   2.0000     -10.321491      -280.8621
  46   2.0000     -10.318827      -280.7896
  47   2.0000     -10.318694      -280.7859
  48   2.0000     -10.318006      -280.7672
  49   2.0000     -10.317713      -280.7592
  50   2.0000     -10.317334      -280.7489
  51   2.0000     -10.316275      -280.7201
  52   2.0000     -10.316270      -280.7200
  53   2.0000     -10.316027      -280.7134
  54   2.0000     -10.315916      -280.7104
  55   2.0000     -10.315488      -280.6987
  56   2.0000     -10.314858      -280.6816
  57   2.0000     -10.314643      -280.6757
  58   2.0000     -10.314597      -280.6745
  59   2.0000     -10.313232      -280.6373
  60   2.0000     -10.313184      -280.6360
  61   2.0000     -10.311366      -280.5865
  62   2.0000     -10.310895      -280.5737
  63   2.0000     -10.310874      -280.5731
  64   2.0000     -10.309619      -280.5390
  65   2.0000     -10.308309      -280.5033
  66   2.0000     -10.308291      -280.5029
  67   2.0000     -10.307629      -280.4849
  68   2.0000     -10.307263      -280.4749
  69   2.0000     -10.307226      -280.4739
  70   2.0000     -10.306546      -280.4554
  71   2.0000     -10.306409      -280.4516
  72   2.0000     -10.306049      -280.4419
  73   2.0000     -10.304549      -280.4010
  74   2.0000     -10.303942      -280.3845
  75   2.0000     -10.303403      -280.3699
  76   2.0000     -10.303220      -280.3649
  77   2.0000     -10.302153      -280.3358
  78   2.0000     -10.301602      -280.3209
  79   2.0000     -10.298286      -280.2306
  80   2.0000     -10.297677      -280.2140
  81   2.0000     -10.295386      -280.1517
  82   2.0000     -10.294634      -280.1312
  83   2.0000     -10.286814      -279.9184
  84   2.0000      -1.338212       -36.4146
  85   2.0000      -1.333882       -36.2968
  86   2.0000      -1.320935       -35.9445
  87   2.0000      -1.317988       -35.8643
  88   2.0000      -1.309259       -35.6268
  89   2.0000      -1.300345       -35.3842
  90   2.0000      -1.143068       -31.1045
  91   2.0000      -1.135960       -30.9111
  92   2.0000      -1.033990       -28.1363
  93   2.0000      -1.033297       -28.1174
  94   2.0000      -1.026530       -27.9333
  95   2.0000      -1.025002       -27.8917
  96   2.0000      -1.018269       -27.7085
  97   2.0000      -1.012157       -27.5422
  98   2.0000      -1.011431       -27.5224
  99   2.0000      -1.007962       -27.4280
 100   2.0000      -1.006660       -27.3926
 101   2.0000      -1.005869       -27.3711
 102   2.0000      -1.003160       -27.2974
 103   2.0000      -1.000148       -27.2154
 104   2.0000      -0.997373       -27.1399
 105   2.0000      -0.992430       -27.0054
 106   2.0000      -0.989411       -26.9233
 107   2.0000      -0.985960       -26.8293
 108   2.0000      -0.980491       -26.6805
 109   2.0000      -0.942177       -25.6379
 110   2.0000      -0.939963       -25.5777
 111   2.0000      -0.933771       -25.4092
 112   2.0000      -0.925660       -25.1885
 113   2.0000      -0.919224       -25.0134
 114   2.0000      -0.903158       -24.5762
 115   2.0000      -0.901022       -24.5181
 116   2.0000      -0.898627       -24.4529
 117   2.0000      -0.893458       -24.3122
 118   2.0000      -0.892720       -24.2921
 119   2.0000      -0.888664       -24.1818
 120   2.0000      -0.886333       -24.1183
 121   2.0000      -0.872588       -23.7443
 122   2.0000      -0.865396       -23.5486
 123   2.0000      -0.855526       -23.2800
 124   2.0000      -0.847046       -23.0493
 125   2.0000      -0.841299       -22.8929
 126   2.0000      -0.838108       -22.8061
 127   2.0000      -0.830774       -22.6065
 128   2.0000      -0.821650       -22.3582
 129   2.0000      -0.814999       -22.1772
 130   2.0000      -0.809203       -22.0195
 131   2.0000      -0.802295       -21.8315
 132   2.0000      -0.796340       -21.6695
 133   2.0000      -0.776083       -21.1183
 134   2.0000      -0.773236       -21.0408
 135   2.0000      -0.767486       -20.8844
 136   2.0000      -0.749975       -20.4079
 137   2.0000      -0.746394       -20.3104
 138   2.0000      -0.742677       -20.2093
 139   2.0000      -0.739586       -20.1252
 140   2.0000      -0.736085       -20.0299
 141   2.0000      -0.726220       -19.7614
 142   2.0000      -0.723385       -19.6843
 143   2.0000      -0.719503       -19.5787
 144   2.0000      -0.716412       -19.4946
 145   2.0000      -0.711532       -19.3618
 146   2.0000      -0.705270       -19.1914
 147   2.0000      -0.694021       -18.8853
 148   2.0000      -0.691302       -18.8113
 149   2.0000      -0.688484       -18.7346
 150   2.0000      -0.687867       -18.7178
 151   2.0000      -0.683462       -18.5979
 152   2.0000      -0.672319       -18.2947
 153   2.0000      -0.668205       -18.1828
 154   2.0000      -0.659572       -17.9479
 155   2.0000      -0.655937       -17.8489
 156   2.0000      -0.652581       -17.7576
 157   2.0000      -0.648501       -17.6466
 158   2.0000      -0.646481       -17.5916
 159   2.0000      -0.642563       -17.4850
 160   2.0000      -0.639050       -17.3894
 161   2.0000      -0.638229       -17.3671
 162   2.0000      -0.637403       -17.3446
 163   2.0000      -0.631286       -17.1782
 164   2.0000      -0.626764       -17.0551
 165   2.0000      -0.623093       -16.9552
 166   2.0000      -0.620508       -16.8849
 167   2.0000      -0.613862       -16.7040
 168   2.0000      -0.609385       -16.5822
 169   2.0000      -0.608550       -16.5595
 170   2.0000      -0.606909       -16.5148
 171   2.0000      -0.604812       -16.4578
 172   2.0000      -0.594389       -16.1741
 173   2.0000      -0.588614       -16.0170
 174   2.0000      -0.584202       -15.8969
 175   2.0000      -0.582591       -15.8531
 176   2.0000      -0.574440       -15.6313
 177   2.0000      -0.572644       -15.5824
 178   2.0000      -0.572486       -15.5781
 179   2.0000      -0.568273       -15.4635
 180   2.0000      -0.567059       -15.4305
 181   2.0000      -0.566471       -15.4145
 182   2.0000      -0.565455       -15.3868
 183   2.0000      -0.558258       -15.1910
 184   2.0000      -0.557610       -15.1733
 185   2.0000      -0.556593       -15.1457
 186   2.0000      -0.552662       -15.0387
 187   2.0000      -0.551365       -15.0034
 188   2.0000      -0.548532       -14.9263
 189   2.0000      -0.547499       -14.8982
 190   2.0000      -0.545656       -14.8481
 191   2.0000      -0.542464       -14.7612
 192   2.0000      -0.540922       -14.7192
 193   2.0000      -0.539523       -14.6812
 194   2.0000      -0.536209       -14.5910
 195   2.0000      -0.534882       -14.5549
 196   2.0000      -0.532952       -14.5024
 197   2.0000      -0.530996       -14.4491
 198   2.0000      -0.530672       -14.4403
 199   2.0000      -0.528315       -14.3762
 200   2.0000      -0.526028       -14.3139
 201   2.0000      -0.525298       -14.2941
 202   2.0000      -0.524647       -14.2764
 203   2.0000      -0.518926       -14.1207
 204   2.0000      -0.517975       -14.0948
 205   2.0000      -0.516693       -14.0599
 206   2.0000      -0.513447       -13.9716
 207   2.0000      -0.511896       -13.9294
 208   2.0000      -0.508992       -13.8504
 209   2.0000      -0.508283       -13.8311
 210   2.0000      -0.507308       -13.8045
 211   2.0000      -0.504344       -13.7239
 212   2.0000      -0.504040       -13.7156
 213   2.0000      -0.501903       -13.6575
 214   2.0000      -0.499623       -13.5954
 215   2.0000      -0.498640       -13.5687
 216   2.0000      -0.495074       -13.4716
 217   2.0000      -0.494525       -13.4567
 218   2.0000      -0.491560       -13.3760
 219   2.0000      -0.488752       -13.2996
 220   2.0000      -0.486031       -13.2256
 221   2.0000      -0.480236       -13.0679
 222   2.0000      -0.479276       -13.0418
 223   2.0000      -0.477765       -13.0007
 224   2.0000      -0.471678       -12.8350
 225   2.0000      -0.467432       -12.7195
 226   2.0000      -0.466565       -12.6959
 227   2.0000      -0.465469       -12.6661
 228   2.0000      -0.464241       -12.6326
 229   2.0000      -0.462966       -12.5980
 230   2.0000      -0.461455       -12.5568
 231   2.0000      -0.458717       -12.4823
 232   2.0000      -0.458225       -12.4689
 233   2.0000      -0.457969       -12.4620
 234   2.0000      -0.456262       -12.4155
 235   2.0000      -0.455025       -12.3819
 236   2.0000      -0.451176       -12.2771
 237   2.0000      -0.450523       -12.2593
 238   2.0000      -0.449923       -12.2430
 239   2.0000      -0.449281       -12.2256
 240   2.0000      -0.446616       -12.1531
 241   2.0000      -0.446390       -12.1469
 242   2.0000      -0.444314       -12.0904
 243   2.0000      -0.441937       -12.0257
 244   2.0000      -0.439938       -11.9713
 245   2.0000      -0.438191       -11.9238
 246   2.0000      -0.436924       -11.8893
 247   2.0000      -0.435819       -11.8592
 248   2.0000      -0.431468       -11.7408
 249   2.0000      -0.428978       -11.6731
 250   2.0000      -0.428050       -11.6478
 251   2.0000      -0.426261       -11.5992
 252   2.0000      -0.422480       -11.4963
 253   2.0000      -0.421729       -11.4758
 254   2.0000      -0.420205       -11.4344
 255   2.0000      -0.418586       -11.3903
 256   2.0000      -0.416630       -11.3371
 257   2.0000      -0.409746       -11.1497
 258   2.0000      -0.406944       -11.0735
 259   2.0000      -0.401731       -10.9317
 260   2.0000      -0.390588       -10.6285
 261   2.0000      -0.385920       -10.5014
 262   2.0000      -0.379570       -10.3286
 263   2.0000      -0.368392       -10.0245
 264   2.0000      -0.361852        -9.8465
 265   2.0000      -0.354024        -9.6335
 266   2.0000      -0.347247        -9.4491
 267   2.0000      -0.341794        -9.3007
 268   2.0000      -0.339093        -9.2272
 269   2.0000      -0.335673        -9.1341
 270   2.0000      -0.331568        -9.0224
 271   2.0000      -0.325342        -8.8530
 272   2.0000      -0.322899        -8.7865
 273   2.0000      -0.316407        -8.6099
 274   2.0000      -0.312673        -8.5083
 275   2.0000      -0.303931        -8.2704
 276   2.0000      -0.301193        -8.1959
 277   2.0000      -0.289053        -7.8655
 278   2.0000      -0.284066        -7.7298
 279   0.0000      -0.141992        -3.8638
 280   0.0000      -0.135115        -3.6767
 281   0.0000      -0.102980        -2.8022
 282   0.0000      -0.097571        -2.6550
 283   0.0000      -0.064947        -1.7673

MULLIKEN ATOMIC CHARGES
-----------------------
   0 C :   -0.095114
   1 C :    0.303385
   2 F :   -0.185994
   3 C :   -0.027202
   4 C :   -0.007589
   5 C :    0.099455
   6 C :    0.102034
   7 C :   -0.083357
   8 C :    0.043799
   9 C :    0.002367
  10 C :   -0.074752
  11 C :    0.141883
  12 O :   -0.131867
  13 C :   -0.123257
  14 C :    0.271524
  15 C :   -0.334542
  16 C :   -0.177414
  17 N :    0.164997
  18 C :   -0.175473
  19 N :    0.168140
  20 C :    0.007513
  21 C :    0.000116
  22 C :    0.026686
  23 C :   -0.111027
  24 C :   -0.131887
  25 N :    0.153778
  26 C :    0.000334
  27 C :    0.081371
  28 C :    0.059252
  29 C :    0.076289
  30 C :   -0.014582
  31 C :   -0.089423
  32 C :   -0.020353
  33 C :   -0.131275
  34 N :    0.150366
  35 C :   -0.000316
  36 C :   -0.010135
  37 C :   -0.043232
  38 C :    0.185564
  39 F :   -0.164365
  40 C :    0.211008
  41 F :   -0.155210
  42 C :   -0.152136
  43 C :    0.208999
  44 C :    0.174063
  45 F :   -0.171554
  46 F :   -0.161875
  47 C :    0.073385
  48 C :    0.043198
  49 C :   -0.121640
  50 C :   -0.114426
  51 N :    0.152090
  52 C :   -0.033804
  53 C :    0.038006
  54 C :    0.038205
  55 C :    0.108042
  56 C :   -0.012979
  57 C :   -0.098839
  58 C :   -0.009385
  59 C :   -0.129691
  60 N :    0.153750
  61 C :    0.014857
  62 C :    0.025298
  63 C :    0.055145
  64 C :   -0.124644
  65 C :    0.138641
  66 O :   -0.137706
  67 C :    0.013299
  68 C :   -0.081942
  69 C :    0.100562
  70 C :    0.096900
  71 C :   -0.079571
  72 C :    0.300178
  73 C :   -0.029680
  74 C :   -0.011407
  75 F :   -0.186278
  76 C :   -0.082988
  77 C :    0.043985
  78 C :    0.232575
  79 C :   -0.359453
  80 C :   -0.204448
  81 N :    0.185533
  82 C :   -0.133078
  83 N :    0.137553
  84 H :    0.001042
  85 H :    0.008194
  86 H :   -0.005435
  87 H :   -0.001514
  88 H :   -0.006630
  89 H :    0.041187
  90 H :    0.006847
  91 H :    0.006445
  92 H :    0.004170
  93 H :    0.012303
  94 H :    0.016237
  95 H :    0.007882
  96 H :    0.006326
  97 H :    0.022086
  98 H :   -0.000040
  99 H :    0.012752
 100 H :   -0.009542
 101 H :    0.004624
 102 H :    0.028933
 103 H :   -0.009454
 104 H :    0.004716
 105 H :    0.004766
 106 H :   -0.009055
 107 H :   -0.005071
Sum of atomic charges:   -0.0000000

LOEWDIN ATOMIC CHARGES
----------------------
   0 C :   -0.040516
   1 C :    0.095426
   2 F :   -0.060542
   3 C :   -0.032450
   4 C :    0.006362
   5 C :   -0.016852
   6 C :    0.004526
   7 C :    0.015165
   8 C :   -0.019909
   9 C :   -0.061998
  10 C :    0.039127
  11 C :    0.083069
  12 O :   -0.134934
  13 C :   -0.079397
  14 C :    0.067406
  15 C :   -0.128662
  16 C :   -0.019838
  17 N :   -0.040312
  18 C :   -0.014156
  19 N :   -0.044504
  20 C :    0.064074
  21 C :   -0.041002
  22 C :    0.042048
  23 C :   -0.052242
  24 C :   -0.031673
  25 N :   -0.033467
  26 C :    0.026344
  27 C :    0.036554
  28 C :    0.051304
  29 C :   -0.029571
  30 C :    0.024838
  31 C :   -0.041453
  32 C :    0.007875
  33 C :   -0.030225
  34 N :   -0.031715
  35 C :   -0.007726
  36 C :   -0.010033
  37 C :   -0.062779
  38 C :    0.063101
  39 F :   -0.041796
  40 C :    0.060305
  41 F :   -0.033904
  42 C :   -0.071975
  43 C :    0.061107
  44 C :    0.062034
  45 F :   -0.043376
  46 F :   -0.044950
  47 C :   -0.031505
  48 C :    0.053334
  49 C :   -0.047907
  50 C :   -0.020378
  51 N :   -0.042259
  52 C :   -0.003217
  53 C :    0.040695
  54 C :    0.047163
  55 C :   -0.030203
  56 C :    0.031846
  57 C :   -0.042301
  58 C :    0.003782
  59 C :   -0.030906
  60 N :   -0.032124
  61 C :    0.027766
  62 C :   -0.017553
  63 C :    0.067978
  64 C :   -0.082747
  65 C :    0.082912
  66 O :   -0.139053
  67 C :   -0.062582
  68 C :    0.036306
  69 C :   -0.017386
  70 C :    0.005631
  71 C :   -0.030983
  72 C :    0.093763
  73 C :   -0.033260
  74 C :    0.002134
  75 F :   -0.060811
  76 C :    0.016176
  77 C :   -0.023991
  78 C :    0.065080
  79 C :   -0.143856
  80 C :   -0.021619
  81 N :   -0.037324
  82 C :   -0.012270
  83 N :   -0.059182
  84 H :    0.044428
  85 H :    0.043749
  86 H :    0.037203
  87 H :    0.040357
  88 H :    0.041708
  89 H :    0.050425
  90 H :    0.037333
  91 H :    0.038258
  92 H :    0.036179
  93 H :    0.037865
  94 H :    0.028858
  95 H :    0.035650
  96 H :    0.041554
  97 H :    0.036418
  98 H :    0.036903
  99 H :    0.037301
 100 H :    0.029731
 101 H :    0.036691
 102 H :    0.048394
 103 H :    0.040460
 104 H :    0.045061
 105 H :    0.042273
 106 H :    0.035606
 107 H :    0.037742

  Mayer bond orders larger than 0.100000
B(  0-C ,  1-C ) :   1.4397 B(  0-C ,  6-C ) :   1.2028 B(  0-C , 84-H ) :   1.0070
B(  1-C ,  2-F ) :   1.0935 B(  1-C ,  3-C ) :   1.2524 B(  3-C ,  4-C ) :   1.4644
B(  3-C , 85-H ) :   0.9929 B(  4-C ,  5-C ) :   1.2301 B(  4-C , 86-H ) :   0.9980
B(  5-C ,  6-C ) :   1.2517 B(  5-C , 10-C ) :   1.1993 B(  6-C ,  7-C ) :   1.2068
B(  7-C ,  8-C ) :   1.4542 B(  7-C , 87-H ) :   0.9952 B(  8-C ,  9-C ) :   1.2160
B(  8-C , 14-C ) :   1.0039 B(  9-C , 10-C ) :   1.4631 B(  9-C , 11-C ) :   0.9208
B( 10-C , 88-H ) :   1.0160 B( 11-C , 12-O ) :   2.2889 B( 11-C , 13-C ) :   0.9198
B( 13-C , 14-C ) :   1.0119 B( 13-C , 20-C ) :   1.7556 B( 14-C , 15-C ) :   1.6799
B( 15-C , 16-C ) :   1.1291 B( 15-C , 18-C ) :   1.1646 B( 16-C , 17-N ) :   2.9889
B( 18-C , 19-N ) :   2.9791 B( 20-C , 21-C ) :   0.9847 B( 20-C , 89-H ) :   0.9322
B( 21-C , 22-C ) :   1.6293 B( 21-C , 27-C ) :   1.0598 B( 22-C , 23-C ) :   1.0913
B( 22-C , 90-H ) :   1.0195 B( 23-C , 24-C ) :   1.0593 B( 23-C , 26-C ) :   1.6564
B( 24-C , 25-N ) :   3.0443 B( 26-C , 27-C ) :   1.0717 B( 26-C , 91-H ) :   1.0082
B( 27-C , 28-C ) :   1.5152 B( 28-C , 29-C ) :   1.0331 B( 28-C , 32-C ) :   1.0744
B( 29-C , 30-C ) :   1.6242 B( 29-C , 35-C ) :   1.0698 B( 30-C , 31-C ) :   1.0831
B( 30-C , 92-H ) :   1.0129 B( 31-C , 32-C ) :   1.6469 B( 31-C , 33-C ) :   1.0592
B( 32-C , 93-H ) :   1.0063 B( 33-C , 34-N ) :   3.0402 B( 35-C , 36-C ) :   1.7153
B( 35-C , 94-H ) :   0.9584 B( 36-C , 37-C ) :   1.0940 B( 36-C , 95-H ) :   0.9760
B( 37-C , 38-C ) :   1.2907 B( 37-C , 42-C ) :   0.1359 B( 37-C , 44-C ) :   1.2797
B( 38-C , 39-F ) :   1.1607 B( 38-C , 40-C ) :   1.3074 B( 40-C , 41-F ) :   1.1579
B( 40-C , 42-C ) :   1.3178 B( 42-C , 43-C ) :   1.3438 B( 42-C , 47-C ) :   0.9232
B( 43-C , 44-C ) :   1.2982 B( 43-C , 46-F ) :   1.1851 B( 44-C , 45-F ) :   1.1210
B( 47-C , 48-C ) :   1.6814 B( 47-C , 53-C ) :   1.1111 B( 48-C , 49-C ) :   1.0766
B( 48-C , 96-H ) :   1.0199 B( 49-C , 50-C ) :   1.0750 B( 49-C , 52-C ) :   1.6463
B( 50-C , 51-N ) :   3.0077 B( 52-C , 53-C ) :   1.0649 B( 52-C , 97-H ) :   1.0067
B( 53-C , 54-C ) :   1.4606 B( 54-C , 55-C ) :   1.0438 B( 54-C , 58-C ) :   1.1146
B( 55-C , 56-C ) :   1.5718 B( 55-C , 61-C ) :   1.1422 B( 56-C , 57-C ) :   1.1171
B( 56-C , 98-H ) :   1.0126 B( 57-C , 58-C ) :   1.6078 B( 57-C , 59-C ) :   1.0537
B( 58-C , 99-H ) :   1.0081 B( 59-C , 60-N ) :   3.0424 B( 61-C , 62-C ) :   1.6653
B( 61-C ,100-H ) :   0.9367 B( 62-C , 63-C ) :   1.1437 B( 62-C ,101-H ) :   0.9676
B( 63-C , 64-C ) :   1.6711 B( 63-C ,102-H ) :   0.9342 B( 64-C , 65-C ) :   0.9334
B( 64-C , 78-C ) :   1.0279 B( 65-C , 66-O ) :   2.2751 B( 65-C , 67-C ) :   0.9196
B( 67-C , 68-C ) :   1.4669 B( 67-C , 77-C ) :   1.2131 B( 68-C , 69-C ) :   1.1935
B( 68-C ,103-H ) :   1.0156 B( 69-C , 70-C ) :   1.2480 B( 69-C , 74-C ) :   1.2345
B( 70-C , 71-C ) :   1.2111 B( 70-C , 76-C ) :   1.2090 B( 71-C , 72-C ) :   1.4378
B( 71-C ,104-H ) :   1.0016 B( 72-C , 73-C ) :   1.2525 B( 72-C , 75-F ) :   1.0934
B( 73-C , 74-C ) :   1.4622 B( 73-C ,105-H ) :   0.9929 B( 74-C ,106-H ) :   0.9973
B( 76-C , 77-C ) :   1.4530 B( 76-C ,107-H ) :   0.9935 B( 77-C , 78-C ) :   1.0141
B( 78-C , 79-C ) :   1.6389 B( 79-C , 80-C ) :   1.1719 B( 79-C , 82-C ) :   1.1400
B( 80-C , 81-N ) :   2.9878 B( 82-C , 83-N ) :   2.9241

-----------------------------------------------------------------------------
         ABSORPTION SPECTRUM VIA TRANSITION ELECTRIC DIPOLE MOMENTS
-----------------------------------------------------------------------------
State   Energy  Wavelength   fosc         T2         TX        TY        TZ
        (cm-1)    (nm)                  (au**2)     (au)      (au)      (au)
-----------------------------------------------------------------------------
   0   12263.6    815.4   0.078930040   2.11885  -0.67821   0.68413  -1.09126
   1   14055.1    711.5   0.076517535   1.79227  -0.95218   0.45767  -0.82228
   2   15364.2    650.9   0.008463090   0.18134   0.42063   0.05541   0.03659
   3   17621.2    567.5   0.042378929   0.79175   0.55586  -0.14945   0.67855
   4   18915.1    528.7   0.005927648   0.10317  -0.07778  -0.20593  -0.23390
   5   20769.8    481.5   0.127841562   2.02635  -0.06036  -1.32299   0.52194
   6   21398.3    467.3   0.045318670   0.69723  -0.30819   0.73319  -0.25433
   7   22056.7    453.4   0.006485033   0.09679  -0.27053  -0.06882   0.13736
   8   22615.0    442.2   0.063336361   0.92200   0.00380   0.92715  -0.24976
   9   23191.5    431.2   0.056276069   0.79886  -0.27321   0.34858  -0.77634
  10   23868.0    419.0   0.005466042   0.07539  -0.25063   0.10693   0.03381
  11   25077.2    398.8   0.178293561   2.34062  -0.91817   0.28321  -1.19054
  12   25442.2    393.0   0.016956062   0.21940  -0.44875  -0.05177  -0.12389
  13   25658.8    389.7   0.077662730   0.99644   0.67050   0.25089   0.69564
  14   25935.8    385.6   0.083035654   1.05400   0.05625  -0.92870  -0.43400
  15   26490.6    377.5   0.141649803   1.76035  -1.11310   0.61275  -0.38198
  16   26684.7    374.7   0.064327686   0.79362   0.22875  -0.85685   0.08426
  17   26909.3    371.6   0.088810284   1.08652  -0.01873  -1.03977  -0.07107
  18   27043.2    369.8   0.136708071   1.66423  -0.83998   0.88271   0.42366
  19   27115.1    368.8   0.002528634   0.03070   0.13611   0.02310   0.10790
  20   27651.6    361.6   0.004419815   0.05262   0.05285  -0.05104   0.21731
  21   28026.4    356.8   0.007600844   0.08928   0.03210  -0.08430   0.28486
  22   28185.8    354.8   0.073322861   0.85642  -0.84892   0.10797  -0.35227
  23   28590.1    349.8   0.649436912   7.47820  -0.40919  -1.05513  -2.48947
  24   28984.9    345.0   0.186011141   2.11272  -0.03278  -0.86290   1.16921
  25   29224.9    342.2   0.001881614   0.02120  -0.03352   0.13909   0.02693
  26   29491.2    339.1   0.041144796   0.45930  -0.58796   0.12522   0.31293
  27   30138.7    331.8   0.177332430   1.93704  -0.40353   0.86598  -1.01207
  28   30283.7    330.2   0.004541861   0.04937  -0.07779   0.02373   0.20679
  29   30539.5    327.4   0.000583224   0.00629  -0.03898   0.06854   0.00832
  30   31174.9    320.8   0.020656748   0.21814  -0.23024   0.22027  -0.34148
  31   32015.3    312.4   0.395913917   4.07117   0.81237  -1.84295  -0.12140
  32   32088.8    311.6   0.035501273   0.36422  -0.30848   0.50745   0.10750
  33   32195.0    310.6   0.264324974   2.70287   0.98710  -1.29218   0.24247
  34   32224.3    310.3   0.230854266   2.35847  -0.40812   1.45403   0.27875
  35   32874.2    304.2   0.088452094   0.88579   0.74209  -0.55125   0.17666
  36   33155.7    301.6   0.024535939   0.24362  -0.27608  -0.00992  -0.40903
  37   33199.1    301.2   0.321267071   3.18578   1.19001  -1.31864   0.17563
  38   33305.0    300.3   0.102809740   1.01625   0.35061  -0.59882  -0.73125
  39   33611.0    297.5   0.049488623   0.48473  -0.02521   0.66874  -0.19203
  40   33943.4    294.6   0.223965371   2.17220   1.34902  -0.59283  -0.03026
  41   34035.8    293.8   0.052477621   0.50759   0.62894  -0.23839  -0.23493
  42   34195.8    292.4   0.090958177   0.87568  -0.86484   0.30936  -0.17897
  43   34258.9    291.9   0.037857269   0.36379   0.32543  -0.34088  -0.37641
  44   34464.4    290.2   0.152055194   1.45247  -0.48168   0.94199   0.57716
  45   34622.1    288.8   0.313986314   2.98561  -1.04338   1.09890  -0.83030
  46   34700.8    288.2   0.628005489   5.95798  -1.18579   1.76984  -1.19144
  47   34753.7    287.7   0.010034015   0.09505   0.03356  -0.03261   0.30473
  48   35237.7    283.8   0.024619626   0.23001   0.07438   0.26753   0.39103
  49   35377.9    282.7   0.404587104   3.76492   1.16403  -1.49739   0.40959
  50   35879.7    278.7   0.272711694   2.50225  -1.17239   1.03649  -0.23115
  51   36087.3    277.1   0.602693657   5.49817  -1.57518   1.05651   1.37868
  52   36598.1    273.2   0.302475709   2.72087  -1.10340   1.16897   0.37001
  53   37031.5    270.0   0.018685026   0.16611   0.38741   0.00004   0.12659
  54   37163.9    269.1   0.000783158   0.00694  -0.05804   0.05011   0.03253
  55   37446.0    267.1   0.010626980   0.09343  -0.24253   0.17831   0.05307
  56   37810.0    264.5   0.000207651   0.00181   0.02169  -0.03608   0.00596
  57   37876.3    264.0   0.071870425   0.62468  -0.58764  -0.06877  -0.52405
  58   37930.6    263.6   0.006745175   0.05854  -0.08266   0.22471   0.03491
  59   38735.6    258.2   0.037415378   0.31799   0.40323  -0.05429   0.39045
  60   38781.4    257.9   0.140994856   1.19689  -0.63700  -0.05544  -0.88772
  61   39029.2    256.2   0.030711706   0.25905  -0.35473  -0.36350  -0.03295
  62   39171.7    255.3   0.193237511   1.62403  -0.06755  -0.72694  -1.04452
  63   39208.7    255.0   0.015902779   0.13353  -0.35330  -0.06175   0.06993
  64   39587.3    252.6   0.107408014   0.89322  -0.16692  -0.84151  -0.39651
  65   39700.3    251.9   0.022493689   0.18653  -0.08613  -0.38763  -0.16986
  66   40015.0    249.9   0.001193002   0.00982  -0.00371  -0.05597   0.08166
  67   40135.7    249.2   0.024526918   0.20118   0.26736   0.30377   0.19344

FINAL SINGLE POINT ENERGY     -3788.187582401101

DIPOLE MOMENT
-------------
                                X             Y             Z
Electronic contribution:     -4.19424      -6.66777      -5.41597
Nuclear contribution   :      6.04831       7.94873       4.63975
                        -----------------------------------------
Total Dipole Moment    :      1.85407       1.28096      -0.77622
                        -----------------------------------------
Magnitude (a.u.)       :      2.38348
Magnitude (Debye)      :      6.05832

Rotational constants in cm-1:     0.001885     0.000207     0.000195
Rotational constants in MHz :    56.509191     6.213262     5.842041

                             ****ORCA TERMINATED NORMALLY****
TOTAL RUN TIME: 0 days 0 hours 18 minutes 36 seconds 316 msec
