                         Program Version 4.2.0 -  RELEASE  -
|  1> # ORCA input file
|  2> # SCF done       -195.597530827820          0.000501526959
|  3> ! CAM-B3LYP def2-SVP def2/J RIJCOSX Grid4 TightSCF
|  4> %maxcore 5000
|  5> %tddft
|  6>     Mode sTDDFT
|  7>     Ethresh 5.0
|  8>     maxcore 5000
|  9> end
| 10>
| 11> %pal
| 12>   nprocs 6
| 13>   end
| 14> * xyz 0 1
| 15>    C       12.73111         7.76694         6.20065
| 16>    C       12.42500         8.32909         7.40876
| 17>    F       13.29204         9.18818         7.97876
| 18>    C       11.23334         8.04653         8.08829
| 19>    C       10.34159         7.17608         7.52462
| 20>    C       10.60640         6.56739         6.28153
| 21>    C       11.82344         6.87015         5.60570
| 22>    C       12.10741         6.27872         4.35131
| 23>    C       11.20624         5.41070         3.80100
| 24>    C        9.99639         5.09956         4.48768
| 25>    C        9.69303         5.66230         5.69224
| 26>    C        9.22428         4.11923         3.69191
| 27>    O        8.13222         3.65426         3.94333
| 28>    C       10.09505         3.78427         2.54626
| 29>    C       11.20790         4.68781         2.53072
| 30>    C       11.98648         4.98868         1.43514
| 31>    C       11.70837         4.51389         0.13858
| 32>    N       11.46578         4.21829        -0.94515
| 33>    C       13.06771         5.88677         1.46733
| 34>    N       13.98001         6.58520         1.45652
| 35>    C        9.84023         2.69725         1.73550
| 36>    C       10.79026         2.02220         0.98375
| 37>    C       10.80527         1.04937        -0.04049
| 38>    C       12.27797         0.95753         0.03017
| 39>    C       13.49774         0.50859        -0.30581
| 40>    S       14.70351         1.33140         0.66178
| 41>    C       13.49986         2.29298         1.51263
| 42>    C       12.28161         1.97328         1.05963
| 43>    C        9.88928         0.47604        -0.94469
| 44>    C       10.36349        -0.42372        -1.89295
| 45>    C        9.50202        -0.92557        -2.87048
| 46>    C        9.74901        -1.76440        -3.96161
| 47>    C       11.02783        -2.46205        -4.26125
| 48>    C       10.89493        -4.00894        -4.21243
| 49>    N        9.83102        -4.52184        -5.05354
| 50>    C       11.64680        -1.97710        -5.58509
| 51>    N       12.07004        -0.59904        -5.41396
| 52>    C        8.52066        -1.83211        -4.70640
| 53>    C        8.24393        -2.36219        -5.91611
| 54>    C        6.85438        -2.35669        -6.46771
| 55>    C        5.85216        -1.62223        -5.63880
| 56>    C        6.17126        -1.01097        -4.48311
| 57>    C        7.49425        -1.06908        -3.97780
| 58>    C        8.10594        -0.50418        -2.87902
| 59>    C        7.63798         0.37406        -1.87024
| 60>    C        8.50033         0.84740        -0.93911
| 61>    C        6.55823        -3.82829        -6.55689
| 62>    C        6.86658        -4.56254        -7.64333
| 63>    C        6.76861        -5.96646        -7.72334
| 64>    C        6.30371        -7.02174        -6.91795
| 65>    C        6.87781        -8.01649        -7.88074
| 66>    C        7.15938        -9.22372        -8.38276
| 67>    S        7.99859        -9.03115        -9.92080
| 68>    C        7.94102        -7.28418        -9.83927
| 69>    C        7.31801        -6.91489        -8.70858
| 70>    C        5.49658        -7.15598        -5.79573
| 71>    C        5.30367        -8.33326        -5.10747
| 72>    C        4.06905        -8.60115        -4.33613
| 73>    O        3.22753        -7.79681        -3.99998
| 74>    C        4.06474       -10.06576        -4.12658
| 75>    C        3.09416       -10.85509        -3.58335
| 76>    C        3.29528       -12.25381        -3.52234
| 77>    C        4.50818       -12.80847        -4.02426
| 78>    C        4.69727       -14.20228        -3.96887
| 79>    C        3.71635       -14.99222        -3.43596
| 80>    C        2.51773       -14.46671        -2.93653
| 81>    C        2.31873       -13.11436        -2.98198
| 82>    F        3.89504       -16.32480        -3.38421
| 83>    C        5.50419       -11.96405        -4.57087
| 84>    C        5.28405       -10.61586        -4.62141
| 85>    C        6.11161        -9.51814        -5.11262
| 86>    C        7.47142        -9.55534        -5.32827
| 87>    C        8.25321        -8.39530        -5.47423
| 88>    N        8.93316        -7.46878        -5.51215
| 89>    C        8.23211       -10.73861        -5.31813
| 90>    N        8.88419       -11.68355        -5.35188
| 91>    H       13.65735         8.01018         5.70376
| 92>    H       11.04519         8.52030         9.03869
| 93>    H        9.41635         6.94243         8.02976
| 94>    H       13.03622         6.52423         3.86058
| 95>    H        8.76692         5.42267         6.19316
| 96>    H        8.83541         2.29339         1.78596
| 97>    H       13.82856        -0.21612        -1.02279
| 98>    H       13.84190         2.98745         2.25423
| 99>    H       11.40744        -0.69768        -1.88644
|100>    H       11.74848        -2.19253        -3.48283
|101>    H       10.76936        -4.29062        -3.15609
|102>    H       11.84383        -4.42490        -4.55844
|103>    H        8.95146        -4.52716        -4.55054
|104>    H       10.01111        -5.47560        -5.34535
|105>    H       10.93620        -2.12440        -6.40991
|106>    H       12.54005        -2.57093        -5.79743
|107>    H       11.27089        -0.00163        -5.22898
|108>    H       12.53699        -0.25647        -6.24534
|109>    H        8.98842        -2.88232        -6.49696
|110>    H        6.87014        -1.93943        -7.48378
|111>    H        4.84316        -1.60663        -6.02176
|112>    H        5.42312        -0.46881        -3.92346
|113>    H        6.60057         0.67402        -1.86754
|114>    H        8.16423         1.54277        -0.18778
|115>    H        6.18216        -4.29303        -5.65841
|116>    H        7.28040        -4.07334        -8.51713
|117>    H        6.97305       -10.22034        -8.03462
|118>    H        8.37354        -6.71573       -10.63803
|119>    H        4.87969        -6.31353        -5.50420
|120>    H        2.17976       -10.42146        -3.20701
|121>    H        5.60928       -14.64141        -4.34209
|122>    H        1.77937       -15.13844        -2.52841
|123>    H        1.40263       -12.68643        -2.60359
|124>    H        6.41262       -12.40809        -4.94712
|125> *
|126>
|127>                          ****END OF INPUT****

CARTESIAN COORDINATES (ANGSTROEM)
---------------------------------
  C     12.731110    7.766940    6.200650
  C     12.425000    8.329090    7.408760
  F     13.292040    9.188180    7.978760
  C     11.233340    8.046530    8.088290
  C     10.341590    7.176080    7.524620
  C     10.606400    6.567390    6.281530
  C     11.823440    6.870150    5.605700
  C     12.107410    6.278720    4.351310
  C     11.206240    5.410700    3.801000
  C      9.996390    5.099560    4.487680
  C      9.693030    5.662300    5.692240
  C      9.224280    4.119230    3.691910
  O      8.132220    3.654260    3.943330
  C     10.095050    3.784270    2.546260
  C     11.207900    4.687810    2.530720
  C     11.986480    4.988680    1.435140
  C     11.708370    4.513890    0.138580
  N     11.465780    4.218290   -0.945150
  C     13.067710    5.886770    1.467330
  N     13.980010    6.585200    1.456520
  C      9.840230    2.697250    1.735500
  C     10.790260    2.022200    0.983750
  C     10.805270    1.049370   -0.040490
  C     12.277970    0.957530    0.030170
  C     13.497740    0.508590   -0.305810
  S     14.703510    1.331400    0.661780
  C     13.499860    2.292980    1.512630
  C     12.281610    1.973280    1.059630
  C      9.889280    0.476040   -0.944690
  C     10.363490   -0.423720   -1.892950
  C      9.502020   -0.925570   -2.870480
  C      9.749010   -1.764400   -3.961610
  C     11.027830   -2.462050   -4.261250
  C     10.894930   -4.008940   -4.212430
  N      9.831020   -4.521840   -5.053540
  C     11.646800   -1.977100   -5.585090
  N     12.070040   -0.599040   -5.413960
  C      8.520660   -1.832110   -4.706400
  C      8.243930   -2.362190   -5.916110
  C      6.854380   -2.356690   -6.467710
  C      5.852160   -1.622230   -5.638800
  C      6.171260   -1.010970   -4.483110
  C      7.494250   -1.069080   -3.977800
  C      8.105940   -0.504180   -2.879020
  C      7.637980    0.374060   -1.870240
  C      8.500330    0.847400   -0.939110
  C      6.558230   -3.828290   -6.556890
  C      6.866580   -4.562540   -7.643330
  C      6.768610   -5.966460   -7.723340
  C      6.303710   -7.021740   -6.917950
  C      6.877810   -8.016490   -7.880740
  C      7.159380   -9.223720   -8.382760
  S      7.998590   -9.031150   -9.920800
  C      7.941020   -7.284180   -9.839270
  C      7.318010   -6.914890   -8.708580
  C      5.496580   -7.155980   -5.795730
  C      5.303670   -8.333260   -5.107470
  C      4.069050   -8.601150   -4.336130
  O      3.227530   -7.796810   -3.999980
  C      4.064740  -10.065760   -4.126580
  C      3.094160  -10.855090   -3.583350
  C      3.295280  -12.253810   -3.522340
  C      4.508180  -12.808470   -4.024260
  C      4.697270  -14.202280   -3.968870
  C      3.716350  -14.992220   -3.435960
  C      2.517730  -14.466710   -2.936530
  C      2.318730  -13.114360   -2.981980
  F      3.895040  -16.324800   -3.384210
  C      5.504190  -11.964050   -4.570870
  C      5.284050  -10.615860   -4.621410
  C      6.111610   -9.518140   -5.112620
  C      7.471420   -9.555340   -5.328270
  C      8.253210   -8.395300   -5.474230
  N      8.933160   -7.468780   -5.512150
  C      8.232110  -10.738610   -5.318130
  N      8.884190  -11.683550   -5.351880
  H     13.657350    8.010180    5.703760
  H     11.045190    8.520300    9.038690
  H      9.416350    6.942430    8.029760
  H     13.036220    6.524230    3.860580
  H      8.766920    5.422670    6.193160
  H      8.835410    2.293390    1.785960
  H     13.828560   -0.216120   -1.022790
  H     13.841900    2.987450    2.254230
  H     11.407440   -0.697680   -1.886440
  H     11.748480   -2.192530   -3.482830
  H     10.769360   -4.290620   -3.156090
  H     11.843830   -4.424900   -4.558440
  H      8.951460   -4.527160   -4.550540
  H     10.011110   -5.475600   -5.345350
  H     10.936200   -2.124400   -6.409910
  H     12.540050   -2.570930   -5.797430
  H     11.270890   -0.001630   -5.228980
  H     12.536990   -0.256470   -6.245340
  H      8.988420   -2.882320   -6.496960
  H      6.870140   -1.939430   -7.483780
  H      4.843160   -1.606630   -6.021760
  H      5.423120   -0.468810   -3.923460
  H      6.600570    0.674020   -1.867540
  H      8.164230    1.542770   -0.187780
  H      6.182160   -4.293030   -5.658410
  H      7.280400   -4.073340   -8.517130
  H      6.973050  -10.220340   -8.034620
  H      8.373540   -6.715730  -10.638030
  H      4.879690   -6.313530   -5.504200
  H      2.179760  -10.421460   -3.207010
  H      5.609280  -14.641410   -4.342090
  H      1.779370  -15.138440   -2.528410
  H      1.402630  -12.686430   -2.603590
  H      6.412620  -12.408090   -4.947120

 Total Charge           Charge          ....    0
 Multiplicity           Mult            ....    1
 Number of Electrons    NEL             ....  526
 Basis Dimension        Dim             .... 1242

ORBITAL ENERGIES
----------------

  NO   OCC          E(Eh)            E(eV)
   0   2.0000     -88.959917     -2420.7224
   1   2.0000     -88.940314     -2420.1890
   2   2.0000     -24.787633      -674.5058
   3   2.0000     -24.774995      -674.1619
   4   2.0000     -19.215994      -522.8938
   5   2.0000     -19.196943      -522.3754
   6   2.0000     -14.422413      -392.4538
   7   2.0000     -14.419960      -392.3871
   8   2.0000     -14.399837      -391.8395
   9   2.0000     -14.392053      -391.6277
  10   2.0000     -14.381816      -391.3491
  11   2.0000     -14.378949      -391.2711
  12   2.0000     -10.371403      -282.2202
  13   2.0000     -10.367776      -282.1215
  14   2.0000     -10.357451      -281.8406
  15   2.0000     -10.348350      -281.5929
  16   2.0000     -10.345414      -281.5130
  17   2.0000     -10.345381      -281.5121
  18   2.0000     -10.341373      -281.4031
  19   2.0000     -10.331648      -281.1384
  20   2.0000     -10.328277      -281.0467
  21   2.0000     -10.322964      -280.9021
  22   2.0000     -10.322706      -280.8951
  23   2.0000     -10.322673      -280.8942
  24   2.0000     -10.320671      -280.8397
  25   2.0000     -10.319989      -280.8212
  26   2.0000     -10.319206      -280.7999
  27   2.0000     -10.318450      -280.7793
  28   2.0000     -10.317971      -280.7663
  29   2.0000     -10.316282      -280.7203
  30   2.0000     -10.312113      -280.6069
  31   2.0000     -10.311334      -280.5857
  32   2.0000     -10.308076      -280.4970
  33   2.0000     -10.308014      -280.4953
  34   2.0000     -10.303077      -280.3610
  35   2.0000     -10.302766      -280.3525
  36   2.0000     -10.301888      -280.3286
  37   2.0000     -10.300449      -280.2895
  38   2.0000     -10.300280      -280.2849
  39   2.0000     -10.299580      -280.2658
  40   2.0000     -10.298128      -280.2263
  41   2.0000     -10.297941      -280.2212
  42   2.0000     -10.297528      -280.2100
  43   2.0000     -10.296664      -280.1865
  44   2.0000     -10.296650      -280.1861
  45   2.0000     -10.296090      -280.1708
  46   2.0000     -10.295987      -280.1680
  47   2.0000     -10.294830      -280.1366
  48   2.0000     -10.292546      -280.0744
  49   2.0000     -10.291758      -280.0530
  50   2.0000     -10.291586      -280.0483
  51   2.0000     -10.291073      -280.0343
  52   2.0000     -10.290534      -280.0197
  53   2.0000     -10.290472      -280.0180
  54   2.0000     -10.290444      -280.0172
  55   2.0000     -10.287696      -279.9424
  56   2.0000     -10.287547      -279.9384
  57   2.0000     -10.287395      -279.9342
  58   2.0000     -10.286731      -279.9162
  59   2.0000     -10.285862      -279.8925
  60   2.0000     -10.285568      -279.8845
  61   2.0000     -10.283930      -279.8400
  62   2.0000     -10.283821      -279.8370
  63   2.0000     -10.282498      -279.8010
  64   2.0000     -10.282438      -279.7994
  65   2.0000     -10.279084      -279.7081
  66   2.0000     -10.278976      -279.7052
  67   2.0000     -10.278266      -279.6858
  68   2.0000     -10.277618      -279.6682
  69   2.0000     -10.277004      -279.6515
  70   2.0000     -10.275972      -279.6234
  71   2.0000     -10.274679      -279.5882
  72   2.0000     -10.274614      -279.5865
  73   2.0000     -10.274588      -279.5857
  74   2.0000     -10.274251      -279.5766
  75   2.0000     -10.272443      -279.5274
  76   2.0000      -8.055709      -219.2070
  77   2.0000      -8.035969      -218.6698
  78   2.0000      -6.025654      -163.9664
  79   2.0000      -6.020848      -163.8356
  80   2.0000      -6.017092      -163.7334
  81   2.0000      -6.005913      -163.4292
  82   2.0000      -6.001110      -163.2985
  83   2.0000      -5.997424      -163.1982
  84   2.0000      -1.302457       -35.4417
  85   2.0000      -1.289293       -35.0834
  86   2.0000      -1.129929       -30.7469
  87   2.0000      -1.110433       -30.2164
  88   2.0000      -1.031921       -28.0800
  89   2.0000      -1.020124       -27.7590
  90   2.0000      -1.010626       -27.5005
  91   2.0000      -1.004106       -27.3231
  92   2.0000      -1.000306       -27.2197
  93   2.0000      -0.999333       -27.1932
  94   2.0000      -0.997855       -27.1530
  95   2.0000      -0.984695       -26.7949
  96   2.0000      -0.979285       -26.6477
  97   2.0000      -0.974392       -26.5146
  98   2.0000      -0.970537       -26.4096
  99   2.0000      -0.966534       -26.3007
 100   2.0000      -0.961039       -26.1512
 101   2.0000      -0.955079       -25.9890
 102   2.0000      -0.951061       -25.8797
 103   2.0000      -0.936254       -25.4768
 104   2.0000      -0.930152       -25.3107
 105   2.0000      -0.919555       -25.0224
 106   2.0000      -0.910513       -24.7763
 107   2.0000      -0.904110       -24.6021
 108   2.0000      -0.895568       -24.3696
 109   2.0000      -0.888620       -24.1806
 110   2.0000      -0.883140       -24.0315
 111   2.0000      -0.878030       -23.8924
 112   2.0000      -0.873015       -23.7559
 113   2.0000      -0.871155       -23.7053
 114   2.0000      -0.857163       -23.3246
 115   2.0000      -0.851571       -23.1724
 116   2.0000      -0.840415       -22.8689
 117   2.0000      -0.837242       -22.7825
 118   2.0000      -0.836306       -22.7570
 119   2.0000      -0.827516       -22.5179
 120   2.0000      -0.820859       -22.3367
 121   2.0000      -0.812335       -22.1047
 122   2.0000      -0.810603       -22.0576
 123   2.0000      -0.794442       -21.6179
 124   2.0000      -0.780479       -21.2379
 125   2.0000      -0.771498       -20.9935
 126   2.0000      -0.768842       -20.9213
 127   2.0000      -0.761739       -20.7280
 128   2.0000      -0.748804       -20.3760
 129   2.0000      -0.742730       -20.2107
 130   2.0000      -0.735246       -20.0071
 131   2.0000      -0.725619       -19.7451
 132   2.0000      -0.724144       -19.7050
 133   2.0000      -0.716298       -19.4915
 134   2.0000      -0.711517       -19.3614
 135   2.0000      -0.708706       -19.2849
 136   2.0000      -0.701752       -19.0956
 137   2.0000      -0.695278       -18.9195
 138   2.0000      -0.693144       -18.8614
 139   2.0000      -0.688192       -18.7267
 140   2.0000      -0.686677       -18.6854
 141   2.0000      -0.674690       -18.3592
 142   2.0000      -0.667823       -18.1724
 143   2.0000      -0.664572       -18.0839
 144   2.0000      -0.661475       -17.9996
 145   2.0000      -0.653261       -17.7761
 146   2.0000      -0.647420       -17.6172
 147   2.0000      -0.640102       -17.4181
 148   2.0000      -0.637719       -17.3532
 149   2.0000      -0.634181       -17.2569
 150   2.0000      -0.630966       -17.1695
 151   2.0000      -0.621539       -16.9129
 152   2.0000      -0.618402       -16.8276
 153   2.0000      -0.615298       -16.7431
 154   2.0000      -0.612757       -16.6740
 155   2.0000      -0.606695       -16.5090
 156   2.0000      -0.604363       -16.4455
 157   2.0000      -0.599902       -16.3242
 158   2.0000      -0.597672       -16.2635
 159   2.0000      -0.592421       -16.1206
 160   2.0000      -0.584099       -15.8942
 161   2.0000      -0.582295       -15.8451
 162   2.0000      -0.577303       -15.7092
 163   2.0000      -0.576657       -15.6916
 164   2.0000      -0.571242       -15.5443
 165   2.0000      -0.567292       -15.4368
 166   2.0000      -0.562092       -15.2953
 167   2.0000      -0.560071       -15.2403
 168   2.0000      -0.556942       -15.1552
 169   2.0000      -0.553110       -15.0509
 170   2.0000      -0.552072       -15.0226
 171   2.0000      -0.548260       -14.9189
 172   2.0000      -0.547051       -14.8860
 173   2.0000      -0.544236       -14.8094
 174   2.0000      -0.543628       -14.7929
 175   2.0000      -0.537746       -14.6328
 176   2.0000      -0.536803       -14.6071
 177   2.0000      -0.533751       -14.5241
 178   2.0000      -0.532369       -14.4865
 179   2.0000      -0.529853       -14.4180
 180   2.0000      -0.527905       -14.3650
 181   2.0000      -0.526384       -14.3236
 182   2.0000      -0.525610       -14.3026
 183   2.0000      -0.519374       -14.1329
 184   2.0000      -0.518107       -14.0984
 185   2.0000      -0.517381       -14.0787
 186   2.0000      -0.516190       -14.0462
 187   2.0000      -0.513256       -13.9664
 188   2.0000      -0.510787       -13.8992
 189   2.0000      -0.510666       -13.8959
 190   2.0000      -0.510009       -13.8780
 191   2.0000      -0.508618       -13.8402
 192   2.0000      -0.505964       -13.7680
 193   2.0000      -0.500024       -13.6063
 194   2.0000      -0.499284       -13.5862
 195   2.0000      -0.494600       -13.4587
 196   2.0000      -0.492259       -13.3950
 197   2.0000      -0.490482       -13.3467
 198   2.0000      -0.485605       -13.2140
 199   2.0000      -0.483854       -13.1663
 200   2.0000      -0.482544       -13.1307
 201   2.0000      -0.478242       -13.0136
 202   2.0000      -0.476310       -12.9611
 203   2.0000      -0.476066       -12.9544
 204   2.0000      -0.474004       -12.8983
 205   2.0000      -0.469858       -12.7855
 206   2.0000      -0.465303       -12.6615
 207   2.0000      -0.461431       -12.5562
 208   2.0000      -0.460589       -12.5333
 209   2.0000      -0.458911       -12.4876
 210   2.0000      -0.458160       -12.4672
 211   2.0000      -0.454953       -12.3799
 212   2.0000      -0.452856       -12.3228
 213   2.0000      -0.451015       -12.2727
 214   2.0000      -0.448605       -12.2072
 215   2.0000      -0.444918       -12.1068
 216   2.0000      -0.443875       -12.0785
 217   2.0000      -0.443665       -12.0728
 218   2.0000      -0.440419       -11.9844
 219   2.0000      -0.437926       -11.9166
 220   2.0000      -0.437718       -11.9109
 221   2.0000      -0.434154       -11.8139
 222   2.0000      -0.433837       -11.8053
 223   2.0000      -0.430379       -11.7112
 224   2.0000      -0.429712       -11.6931
 225   2.0000      -0.429491       -11.6870
 226   2.0000      -0.425529       -11.5792
 227   2.0000      -0.425264       -11.5720
 228   2.0000      -0.423785       -11.5318
 229   2.0000      -0.418652       -11.3921
 230   2.0000      -0.417564       -11.3625
 231   2.0000      -0.414462       -11.2781
 232   2.0000      -0.411876       -11.2077
 233   2.0000      -0.408830       -11.1248
 234   2.0000      -0.408249       -11.1090
 235   2.0000      -0.403035       -10.9671
 236   2.0000      -0.400610       -10.9012
 237   2.0000      -0.400330       -10.8935
 238   2.0000      -0.397854       -10.8262
 239   2.0000      -0.388443       -10.5701
 240   2.0000      -0.383792       -10.4435
 241   2.0000      -0.381333       -10.3766
 242   2.0000      -0.380410       -10.3515
 243   2.0000      -0.373172       -10.1545
 244   2.0000      -0.370197       -10.0736
 245   2.0000      -0.365871        -9.9559
 246   2.0000      -0.349180        -9.5017
 247   2.0000      -0.343283        -9.3412
 248   2.0000      -0.338863        -9.2209
 249   2.0000      -0.333607        -9.0779
 250   2.0000      -0.330623        -8.9967
 251   2.0000      -0.321573        -8.7504
 252   2.0000      -0.316371        -8.6089
 253   2.0000      -0.314619        -8.5612
 254   2.0000      -0.311431        -8.4745
 255   2.0000      -0.308759        -8.4018
 256   2.0000      -0.300648        -8.1810
 257   2.0000      -0.297397        -8.0926
 258   2.0000      -0.296599        -8.0709
 259   2.0000      -0.283942        -7.7265
 260   2.0000      -0.264378        -7.1941
 261   2.0000      -0.251382        -6.8405
 262   2.0000      -0.230438        -6.2705
 263   0.0000      -0.118540        -3.2256
 264   0.0000      -0.100562        -2.7364
 265   0.0000      -0.069141        -1.8814
 266   0.0000      -0.063641        -1.7318
 267   0.0000      -0.044142        -1.2012

MULLIKEN ATOMIC CHARGES
-----------------------
   0 C :   -0.099294
   1 C :    0.301471
   2 F :   -0.195244
   3 C :   -0.032559
   4 C :   -0.009105
   5 C :    0.098831
   6 C :    0.103345
   7 C :   -0.098841
   8 C :    0.053400
   9 C :    0.002746
  10 C :   -0.085062
  11 C :    0.139460
  12 O :   -0.152649
  13 C :   -0.143500
  14 C :    0.274284
  15 C :   -0.357869
  16 C :   -0.206977
  17 N :    0.157568
  18 C :   -0.179871
  19 N :    0.143002
  20 C :    0.011055
  21 C :   -0.003228
  22 C :    0.114433
  23 C :    0.138652
  24 C :   -0.207833
  25 S :    0.078470
  26 C :   -0.221292
  27 C :    0.163120
  28 C :    0.087685
  29 C :   -0.078892
  30 C :    0.061352
  31 C :   -0.061468
  32 C :    0.011075
  33 C :    0.136912
  34 N :   -0.239024
  35 C :    0.139147
  36 N :   -0.226192
  37 C :    0.039007
  38 C :   -0.090117
  39 C :    0.121764
  40 C :   -0.050634
  41 C :    0.026034
  42 C :    0.015116
  43 C :    0.041984
  44 C :   -0.000060
  45 C :   -0.004975
  46 C :   -0.032837
  47 C :    0.023233
  48 C :    0.108199
  49 C :   -0.011141
  50 C :    0.156077
  51 C :   -0.212296
  52 S :    0.087028
  53 C :   -0.196753
  54 C :    0.152711
  55 C :    0.020927
  56 C :   -0.146179
  57 C :    0.146043
  58 O :   -0.144501
  59 C :    0.002004
  60 C :   -0.082472
  61 C :    0.099884
  62 C :    0.106072
  63 C :   -0.099421
  64 C :    0.304343
  65 C :   -0.030815
  66 C :   -0.010135
  67 F :   -0.190564
  68 C :   -0.098372
  69 C :    0.054935
  70 C :    0.272257
  71 C :   -0.350726
  72 C :   -0.187698
  73 N :    0.153710
  74 C :   -0.184513
  75 N :    0.153346
  76 H :   -0.006115
  77 H :   -0.001418
  78 H :   -0.013390
  79 H :   -0.012165
  80 H :   -0.017309
  81 H :    0.012767
  82 H :    0.034856
  83 H :    0.034972
  84 H :   -0.027432
  85 H :   -0.019638
  86 H :   -0.003228
  87 H :   -0.001502
  88 H :    0.101949
  89 H :    0.112280
  90 H :   -0.018561
  91 H :   -0.009091
  92 H :    0.098732
  93 H :    0.093855
  94 H :    0.034272
  95 H :    0.038459
  96 H :   -0.005662
  97 H :   -0.025843
  98 H :   -0.031204
  99 H :   -0.031242
 100 H :    0.032236
 101 H :   -0.002307
 102 H :    0.039914
 103 H :    0.032709
 104 H :    0.010926
 105 H :   -0.012013
 106 H :   -0.003419
 107 H :    0.003819
 108 H :   -0.009297
 109 H :   -0.008486
Sum of atomic charges:   -0.0000000

LOEWDIN ATOMIC CHARGES
----------------------
   0 C :   -0.044006
   1 C :    0.090903
   2 F :   -0.069064
   3 C :   -0.042206
   4 C :    0.003011
   5 C :   -0.021610
   6 C :    0.002536
   7 C :    0.002147
   8 C :   -0.013585
   9 C :   -0.057825
  10 C :    0.029654
  11 C :    0.078240
  12 O :   -0.156628
  13 C :   -0.093727
  14 C :    0.056434
  15 C :   -0.143437
  16 C :   -0.017024
  17 N :   -0.065298
  18 C :   -0.019889
  19 N :   -0.064727
  20 C :    0.039414
  21 C :   -0.031175
  22 C :    0.093726
  23 C :   -0.053340
  24 C :   -0.165316
  25 S :    0.393561
  26 C :   -0.176267
  27 C :   -0.032263
  28 C :   -0.047367
  29 C :    0.049507
  30 C :   -0.030667
  31 C :   -0.003707
  32 C :   -0.042501
  33 C :    0.033976
  34 N :   -0.100771
  35 C :    0.030956
  36 N :   -0.118587
  37 C :   -0.030633
  38 C :    0.092909
  39 C :   -0.030188
  40 C :   -0.046520
  41 C :   -0.004502
  42 C :   -0.044514
  43 C :   -0.025132
  44 C :   -0.006892
  45 C :   -0.012456
  46 C :    0.075356
  47 C :   -0.047932
  48 C :    0.083961
  49 C :   -0.026156
  50 C :   -0.035368
  51 C :   -0.169456
  52 S :    0.400552
  53 C :   -0.158305
  54 C :   -0.053990
  55 C :    0.037525
  56 C :   -0.085239
  57 C :    0.079842
  58 O :   -0.148034
  59 C :   -0.059229
  60 C :    0.034094
  61 C :   -0.019621
  62 C :    0.003212
  63 C :   -0.042933
  64 C :    0.093529
  65 C :   -0.037540
  66 C :    0.004839
  67 F :   -0.064930
  68 C :    0.006171
  69 C :   -0.016937
  70 C :    0.062061
  71 C :   -0.144538
  72 C :    0.005817
  73 N :   -0.068076
  74 C :   -0.022121
  75 N :   -0.054672
  76 H :    0.041735
  77 H :    0.039823
  78 H :    0.034036
  79 H :    0.037031
  80 H :    0.037459
  81 H :    0.042564
  82 H :    0.025233
  83 H :    0.025405
  84 H :    0.035406
  85 H :    0.029280
  86 H :    0.007366
  87 H :    0.020670
  88 H :    0.051541
  89 H :    0.049900
  90 H :   -0.001577
  91 H :    0.017144
  92 H :    0.052991
  93 H :    0.055684
  94 H :    0.029918
  95 H :    0.056998
  96 H :    0.026587
  97 H :    0.033944
  98 H :    0.030364
  99 H :    0.030949
 100 H :    0.037050
 101 H :    0.038217
 102 H :    0.026978
 103 H :    0.028113
 104 H :    0.044249
 105 H :    0.039553
 106 H :    0.042677
 107 H :    0.042073
 108 H :    0.035671
 109 H :    0.037934

  Mayer bond orders larger than 0.100000
B(  0-C ,  1-C ) :   1.4364 B(  0-C ,  6-C ) :   1.2060 B(  0-C , 76-H ) :   1.0073
B(  1-C ,  2-F ) :   1.0834 B(  1-C ,  3-C ) :   1.2592 B(  3-C ,  4-C ) :   1.4557
B(  3-C , 77-H ) :   0.9928 B(  4-C ,  5-C ) :   1.2383 B(  4-C , 78-H ) :   0.9967
B(  5-C ,  6-C ) :   1.2623 B(  5-C , 10-C ) :   1.1825 B(  6-C ,  7-C ) :   1.1896
B(  7-C ,  8-C ) :   1.4724 B(  7-C , 79-H ) :   0.9959 B(  8-C ,  9-C ) :   1.2147
B(  8-C , 14-C ) :   0.9923 B(  9-C , 10-C ) :   1.4791 B(  9-C , 11-C ) :   0.9157
B( 10-C , 80-H ) :   1.0151 B( 11-C , 12-O ) :   2.2640 B( 11-C , 13-C ) :   0.9546
B( 13-C , 14-C ) :   1.1144 B( 13-C , 20-C ) :   1.5090 B( 14-C , 15-C ) :   1.5854
B( 15-C , 16-C ) :   1.1585 B( 15-C , 18-C ) :   1.1478 B( 16-C , 17-N ) :   3.0147
B( 18-C , 19-N ) :   2.9721 B( 20-C , 21-C ) :   1.2149 B( 20-C , 81-H ) :   0.9514
B( 21-C , 22-C ) :   1.3381 B( 21-C , 27-C ) :   0.8808 B( 22-C , 23-C ) :   0.9106
B( 22-C , 28-C ) :   1.1367 B( 23-C , 24-C ) :   1.6171 B( 23-C , 27-C ) :   1.1440
B( 24-C , 25-S ) :   1.1169 B( 24-C , 82-H ) :   0.9699 B( 25-S , 26-C ) :   1.0813
B( 26-C , 27-C ) :   1.6394 B( 26-C , 83-H ) :   0.9710 B( 28-C , 29-C ) :   1.4162
B( 28-C , 45-C ) :   1.0956 B( 29-C , 30-C ) :   1.1674 B( 29-C , 84-H ) :   1.0011
B( 30-C , 31-C ) :   1.4274 B( 30-C , 43-C ) :   1.1132 B( 31-C , 32-C ) :   1.0560
B( 31-C , 37-C ) :   1.1109 B( 32-C , 33-C ) :   1.0133 B( 32-C , 35-C ) :   1.0255
B( 32-C , 85-H ) :   0.8717 B( 33-C , 34-N ) :   1.1259 B( 33-C , 86-H ) :   0.9476
B( 33-C , 87-H ) :   0.9405 B( 34-N , 88-H ) :   0.9547 B( 34-N , 89-H ) :   0.9445
B( 35-C , 36-N ) :   1.0888 B( 35-C , 90-H ) :   0.9415 B( 35-C , 91-H ) :   0.9358
B( 36-N , 92-H ) :   0.9702 B( 36-N , 93-H ) :   0.9670 B( 37-C , 38-C ) :   1.6526
B( 37-C , 42-C ) :   1.0555 B( 38-C , 39-C ) :   0.9681 B( 38-C , 94-H ) :   0.9252
B( 39-C , 40-C ) :   0.9740 B( 39-C , 46-C ) :   0.9612 B( 39-C , 95-H ) :   0.8794
B( 40-C , 41-C ) :   1.7268 B( 40-C , 96-H ) :   0.9795 B( 41-C , 42-C ) :   1.1246
B( 41-C , 97-H ) :   0.9906 B( 42-C , 43-C ) :   1.4409 B( 43-C , 44-C ) :   1.1337
B( 44-C , 45-C ) :   1.6251 B( 44-C , 98-H ) :   0.9911 B( 45-C , 99-H ) :   0.9911
B( 46-C , 47-C ) :   1.7006 B( 46-C ,100-H ) :   0.9709 B( 47-C , 48-C ) :   1.1672
B( 47-C ,101-H ) :   0.9562 B( 48-C , 49-C ) :   1.3760 B( 48-C , 54-C ) :   0.9162
B( 49-C , 50-C ) :   0.8734 B( 49-C , 55-C ) :   1.2043 B( 50-C , 51-C ) :   1.6564
B( 50-C , 54-C ) :   1.1338 B( 51-C , 52-S ) :   1.0789 B( 51-C ,102-H ) :   0.9711
B( 52-S , 53-C ) :   1.1225 B( 53-C , 54-C ) :   1.6100 B( 53-C ,103-H ) :   0.9775
B( 55-C , 56-C ) :   1.5303 B( 55-C ,104-H ) :   0.9522 B( 56-C , 57-C ) :   0.9444
B( 56-C , 70-C ) :   1.1108 B( 57-C , 58-O ) :   2.2777 B( 57-C , 59-C ) :   0.9147
B( 59-C , 60-C ) :   1.4805 B( 59-C , 69-C ) :   1.2108 B( 60-C , 61-C ) :   1.1859
B( 60-C ,105-H ) :   1.0144 B( 61-C , 62-C ) :   1.2561 B( 61-C , 66-C ) :   1.2407
B( 62-C , 63-C ) :   1.2058 B( 62-C , 68-C ) :   1.1938 B( 63-C , 64-C ) :   1.4378
B( 63-C ,106-H ) :   1.0060 B( 64-C , 65-C ) :   1.2576 B( 64-C , 67-F ) :   1.0889
B( 65-C , 66-C ) :   1.4580 B( 65-C ,107-H ) :   0.9928 B( 66-C ,108-H ) :   0.9961
B( 68-C , 69-C ) :   1.4714 B( 68-C ,109-H ) :   0.9953 B( 69-C , 70-C ) :   0.9964
B( 70-C , 71-C ) :   1.5824 B( 71-C , 72-C ) :   1.1561 B( 71-C , 74-C ) :   1.1453
B( 72-C , 73-N ) :   2.9926 B( 74-C , 75-N ) :   2.9775

-----------------------------------------------------------------------------
         ABSORPTION SPECTRUM VIA TRANSITION ELECTRIC DIPOLE MOMENTS
-----------------------------------------------------------------------------
State   Energy  Wavelength   fosc         T2         TX        TY        TZ
        (cm-1)    (nm)                  (au**2)     (au)      (au)      (au)
-----------------------------------------------------------------------------
   0    9967.4   1003.3   0.254379352   8.40183   0.23756   2.50655   1.43618
   1   13521.5    739.6   0.322370993   7.84888   0.16320  -1.71903  -2.20617
   2   14351.2    696.8   0.373751313   8.57371  -0.92072  -2.77843  -0.07941
   3   15076.5    663.3   0.150706808   3.29086  -0.27544  -0.53582   1.71111
   4   18658.2    536.0   0.107431679   1.89557  -0.53013  -0.96534  -0.82623
   5   19968.8    500.8   0.103945802   1.71369   0.88280   0.55793   0.78934
   6   21710.9    460.6   0.017687548   0.26820  -0.19034   0.33374   0.34727
   7   22902.9    436.6   0.023131418   0.33250   0.13305  -0.01726   0.56080
   8   23284.9    429.5   0.027318001   0.38623   0.23227   0.27402   0.50714
   9   23789.9    420.3   0.069202221   0.95764   0.30091   0.26010   0.89412
  10   24186.6    413.5   0.058203379   0.79222  -0.20260  -0.35408  -0.79108
  11   24605.7    406.4   0.086545751   1.15794   0.15844  -0.12990   1.05639
  12   24894.0    401.7   0.023084361   0.30528   0.47403  -0.19349   0.20771
  13   25179.9    397.1   0.237473814   3.10482   1.50222   0.42500   0.81703
  14   25394.4    393.8   0.015917545   0.20635  -0.35390  -0.13963  -0.24822
  15   25846.7    386.9   0.300210749   3.82381  -0.73572  -1.50590  -1.00737
  16   26060.4    383.7   0.063940224   0.80773  -0.22457  -0.69941  -0.51782
  17   26358.2    379.4   0.077770958   0.97135  -0.10827  -0.85882  -0.47123
  18   26833.1    372.7   0.028005534   0.34360  -0.31031   0.37315   0.32873
  19   26900.1    371.7   0.029837854   0.36517   0.11312  -0.35782  -0.47364
  20   27701.4    361.0   0.080475244   0.95639   0.59377  -0.23824  -0.73964
  21   28061.8    356.4   0.042750028   0.50153   0.50511   0.47405  -0.14721
  22   28257.5    353.9   0.435179187   5.07003   0.55948   1.77371   1.26924
  23   29313.9    341.1   0.054962699   0.61726  -0.12414  -0.38940   0.67099
  24   29452.9    339.5   0.123864022   1.38450   0.15912   0.66758  -0.95578
  25   30079.4    332.5   0.357665808   3.91457  -1.01431  -1.30185  -1.09129
  26   30160.9    331.6   0.001868499   0.02039  -0.08841   0.00693   0.11194
  27   30697.2    325.8   0.168248995   1.80439   0.53864   0.14680   1.22176
  28   31107.9    321.5   0.028502266   0.30164   0.43600   0.33102  -0.04437
  29   31409.2    318.4   0.054182256   0.56791   0.49148  -0.52333   0.22908
  30   31692.7    315.5   0.029818594   0.30974   0.19206   0.29943   0.42802
  31   31899.2    313.5   0.029784869   0.30739  -0.09953  -0.47092  -0.27518
  32   32167.2    310.9   0.191312535   1.95797  -0.31078   0.00969   1.36429
  33   32339.9    309.2   0.384262470   3.91169  -1.23008  -1.50339   0.37205
  34   32538.5    307.3   0.116948659   1.18324   0.01000   0.90878   0.59772
  35   33012.1    302.9   0.149692525   1.49281   0.54131   0.47769  -0.98570
  36   33275.2    300.5   0.203774208   2.01606  -0.17440   1.38617  -0.25332
  37   33589.2    297.7   0.004453379   0.04365   0.17685   0.04858   0.10006
  38   33774.1    296.1   0.041009121   0.39973   0.19528  -0.15157  -0.58192
  39   33961.4    294.5   0.058874968   0.57072   0.35350   0.10143  -0.65990
  40   34133.4    293.0   0.118164706   1.13968   0.05659  -0.67549  -0.82474
  41   34592.3    289.1   0.039405337   0.37502   0.24955  -0.55900   0.01609
  42   35100.8    284.9   0.131399274   1.23240   0.12535   0.49488   0.98579
  43   35388.4    282.6   0.150751032   1.40241   0.87219   0.58670   0.54542
  44   35656.3    280.5   0.102822658   0.94935  -0.91355   0.18464   0.28407
  45   36037.1    277.5   0.012729828   0.11629  -0.28707  -0.02471  -0.18241
  46   36074.9    277.2   0.132303660   1.20737  -0.87572  -0.35344   0.56176
  47   36377.4    274.9   0.064229245   0.58127  -0.56918  -0.42858   0.27134
  48   36617.0    273.1   0.261833338   2.35406  -0.27713  -0.29740  -1.47946
  49   36746.9    272.1   0.001943553   0.01741  -0.07853  -0.06930   0.08027
  50   36897.9    271.0   0.102670730   0.91605   0.12605  -0.43132  -0.84506
  51   37031.1    270.0   0.044066656   0.39176  -0.61075  -0.11860  -0.06837
  52   37064.3    269.8   0.033516598   0.29770   0.04370  -0.26477  -0.47506
  53   37337.1    267.8   0.135482925   1.19459  -0.79229   0.20305   0.72501
  54   37497.3    266.7   0.069740413   0.61229  -0.71961   0.11630   0.28447
  55   37764.4    264.8   0.406491096   3.54360   1.44541  -0.40352  -1.13646
  56   38101.3    262.5   0.136488865   1.17932   0.55481   0.42456   0.83142
  57   38366.1    260.6   0.051978002   0.44601  -0.34326  -0.52446   0.23049
  58   38742.6    258.1   0.001770234   0.01504  -0.06107   0.05375  -0.09178
  59   39009.8    256.3   0.013786803   0.11635  -0.15470  -0.23932  -0.18747
  60   39287.7    254.5   0.116934501   0.97985  -0.09148  -0.18012  -0.96904
  61   39502.5    253.1   0.014693535   0.12246   0.11884   0.14072   0.29754
  62   39799.5    251.3   0.009848856   0.08147  -0.06839   0.17437  -0.21537
  63   40015.9    249.9   0.121512684   0.99969  -0.86644   0.49858  -0.01980
  64   40217.3    248.6   0.245592571   2.01038  -0.58264  -1.18309  -0.52079

FINAL SINGLE POINT ENERGY     -3929.782703315273

DIPOLE MOMENT
-------------
                                X             Y             Z
Electronic contribution:     -0.98301      -3.06683      28.03089
Nuclear contribution   :     -1.79936       0.37678     -30.40100
                        -----------------------------------------
Total Dipole Moment    :     -2.78237      -2.69005      -2.37011
                        -----------------------------------------
Magnitude (a.u.)       :      4.53821
Magnitude (Debye)      :     11.53522

Rotational constants in cm-1:     0.001615     0.000233     0.000218
Rotational constants in MHz :    48.414251     6.970378     6.526821

                             ****ORCA TERMINATED NORMALLY****
TOTAL RUN TIME: 0 days 0 hours 12 minutes 59 seconds 859 msec
