                         Program Version 4.2.0 -  RELEASE  -
|  1> # ORCA input file
|  2> # SCF done       -187.291250518638          0.000587237383
|  3> ! CAM-B3LYP def2-SVP def2/J RIJCOSX Grid4 TightSCF
|  4> %maxcore 5000
|  5> %tddft
|  6>     Mode sTDDFT
|  7>     Ethresh 5.0
|  8>     maxcore 5000
|  9> end
| 10>
| 11> %pal
| 12>   nprocs 6
| 13>   end
| 14> * xyz 0 1
| 15>    C       19.71337         0.47244        -6.30725
| 16>    C       20.66027         0.98590        -7.14972
| 17>    F       21.12590         0.23166        -8.15939
| 18>    C       21.17296         2.28275        -7.00379
| 19>    C       20.70967         3.06672        -5.98437
| 20>    C       19.73134         2.58894        -5.08794
| 21>    C       19.22640         1.26487        -5.24965
| 22>    C       18.25445         0.75883        -4.35550
| 23>    C       17.80080         1.55440        -3.33785
| 24>    C       18.29331         2.88516        -3.19430
| 25>    C       19.23826         3.39478        -4.03832
| 26>    C       17.61913         3.54089        -2.05935
| 27>    O       17.80813         4.64536        -1.61048
| 28>    C       16.58077         2.56280        -1.61227
| 29>    C       16.84883         1.29501        -2.26289
| 30>    C       16.46588         0.06337        -1.80402
| 31>    C       15.77194        -0.13015        -0.58969
| 32>    N       15.27190        -0.33392         0.42290
| 33>    C       16.81335        -1.14782        -2.43850
| 34>    N       17.06397        -2.15079        -2.93598
| 35>    C       15.55603         2.96993        -0.82369
| 36>    C       14.31571         2.31528        -0.59804
| 37>    C       13.59031         1.41982        -1.51794
| 38>    N       12.43429         1.02750        -1.07899
| 39>    C       12.29507         1.59200         0.15619
| 40>    C       13.46040         2.42926         0.47080
| 41>    C       13.30100         3.04499         1.76531
| 42>    S       14.37592         4.06534         2.47884
| 43>    C       12.01768         2.58294         2.22321
| 44>    C       11.42732         1.68265         1.21124
| 45>    N       10.20123         1.23778         1.61357
| 46>    C        9.98865         1.79274         2.76517
| 47>    C       11.07815         2.66672         3.23202
| 48>    C       11.05237         3.39209         4.44401
| 49>    S        9.61712         3.33631         5.47060
| 50>    C       10.36451         4.40667         6.58041
| 51>    N        9.93149         4.92571         7.71906
| 52>    C       10.82591         5.70347         8.25701
| 53>    S       12.34716         5.84568         7.32649
| 54>    C       11.66705         4.77594         6.16561
| 55>    C       12.04979         4.20200         4.96147
| 56>    C       10.66068         6.39378         9.47506
| 57>    C       11.65120         7.27151        10.10661
| 58>    N       11.27045         7.77244        11.24321
| 59>    C       10.01848         7.28005        11.46389
| 60>    C        9.59398         6.41358        10.35011
| 61>    C        8.28455         5.87772        10.60776
| 62>    S        7.37731         4.87508         9.67852
| 63>    C        7.93300         6.42379        11.89704
| 64>    C        9.01702         7.28303        12.40120
| 65>    N        8.70807         7.76347        13.63789
| 66>    C        7.56889         7.22392        13.95142
| 67>    C        7.00745         6.34935        12.90844
| 68>    C        5.76739         5.65469        12.97177
| 69>    C        5.20547         5.11801        14.08201
| 70>    C        3.75000         4.78040        14.11932
| 71>    O        3.00241         4.71135        13.17428
| 72>    C        3.43459         4.62236        15.55100
| 73>    C        2.22071         4.41697        16.14239
| 74>    C        2.14781         4.31028        17.54882
| 75>    C        3.34034         4.42900        18.32209
| 76>    C        3.25934         4.32789        19.72450
| 77>    C        2.04346         4.11395        20.31249
| 78>    C        0.86042         3.99181        19.56983
| 79>    C        0.92041         4.09019        18.20763
| 80>    F        1.96393         4.01519        21.64991
| 81>    C        4.58491         4.63724        17.68399
| 82>    C        4.63263         4.72386        16.31839
| 83>    C        5.75702         4.88483        15.40325
| 84>    C        7.07161         4.63103        15.69104
| 85>    C        8.07908         4.50566        14.71051
| 86>    N        8.91405         4.31819        13.94577
| 87>    C        7.54635         4.35167        16.99021
| 88>    N        7.97443         4.13476        18.03216
| 89>    H       19.34472        -0.53164        -6.44751
| 90>    H       21.91985         2.63290        -7.69845
| 91>    H       21.08875         4.06878        -5.85185
| 92>    H       17.88478        -0.24371        -4.50337
| 93>    H       19.60507         4.40156        -3.90576
| 94>    H       15.67651         3.94149        -0.35231
| 95>    H       13.92563         1.13610        -2.50058
| 96>    H        9.08078         1.60659         3.31273
| 97>    H       12.99563         4.35572         4.47342
| 98>    H       12.61739         7.50586         9.69387
| 99>    H        7.08390         7.46564        14.88168
|100>    H        5.19042         5.59150        12.05446
|101>    H        1.32640         4.33546        15.54299
|102>    H        4.15006         4.41311        20.32713
|103>    H       -0.06954         3.82280        20.08905
|104>    H        0.02287         3.99919        17.61472
|105>    H        5.47077         4.73048        18.29224
|106> *
|107>
|108>                          ****END OF INPUT****

CARTESIAN COORDINATES (ANGSTROEM)
---------------------------------
  C     19.713370    0.472440   -6.307250
  C     20.660270    0.985900   -7.149720
  F     21.125900    0.231660   -8.159390
  C     21.172960    2.282750   -7.003790
  C     20.709670    3.066720   -5.984370
  C     19.731340    2.588940   -5.087940
  C     19.226400    1.264870   -5.249650
  C     18.254450    0.758830   -4.355500
  C     17.800800    1.554400   -3.337850
  C     18.293310    2.885160   -3.194300
  C     19.238260    3.394780   -4.038320
  C     17.619130    3.540890   -2.059350
  O     17.808130    4.645360   -1.610480
  C     16.580770    2.562800   -1.612270
  C     16.848830    1.295010   -2.262890
  C     16.465880    0.063370   -1.804020
  C     15.771940   -0.130150   -0.589690
  N     15.271900   -0.333920    0.422900
  C     16.813350   -1.147820   -2.438500
  N     17.063970   -2.150790   -2.935980
  C     15.556030    2.969930   -0.823690
  C     14.315710    2.315280   -0.598040
  C     13.590310    1.419820   -1.517940
  N     12.434290    1.027500   -1.078990
  C     12.295070    1.592000    0.156190
  C     13.460400    2.429260    0.470800
  C     13.301000    3.044990    1.765310
  S     14.375920    4.065340    2.478840
  C     12.017680    2.582940    2.223210
  C     11.427320    1.682650    1.211240
  N     10.201230    1.237780    1.613570
  C      9.988650    1.792740    2.765170
  C     11.078150    2.666720    3.232020
  C     11.052370    3.392090    4.444010
  S      9.617120    3.336310    5.470600
  C     10.364510    4.406670    6.580410
  N      9.931490    4.925710    7.719060
  C     10.825910    5.703470    8.257010
  S     12.347160    5.845680    7.326490
  C     11.667050    4.775940    6.165610
  C     12.049790    4.202000    4.961470
  C     10.660680    6.393780    9.475060
  C     11.651200    7.271510   10.106610
  N     11.270450    7.772440   11.243210
  C     10.018480    7.280050   11.463890
  C      9.593980    6.413580   10.350110
  C      8.284550    5.877720   10.607760
  S      7.377310    4.875080    9.678520
  C      7.933000    6.423790   11.897040
  C      9.017020    7.283030   12.401200
  N      8.708070    7.763470   13.637890
  C      7.568890    7.223920   13.951420
  C      7.007450    6.349350   12.908440
  C      5.767390    5.654690   12.971770
  C      5.205470    5.118010   14.082010
  C      3.750000    4.780400   14.119320
  O      3.002410    4.711350   13.174280
  C      3.434590    4.622360   15.551000
  C      2.220710    4.416970   16.142390
  C      2.147810    4.310280   17.548820
  C      3.340340    4.429000   18.322090
  C      3.259340    4.327890   19.724500
  C      2.043460    4.113950   20.312490
  C      0.860420    3.991810   19.569830
  C      0.920410    4.090190   18.207630
  F      1.963930    4.015190   21.649910
  C      4.584910    4.637240   17.683990
  C      4.632630    4.723860   16.318390
  C      5.757020    4.884830   15.403250
  C      7.071610    4.631030   15.691040
  C      8.079080    4.505660   14.710510
  N      8.914050    4.318190   13.945770
  C      7.546350    4.351670   16.990210
  N      7.974430    4.134760   18.032160
  H     19.344720   -0.531640   -6.447510
  H     21.919850    2.632900   -7.698450
  H     21.088750    4.068780   -5.851850
  H     17.884780   -0.243710   -4.503370
  H     19.605070    4.401560   -3.905760
  H     15.676510    3.941490   -0.352310
  H     13.925630    1.136100   -2.500580
  H      9.080780    1.606590    3.312730
  H     12.995630    4.355720    4.473420
  H     12.617390    7.505860    9.693870
  H      7.083900    7.465640   14.881680
  H      5.190420    5.591500   12.054460
  H      1.326400    4.335460   15.542990
  H      4.150060    4.413110   20.327130
  H     -0.069540    3.822800   20.089050
  H      0.022870    3.999190   17.614720
  H      5.470770    4.730480   18.292240

 Total Charge           Charge          ....    0
 Multiplicity           Mult            ....    1
 Number of Electrons    NEL             ....  520
 Basis Dimension        Dim             .... 1137

ORBITAL ENERGIES
----------------

  NO   OCC          E(Eh)            E(eV)
   0   2.0000     -88.982575     -2421.3390
   1   2.0000     -88.977764     -2421.2080
   2   2.0000     -88.914436     -2419.4848
   3   2.0000     -88.907821     -2419.3048
   4   2.0000     -24.792167      -674.6292
   5   2.0000     -24.791761      -674.6181
   6   2.0000     -19.224088      -523.1140
   7   2.0000     -19.223355      -523.0941
   8   2.0000     -14.432860      -392.7381
   9   2.0000     -14.428470      -392.6186
  10   2.0000     -14.426383      -392.5619
  11   2.0000     -14.426165      -392.5559
  12   2.0000     -14.425716      -392.5437
  13   2.0000     -14.424847      -392.5200
  14   2.0000     -14.424710      -392.5163
  15   2.0000     -14.424486      -392.5102
  16   2.0000     -14.422839      -392.4654
  17   2.0000     -10.376463      -282.3579
  18   2.0000     -10.376158      -282.3496
  19   2.0000     -10.375186      -282.3232
  20   2.0000     -10.374489      -282.3042
  21   2.0000     -10.362699      -281.9834
  22   2.0000     -10.357691      -281.8471
  23   2.0000     -10.356883      -281.8251
  24   2.0000     -10.353981      -281.7461
  25   2.0000     -10.352777      -281.7134
  26   2.0000     -10.352064      -281.6940
  27   2.0000     -10.348717      -281.6029
  28   2.0000     -10.348346      -281.5928
  29   2.0000     -10.347277      -281.5637
  30   2.0000     -10.346877      -281.5528
  31   2.0000     -10.345361      -281.5116
  32   2.0000     -10.343229      -281.4536
  33   2.0000     -10.343136      -281.4510
  34   2.0000     -10.342938      -281.4457
  35   2.0000     -10.342229      -281.4263
  36   2.0000     -10.337315      -281.2927
  37   2.0000     -10.329814      -281.0885
  38   2.0000     -10.327714      -281.0314
  39   2.0000     -10.327380      -281.0223
  40   2.0000     -10.327266      -281.0192
  41   2.0000     -10.326319      -280.9934
  42   2.0000     -10.325780      -280.9788
  43   2.0000     -10.325604      -280.9740
  44   2.0000     -10.324567      -280.9458
  45   2.0000     -10.320453      -280.8338
  46   2.0000     -10.319162      -280.7987
  47   2.0000     -10.316621      -280.7295
  48   2.0000     -10.316323      -280.7214
  49   2.0000     -10.315435      -280.6973
  50   2.0000     -10.315138      -280.6892
  51   2.0000     -10.313983      -280.6577
  52   2.0000     -10.313720      -280.6506
  53   2.0000     -10.311841      -280.5995
  54   2.0000     -10.311574      -280.5922
  55   2.0000     -10.311268      -280.5839
  56   2.0000     -10.310948      -280.5752
  57   2.0000     -10.310863      -280.5728
  58   2.0000     -10.309009      -280.5224
  59   2.0000     -10.308656      -280.5128
  60   2.0000     -10.308325      -280.5038
  61   2.0000     -10.307876      -280.4916
  62   2.0000     -10.307190      -280.4729
  63   2.0000     -10.306910      -280.4653
  64   2.0000     -10.305321      -280.4221
  65   2.0000     -10.304467      -280.3988
  66   2.0000     -10.304153      -280.3903
  67   2.0000     -10.301191      -280.3096
  68   2.0000     -10.300912      -280.3021
  69   2.0000     -10.299157      -280.2543
  70   2.0000     -10.298794      -280.2444
  71   2.0000     -10.298338      -280.2320
  72   2.0000     -10.295776      -280.1623
  73   2.0000     -10.295478      -280.1542
  74   2.0000      -8.077946      -219.8121
  75   2.0000      -8.073361      -219.6873
  76   2.0000      -8.009907      -217.9606
  77   2.0000      -8.003155      -217.7769
  78   2.0000      -6.047164      -164.5517
  79   2.0000      -6.043408      -164.4495
  80   2.0000      -6.042659      -164.4291
  81   2.0000      -6.039785      -164.3509
  82   2.0000      -6.038829      -164.3249
  83   2.0000      -6.035047      -164.2220
  84   2.0000      -5.978609      -162.6862
  85   2.0000      -5.978385      -162.6801
  86   2.0000      -5.972596      -162.5226
  87   2.0000      -5.971721      -162.4988
  88   2.0000      -5.969367      -162.4347
  89   2.0000      -5.961806      -162.2290
  90   2.0000      -1.307624       -35.5823
  91   2.0000      -1.307263       -35.5724
  92   2.0000      -1.139670       -31.0120
  93   2.0000      -1.139060       -30.9954
  94   2.0000      -1.097707       -29.8701
  95   2.0000      -1.094769       -29.7902
  96   2.0000      -1.090870       -29.6841
  97   2.0000      -1.076208       -29.2851
  98   2.0000      -1.075477       -29.2652
  99   2.0000      -1.029043       -28.0017
 100   2.0000      -1.028439       -27.9853
 101   2.0000      -1.009416       -27.4676
 102   2.0000      -1.008961       -27.4552
 103   2.0000      -1.003806       -27.3150
 104   2.0000      -1.003414       -27.3043
 105   2.0000      -0.992694       -27.0126
 106   2.0000      -0.985366       -26.8132
 107   2.0000      -0.984848       -26.7991
 108   2.0000      -0.974551       -26.5189
 109   2.0000      -0.973495       -26.4901
 110   2.0000      -0.939977       -25.5781
 111   2.0000      -0.939116       -25.5547
 112   2.0000      -0.922443       -25.1009
 113   2.0000      -0.922046       -25.0901
 114   2.0000      -0.921555       -25.0768
 115   2.0000      -0.910988       -24.7892
 116   2.0000      -0.899101       -24.4658
 117   2.0000      -0.898680       -24.4543
 118   2.0000      -0.892563       -24.2879
 119   2.0000      -0.892121       -24.2758
 120   2.0000      -0.887737       -24.1565
 121   2.0000      -0.866856       -23.5884
 122   2.0000      -0.863929       -23.5087
 123   2.0000      -0.851606       -23.1734
 124   2.0000      -0.849985       -23.1293
 125   2.0000      -0.841645       -22.9023
 126   2.0000      -0.841160       -22.8891
 127   2.0000      -0.836958       -22.7748
 128   2.0000      -0.817385       -22.2422
 129   2.0000      -0.806679       -21.9509
 130   2.0000      -0.802587       -21.8395
 131   2.0000      -0.789665       -21.4879
 132   2.0000      -0.779442       -21.2097
 133   2.0000      -0.770937       -20.9783
 134   2.0000      -0.769120       -20.9288
 135   2.0000      -0.758619       -20.6431
 136   2.0000      -0.748908       -20.3788
 137   2.0000      -0.735090       -20.0028
 138   2.0000      -0.732390       -19.9294
 139   2.0000      -0.723144       -19.6778
 140   2.0000      -0.719177       -19.5698
 141   2.0000      -0.717670       -19.5288
 142   2.0000      -0.715641       -19.4736
 143   2.0000      -0.712925       -19.3997
 144   2.0000      -0.705379       -19.1943
 145   2.0000      -0.704653       -19.1746
 146   2.0000      -0.690673       -18.7942
 147   2.0000      -0.690054       -18.7773
 148   2.0000      -0.679904       -18.5011
 149   2.0000      -0.673407       -18.3243
 150   2.0000      -0.660959       -17.9856
 151   2.0000      -0.660580       -17.9753
 152   2.0000      -0.656108       -17.8536
 153   2.0000      -0.646532       -17.5930
 154   2.0000      -0.642825       -17.4921
 155   2.0000      -0.642432       -17.4815
 156   2.0000      -0.636756       -17.3270
 157   2.0000      -0.636390       -17.3171
 158   2.0000      -0.628860       -17.1121
 159   2.0000      -0.612236       -16.6598
 160   2.0000      -0.610337       -16.6081
 161   2.0000      -0.605411       -16.4741
 162   2.0000      -0.604434       -16.4475
 163   2.0000      -0.592760       -16.1298
 164   2.0000      -0.590392       -16.0654
 165   2.0000      -0.586415       -15.9572
 166   2.0000      -0.579861       -15.7788
 167   2.0000      -0.579456       -15.7678
 168   2.0000      -0.573830       -15.6147
 169   2.0000      -0.572993       -15.5919
 170   2.0000      -0.567199       -15.4343
 171   2.0000      -0.565128       -15.3779
 172   2.0000      -0.564739       -15.3673
 173   2.0000      -0.564527       -15.3616
 174   2.0000      -0.561780       -15.2868
 175   2.0000      -0.557868       -15.1804
 176   2.0000      -0.555772       -15.1233
 177   2.0000      -0.555006       -15.1025
 178   2.0000      -0.554375       -15.0853
 179   2.0000      -0.550535       -14.9808
 180   2.0000      -0.546508       -14.8712
 181   2.0000      -0.543770       -14.7967
 182   2.0000      -0.542923       -14.7737
 183   2.0000      -0.541632       -14.7386
 184   2.0000      -0.539843       -14.6899
 185   2.0000      -0.531580       -14.4650
 186   2.0000      -0.530896       -14.4464
 187   2.0000      -0.530371       -14.4321
 188   2.0000      -0.526725       -14.3329
 189   2.0000      -0.523290       -14.2395
 190   2.0000      -0.521067       -14.1789
 191   2.0000      -0.518921       -14.1206
 192   2.0000      -0.514819       -14.0089
 193   2.0000      -0.514295       -13.9947
 194   2.0000      -0.510463       -13.8904
 195   2.0000      -0.504206       -13.7201
 196   2.0000      -0.502129       -13.6636
 197   2.0000      -0.500694       -13.6246
 198   2.0000      -0.499762       -13.5992
 199   2.0000      -0.497449       -13.5363
 200   2.0000      -0.495276       -13.4771
 201   2.0000      -0.493769       -13.4361
 202   2.0000      -0.492076       -13.3901
 203   2.0000      -0.491275       -13.3683
 204   2.0000      -0.488362       -13.2890
 205   2.0000      -0.486877       -13.2486
 206   2.0000      -0.485073       -13.1995
 207   2.0000      -0.475112       -12.9284
 208   2.0000      -0.474005       -12.8983
 209   2.0000      -0.465060       -12.6549
 210   2.0000      -0.464488       -12.6393
 211   2.0000      -0.460638       -12.5346
 212   2.0000      -0.459317       -12.4987
 213   2.0000      -0.458787       -12.4842
 214   2.0000      -0.457531       -12.4501
 215   2.0000      -0.452838       -12.3223
 216   2.0000      -0.452014       -12.2999
 217   2.0000      -0.451312       -12.2808
 218   2.0000      -0.449336       -12.2270
 219   2.0000      -0.446537       -12.1509
 220   2.0000      -0.445866       -12.1326
 221   2.0000      -0.440903       -11.9976
 222   2.0000      -0.439197       -11.9511
 223   2.0000      -0.437240       -11.8979
 224   2.0000      -0.436468       -11.8769
 225   2.0000      -0.433013       -11.7829
 226   2.0000      -0.432786       -11.7767
 227   2.0000      -0.432546       -11.7702
 228   2.0000      -0.431049       -11.7294
 229   2.0000      -0.429738       -11.6938
 230   2.0000      -0.423684       -11.5290
 231   2.0000      -0.423443       -11.5225
 232   2.0000      -0.408547       -11.1171
 233   2.0000      -0.408338       -11.1114
 234   2.0000      -0.399196       -10.8627
 235   2.0000      -0.388945       -10.5837
 236   2.0000      -0.388620       -10.5749
 237   2.0000      -0.383279       -10.4295
 238   2.0000      -0.376481       -10.2446
 239   2.0000      -0.374558       -10.1922
 240   2.0000      -0.373486       -10.1631
 241   2.0000      -0.366450        -9.9716
 242   2.0000      -0.364422        -9.9164
 243   2.0000      -0.361193        -9.8286
 244   2.0000      -0.359826        -9.7914
 245   2.0000      -0.344304        -9.3690
 246   2.0000      -0.344051        -9.3621
 247   2.0000      -0.340889        -9.2761
 248   2.0000      -0.329334        -8.9616
 249   2.0000      -0.327904        -8.9227
 250   2.0000      -0.322131        -8.7656
 251   2.0000      -0.320933        -8.7330
 252   2.0000      -0.319707        -8.6997
 253   2.0000      -0.311900        -8.4872
 254   2.0000      -0.310340        -8.4448
 255   2.0000      -0.303549        -8.2600
 256   2.0000      -0.302582        -8.2337
 257   2.0000      -0.300881        -8.1874
 258   2.0000      -0.284979        -7.7547
 259   2.0000      -0.270055        -7.3486
 260   0.0000      -0.130973        -3.5639
 261   0.0000      -0.123617        -3.3638
 262   0.0000      -0.109749        -2.9864
 263   0.0000      -0.099568        -2.7094
 264   0.0000      -0.081444        -2.2162

MULLIKEN ATOMIC CHARGES
-----------------------
   0 C :   -0.093779
   1 C :    0.305017
   2 F :   -0.186909
   3 C :   -0.032591
   4 C :   -0.005685
   5 C :    0.098770
   6 C :    0.100052
   7 C :   -0.082094
   8 C :    0.041346
   9 C :    0.004268
  10 C :   -0.072746
  11 C :    0.143290
  12 O :   -0.129224
  13 C :   -0.121728
  14 C :    0.263386
  15 C :   -0.325890
  16 C :   -0.198922
  17 N :    0.179821
  18 C :   -0.174137
  19 N :    0.163099
  20 C :    0.020032
  21 C :   -0.056212
  22 C :    0.063309
  23 N :   -0.012503
  24 C :    0.030537
  25 C :    0.048384
  26 C :   -0.004278
  27 S :   -0.096605
  28 C :   -0.030450
  29 C :    0.001667
  30 N :   -0.012487
  31 C :    0.052413
  32 C :    0.040188
  33 C :   -0.107365
  34 S :    0.144164
  35 C :   -0.060705
  36 N :    0.027046
  37 C :   -0.172584
  38 S :    0.126100
  39 C :    0.022285
  40 C :   -0.013426
  41 C :    0.059539
  42 C :    0.063601
  43 N :   -0.021375
  44 C :    0.010232
  45 C :    0.004241
  46 C :   -0.025311
  47 S :   -0.063196
  48 C :    0.065813
  49 C :    0.028113
  50 N :   -0.013046
  51 C :    0.071881
  52 C :   -0.084535
  53 C :    0.036530
  54 C :   -0.127897
  55 C :    0.144499
  56 O :   -0.126480
  57 C :    0.001034
  58 C :   -0.073936
  59 C :    0.097995
  60 C :    0.101658
  61 C :   -0.095832
  62 C :    0.303886
  63 C :   -0.027741
  64 C :   -0.006213
  65 F :   -0.186836
  66 C :   -0.083804
  67 C :    0.043486
  68 C :    0.266142
  69 C :   -0.336239
  70 C :   -0.183068
  71 N :    0.173820
  72 C :   -0.175155
  73 N :    0.162372
  74 H :   -0.000689
  75 H :    0.007004
  76 H :   -0.006552
  77 H :   -0.003004
  78 H :   -0.008080
  79 H :    0.033029
  80 H :    0.020449
  81 H :    0.024508
  82 H :   -0.022462
  83 H :    0.019470
  84 H :    0.020060
  85 H :    0.037249
  86 H :   -0.007615
  87 H :   -0.000209
  88 H :    0.006045
  89 H :   -0.005929
  90 H :   -0.002304
Sum of atomic charges:   -0.0000000

LOEWDIN ATOMIC CHARGES
----------------------
   0 C :   -0.040955
   1 C :    0.094823
   2 F :   -0.061468
   3 C :   -0.033941
   4 C :    0.006116
   5 C :   -0.017369
   6 C :    0.004210
   7 C :    0.013737
   8 C :   -0.019555
   9 C :   -0.061207
  10 C :    0.038308
  11 C :    0.083386
  12 O :   -0.130821
  13 C :   -0.074264
  14 C :    0.064787
  15 C :   -0.127898
  16 C :   -0.021494
  17 N :   -0.034304
  18 C :   -0.019011
  19 N :   -0.040027
  20 C :    0.072864
  21 C :   -0.054368
  22 C :    0.086505
  23 N :   -0.069921
  24 C :    0.035985
  25 C :    0.002182
  26 C :   -0.136879
  27 S :    0.087510
  28 C :   -0.046451
  29 C :    0.051801
  30 N :   -0.066552
  31 C :    0.087483
  32 C :   -0.041963
  33 C :   -0.160810
  34 S :    0.441232
  35 C :   -0.179768
  36 N :   -0.070434
  37 C :   -0.113140
  38 S :    0.412012
  39 C :   -0.213443
  40 C :   -0.034960
  41 C :   -0.071249
  42 C :    0.087962
  43 N :   -0.073807
  44 C :    0.046106
  45 C :   -0.005317
  46 C :   -0.152277
  47 S :    0.111999
  48 C :    0.006397
  49 C :    0.046663
  50 N :   -0.072858
  51 C :    0.093234
  52 C :   -0.060863
  53 C :    0.076670
  54 C :   -0.074602
  55 C :    0.083106
  56 O :   -0.129564
  57 C :   -0.061598
  58 C :    0.038555
  59 C :   -0.017386
  60 C :    0.004095
  61 C :   -0.040850
  62 C :    0.094824
  63 C :   -0.033503
  64 C :    0.006185
  65 F :   -0.061200
  66 C :    0.013969
  67 C :   -0.020212
  68 C :    0.064993
  69 C :   -0.126995
  70 C :   -0.019705
  71 N :   -0.038501
  72 C :   -0.018404
  73 N :   -0.039722
  74 H :    0.043927
  75 H :    0.043284
  76 H :    0.036851
  77 H :    0.039853
  78 H :    0.041239
  79 H :    0.050846
  80 H :    0.026256
  81 H :    0.025231
  82 H :    0.012930
  83 H :    0.025211
  84 H :    0.027237
  85 H :    0.053598
  86 H :    0.041357
  87 H :    0.044043
  88 H :    0.043137
  89 H :    0.036964
  90 H :    0.039955

  Mayer bond orders larger than 0.100000
B(  0-C ,  1-C ) :   1.4410 B(  0-C ,  6-C ) :   1.2033 B(  0-C , 74-H ) :   1.0058
B(  1-C ,  2-F ) :   1.0920 B(  1-C ,  3-C ) :   1.2531 B(  3-C ,  4-C ) :   1.4632
B(  3-C , 75-H ) :   0.9938 B(  4-C ,  5-C ) :   1.2326 B(  4-C , 76-H ) :   0.9970
B(  5-C ,  6-C ) :   1.2498 B(  5-C , 10-C ) :   1.1981 B(  6-C ,  7-C ) :   1.2066
B(  7-C ,  8-C ) :   1.4597 B(  7-C , 77-H ) :   0.9945 B(  8-C ,  9-C ) :   1.2137
B(  8-C , 14-C ) :   1.0035 B(  9-C , 10-C ) :   1.4693 B(  9-C , 11-C ) :   0.9216
B( 10-C , 78-H ) :   1.0142 B( 11-C , 12-O ) :   2.2858 B( 11-C , 13-C ) :   0.9236
B( 13-C , 14-C ) :   1.0205 B( 13-C , 20-C ) :   1.6951 B( 14-C , 15-C ) :   1.6631
B( 15-C , 16-C ) :   1.1521 B( 15-C , 18-C ) :   1.1321 B( 16-C , 17-N ) :   3.0083
B( 18-C , 19-N ) :   2.9880 B( 20-C , 21-C ) :   1.0432 B( 20-C , 79-H ) :   0.9477
B( 21-C , 22-C ) :   0.9973 B( 21-C , 25-C ) :   1.5504 B( 22-C , 23-N ) :   1.7498
B( 22-C , 80-H ) :   0.9872 B( 23-N , 24-C ) :   1.2557 B( 24-C , 25-C ) :   1.0767
B( 24-C , 29-C ) :   1.5145 B( 25-C , 26-C ) :   1.0200 B( 26-C , 27-S ) :   1.6839
B( 26-C , 28-C ) :   1.0552 B( 27-S , 82-H ) :   0.1199 B( 28-C , 29-C ) :   1.0730
B( 28-C , 32-C ) :   1.5136 B( 29-C , 30-N ) :   1.2581 B( 30-N , 31-C ) :   1.7403
B( 31-C , 32-C ) :   1.0147 B( 31-C , 81-H ) :   0.9833 B( 32-C , 33-C ) :   1.1709
B( 33-C , 34-S ) :   1.0703 B( 33-C , 40-C ) :   1.4718 B( 34-S , 35-C ) :   1.1105
B( 35-C , 36-N ) :   1.4121 B( 35-C , 39-C ) :   1.2943 B( 36-N , 37-C ) :   1.7363
B( 36-N , 38-S ) :   0.1050 B( 37-C , 38-S ) :   1.0725 B( 37-C , 41-C ) :   1.0796
B( 38-S , 39-C ) :   1.0844 B( 39-C , 40-C ) :   1.2814 B( 40-C , 82-H ) :   0.9679
B( 41-C , 42-C ) :   1.0327 B( 41-C , 45-C ) :   1.5334 B( 42-C , 43-N ) :   1.7353
B( 42-C , 83-H ) :   0.9840 B( 43-N , 44-C ) :   1.2624 B( 44-C , 45-C ) :   1.0672
B( 44-C , 49-C ) :   1.5023 B( 45-C , 46-C ) :   1.0355 B( 46-C , 47-S ) :   1.7390
B( 46-C , 48-C ) :   1.0017 B( 48-C , 49-C ) :   1.0657 B( 48-C , 52-C ) :   1.5650
B( 49-C , 50-N ) :   1.2594 B( 50-N , 51-C ) :   1.7408 B( 51-C , 52-C ) :   1.0031
B( 51-C , 84-H ) :   0.9891 B( 52-C , 53-C ) :   1.0304 B( 53-C , 54-C ) :   1.7008
B( 53-C , 85-H ) :   0.9531 B( 54-C , 55-C ) :   0.9210 B( 54-C , 68-C ) :   1.0256
B( 55-C , 56-O ) :   2.2938 B( 55-C , 57-C ) :   0.9203 B( 57-C , 58-C ) :   1.4681
B( 57-C , 67-C ) :   1.2147 B( 58-C , 59-C ) :   1.1967 B( 58-C , 86-H ) :   1.0158
B( 59-C , 60-C ) :   1.2514 B( 59-C , 64-C ) :   1.2328 B( 60-C , 61-C ) :   1.2030
B( 60-C , 66-C ) :   1.2060 B( 61-C , 62-C ) :   1.4404 B( 61-C , 87-H ) :   1.0070
B( 62-C , 63-C ) :   1.2524 B( 62-C , 65-F ) :   1.0924 B( 63-C , 64-C ) :   1.4636
B( 63-C , 88-H ) :   0.9932 B( 64-C , 89-H ) :   0.9977 B( 66-C , 67-C ) :   1.4580
B( 66-C , 90-H ) :   0.9949 B( 67-C , 68-C ) :   1.0070 B( 68-C , 69-C ) :   1.6551
B( 69-C , 70-C ) :   1.1547 B( 69-C , 72-C ) :   1.1344 B( 70-C , 71-N ) :   3.0001
B( 72-C , 73-N ) :   2.9856

-----------------------------------------------------------------------------
         ABSORPTION SPECTRUM VIA TRANSITION ELECTRIC DIPOLE MOMENTS
-----------------------------------------------------------------------------
State   Energy  Wavelength   fosc         T2         TX        TY        TZ
        (cm-1)    (nm)                  (au**2)     (au)      (au)      (au)
-----------------------------------------------------------------------------
   0   12685.3    788.3   0.000692851   0.01798  -0.06428  -0.00880   0.11736
   1   14475.2    690.8   0.641831797  14.59728  -1.79330   0.90848   3.24900
   2   14897.6    671.2   0.000313074   0.00692  -0.04359  -0.01439   0.06936
   3   15581.6    641.8   0.075258540   1.59009  -0.62230   0.12719   1.08933
   4   16427.4    608.7   0.001261846   0.02529  -0.05497   0.04772   0.14138
   5   18358.5    544.7   0.000347741   0.00624  -0.00642  -0.01287  -0.07765
   6   19622.1    509.6   0.881691356  14.79264  -1.73725   1.13724   3.23748
   7   19762.7    506.0   0.086686040   1.44404  -0.68666  -0.04247   0.98526
   8   20723.1    482.6   0.023818938   0.37839  -0.08630  -0.18634  -0.57985
   9   22570.6    443.1   0.020788667   0.30322   0.17951   0.27320  -0.44312
  10   22935.4    436.0   0.148579715   2.13270   0.90006  -0.09617  -1.14601
  11   23786.3    420.4   0.115698115   1.60131   0.81291  -0.45663  -0.85555
  12   24133.2    414.4   0.001778134   0.02426   0.09882  -0.04924  -0.10985
  13   24901.5    401.6   0.069032287   0.91265  -0.68465   0.60468   0.27975
  14   24922.9    401.2   0.066415192   0.87729  -0.29880  -0.43884   0.77164
  15   25184.9    397.1   0.510354882   6.67126  -1.56899   0.28724   2.03151
  16   25206.5    396.7   0.132867688   1.73533   0.91871  -0.38575  -0.86168
  17   25441.2    393.1   0.039546777   0.51174  -0.29197  -0.14824   0.63602
  18   25472.4    392.6   0.101334045   1.30967   0.69778  -0.30540  -0.85410
  19   25600.7    390.6   0.331920082   4.26832  -0.83766  -0.35874   1.85417
  20   26063.3    383.7   0.015653510   0.19772   0.26778  -0.14168  -0.32549
  21   26193.4    381.8   0.027090162   0.34048  -0.01030  -0.55076   0.19247
  22   26341.7    379.6   0.004488338   0.05609   0.14031   0.18986  -0.01897
  23   26546.3    376.7   0.032209875   0.39945   0.50111  -0.16216  -0.34935
  24   26634.9    375.4   0.008044180   0.09943   0.04336  -0.06868   0.30468
  25   27237.9    367.1   0.107519152   1.29953  -0.82454   0.11761   0.77835
  26   27829.6    359.3   0.015650703   0.18514   0.22673   0.07117  -0.35871
  27   27847.9    359.1   0.001120788   0.01325  -0.08419   0.06737   0.04030
  28   27893.7    358.5   0.000381242   0.00450   0.01779   0.05560  -0.03305
  29   28531.9    350.5   0.098171285   1.13274   0.85711   0.15656  -0.61122
  30   28719.6    348.2   0.021424732   0.24559   0.29797  -0.06064  -0.39132
  31   28764.5    347.7   0.000342258   0.00392  -0.03209   0.04345   0.03162
  32   29207.9    342.4   0.029947577   0.33755   0.05633   0.51041  -0.27176
  33   29401.9    340.1   0.193513843   2.16677  -0.89565  -0.14887   1.15863
  34   29558.0    338.3   0.016690479   0.18590   0.27659  -0.07427  -0.32230
  35   29989.7    333.4   0.032936384   0.36156  -0.19147  -0.20097   0.53339
  36   30064.1    332.6   0.013843837   0.15159   0.35389  -0.11969  -0.10968
  37   30284.1    330.2   0.186185378   2.02398  -0.89043  -0.08364   1.10640
  38   30464.7    328.2   0.072680562   0.78541  -0.68455  -0.20991   0.52224
  39   30633.2    326.4   0.113745846   1.22241   0.86127  -0.09349  -0.68694
  40   31048.8    322.1   0.134533494   1.42646   1.01258   0.44374  -0.45194
  41   31175.2    320.8   0.023266280   0.24569  -0.31277   0.37164  -0.09876
  42   31735.4    315.1   0.047192768   0.48956   0.48730   0.49993   0.04656
  43   31932.6    313.2   0.016168478   0.16669  -0.12844  -0.28950  -0.25765
  44   32634.0    306.4   0.006233747   0.06289   0.10374   0.05452  -0.22170
  45   32653.0    306.3   0.079053121   0.79702   0.84015  -0.19704  -0.22880
  46   32814.5    304.7   0.235736724   2.36503  -0.74957  -0.17722   1.33108
  47   32836.8    304.5   0.132517227   1.32858  -0.66915   0.02899   0.93807
  48   33029.7    302.8   0.021816948   0.21745  -0.40247  -0.23422  -0.02463
  49   33083.4    302.3   0.050654688   0.50406  -0.58663  -0.33903   0.21210
  50   33225.2    301.0   0.019470619   0.19292  -0.10084   0.19326   0.38132
  51   33348.2    299.9   0.310680612   3.06702   1.22410   0.14642  -1.24385
  52   33563.0    297.9   0.081561500   0.80002   0.45011   0.02594  -0.77250
  53   33715.3    296.6   0.042942827   0.41931   0.47716   0.06634  -0.43270
  54   33796.5    295.9   0.043173236   0.42055   0.30568  -0.24196  -0.51823
  55   34070.4    293.5   0.011789245   0.11392  -0.23103  -0.12323   0.21296
  56   34251.7    292.0   0.012878971   0.12379   0.15459  -0.02265  -0.31524
  57   34340.3    291.2   0.164925636   1.58110  -1.07317  -0.10308   0.64714
  58   34496.0    289.9   0.008261739   0.07885  -0.02181   0.13452   0.24551
  59   34661.1    288.5   0.396295476   3.76402  -1.60469  -0.08035   1.08745
  60   34827.5    287.1   0.031316730   0.29603   0.15688   0.30009  -0.42587
  61   35049.1    285.3   0.001133392   0.01065  -0.09923  -0.00463   0.02787
  62   35170.0    284.3   0.115429430   1.08049   0.44277   0.37124  -0.86408
  63   35232.4    283.8   0.004441731   0.04150   0.13605  -0.02499  -0.14956
  64   35265.5    283.6   0.027409057   0.25587  -0.34212   0.06492   0.36689
  65   35321.7    283.1   0.039254122   0.36586   0.39943   0.18899  -0.41304
  66   35491.3    281.8   0.006364942   0.05904  -0.20859   0.05986   0.10930
  67   35722.0    279.9   0.026134378   0.24085  -0.36762  -0.11553   0.30391
  68   36003.6    277.7   0.000476309   0.00436   0.05569   0.00154  -0.03537
  69   36125.1    276.8   0.000218284   0.00199  -0.03675  -0.00504  -0.02476
  70   36320.0    275.3   0.009209769   0.08348   0.05819  -0.28051   0.03749
  71   36748.9    272.1   0.017740336   0.15893  -0.05424  -0.19407   0.34398
  72   36780.0    271.9   0.006161949   0.05515  -0.07989  -0.19951   0.09471
  73   36887.8    271.1   0.113844975   1.01603   0.88786   0.43318  -0.20025
  74   37127.2    269.3   0.064984895   0.57623   0.42919   0.42097  -0.46348
  75   37459.2    267.0   0.080200605   0.70485  -0.40338   0.12069   0.72634
  76   37504.9    266.6   0.142922197   1.25455  -0.81164   0.12959   0.76092
  77   37563.8    266.2   0.075123927   0.65839  -0.43035   0.35197   0.59102
  78   37733.8    265.0   0.013472855   0.11755   0.02705  -0.32184  -0.11502
  79   37980.3    263.3   0.093212447   0.80796  -0.34445  -0.07153   0.82717
  80   38150.8    262.1   0.051102683   0.44098   0.60025   0.28111   0.04071
  81   38198.2    261.8   0.043027813   0.37084  -0.08678  -0.38493   0.46383
  82   38254.7    261.4   0.098346855   0.84635  -0.85571  -0.32611  -0.08810
  83   38593.8    259.1   0.078885748   0.67291  -0.76392   0.21879  -0.20364
  84   38659.9    258.7   0.317432749   2.70313   1.18967   1.12967  -0.10798
  85   39144.7    255.5   0.006519989   0.05483   0.06831   0.18833   0.12124
  86   39328.1    254.3   0.054303960   0.45457   0.27222   0.51487   0.33967
  87   39381.1    253.9   0.002837331   0.02372   0.11900   0.08368   0.05054
  88   39449.4    253.5   0.032597873   0.27203   0.13005  -0.48989  -0.12300
  89   39532.4    253.0   0.012734519   0.10605  -0.03859   0.27075   0.17679
  90   39704.0    251.9   0.243347190   2.01775   0.92891   0.80878   0.70763
  91   39755.2    251.5   0.012103216   0.10023  -0.13195  -0.18129   0.22350
  92   39999.8    250.0   0.032583302   0.26817  -0.42537   0.04489  -0.29192
  93   40152.1    249.1   0.038994405   0.31972   0.23441   0.12211  -0.49986
  94   40240.4    248.5   0.032685557   0.26740  -0.14125  -0.31781  -0.38269

FINAL SINGLE POINT ENERGY     -4613.459605403939

DIPOLE MOMENT
-------------
                                X             Y             Z
Electronic contribution:      0.73957      -1.38142       3.63466
Nuclear contribution   :     -1.67860       3.34315      -4.44616
                        -----------------------------------------
Total Dipole Moment    :     -0.93903       1.96173      -0.81151
                        -----------------------------------------
Magnitude (a.u.)       :      2.32136
Magnitude (Debye)      :      5.90042

Rotational constants in cm-1:     0.003335     0.000165     0.000161
Rotational constants in MHz :    99.972135     4.949025     4.837631

                             ****ORCA TERMINATED NORMALLY****
TOTAL RUN TIME: 0 days 0 hours 9 minutes 34 seconds 228 msec
