                         Program Version 4.2.0 -  RELEASE  -
|  1> # ORCA input file
|  2> # SCF done       -195.278364459215          0.000613560061
|  3> ! CAM-B3LYP def2-SVP def2/J RIJCOSX Grid4 TightSCF
|  4> %maxcore 5000
|  5> %tddft
|  6>     Mode sTDDFT
|  7>     Ethresh 5.0
|  8>     maxcore 5000
|  9> end
| 10>
| 11> %pal
| 12>   nprocs 6
| 13>   end
| 14> * xyz 0 1
| 15>    C       12.34479        -5.37160        -6.29782
| 16>    C       12.14962        -5.71895        -7.60585
| 17>    F       12.78864        -6.78902        -8.10848
| 18>    C       11.30033        -4.99760        -8.45682
| 19>    C       10.64222        -3.90533        -7.96456
| 20>    C       10.80801        -3.50115        -6.62371
| 21>    C       11.67670        -4.24772        -5.77413
| 22>    C       11.86798        -3.85571        -4.42891
| 23>    C       11.21394        -2.75135        -3.95193
| 24>    C       10.33642        -2.01666        -4.80286
| 25>    C       10.13417        -2.37358        -6.10533
| 26>    C        9.74377        -0.89548        -4.05126
| 27>    O        8.98826        -0.04240        -4.44954
| 28>    C       10.22600        -1.07425        -2.64873
| 29>    C       11.25835        -2.09229        -2.65067
| 30>    C       12.23585        -2.24579        -1.70372
| 31>    C       12.40940        -1.37341        -0.60776
| 32>    N       12.63956        -0.64645         0.25000
| 33>    C       13.25025        -3.22353        -1.77848
| 34>    N       14.08036        -4.01529        -1.79194
| 35>    C        9.63399        -0.40610        -1.62898
| 36>    C        9.71246        -0.70782        -0.24180
| 37>    C        9.79557        -2.04169         0.37362
| 38>    N        9.80335        -2.02885         1.67325
| 39>    C        9.75777        -0.71485         2.03160
| 40>    C        9.65926         0.13766         0.83935
| 41>    C        9.67983         1.53087         1.21134
| 42>    S        9.69803         2.80620         0.17998
| 43>    C        9.74981         1.50664         2.65098
| 44>    C        9.81035         0.11347         3.12496
| 45>    N        9.93451         0.07203         4.48212
| 46>    C        9.97870         1.31102         4.87024
| 47>    C        9.87580         2.28592         3.78123
| 48>    C        9.88015         3.71304         3.91019
| 49>    O        9.42315         4.34865         2.79409
| 50>    C        9.47673         5.70463         2.71757
| 51>    C        9.11753         6.37177         1.57799
| 52>    F        8.67311         5.82709         0.45543
| 53>    S        9.28810         8.08257         1.68883
| 54>    C       10.30931         4.32855         5.03440
| 55>    S       10.41454         6.04187         5.30087
| 56>    C        9.86932         6.60849         3.73372
| 57>    C        9.82451         7.93579         3.34600
| 58>    C       10.20352         9.08495         4.08685
| 59>    C       10.33765         9.20207         5.54677
| 60>    N       10.83733        10.33096         5.94613
| 61>    C       11.09369        11.04792         4.81675
| 62>    C       10.59987        10.32287         3.62759
| 63>    C       10.95898        11.03034         2.43094
| 64>    S       10.42569        10.80029         0.89088
| 65>    C       11.87195        12.04002         2.90553
| 66>    C       11.83413        12.11446         4.38382
| 67>    N       12.69782        13.06407         4.82983
| 68>    C       13.31374        13.51122         3.77730
| 69>    C       12.90689        12.85970         2.52427
| 70>    C       13.52095        13.05276         1.25207
| 71>    C       13.64991        12.13738         0.26240
| 72>    C       13.94387        12.58238        -1.13447
| 73>    O       14.41339        13.64280        -1.46925
| 74>    C       13.47000        11.47653        -1.98619
| 75>    C       13.37882        11.42046        -3.34767
| 76>    C       12.86982        10.25234        -3.95695
| 77>    C       12.45209         9.15955        -3.14032
| 78>    C       11.94207         8.00043        -3.75746
| 79>    C       11.86494         7.94551        -5.12154
| 80>    C       12.27229         9.00784        -5.94113
| 81>    C       12.76549        10.14197        -5.35902
| 82>    F       11.38615         6.83911        -5.71455
| 83>    C       12.56065         9.24209        -1.73357
| 84>    C       13.06811        10.38047        -1.16656
| 85>    C       13.33349        10.71992         0.22401
| 86>    C       13.46035         9.82937         1.25676
| 87>    C       13.99697        10.16690         2.51566
| 88>    N       14.46620        10.37001         3.54357
| 89>    C       13.02348         8.49110         1.22094
| 90>    N       12.60821         7.42326         1.30479
| 91>    H       13.00870        -5.94819        -5.67288
| 92>    H       11.18559        -5.31962        -9.47964
| 93>    H        9.98333        -3.33353        -8.60042
| 94>    H       12.52415        -4.44301        -3.80612
| 95>    H        9.47077        -1.79833        -6.73359
| 96>    H        8.98961         0.42210        -1.90950
| 97>    H        9.79734        -2.97294        -0.16642
| 98>    H       10.05983         1.54562         5.91673
| 99>    H       10.66189         3.75978         5.87519
|100>    H       10.02569         8.46266         6.26217
|101>    H       14.06231        14.27952         3.85617
|102>    H       13.90048        14.04722         1.03877
|103>    H       13.69310        12.25704        -3.95359
|104>    H       11.61915         7.16333        -3.15848
|105>    H       12.18699         8.90699        -7.01151
|106>    H       13.08438        10.97317        -5.96964
|107>    H       12.22822         8.40902        -1.13421
|108> *
|109>
|110>                          ****END OF INPUT****

CARTESIAN COORDINATES (ANGSTROEM)
---------------------------------
  C     12.344790   -5.371600   -6.297820
  C     12.149620   -5.718950   -7.605850
  F     12.788640   -6.789020   -8.108480
  C     11.300330   -4.997600   -8.456820
  C     10.642220   -3.905330   -7.964560
  C     10.808010   -3.501150   -6.623710
  C     11.676700   -4.247720   -5.774130
  C     11.867980   -3.855710   -4.428910
  C     11.213940   -2.751350   -3.951930
  C     10.336420   -2.016660   -4.802860
  C     10.134170   -2.373580   -6.105330
  C      9.743770   -0.895480   -4.051260
  O      8.988260   -0.042400   -4.449540
  C     10.226000   -1.074250   -2.648730
  C     11.258350   -2.092290   -2.650670
  C     12.235850   -2.245790   -1.703720
  C     12.409400   -1.373410   -0.607760
  N     12.639560   -0.646450    0.250000
  C     13.250250   -3.223530   -1.778480
  N     14.080360   -4.015290   -1.791940
  C      9.633990   -0.406100   -1.628980
  C      9.712460   -0.707820   -0.241800
  C      9.795570   -2.041690    0.373620
  N      9.803350   -2.028850    1.673250
  C      9.757770   -0.714850    2.031600
  C      9.659260    0.137660    0.839350
  C      9.679830    1.530870    1.211340
  S      9.698030    2.806200    0.179980
  C      9.749810    1.506640    2.650980
  C      9.810350    0.113470    3.124960
  N      9.934510    0.072030    4.482120
  C      9.978700    1.311020    4.870240
  C      9.875800    2.285920    3.781230
  C      9.880150    3.713040    3.910190
  O      9.423150    4.348650    2.794090
  C      9.476730    5.704630    2.717570
  C      9.117530    6.371770    1.577990
  F      8.673110    5.827090    0.455430
  S      9.288100    8.082570    1.688830
  C     10.309310    4.328550    5.034400
  S     10.414540    6.041870    5.300870
  C      9.869320    6.608490    3.733720
  C      9.824510    7.935790    3.346000
  C     10.203520    9.084950    4.086850
  C     10.337650    9.202070    5.546770
  N     10.837330   10.330960    5.946130
  C     11.093690   11.047920    4.816750
  C     10.599870   10.322870    3.627590
  C     10.958980   11.030340    2.430940
  S     10.425690   10.800290    0.890880
  C     11.871950   12.040020    2.905530
  C     11.834130   12.114460    4.383820
  N     12.697820   13.064070    4.829830
  C     13.313740   13.511220    3.777300
  C     12.906890   12.859700    2.524270
  C     13.520950   13.052760    1.252070
  C     13.649910   12.137380    0.262400
  C     13.943870   12.582380   -1.134470
  O     14.413390   13.642800   -1.469250
  C     13.470000   11.476530   -1.986190
  C     13.378820   11.420460   -3.347670
  C     12.869820   10.252340   -3.956950
  C     12.452090    9.159550   -3.140320
  C     11.942070    8.000430   -3.757460
  C     11.864940    7.945510   -5.121540
  C     12.272290    9.007840   -5.941130
  C     12.765490   10.141970   -5.359020
  F     11.386150    6.839110   -5.714550
  C     12.560650    9.242090   -1.733570
  C     13.068110   10.380470   -1.166560
  C     13.333490   10.719920    0.224010
  C     13.460350    9.829370    1.256760
  C     13.996970   10.166900    2.515660
  N     14.466200   10.370010    3.543570
  C     13.023480    8.491100    1.220940
  N     12.608210    7.423260    1.304790
  H     13.008700   -5.948190   -5.672880
  H     11.185590   -5.319620   -9.479640
  H      9.983330   -3.333530   -8.600420
  H     12.524150   -4.443010   -3.806120
  H      9.470770   -1.798330   -6.733590
  H      8.989610    0.422100   -1.909500
  H      9.797340   -2.972940   -0.166420
  H     10.059830    1.545620    5.916730
  H     10.661890    3.759780    5.875190
  H     10.025690    8.462660    6.262170
  H     14.062310   14.279520    3.856170
  H     13.900480   14.047220    1.038770
  H     13.693100   12.257040   -3.953590
  H     11.619150    7.163330   -3.158480
  H     12.186990    8.906990   -7.011510
  H     13.084380   10.973170   -5.969640
  H     12.228220    8.409020   -1.134210

 Total Charge           Charge          ....    0
 Multiplicity           Mult            ....    1
 Number of Electrons    NEL             ....  536
 Basis Dimension        Dim             .... 1165

ORBITAL ENERGIES
----------------

  NO   OCC          E(Eh)            E(eV)
   0   2.0000     -88.976676     -2421.1785
   1   2.0000     -88.972558     -2421.0664
   2   2.0000     -88.917439     -2419.5665
   3   2.0000     -88.903607     -2419.1901
   4   2.0000     -24.807720      -675.0524
   5   2.0000     -24.790387      -674.5807
   6   2.0000     -24.788250      -674.5226
   7   2.0000     -19.285901      -524.7961
   8   2.0000     -19.221731      -523.0499
   9   2.0000     -19.220922      -523.0279
  10   2.0000     -14.428525      -392.6201
  11   2.0000     -14.423894      -392.4941
  12   2.0000     -14.423448      -392.4820
  13   2.0000     -14.423143      -392.4737
  14   2.0000     -14.422693      -392.4614
  15   2.0000     -14.421474      -392.4283
  16   2.0000     -14.421394      -392.4261
  17   2.0000     -14.419819      -392.3832
  18   2.0000     -10.387674      -282.6630
  19   2.0000     -10.374662      -282.3089
  20   2.0000     -10.372921      -282.2615
  21   2.0000     -10.372733      -282.2564
  22   2.0000     -10.371904      -282.2339
  23   2.0000     -10.370673      -282.2004
  24   2.0000     -10.357910      -281.8531
  25   2.0000     -10.356144      -281.8050
  26   2.0000     -10.354254      -281.7536
  27   2.0000     -10.349777      -281.6318
  28   2.0000     -10.349142      -281.6145
  29   2.0000     -10.347958      -281.5823
  30   2.0000     -10.347558      -281.5714
  31   2.0000     -10.346569      -281.5444
  32   2.0000     -10.343883      -281.4714
  33   2.0000     -10.343157      -281.4516
  34   2.0000     -10.341880      -281.4169
  35   2.0000     -10.341525      -281.4072
  36   2.0000     -10.339932      -281.3638
  37   2.0000     -10.339568      -281.3540
  38   2.0000     -10.336294      -281.2649
  39   2.0000     -10.334866      -281.2260
  40   2.0000     -10.330314      -281.1021
  41   2.0000     -10.327887      -281.0361
  42   2.0000     -10.325727      -280.9773
  43   2.0000     -10.325422      -280.9690
  44   2.0000     -10.325149      -280.9616
  45   2.0000     -10.323795      -280.9247
  46   2.0000     -10.323641      -280.9205
  47   2.0000     -10.323395      -280.9139
  48   2.0000     -10.322975      -280.9024
  49   2.0000     -10.317680      -280.7583
  50   2.0000     -10.316645      -280.7302
  51   2.0000     -10.315400      -280.6963
  52   2.0000     -10.313104      -280.6338
  53   2.0000     -10.311998      -280.6037
  54   2.0000     -10.311293      -280.5846
  55   2.0000     -10.311273      -280.5840
  56   2.0000     -10.310282      -280.5570
  57   2.0000     -10.310091      -280.5518
  58   2.0000     -10.307413      -280.4790
  59   2.0000     -10.307227      -280.4739
  60   2.0000     -10.307002      -280.4678
  61   2.0000     -10.306759      -280.4612
  62   2.0000     -10.306038      -280.4416
  63   2.0000     -10.305316      -280.4219
  64   2.0000     -10.304956      -280.4121
  65   2.0000     -10.304489      -280.3994
  66   2.0000     -10.303776      -280.3800
  67   2.0000     -10.302833      -280.3543
  68   2.0000     -10.302586      -280.3476
  69   2.0000     -10.300944      -280.3029
  70   2.0000     -10.299579      -280.2658
  71   2.0000     -10.297695      -280.2145
  72   2.0000     -10.296239      -280.1749
  73   2.0000     -10.295277      -280.1487
  74   2.0000     -10.294058      -280.1156
  75   2.0000     -10.291942      -280.0580
  76   2.0000      -8.071777      -219.6442
  77   2.0000      -8.067774      -219.5353
  78   2.0000      -8.012762      -218.0383
  79   2.0000      -7.999075      -217.6659
  80   2.0000      -6.041170      -164.3886
  81   2.0000      -6.038069      -164.3042
  82   2.0000      -6.037305      -164.2834
  83   2.0000      -6.033713      -164.1857
  84   2.0000      -6.033089      -164.1687
  85   2.0000      -6.027945      -164.0287
  86   2.0000      -5.981473      -162.7642
  87   2.0000      -5.981146      -162.7553
  88   2.0000      -5.972263      -162.5135
  89   2.0000      -5.968417      -162.4089
  90   2.0000      -5.967631      -162.3875
  91   2.0000      -5.957792      -162.1198
  92   2.0000      -1.324942       -36.0535
  93   2.0000      -1.305807       -35.5328
  94   2.0000      -1.303791       -35.4780
  95   2.0000      -1.199564       -32.6418
  96   2.0000      -1.137464       -30.9520
  97   2.0000      -1.136638       -30.9295
  98   2.0000      -1.096139       -29.8275
  99   2.0000      -1.091344       -29.6970
 100   2.0000      -1.075788       -29.2737
 101   2.0000      -1.072424       -29.1822
 102   2.0000      -1.026008       -27.9191
 103   2.0000      -1.025737       -27.9117
 104   2.0000      -1.011912       -27.5355
 105   2.0000      -1.006862       -27.3981
 106   2.0000      -1.006214       -27.3805
 107   2.0000      -1.000838       -27.2342
 108   2.0000      -1.000709       -27.2307
 109   2.0000      -0.982884       -26.7456
 110   2.0000      -0.982308       -26.7300
 111   2.0000      -0.976321       -26.5670
 112   2.0000      -0.969240       -26.3744
 113   2.0000      -0.951776       -25.8991
 114   2.0000      -0.937088       -25.4995
 115   2.0000      -0.936136       -25.4736
 116   2.0000      -0.919503       -25.0209
 117   2.0000      -0.918727       -24.9998
 118   2.0000      -0.916530       -24.9401
 119   2.0000      -0.901978       -24.5441
 120   2.0000      -0.896636       -24.3987
 121   2.0000      -0.896154       -24.3856
 122   2.0000      -0.890150       -24.2222
 123   2.0000      -0.889246       -24.1976
 124   2.0000      -0.869081       -23.6489
 125   2.0000      -0.863897       -23.5078
 126   2.0000      -0.855518       -23.2798
 127   2.0000      -0.849276       -23.1100
 128   2.0000      -0.844241       -22.9730
 129   2.0000      -0.838989       -22.8300
 130   2.0000      -0.838281       -22.8108
 131   2.0000      -0.828937       -22.5565
 132   2.0000      -0.807352       -21.9692
 133   2.0000      -0.803095       -21.8533
 134   2.0000      -0.796721       -21.6799
 135   2.0000      -0.783976       -21.3331
 136   2.0000      -0.775963       -21.1150
 137   2.0000      -0.769672       -20.9438
 138   2.0000      -0.766891       -20.8682
 139   2.0000      -0.759788       -20.6749
 140   2.0000      -0.748431       -20.3658
 141   2.0000      -0.737519       -20.0689
 142   2.0000      -0.730471       -19.8771
 143   2.0000      -0.729161       -19.8415
 144   2.0000      -0.718155       -19.5420
 145   2.0000      -0.715600       -19.4725
 146   2.0000      -0.713130       -19.4053
 147   2.0000      -0.709090       -19.2953
 148   2.0000      -0.707087       -19.2408
 149   2.0000      -0.702649       -19.1200
 150   2.0000      -0.701493       -19.0886
 151   2.0000      -0.687332       -18.7032
 152   2.0000      -0.685281       -18.6474
 153   2.0000      -0.666732       -18.1427
 154   2.0000      -0.663233       -18.0475
 155   2.0000      -0.661210       -17.9924
 156   2.0000      -0.657097       -17.8805
 157   2.0000      -0.651248       -17.7213
 158   2.0000      -0.641341       -17.4518
 159   2.0000      -0.639610       -17.4047
 160   2.0000      -0.639230       -17.3943
 161   2.0000      -0.634924       -17.2772
 162   2.0000      -0.634280       -17.2596
 163   2.0000      -0.632516       -17.2116
 164   2.0000      -0.615032       -16.7359
 165   2.0000      -0.608879       -16.5684
 166   2.0000      -0.608172       -16.5492
 167   2.0000      -0.604152       -16.4398
 168   2.0000      -0.599100       -16.3023
 169   2.0000      -0.591924       -16.1071
 170   2.0000      -0.587150       -15.9772
 171   2.0000      -0.585482       -15.9318
 172   2.0000      -0.584040       -15.8925
 173   2.0000      -0.578714       -15.7476
 174   2.0000      -0.573400       -15.6030
 175   2.0000      -0.571206       -15.5433
 176   2.0000      -0.570816       -15.5327
 177   2.0000      -0.564643       -15.3647
 178   2.0000      -0.563292       -15.3280
 179   2.0000      -0.562891       -15.3170
 180   2.0000      -0.561075       -15.2676
 181   2.0000      -0.558719       -15.2035
 182   2.0000      -0.557022       -15.1574
 183   2.0000      -0.554778       -15.0963
 184   2.0000      -0.553138       -15.0516
 185   2.0000      -0.549960       -14.9652
 186   2.0000      -0.547876       -14.9085
 187   2.0000      -0.542944       -14.7743
 188   2.0000      -0.541479       -14.7344
 189   2.0000      -0.540470       -14.7069
 190   2.0000      -0.539607       -14.6834
 191   2.0000      -0.534163       -14.5353
 192   2.0000      -0.530753       -14.4425
 193   2.0000      -0.529102       -14.3976
 194   2.0000      -0.527128       -14.3439
 195   2.0000      -0.521789       -14.1986
 196   2.0000      -0.521350       -14.1866
 197   2.0000      -0.518071       -14.0974
 198   2.0000      -0.515230       -14.0201
 199   2.0000      -0.511820       -13.9273
 200   2.0000      -0.508548       -13.8383
 201   2.0000      -0.507521       -13.8103
 202   2.0000      -0.504288       -13.7224
 203   2.0000      -0.499971       -13.6049
 204   2.0000      -0.499023       -13.5791
 205   2.0000      -0.497512       -13.5380
 206   2.0000      -0.494858       -13.4658
 207   2.0000      -0.493749       -13.4356
 208   2.0000      -0.492221       -13.3940
 209   2.0000      -0.489004       -13.3065
 210   2.0000      -0.487096       -13.2546
 211   2.0000      -0.485588       -13.2135
 212   2.0000      -0.484507       -13.1841
 213   2.0000      -0.481788       -13.1101
 214   2.0000      -0.475156       -12.9297
 215   2.0000      -0.474323       -12.9070
 216   2.0000      -0.469993       -12.7892
 217   2.0000      -0.469810       -12.7842
 218   2.0000      -0.462763       -12.5924
 219   2.0000      -0.461563       -12.5598
 220   2.0000      -0.458482       -12.4759
 221   2.0000      -0.456247       -12.4151
 222   2.0000      -0.456063       -12.4101
 223   2.0000      -0.449713       -12.2373
 224   2.0000      -0.449413       -12.2292
 225   2.0000      -0.445089       -12.1115
 226   2.0000      -0.443827       -12.0771
 227   2.0000      -0.443293       -12.0626
 228   2.0000      -0.442633       -12.0447
 229   2.0000      -0.436252       -11.8710
 230   2.0000      -0.435488       -11.8502
 231   2.0000      -0.434895       -11.8341
 232   2.0000      -0.434267       -11.8170
 233   2.0000      -0.431672       -11.7464
 234   2.0000      -0.430723       -11.7206
 235   2.0000      -0.428807       -11.6684
 236   2.0000      -0.427342       -11.6286
 237   2.0000      -0.426228       -11.5982
 238   2.0000      -0.424520       -11.5518
 239   2.0000      -0.420775       -11.4499
 240   2.0000      -0.420479       -11.4418
 241   2.0000      -0.407628       -11.0921
 242   2.0000      -0.405747       -11.0409
 243   2.0000      -0.386867       -10.5272
 244   2.0000      -0.385708       -10.4956
 245   2.0000      -0.383336       -10.4311
 246   2.0000      -0.372706       -10.1418
 247   2.0000      -0.371458       -10.1079
 248   2.0000      -0.366176        -9.9642
 249   2.0000      -0.364046        -9.9062
 250   2.0000      -0.362801        -9.8723
 251   2.0000      -0.359540        -9.7836
 252   2.0000      -0.356577        -9.7030
 253   2.0000      -0.341821        -9.3014
 254   2.0000      -0.341405        -9.2901
 255   2.0000      -0.333560        -9.0766
 256   2.0000      -0.327704        -8.9173
 257   2.0000      -0.324066        -8.8183
 258   2.0000      -0.317990        -8.6530
 259   2.0000      -0.316424        -8.6103
 260   2.0000      -0.311389        -8.4733
 261   2.0000      -0.307366        -8.3639
 262   2.0000      -0.300351        -8.1730
 263   2.0000      -0.299688        -8.1549
 264   2.0000      -0.297447        -8.0940
 265   2.0000      -0.285773        -7.7763
 266   2.0000      -0.280745        -7.6395
 267   2.0000      -0.261281        -7.1098
 268   0.0000      -0.123084        -3.3493
 269   0.0000      -0.121721        -3.3122
 270   0.0000      -0.106233        -2.8907
 271   0.0000      -0.099644        -2.7114
 272   0.0000      -0.074829        -2.0362

MULLIKEN ATOMIC CHARGES
-----------------------
   0 C :   -0.100866
   1 C :    0.305534
   2 F :   -0.187711
   3 C :   -0.028588
   4 C :   -0.009610
   5 C :    0.102614
   6 C :    0.104685
   7 C :   -0.088761
   8 C :    0.045949
   9 C :    0.001668
  10 C :   -0.078267
  11 C :    0.144246
  12 O :   -0.130578
  13 C :   -0.129817
  14 C :    0.272904
  15 C :   -0.333694
  16 C :   -0.188574
  17 N :    0.171490
  18 C :   -0.175033
  19 N :    0.162410
  20 C :    0.034231
  21 C :   -0.076951
  22 C :    0.071725
  23 N :   -0.017467
  24 C :    0.036838
  25 C :    0.056431
  26 C :   -0.015382
  27 S :   -0.077356
  28 C :    0.004827
  29 C :    0.003141
  30 N :   -0.021988
  31 C :    0.063393
  32 C :   -0.017601
  33 C :    0.208863
  34 O :   -0.230392
  35 C :    0.220577
  36 C :    0.074633
  37 F :   -0.138254
  38 S :    0.172603
  39 C :   -0.141807
  40 S :    0.104853
  41 C :   -0.017656
  42 C :   -0.167351
  43 C :   -0.006173
  44 C :    0.055833
  45 N :   -0.023583
  46 C :    0.034609
  47 C :   -0.041068
  48 C :   -0.023915
  49 S :   -0.102941
  50 C :   -0.012166
  51 C :    0.033722
  52 N :   -0.022119
  53 C :    0.084545
  54 C :   -0.034082
  55 C :    0.034053
  56 C :   -0.094076
  57 C :    0.136730
  58 O :   -0.133533
  59 C :    0.003589
  60 C :   -0.076691
  61 C :    0.100251
  62 C :    0.103422
  63 C :   -0.096201
  64 C :    0.304707
  65 C :   -0.032292
  66 C :   -0.007882
  67 F :   -0.187198
  68 C :   -0.089838
  69 C :    0.070677
  70 C :    0.241174
  71 C :   -0.316523
  72 C :   -0.202735
  73 N :    0.179613
  74 C :   -0.172856
  75 N :    0.151379
  76 H :    0.000858
  77 H :    0.006038
  78 H :   -0.006255
  79 H :   -0.002162
  80 H :   -0.007986
  81 H :    0.036376
  82 H :    0.017298
  83 H :    0.009896
  84 H :    0.045337
  85 H :    0.026458
  86 H :    0.014873
  87 H :    0.025348
  88 H :   -0.009549
  89 H :    0.001682
  90 H :    0.006631
  91 H :   -0.007765
  92 H :   -0.005425
Sum of atomic charges:   -0.0000000

LOEWDIN ATOMIC CHARGES
----------------------
   0 C :   -0.041307
   1 C :    0.094411
   2 F :   -0.062173
   3 C :   -0.034444
   4 C :    0.005614
   5 C :   -0.017518
   6 C :    0.003979
   7 C :    0.013221
   8 C :   -0.019611
   9 C :   -0.061040
  10 C :    0.037439
  11 C :    0.083096
  12 O :   -0.131836
  13 C :   -0.078177
  14 C :    0.065647
  15 C :   -0.128243
  16 C :   -0.019879
  17 N :   -0.037575
  18 C :   -0.018344
  19 N :   -0.041849
  20 C :    0.078263
  21 C :   -0.062611
  22 C :    0.090154
  23 N :   -0.074460
  24 C :    0.041614
  25 C :    0.005606
  26 C :   -0.149019
  27 S :    0.102041
  28 C :   -0.027948
  29 C :    0.049630
  30 N :   -0.074543
  31 C :    0.092905
  32 C :   -0.046228
  33 C :    0.035413
  34 O :   -0.034882
  35 C :   -0.033405
  36 C :   -0.086997
  37 F :   -0.032121
  38 S :    0.475483
  39 C :   -0.205251
  40 S :    0.395703
  41 C :   -0.185573
  42 C :   -0.198804
  43 C :   -0.044737
  44 C :    0.084198
  45 N :   -0.062474
  46 C :    0.050300
  47 C :   -0.050564
  48 C :   -0.146460
  49 S :    0.086751
  50 C :   -0.008365
  51 C :    0.039419
  52 N :   -0.065091
  53 C :    0.096353
  54 C :   -0.053000
  55 C :    0.057885
  56 C :   -0.059686
  57 C :    0.085375
  58 O :   -0.135132
  59 C :   -0.059042
  60 C :    0.036820
  61 C :   -0.017231
  62 C :    0.004728
  63 C :   -0.041275
  64 C :    0.094645
  65 C :   -0.035031
  66 C :    0.005321
  67 F :   -0.061514
  68 C :    0.011727
  69 C :   -0.014469
  70 C :    0.062875
  71 C :   -0.136479
  72 C :   -0.021292
  73 N :   -0.046089
  74 C :   -0.021161
  75 N :   -0.053403
  76 H :    0.044092
  77 H :    0.042954
  78 H :    0.036711
  79 H :    0.039881
  80 H :    0.041054
  81 H :    0.052948
  82 H :    0.026342
  83 H :    0.026196
  84 H :    0.036808
  85 H :    0.019961
  86 H :    0.029587
  87 H :    0.050044
  88 H :    0.040623
  89 H :    0.044568
  90 H :    0.042843
  91 H :    0.036337
  92 H :    0.038771

  Mayer bond orders larger than 0.100000
B(  0-C ,  1-C ) :   1.4404 B(  0-C ,  6-C ) :   1.2014 B(  0-C , 76-H ) :   1.0073
B(  1-C ,  2-F ) :   1.0915 B(  1-C ,  3-C ) :   1.2527 B(  3-C ,  4-C ) :   1.4623
B(  3-C , 77-H ) :   0.9927 B(  4-C ,  5-C ) :   1.2326 B(  4-C , 78-H ) :   0.9977
B(  5-C ,  6-C ) :   1.2524 B(  5-C , 10-C ) :   1.1946 B(  6-C ,  7-C ) :   1.2051
B(  7-C ,  8-C ) :   1.4560 B(  7-C , 79-H ) :   0.9947 B(  8-C ,  9-C ) :   1.2154
B(  8-C , 14-C ) :   1.0056 B(  9-C , 10-C ) :   1.4673 B(  9-C , 11-C ) :   0.9225
B( 10-C , 80-H ) :   1.0158 B( 11-C , 12-O ) :   2.2870 B( 11-C , 13-C ) :   0.9238
B( 13-C , 14-C ) :   1.0261 B( 13-C , 20-C ) :   1.6978 B( 14-C , 15-C ) :   1.6564
B( 15-C , 16-C ) :   1.1546 B( 15-C , 18-C ) :   1.1328 B( 16-C , 17-N ) :   3.0017
B( 18-C , 19-N ) :   2.9854 B( 20-C , 21-C ) :   1.0323 B( 20-C , 81-H ) :   0.9500
B( 21-C , 22-C ) :   1.0078 B( 21-C , 25-C ) :   1.5580 B( 22-C , 23-N ) :   1.7371
B( 22-C , 82-H ) :   0.9901 B( 23-N , 24-C ) :   1.2624 B( 24-C , 25-C ) :   1.0653
B( 24-C , 29-C ) :   1.5057 B( 25-C , 26-C ) :   1.0149 B( 26-C , 27-S ) :   1.7272
B( 26-C , 28-C ) :   1.0224 B( 28-C , 29-C ) :   1.0761 B( 28-C , 32-C ) :   1.5318
B( 29-C , 30-N ) :   1.2603 B( 30-N , 31-C ) :   1.7378 B( 31-C , 32-C ) :   1.0352
B( 31-C , 83-H ) :   0.9878 B( 32-C , 33-C ) :   1.0453 B( 33-C , 34-O ) :   1.1262
B( 33-C , 39-C ) :   1.6990 B( 34-O , 35-C ) :   1.0566 B( 35-C , 36-C ) :   1.4458
B( 35-C , 41-C ) :   1.2481 B( 36-C , 37-F ) :   1.1630 B( 36-C , 38-S ) :   1.1260
B( 38-S , 42-C ) :   1.1094 B( 39-C , 40-S ) :   1.0262 B( 39-C , 84-H ) :   0.9287
B( 40-S , 41-C ) :   0.9960 B( 41-C , 42-C ) :   1.5201 B( 42-C , 43-C ) :   1.1570
B( 43-C , 44-C ) :   1.0271 B( 43-C , 47-C ) :   1.5417 B( 44-C , 45-N ) :   1.7440
B( 44-C , 85-H ) :   0.9826 B( 45-N , 46-C ) :   1.2825 B( 46-C , 47-C ) :   1.0421
B( 46-C , 51-C ) :   1.5011 B( 47-C , 48-C ) :   1.0379 B( 48-C , 49-S ) :   1.6742
B( 48-C , 50-C ) :   1.0215 B( 50-C , 51-C ) :   1.0442 B( 50-C , 54-C ) :   1.5571
B( 51-C , 52-N ) :   1.2925 B( 52-N , 53-C ) :   1.7305 B( 53-C , 54-C ) :   1.0267
B( 53-C , 86-H ) :   0.9957 B( 54-C , 55-C ) :   1.0473 B( 55-C , 56-C ) :   1.7501
B( 55-C , 87-H ) :   0.9421 B( 56-C , 57-C ) :   0.9246 B( 56-C , 70-C ) :   1.0085
B( 57-C , 58-O ) :   2.2850 B( 57-C , 59-C ) :   0.9223 B( 59-C , 60-C ) :   1.4636
B( 59-C , 69-C ) :   1.2129 B( 60-C , 61-C ) :   1.1996 B( 60-C , 88-H ) :   1.0143
B( 61-C , 62-C ) :   1.2505 B( 61-C , 66-C ) :   1.2328 B( 62-C , 63-C ) :   1.2000
B( 62-C , 68-C ) :   1.2061 B( 63-C , 64-C ) :   1.4428 B( 63-C , 89-H ) :   1.0060
B( 64-C , 65-C ) :   1.2517 B( 64-C , 67-F ) :   1.0911 B( 65-C , 66-C ) :   1.4630
B( 65-C , 90-H ) :   0.9936 B( 66-C , 91-H ) :   0.9969 B( 68-C , 69-C ) :   1.4534
B( 68-C , 92-H ) :   0.9953 B( 69-C , 70-C ) :   1.0198 B( 70-C , 71-C ) :   1.6618
B( 71-C , 72-C ) :   1.1685 B( 71-C , 74-C ) :   1.1306 B( 72-C , 73-N ) :   2.9918
B( 74-C , 75-N ) :   2.9583

-----------------------------------------------------------------------------
         ABSORPTION SPECTRUM VIA TRANSITION ELECTRIC DIPOLE MOMENTS
-----------------------------------------------------------------------------
State   Energy  Wavelength   fosc         T2         TX        TY        TZ
        (cm-1)    (nm)                  (au**2)     (au)      (au)      (au)
-----------------------------------------------------------------------------
   0   13182.3    758.6   0.122701800   3.06434  -0.11400  -1.60685  -0.68510
   1   13829.9    723.1   0.048173893   1.14675  -0.24698  -1.04193  -0.01163
   2   14347.8    697.0   0.070653573   1.62116   0.10343  -0.98079  -0.80529
   3   14766.3    677.2   0.006359307   0.14178  -0.11454   0.26950   0.23671
   4   16292.4    613.8   0.000851002   0.01720   0.02906  -0.12717  -0.01337
   5   16752.0    596.9   0.006975242   0.13708  -0.35427   0.00719  -0.10734
   6   18028.4    554.7   0.005149517   0.09403   0.16926   0.25536  -0.01332
   7   18192.2    549.7   0.112639627   2.03837   0.38455   1.37355  -0.06208
   8   19650.6    508.9   0.049677738   0.83227   0.05513  -0.62446  -0.66278
   9   19825.3    504.4   0.040202199   0.66758   0.14680   0.60712   0.52672
  10   20638.6    484.5   0.029816001   0.47560   0.37684  -0.46950  -0.33640
  11   20837.8    479.9   0.139838163   2.20927  -0.67723  -1.31701   0.12696
  12   21351.9    468.3   0.125251818   1.93118  -0.76565  -1.15231   0.13097
  13   22170.7    451.0   0.036928313   0.54835   0.06531   0.66414   0.32095
  14   23018.0    434.4   0.106264402   1.51983  -0.39228   0.89217   0.75498
  15   23100.9    432.9   0.011916052   0.16982   0.12995  -0.35682   0.16003
  16   24138.4    414.3   0.001775557   0.02422   0.06524  -0.03222  -0.13756
  17   24239.4    412.6   0.043937462   0.59674  -0.40445  -0.05594   0.65577
  18   24766.1    403.8   0.117816961   1.56612  -0.73173   0.66056   0.77094
  19   24837.6    402.6   0.220506237   2.92272   0.39091  -1.33469  -0.99424
  20   25324.4    394.9   0.054795064   0.71232   0.00273  -0.81610   0.21517
  21   25524.0    391.8   0.021211212   0.27358   0.02930  -0.28943   0.43469
  22   25586.6    390.8   0.025521486   0.32837  -0.06412  -0.35423  -0.44585
  23   25794.8    387.7   0.021753574   0.27763   0.13625  -0.08984  -0.50100
  24   25823.2    387.2   0.079069278   1.00803   0.68349   0.18721  -0.71121
  25   26136.5    382.6   0.044534403   0.56095   0.31194  -0.31736  -0.60243
  26   26217.5    381.4   0.005028592   0.06314  -0.01058   0.03543  -0.24855
  27   26492.5    377.5   0.036118028   0.44883  -0.31569  -0.21610   0.54997
  28   26611.2    375.8   0.007195241   0.08901   0.14753   0.19294  -0.17327
  29   26737.7    374.0   0.005773802   0.07109   0.24557  -0.08667   0.05724
  30   27195.1    367.7   0.106545092   1.28979   0.49470  -0.19987  -1.00255
  31   27661.9    361.5   0.060989409   0.72585   0.23902  -0.16524  -0.80089
  32   27685.7    361.2   0.056460907   0.67138  -0.15166  -0.60912  -0.52664
  33   27878.2    358.7   0.086791433   1.02492   0.39947  -0.50367  -0.78208
  34   28043.7    356.6   0.010566254   0.12404   0.19662  -0.13086  -0.26126
  35   28137.8    355.4   0.107772453   1.26094   0.07001   0.94908   0.59606
  36   28728.2    348.1   0.153947741   1.76417   0.27399  -0.72046  -1.08168
  37   28879.4    346.3   0.170833126   1.94742  -0.08168  -0.66290  -1.22528
  38   29041.4    344.3   0.024745010   0.28051  -0.16342   0.06424   0.49967
  39   29164.6    342.9   0.019040877   0.21493   0.26080   0.34484  -0.16735
  40   29223.6    342.2   0.028403616   0.31997   0.16728  -0.31483   0.43917
  41   29772.6    335.9   0.030401142   0.33616   0.08649   0.49047   0.29685
  42   30438.2    328.5   0.180838869   1.95591  -0.14687   0.75367   1.16889
  43   30981.6    322.8   0.020722675   0.22020   0.31558   0.06987   0.34018
  44   31162.5    320.9   0.259354983   2.73992   0.37064   0.46837   1.54376
  45   31492.8    317.5   0.010571478   0.11051  -0.07707   0.31960   0.04926
  46   31668.5    315.8   0.000716021   0.00744   0.01945  -0.01877   0.08193
  47   31862.6    313.8   0.037650888   0.38902   0.05821   0.46809  -0.40807
  48   31925.2    313.2   0.000946387   0.00976   0.05428  -0.03139   0.07634
  49   32200.0    310.6   0.045979217   0.47009  -0.19086  -0.44930   0.48145
  50   32303.9    309.6   0.007857703   0.08008   0.19529  -0.07567   0.19030
  51   32498.8    307.7   0.131074901   1.32779  -0.22016  -0.75873  -0.83884
  52   32542.7    307.3   0.239041532   2.41822   0.30273   0.96564   1.18073
  53   32747.5    305.4   0.072643452   0.73029  -0.07884   0.04065  -0.84995
  54   32926.6    303.7   0.027810983   0.27806  -0.26172   0.18060  -0.42065
  55   32981.6    303.2   0.030524959   0.30469   0.00895  -0.26130  -0.48614
  56   33204.3    301.2   0.019130573   0.18967   0.20795  -0.18215  -0.33653
  57   33267.0    300.6   0.074256467   0.73485  -0.03109   0.39068   0.76240
  58   33304.7    300.3   0.014396528   0.14231  -0.06249   0.03742   0.37014
  59   33361.3    299.7   0.087633121   0.86477  -0.07874   0.57782   0.72436
  60   33476.4    298.7   0.002170906   0.02135   0.07852   0.10544   0.06377
  61   33587.0    297.7   0.023994362   0.23519   0.05974   0.32255  -0.35718
  62   33820.8    295.7   0.011523137   0.11217  -0.05672   0.11892   0.30791
  63   33924.4    294.8   0.026504811   0.25721  -0.00717  -0.14444  -0.48610
  64   34023.4    293.9   0.187346524   1.81277  -0.09100   0.82935   1.05672
  65   34217.6    292.2   0.000280291   0.00270  -0.03024   0.00366   0.04206
  66   34299.1    291.6   0.004533063   0.04351  -0.00589   0.16898   0.12215
  67   34585.5    289.1   0.063753673   0.60686   0.45508   0.57117   0.27115
  68   34629.6    288.8   0.027616263   0.26254  -0.25435   0.11137   0.43063
  69   34795.8    287.4   0.046870021   0.44345   0.10404   0.53599   0.38123
  70   34869.5    286.8   0.027499642   0.25963  -0.08293  -0.30654  -0.39848
  71   34954.8    286.1   0.319632965   3.01037   0.28765   0.46904   1.64549
  72   35155.9    284.4   0.032633662   0.30559  -0.11188  -0.28390  -0.46095
  73   35213.4    284.0   0.263070448   2.45946   0.25482   0.24645  -1.52768
  74   35321.0    283.1   0.002088061   0.01946   0.04715  -0.09195  -0.09372
  75   35737.3    279.8   0.015262955   0.14060  -0.07857  -0.02648   0.36569
  76   35836.5    279.0   0.075129841   0.69018  -0.21200  -0.68746  -0.41550
  77   35982.6    277.9   0.008946983   0.08186  -0.12955   0.07193   0.24475
  78   36372.2    274.9   0.100467891   0.90935   0.11581   0.07647   0.94345
  79   36396.1    274.8   0.048473907   0.43846   0.16448   0.01732   0.64117
  80   36489.1    274.1   0.135045023   1.21840   0.15905  -0.11950   1.08574
  81   36568.2    273.5   0.010971796   0.09878   0.14607  -0.11255  -0.25450
  82   36633.0    273.0   0.329219434   2.95862  -0.29153   0.59623  -1.58686
  83   36829.2    271.5   0.051593154   0.46119   0.43276   0.24324  -0.46340
  84   37200.3    268.8   0.027862485   0.24657   0.28148  -0.14177   0.38373
  85   37391.9    267.4   0.096475262   0.84940  -0.20383  -0.08756  -0.89453
  86   37543.6    266.4   0.465460443   4.08153  -0.33850  -1.20676  -1.58451
  87   37912.9    263.8   0.010989006   0.09542  -0.08779   0.26234  -0.13746
  88   38302.7    261.1   0.019810130   0.17027   0.06037   0.09969   0.39584
  89   38554.5    259.4   0.011670210   0.09965  -0.02073   0.04446  -0.31184
  90   38650.3    258.7   0.257530576   2.19357  -0.66016   0.66369  -1.14772
  91   38833.2    257.5   0.199670416   1.69273   0.54851   1.14702   0.27604
  92   38963.0    256.7   0.134912723   1.13992  -0.24127  -0.64976   0.81211
  93   39243.5    254.8   0.201135221   1.68731  -0.08794  -0.38622   1.23710
  94   39287.7    254.5   0.003441638   0.02884  -0.06676  -0.15170   0.03699
  95   39303.5    254.4   0.003790379   0.03175   0.03344  -0.15583  -0.07967
  96   39352.4    254.1   0.108519759   0.90785  -0.41469  -0.67162  -0.53367
  97   39411.7    253.7   0.009272024   0.07745   0.11072   0.25452   0.02033
  98   39709.9    251.8   0.012319957   0.10214  -0.02844   0.31638   0.03509
  99   39817.0    251.1   0.046456104   0.38411  -0.30673  -0.32917  -0.42622
 100   39934.6    250.4   0.007402540   0.06102  -0.00727  -0.13252  -0.20835
 101   40029.2    249.8   0.048022763   0.39495   0.04778  -0.22863   0.58344
 102   40050.6    249.7   0.071285599   0.58596   0.11902   0.48601   0.57930
 103   40113.5    249.3   0.064212137   0.52699  -0.05986  -0.00198  -0.72347
 104   40181.5    248.9   0.014003131   0.11473  -0.10981  -0.27728  -0.16059

FINAL SINGLE POINT ENERGY     -4771.651028541558

DIPOLE MOMENT
-------------
                                X             Y             Z
Electronic contribution:     -7.14055       5.92728      15.20258
Nuclear contribution   :      5.60078      -5.54502     -17.74920
                        -----------------------------------------
Total Dipole Moment    :     -1.53977       0.38226      -2.54662
                        -----------------------------------------
Magnitude (a.u.)       :      3.00038
Magnitude (Debye)      :      7.62637

Rotational constants in cm-1:     0.001266     0.000379     0.000311
Rotational constants in MHz :    37.956688    11.359026     9.311593

                             ****ORCA TERMINATED NORMALLY****
TOTAL RUN TIME: 0 days 0 hours 11 minutes 16 seconds 841 msec
