                         Program Version 4.2.0 -  RELEASE  -
|  1> # ORCA input file
|  2> # SCF done       -182.090888266802          0.000509087583
|  3> ! CAM-B3LYP def2-SVP def2/J RIJCOSX Grid4 TightSCF
|  4> %maxcore 5000
|  5> %tddft
|  6>     Mode sTDDFT
|  7>     Ethresh 5.0
|  8>     maxcore 5000
|  9> end
| 10>
| 11> %pal
| 12>   nprocs 6
| 13>   end
| 14> * xyz 0 1
| 15>    C       19.03855         5.49828         4.17524
| 16>    C       20.12278         6.30195         3.94104
| 17>    F       20.38087         7.32040         4.77923
| 18>    C       20.98129         6.10409         2.85455
| 19>    C       20.72905         5.06981         1.99235
| 20>    C       19.63010         4.21389         2.18845
| 21>    C       18.76946         4.42947         3.30237
| 22>    C       17.66645         3.56799         3.53140
| 23>    C       17.44719         2.52196         2.67878
| 24>    C       18.29561         2.33043         1.54681
| 25>    C       19.36031         3.14122         1.30094
| 26>    C       17.79320         1.17368         0.78180
| 27>    O       18.25226         0.67371        -0.21551
| 28>    C       16.55314         0.72812         1.50903
| 29>    C       16.43134         1.48192         2.65666
| 30>    C       15.50413         1.21932         3.77338
| 31>    C       15.15878        -0.17301         3.93012
| 32>    N       14.90259        -1.27023         4.11856
| 33>    C       15.98161         1.64159         5.07122
| 34>    N       16.31199         1.93661         6.12429
| 35>    C       15.77502        -0.29445         0.93412
| 36>    C       14.43619        -0.55388         1.07979
| 37>    C       13.76142        -1.60546         0.33821
| 38>    N       12.46385        -1.65588         0.49020
| 39>    C       12.14001        -0.66199         1.34083
| 40>    C       13.35676         0.09050         1.76746
| 41>    C       12.97803         1.09179         2.62612
| 42>    S       13.81374         2.21167         3.61476
| 43>    C       11.52789         1.01759         2.71523
| 44>    C       11.03629        -0.09322         1.95059
| 45>    N        9.66688        -0.16353         2.05338
| 46>    C        9.31047         0.82177         2.82077
| 47>    C       10.44033         1.63941         3.27612
| 48>    C       10.53025         2.83372         4.04871
| 49>    C        9.48943         3.39107         4.81162
| 50>    N        9.62979         4.54542         5.41122
| 51>    C       10.80676         5.19548         5.32763
| 52>    C       11.88215         4.58023         4.66295
| 53>    N       11.73066         3.44485         4.03095
| 54>    C       10.84188         6.47598         5.95221
| 55>    C       11.78782         7.59579         5.89886
| 56>    N       11.39229         8.63361         6.57245
| 57>    C       10.18334         8.29047         7.13061
| 58>    C        9.83743         6.94828         6.76016
| 59>    C        8.56655         6.56864         7.35773
| 60>    S        8.04362         4.94417         7.22569
| 61>    C        8.11142         7.68134         8.01970
| 62>    C        9.12570         8.76823         7.88437
| 63>    N        8.71897         9.88612         8.51731
| 64>    C        7.55099         9.61318         9.03815
| 65>    C        7.05702         8.26944         8.79231
| 66>    C        5.79912         7.86874         9.16441
| 67>    C        5.14786         6.64462         8.92148
| 68>    C        3.64371         6.63272         8.87103
| 69>    O        2.91521         7.56086         9.12196
| 70>    C        3.28197         5.26563         8.45054
| 71>    C        2.05892         4.72761         8.19332
| 72>    C        1.97448         3.37616         7.77160
| 73>    C        3.17078         2.62077         7.60958
| 74>    C        3.08097         1.28439         7.18228
| 75>    C        1.84919         0.73687         6.93886
| 76>    C        0.66305         1.46135         7.09602
| 77>    C        0.73479         2.76621         7.50700
| 78>    F        1.76534        -0.54174         6.53336
| 79>    C        4.43099         3.20887         7.88734
| 80>    C        4.48248         4.50441         8.32069
| 81>    C        5.59766         5.36388         8.68275
| 82>    C        6.97574         4.87629         8.87653
| 83>    C        7.71662         5.59481         9.88475
| 84>    N        8.31818         6.10393        10.71174
| 85>    C        7.07820         3.48244         9.24663
| 86>    N        7.21811         2.39270         9.55975
| 87>    H       18.40303         5.67854         5.02816
| 88>    H       21.82125         6.76652         2.71948
| 89>    H       21.37796         4.89741         1.14699
| 90>    H       17.02832         3.76538         4.37851
| 91>    H       19.99712         2.97329         0.44544
| 92>    H       16.30158        -0.87543         0.18478
| 93>    H       14.26097        -2.31326        -0.30138
| 94>    H        8.27548         0.99379         3.05246
| 95>    H        8.54084         2.88711         4.92732
| 96>    H       12.86683         5.02454         4.65026
| 97>    H       12.71395         7.61199         5.35437
| 98>    H        7.02088        10.36064         9.60384
| 99>    H        5.15897         8.62669         9.60237
|100>    H        1.16079         5.31588         8.30762
|101>    H        3.97338         0.69132         7.05673
|102>    H       -0.27957         0.97939         6.89149
|103>    H       -0.16738         3.34500         7.63539
|104>    H        5.31871         2.61260         7.74537
|105> *
|106>
|107>                          ****END OF INPUT****

CARTESIAN COORDINATES (ANGSTROEM)
---------------------------------
  C     19.038550    5.498280    4.175240
  C     20.122780    6.301950    3.941040
  F     20.380870    7.320400    4.779230
  C     20.981290    6.104090    2.854550
  C     20.729050    5.069810    1.992350
  C     19.630100    4.213890    2.188450
  C     18.769460    4.429470    3.302370
  C     17.666450    3.567990    3.531400
  C     17.447190    2.521960    2.678780
  C     18.295610    2.330430    1.546810
  C     19.360310    3.141220    1.300940
  C     17.793200    1.173680    0.781800
  O     18.252260    0.673710   -0.215510
  C     16.553140    0.728120    1.509030
  C     16.431340    1.481920    2.656660
  C     15.504130    1.219320    3.773380
  C     15.158780   -0.173010    3.930120
  N     14.902590   -1.270230    4.118560
  C     15.981610    1.641590    5.071220
  N     16.311990    1.936610    6.124290
  C     15.775020   -0.294450    0.934120
  C     14.436190   -0.553880    1.079790
  C     13.761420   -1.605460    0.338210
  N     12.463850   -1.655880    0.490200
  C     12.140010   -0.661990    1.340830
  C     13.356760    0.090500    1.767460
  C     12.978030    1.091790    2.626120
  S     13.813740    2.211670    3.614760
  C     11.527890    1.017590    2.715230
  C     11.036290   -0.093220    1.950590
  N      9.666880   -0.163530    2.053380
  C      9.310470    0.821770    2.820770
  C     10.440330    1.639410    3.276120
  C     10.530250    2.833720    4.048710
  C      9.489430    3.391070    4.811620
  N      9.629790    4.545420    5.411220
  C     10.806760    5.195480    5.327630
  C     11.882150    4.580230    4.662950
  N     11.730660    3.444850    4.030950
  C     10.841880    6.475980    5.952210
  C     11.787820    7.595790    5.898860
  N     11.392290    8.633610    6.572450
  C     10.183340    8.290470    7.130610
  C      9.837430    6.948280    6.760160
  C      8.566550    6.568640    7.357730
  S      8.043620    4.944170    7.225690
  C      8.111420    7.681340    8.019700
  C      9.125700    8.768230    7.884370
  N      8.718970    9.886120    8.517310
  C      7.550990    9.613180    9.038150
  C      7.057020    8.269440    8.792310
  C      5.799120    7.868740    9.164410
  C      5.147860    6.644620    8.921480
  C      3.643710    6.632720    8.871030
  O      2.915210    7.560860    9.121960
  C      3.281970    5.265630    8.450540
  C      2.058920    4.727610    8.193320
  C      1.974480    3.376160    7.771600
  C      3.170780    2.620770    7.609580
  C      3.080970    1.284390    7.182280
  C      1.849190    0.736870    6.938860
  C      0.663050    1.461350    7.096020
  C      0.734790    2.766210    7.507000
  F      1.765340   -0.541740    6.533360
  C      4.430990    3.208870    7.887340
  C      4.482480    4.504410    8.320690
  C      5.597660    5.363880    8.682750
  C      6.975740    4.876290    8.876530
  C      7.716620    5.594810    9.884750
  N      8.318180    6.103930   10.711740
  C      7.078200    3.482440    9.246630
  N      7.218110    2.392700    9.559750
  H     18.403030    5.678540    5.028160
  H     21.821250    6.766520    2.719480
  H     21.377960    4.897410    1.146990
  H     17.028320    3.765380    4.378510
  H     19.997120    2.973290    0.445440
  H     16.301580   -0.875430    0.184780
  H     14.260970   -2.313260   -0.301380
  H      8.275480    0.993790    3.052460
  H      8.540840    2.887110    4.927320
  H     12.866830    5.024540    4.650260
  H     12.713950    7.611990    5.354370
  H      7.020880   10.360640    9.603840
  H      5.158970    8.626690    9.602370
  H      1.160790    5.315880    8.307620
  H      3.973380    0.691320    7.056730
  H     -0.279570    0.979390    6.891490
  H     -0.167380    3.345000    7.635390
  H      5.318710    2.612600    7.745370

 Total Charge           Charge          ....    0
 Multiplicity           Mult            ....    1
 Number of Electrons    NEL             ....  490
 Basis Dimension        Dim             .... 1106

ORBITAL ENERGIES
----------------

  NO   OCC          E(Eh)            E(eV)
   0   2.0000     -88.994324     -2421.6587
   1   2.0000     -88.994092     -2421.6524
   2   2.0000     -24.788534      -674.5303
   3   2.0000     -24.788496      -674.5293
   4   2.0000     -19.231868      -523.3257
   5   2.0000     -19.231694      -523.3210
   6   2.0000     -14.469891      -393.7457
   7   2.0000     -14.469407      -393.7326
   8   2.0000     -14.437812      -392.8728
   9   2.0000     -14.437570      -392.8662
  10   2.0000     -14.430774      -392.6813
  11   2.0000     -14.430753      -392.6807
  12   2.0000     -14.429962      -392.6592
  13   2.0000     -14.429755      -392.6536
  14   2.0000     -14.411765      -392.1641
  15   2.0000     -14.411605      -392.1597
  16   2.0000     -10.402069      -283.0547
  17   2.0000     -10.401424      -283.0371
  18   2.0000     -10.376734      -282.3653
  19   2.0000     -10.376709      -282.3646
  20   2.0000     -10.372321      -282.2452
  21   2.0000     -10.372284      -282.2442
  22   2.0000     -10.360379      -281.9202
  23   2.0000     -10.360181      -281.9149
  24   2.0000     -10.355081      -281.7761
  25   2.0000     -10.354936      -281.7721
  26   2.0000     -10.351597      -281.6813
  27   2.0000     -10.351586      -281.6810
  28   2.0000     -10.351582      -281.6809
  29   2.0000     -10.351547      -281.6799
  30   2.0000     -10.344956      -281.5006
  31   2.0000     -10.344854      -281.4978
  32   2.0000     -10.341012      -281.3933
  33   2.0000     -10.340917      -281.3907
  34   2.0000     -10.340449      -281.3779
  35   2.0000     -10.340154      -281.3699
  36   2.0000     -10.333222      -281.1813
  37   2.0000     -10.332955      -281.1740
  38   2.0000     -10.319570      -280.8098
  39   2.0000     -10.319245      -280.8009
  40   2.0000     -10.317892      -280.7641
  41   2.0000     -10.317760      -280.7605
  42   2.0000     -10.312159      -280.6081
  43   2.0000     -10.312086      -280.6061
  44   2.0000     -10.311770      -280.5975
  45   2.0000     -10.311639      -280.5940
  46   2.0000     -10.310530      -280.5638
  47   2.0000     -10.310415      -280.5606
  48   2.0000     -10.310318      -280.5580
  49   2.0000     -10.310264      -280.5565
  50   2.0000     -10.309192      -280.5274
  51   2.0000     -10.309157      -280.5264
  52   2.0000     -10.306164      -280.4450
  53   2.0000     -10.306141      -280.4444
  54   2.0000     -10.302755      -280.3522
  55   2.0000     -10.302719      -280.3512
  56   2.0000     -10.302337      -280.3408
  57   2.0000     -10.302300      -280.3398
  58   2.0000     -10.302077      -280.3338
  59   2.0000     -10.301816      -280.3267
  60   2.0000     -10.301293      -280.3124
  61   2.0000     -10.301100      -280.3072
  62   2.0000     -10.300490      -280.2906
  63   2.0000     -10.300450      -280.2895
  64   2.0000     -10.297091      -280.1981
  65   2.0000     -10.296877      -280.1923
  66   2.0000     -10.295617      -280.1580
  67   2.0000     -10.295582      -280.1570
  68   2.0000     -10.292309      -280.0680
  69   2.0000     -10.292271      -280.0669
  70   2.0000     -10.292219      -280.0655
  71   2.0000     -10.292150      -280.0636
  72   2.0000      -8.085292      -220.0120
  73   2.0000      -8.085092      -220.0065
  74   2.0000      -6.056893      -164.8164
  75   2.0000      -6.056711      -164.8115
  76   2.0000      -6.051066      -164.6579
  77   2.0000      -6.050841      -164.6518
  78   2.0000      -6.044611      -164.4822
  79   2.0000      -6.044437      -164.4775
  80   2.0000      -1.303917       -35.4814
  81   2.0000      -1.303865       -35.4800
  82   2.0000      -1.145384       -31.1675
  83   2.0000      -1.145315       -31.1656
  84   2.0000      -1.121843       -30.5269
  85   2.0000      -1.090954       -29.6864
  86   2.0000      -1.090621       -29.6773
  87   2.0000      -1.064244       -28.9596
  88   2.0000      -1.061201       -28.8768
  89   2.0000      -1.045680       -28.4544
  90   2.0000      -1.044956       -28.4347
  91   2.0000      -1.042478       -28.3673
  92   2.0000      -1.014281       -27.6000
  93   2.0000      -1.014022       -27.5929
  94   2.0000      -1.008878       -27.4530
  95   2.0000      -1.008874       -27.4529
  96   2.0000      -0.986273       -26.8379
  97   2.0000      -0.985990       -26.8302
  98   2.0000      -0.976751       -26.5788
  99   2.0000      -0.976151       -26.5624
 100   2.0000      -0.946530       -25.7564
 101   2.0000      -0.946210       -25.7477
 102   2.0000      -0.939048       -25.5528
 103   2.0000      -0.930579       -25.3223
 104   2.0000      -0.930529       -25.3210
 105   2.0000      -0.902221       -24.5507
 106   2.0000      -0.902161       -24.5490
 107   2.0000      -0.894638       -24.3443
 108   2.0000      -0.892878       -24.2965
 109   2.0000      -0.892739       -24.2927
 110   2.0000      -0.875185       -23.8150
 111   2.0000      -0.874688       -23.8015
 112   2.0000      -0.848248       -23.0820
 113   2.0000      -0.847923       -23.0732
 114   2.0000      -0.842096       -22.9146
 115   2.0000      -0.837997       -22.8031
 116   2.0000      -0.836727       -22.7685
 117   2.0000      -0.809916       -22.0389
 118   2.0000      -0.806180       -21.9373
 119   2.0000      -0.796413       -21.6715
 120   2.0000      -0.787276       -21.4229
 121   2.0000      -0.781046       -21.2534
 122   2.0000      -0.766926       -20.8691
 123   2.0000      -0.766669       -20.8621
 124   2.0000      -0.766177       -20.8487
 125   2.0000      -0.762154       -20.7393
 126   2.0000      -0.757553       -20.6141
 127   2.0000      -0.730369       -19.8743
 128   2.0000      -0.730077       -19.8664
 129   2.0000      -0.715253       -19.4630
 130   2.0000      -0.714413       -19.4402
 131   2.0000      -0.710177       -19.3249
 132   2.0000      -0.705517       -19.1981
 133   2.0000      -0.704938       -19.1823
 134   2.0000      -0.703574       -19.1452
 135   2.0000      -0.693748       -18.8778
 136   2.0000      -0.691404       -18.8141
 137   2.0000      -0.675012       -18.3680
 138   2.0000      -0.671117       -18.2620
 139   2.0000      -0.665343       -18.1049
 140   2.0000      -0.660381       -17.9699
 141   2.0000      -0.655173       -17.8282
 142   2.0000      -0.652427       -17.7534
 143   2.0000      -0.645842       -17.5743
 144   2.0000      -0.637143       -17.3375
 145   2.0000      -0.635820       -17.3015
 146   2.0000      -0.634211       -17.2578
 147   2.0000      -0.631495       -17.1838
 148   2.0000      -0.614677       -16.7262
 149   2.0000      -0.613954       -16.7065
 150   2.0000      -0.608613       -16.5612
 151   2.0000      -0.604499       -16.4493
 152   2.0000      -0.591576       -16.0976
 153   2.0000      -0.591471       -16.0947
 154   2.0000      -0.589619       -16.0443
 155   2.0000      -0.588189       -16.0054
 156   2.0000      -0.576501       -15.6874
 157   2.0000      -0.572054       -15.5664
 158   2.0000      -0.570573       -15.5261
 159   2.0000      -0.570008       -15.5107
 160   2.0000      -0.563993       -15.3470
 161   2.0000      -0.561831       -15.2882
 162   2.0000      -0.561286       -15.2734
 163   2.0000      -0.561118       -15.2688
 164   2.0000      -0.559880       -15.2351
 165   2.0000      -0.558776       -15.2051
 166   2.0000      -0.554089       -15.0775
 167   2.0000      -0.553485       -15.0611
 168   2.0000      -0.550631       -14.9834
 169   2.0000      -0.548696       -14.9308
 170   2.0000      -0.545432       -14.8420
 171   2.0000      -0.545201       -14.8357
 172   2.0000      -0.543429       -14.7874
 173   2.0000      -0.535901       -14.5826
 174   2.0000      -0.534043       -14.5320
 175   2.0000      -0.530835       -14.4447
 176   2.0000      -0.530173       -14.4267
 177   2.0000      -0.527483       -14.3535
 178   2.0000      -0.527459       -14.3529
 179   2.0000      -0.520193       -14.1552
 180   2.0000      -0.519798       -14.1444
 181   2.0000      -0.517181       -14.0732
 182   2.0000      -0.512659       -13.9502
 183   2.0000      -0.507867       -13.8198
 184   2.0000      -0.504137       -13.7183
 185   2.0000      -0.501047       -13.6342
 186   2.0000      -0.496210       -13.5026
 187   2.0000      -0.496097       -13.4995
 188   2.0000      -0.491600       -13.3771
 189   2.0000      -0.488260       -13.2862
 190   2.0000      -0.487493       -13.2654
 191   2.0000      -0.486637       -13.2421
 192   2.0000      -0.485395       -13.2083
 193   2.0000      -0.482226       -13.1220
 194   2.0000      -0.482129       -13.1194
 195   2.0000      -0.474472       -12.9110
 196   2.0000      -0.473042       -12.8721
 197   2.0000      -0.472048       -12.8451
 198   2.0000      -0.466534       -12.6950
 199   2.0000      -0.466277       -12.6880
 200   2.0000      -0.465288       -12.6611
 201   2.0000      -0.463666       -12.6170
 202   2.0000      -0.462898       -12.5961
 203   2.0000      -0.461510       -12.5583
 204   2.0000      -0.458495       -12.4763
 205   2.0000      -0.458223       -12.4689
 206   2.0000      -0.455411       -12.3924
 207   2.0000      -0.451114       -12.2754
 208   2.0000      -0.449677       -12.2363
 209   2.0000      -0.445802       -12.1309
 210   2.0000      -0.441790       -12.0217
 211   2.0000      -0.440796       -11.9947
 212   2.0000      -0.440442       -11.9850
 213   2.0000      -0.433736       -11.8026
 214   2.0000      -0.433692       -11.8014
 215   2.0000      -0.428347       -11.6559
 216   2.0000      -0.427097       -11.6219
 217   2.0000      -0.424052       -11.5390
 218   2.0000      -0.422309       -11.4916
 219   2.0000      -0.422056       -11.4847
 220   2.0000      -0.412820       -11.2334
 221   2.0000      -0.406722       -11.0675
 222   2.0000      -0.405965       -11.0469
 223   2.0000      -0.385748       -10.4968
 224   2.0000      -0.385530       -10.4908
 225   2.0000      -0.382258       -10.4018
 226   2.0000      -0.373270       -10.1572
 227   2.0000      -0.365085        -9.9345
 228   2.0000      -0.364950        -9.9308
 229   2.0000      -0.362644        -9.8680
 230   2.0000      -0.356253        -9.6941
 231   2.0000      -0.351038        -9.5522
 232   2.0000      -0.350935        -9.5494
 233   2.0000      -0.347957        -9.4684
 234   2.0000      -0.347596        -9.4586
 235   2.0000      -0.343145        -9.3375
 236   2.0000      -0.342857        -9.3296
 237   2.0000      -0.338033        -9.1983
 238   2.0000      -0.316402        -8.6097
 239   2.0000      -0.316077        -8.6009
 240   2.0000      -0.305347        -8.3089
 241   2.0000      -0.305264        -8.3066
 242   2.0000      -0.294498        -8.0137
 243   2.0000      -0.260501        -7.0886
 244   2.0000      -0.259625        -7.0647
 245   0.0000      -0.125348        -3.4109
 246   0.0000      -0.110369        -3.0033
 247   0.0000      -0.104327        -2.8389
 248   0.0000      -0.096503        -2.6260
 249   0.0000      -0.058707        -1.5975

MULLIKEN ATOMIC CHARGES
-----------------------
   0 C :   -0.101532
   1 C :    0.303830
   2 F :   -0.188480
   3 C :   -0.033748
   4 C :   -0.009806
   5 C :    0.091379
   6 C :    0.103393
   7 C :   -0.110108
   8 C :    0.108813
   9 C :    0.001897
  10 C :   -0.071123
  11 C :    0.135449
  12 O :   -0.119616
  13 C :   -0.071394
  14 C :    0.171487
  15 C :   -0.350280
  16 C :   -0.180516
  17 N :    0.166615
  18 C :   -0.205497
  19 N :    0.176801
  20 C :   -0.065050
  21 C :    0.065903
  22 C :    0.084424
  23 N :   -0.012579
  24 C :   -0.041960
  25 C :   -0.002994
  26 C :   -0.019442
  27 S :    0.227833
  28 C :   -0.055447
  29 C :    0.020991
  30 N :   -0.011113
  31 C :    0.021565
  32 C :    0.027753
  33 C :   -0.005612
  34 C :    0.068535
  35 N :   -0.106746
  36 C :   -0.006449
  37 C :    0.068026
  38 N :   -0.104641
  39 C :    0.025612
  40 C :    0.024894
  41 N :   -0.012625
  42 C :    0.018651
  43 C :   -0.055228
  44 C :   -0.014570
  45 S :    0.228767
  46 C :   -0.007858
  47 C :   -0.039639
  48 N :   -0.011366
  49 C :    0.084025
  50 C :    0.064342
  51 C :   -0.060820
  52 C :   -0.075623
  53 C :    0.139931
  54 O :   -0.118936
  55 C :   -0.003166
  56 C :   -0.069989
  57 C :    0.091541
  58 C :    0.105610
  59 C :   -0.102485
  60 C :    0.305902
  61 C :   -0.033393
  62 C :   -0.010159
  63 F :   -0.188200
  64 C :   -0.110110
  65 C :    0.110358
  66 C :    0.172495
  67 C :   -0.353306
  68 C :   -0.178691
  69 N :    0.165199
  70 C :   -0.201525
  71 N :    0.173924
  72 H :   -0.006739
  73 H :    0.004583
  74 H :   -0.008189
  75 H :   -0.019373
  76 H :   -0.011117
  77 H :    0.010162
  78 H :    0.021711
  79 H :   -0.011244
  80 H :    0.006922
  81 H :    0.005802
  82 H :   -0.012166
  83 H :    0.021437
  84 H :    0.009072
  85 H :   -0.011342
  86 H :   -0.007120
  87 H :    0.003129
  88 H :   -0.008898
  89 H :   -0.020751
Sum of atomic charges:   -0.0000000

LOEWDIN ATOMIC CHARGES
----------------------
   0 C :   -0.043895
   1 C :    0.094651
   2 F :   -0.062939
   3 C :   -0.040297
   4 C :    0.006390
   5 C :   -0.026033
   6 C :    0.004157
   7 C :   -0.003283
   8 C :   -0.017228
   9 C :   -0.067236
  10 C :    0.042991
  11 C :    0.091863
  12 O :   -0.119000
  13 C :   -0.055433
  14 C :    0.009367
  15 C :   -0.180494
  16 C :   -0.032824
  17 N :   -0.024268
  18 C :   -0.039520
  19 N :   -0.024476
  20 C :    0.004349
  21 C :   -0.043286
  22 C :    0.120715
  23 N :   -0.061295
  24 C :    0.081211
  25 C :   -0.081685
  26 C :   -0.125757
  27 S :    0.452503
  28 C :   -0.025292
  29 C :   -0.048608
  30 N :   -0.059475
  31 C :    0.023407
  32 C :   -0.052785
  33 C :    0.003537
  34 C :    0.031321
  35 N :   -0.045629
  36 C :    0.003997
  37 C :    0.031143
  38 N :   -0.045131
  39 C :   -0.053141
  40 C :    0.023153
  41 N :   -0.059614
  42 C :   -0.049107
  43 C :   -0.025718
  44 C :   -0.125076
  45 S :    0.454027
  46 C :   -0.082581
  47 C :    0.081718
  48 N :   -0.061432
  49 C :    0.120910
  50 C :   -0.043274
  51 C :    0.004998
  52 C :   -0.055864
  53 C :    0.091890
  54 O :   -0.119085
  55 C :   -0.067273
  56 C :    0.042928
  57 C :   -0.025962
  58 C :    0.004228
  59 C :   -0.044125
  60 C :    0.094666
  61 C :   -0.040197
  62 C :    0.006572
  63 F :   -0.062879
  64 C :   -0.003178
  65 C :   -0.017051
  66 C :    0.009966
  67 C :   -0.181561
  68 C :   -0.032785
  69 N :   -0.024625
  70 C :   -0.039304
  71 N :   -0.024746
  72 H :    0.041155
  73 H :    0.042056
  74 H :    0.035819
  75 H :    0.031938
  76 H :    0.040194
  77 H :    0.044249
  78 H :    0.033694
  79 H :    0.016611
  80 H :    0.028545
  81 H :    0.028622
  82 H :    0.016577
  83 H :    0.033660
  84 H :    0.044112
  85 H :    0.040198
  86 H :    0.041073
  87 H :    0.041875
  88 H :    0.035751
  89 H :    0.031661

  Mayer bond orders larger than 0.100000
B(  0-C ,  1-C ) :   1.4212 B(  0-C ,  6-C ) :   1.2232 B(  0-C , 72-H ) :   1.0058
B(  1-C ,  2-F ) :   1.0913 B(  1-C ,  3-C ) :   1.2749 B(  3-C ,  4-C ) :   1.4388
B(  3-C , 73-H ) :   0.9932 B(  4-C ,  5-C ) :   1.2536 B(  4-C , 74-H ) :   0.9971
B(  5-C ,  6-C ) :   1.2673 B(  5-C , 10-C ) :   1.1587 B(  6-C ,  7-C ) :   1.1855
B(  7-C ,  8-C ) :   1.4713 B(  7-C , 75-H ) :   0.9925 B(  8-C ,  9-C ) :   1.1965
B(  8-C , 14-C ) :   1.0484 B(  9-C , 10-C ) :   1.5050 B(  9-C , 11-C ) :   0.9274
B( 10-C , 76-H ) :   1.0155 B( 11-C , 12-O ) :   2.2799 B( 11-C , 13-C ) :   0.9225
B( 13-C , 14-C ) :   1.6149 B( 13-C , 20-C ) :   1.1633 B( 14-C , 15-C ) :   0.9039
B( 15-C , 16-C ) :   0.9740 B( 15-C , 18-C ) :   1.0159 B( 15-C , 27-S ) :   0.9519
B( 16-C , 17-N ) :   3.1046 B( 18-C , 19-N ) :   3.0781 B( 20-C , 21-C ) :   1.5159
B( 20-C , 77-H ) :   0.9513 B( 21-C , 22-C ) :   1.0371 B( 21-C , 25-C ) :   1.0268
B( 22-C , 23-N ) :   1.6718 B( 22-C , 78-H ) :   0.9929 B( 23-N , 24-C ) :   1.2941
B( 24-C , 25-C ) :   1.0806 B( 24-C , 29-C ) :   1.4903 B( 25-C , 26-C ) :   1.5405
B( 25-C , 28-C ) :   0.1113 B( 26-C , 27-S ) :   1.0893 B( 26-C , 28-C ) :   0.9956
B( 27-S , 38-N ) :   0.1220 B( 28-C , 29-C ) :   1.1555 B( 28-C , 32-C ) :   1.5306
B( 29-C , 30-N ) :   1.2466 B( 30-N , 31-C ) :   1.7820 B( 31-C , 32-C ) :   1.0269
B( 31-C , 79-H ) :   0.9923 B( 32-C , 33-C ) :   1.0074 B( 33-C , 34-C ) :   1.3216
B( 33-C , 38-N ) :   1.4516 B( 34-C , 35-N ) :   1.5046 B( 34-C , 80-H ) :   0.9641
B( 35-N , 36-C ) :   1.4507 B( 35-N , 45-S ) :   0.1264 B( 36-C , 37-C ) :   1.3204
B( 36-C , 39-C ) :   1.0068 B( 37-C , 38-N ) :   1.5093 B( 37-C , 81-H ) :   0.9648
B( 39-C , 40-C ) :   1.0295 B( 39-C , 43-C ) :   1.5278 B( 40-C , 41-N ) :   1.7797
B( 40-C , 82-H ) :   0.9921 B( 41-N , 42-C ) :   1.2471 B( 42-C , 43-C ) :   1.1576
B( 42-C , 47-C ) :   1.4895 B( 43-C , 44-C ) :   0.9952 B( 43-C , 46-C ) :   0.1108
B( 44-C , 45-S ) :   1.0881 B( 44-C , 46-C ) :   1.5416 B( 45-S , 67-C ) :   0.9497
B( 46-C , 47-C ) :   1.0799 B( 46-C , 50-C ) :   1.0243 B( 47-C , 48-N ) :   1.2951
B( 48-N , 49-C ) :   1.6697 B( 49-C , 50-C ) :   1.0391 B( 49-C , 83-H ) :   0.9926
B( 50-C , 51-C ) :   1.5186 B( 51-C , 52-C ) :   1.1636 B( 51-C , 84-H ) :   0.9502
B( 52-C , 53-C ) :   0.9223 B( 52-C , 66-C ) :   1.6165 B( 53-C , 54-O ) :   2.2815
B( 53-C , 55-C ) :   0.9251 B( 55-C , 56-C ) :   1.5056 B( 55-C , 65-C ) :   1.1996
B( 56-C , 57-C ) :   1.1542 B( 56-C , 85-H ) :   1.0159 B( 57-C , 58-C ) :   1.2706
B( 57-C , 62-C ) :   1.2547 B( 58-C , 59-C ) :   1.2185 B( 58-C , 64-C ) :   1.1857
B( 59-C , 60-C ) :   1.4213 B( 59-C , 86-H ) :   1.0065 B( 60-C , 61-C ) :   1.2755
B( 60-C , 63-F ) :   1.0918 B( 61-C , 62-C ) :   1.4368 B( 61-C , 87-H ) :   0.9937
B( 62-C , 88-H ) :   0.9975 B( 64-C , 65-C ) :   1.4674 B( 64-C , 89-H ) :   0.9930
B( 65-C , 66-C ) :   1.0470 B( 66-C , 67-C ) :   0.9042 B( 67-C , 68-C ) :   0.9742
B( 67-C , 70-C ) :   1.0141 B( 68-C , 69-N ) :   3.1046 B( 70-C , 71-N ) :   3.0787

-----------------------------------------------------------------------------
         ABSORPTION SPECTRUM VIA TRANSITION ELECTRIC DIPOLE MOMENTS
-----------------------------------------------------------------------------
State   Energy  Wavelength   fosc         T2         TX        TY        TZ
        (cm-1)    (nm)                  (au**2)     (au)      (au)      (au)
-----------------------------------------------------------------------------
   0   10034.4    996.6   0.062561048   2.05252   1.33352   0.05289  -0.52101
   1   10126.8    987.5   0.006300676   0.20483  -0.40142   0.14498  -0.15057
   2   15752.6    634.8   0.202944772   4.24132  -2.00342  -0.47705   0.00732
   3   15762.1    634.4   0.316468999   6.60988  -2.32020  -0.95381   0.56284
   4   19592.4    510.4   0.280750339   4.71746  -1.33581   1.23912   1.18222
   5   19898.4    502.6   0.002330298   0.03855  -0.10993   0.09756   0.13020
   6   20646.4    484.3   0.428547363   6.83330   1.60783  -1.48748  -1.42675
   7   22878.0    437.1   0.002950579   0.04246   0.07181  -0.12460   0.14757
   8   23898.2    418.4   0.015109603   0.20814   0.25328  -0.29431  -0.23953
   9   23986.8    416.9   0.002742995   0.03765   0.10519  -0.10648  -0.12347
  10   24147.6    414.1   0.010302739   0.14046  -0.00547   0.35784   0.11126
  11   24183.1    413.5   0.005133892   0.06989  -0.07470   0.00486  -0.25355
  12   24874.1    402.0   0.271241439   3.58992   0.87049  -1.30333  -1.06465
  13   25157.3    397.5   0.000058226   0.00076  -0.01530  -0.01794   0.01436
  14   25405.1    393.6   0.061609139   0.79836   0.35940  -0.64334  -0.50527
  15   25589.1    390.8   0.000197670   0.00254   0.00585  -0.02733   0.04197
  16   25745.2    388.4   0.045629073   0.58347  -0.69743  -0.30382   0.06903
  17   26689.4    374.7   0.013768114   0.16983   0.23213   0.32345  -0.10641
  18   26708.9    374.4   0.432142183   5.32655  -1.81639  -1.40230  -0.24663
  19   26830.8    372.7   0.005678631   0.06968   0.02972  -0.15215   0.21364
  20   26999.1    370.4   0.004997561   0.06094  -0.05808   0.15001  -0.18724
  21   27250.7    367.0   0.012565543   0.15180   0.09352   0.34253   0.16041
  22   27463.8    364.1   0.005907127   0.07081   0.05703  -0.13886   0.21972
  23   27630.0    361.9   0.052504159   0.62559  -0.50347  -0.58247  -0.18120
  24   27702.7    361.0   0.000190910   0.00227   0.01474   0.03608  -0.02738
  25   27944.8    357.8   0.025545707   0.30095   0.19966   0.47220   0.19523
  26   27981.2    357.4   0.002559076   0.03011   0.06544   0.11250   0.11475
  27   28064.0    356.3   0.084632033   0.99280   0.25972   0.87112   0.40804
  28   28237.2    354.1   0.003447141   0.04019   0.01166   0.19878   0.02326
  29   28311.9    353.2   0.120386394   1.39986  -0.22408  -1.02683  -0.54339
  30   29360.0    340.6   0.000077450   0.00087   0.00521  -0.01500   0.02482
  31   30472.8    328.2   0.096754737   1.04529   0.21323  -0.82301  -0.56787
  32   30715.3    325.6   0.005291340   0.05671   0.07009  -0.16850   0.15300
  33   31323.0    319.3   0.000142528   0.00150   0.00003  -0.03578   0.01475
  34   31947.0    313.0   0.363956259   3.75055   1.68655  -0.45005  -0.83877
  35   32316.5    309.4   0.015081913   0.15364  -0.37258  -0.04322   0.11383
  36   32450.6    308.2   0.008785433   0.08913  -0.28373  -0.02646   0.08901
  37   32512.5    307.6   0.008836273   0.08947  -0.28623  -0.04912   0.07166
  38   32813.4    304.8   0.000085502   0.00086  -0.00620   0.01913  -0.02130
  39   32860.6    304.3   0.040687165   0.40762   0.57346   0.27961  -0.02416
  40   33021.1    302.8   0.019759657   0.19700   0.11649  -0.22368   0.36524
  41   33506.4    298.5   0.304701250   2.99380  -1.61355  -0.58625   0.21580
  42   33928.8    294.7   0.040214226   0.39020  -0.09463  -0.53817  -0.30269
  43   33979.3    294.3   0.003092756   0.02996   0.15777   0.03360   0.06280
  44   34047.5    293.7   0.041275440   0.39910   0.42416   0.45332   0.11699
  45   34083.5    293.4   0.006902318   0.06667   0.13474   0.22003   0.01015
  46   34298.0    291.6   0.085357993   0.81932   0.81890   0.37908  -0.07083
  47   34369.2    291.0   0.007744813   0.07419   0.26045   0.07936   0.00727
  48   34505.0    289.8   0.078855276   0.75236  -0.82791  -0.15609   0.20628
  49   34549.6    289.4   0.005174643   0.04931   0.21915   0.01486  -0.03258
  50   34737.6    287.9   0.022461091   0.21287   0.19941  -0.31061  -0.27681
  51   34804.7    287.3   0.002822237   0.02670   0.03200  -0.15668   0.03352
  52   35016.9    285.6   0.150950566   1.41916   0.73166   0.89621   0.28397
  53   35200.3    284.1   0.008532035   0.07980   0.19287   0.19974  -0.05197
  54   35328.0    283.1   0.237116590   2.20962   1.28780   0.74241  -0.00600
  55   35620.8    280.7   0.003730753   0.03448   0.15091  -0.02925   0.10417
  56   36134.0    276.7   0.043648248   0.39767   0.55876  -0.13123  -0.26122
  57   36228.3    276.0   0.046177225   0.41962   0.52769  -0.19046  -0.32386
  58   36305.3    275.4   0.096226533   0.87257   0.70933  -0.38381  -0.47130
  59   36595.0    273.3   0.040014957   0.35998  -0.44101   0.28300   0.29223
  60   36662.4    272.8   0.000827173   0.00743   0.03784  -0.04287   0.06448
  61   36826.2    271.5   0.020179479   0.18040   0.15337   0.34612  -0.19255
  62   36858.2    271.3   0.048058247   0.42925   0.51526   0.35776   0.18910
  63   37071.3    269.8   0.204458323   1.81569   0.18980  -1.13321  -0.70392
  64   37086.1    269.6   0.008507112   0.07552  -0.03512   0.17061   0.21255
  65   37584.9    266.1   0.009899392   0.08671   0.26746   0.12298  -0.00717
  66   37631.7    265.7   0.001208360   0.01057  -0.05026  -0.02263   0.08679
  67   37750.2    264.9   0.001127272   0.00983   0.05695  -0.05259  -0.06182
  68   37774.6    264.7   0.000387500   0.00338  -0.05069  -0.00198   0.02834
  69   37836.6    264.3   0.040472902   0.35215  -0.41117   0.31598   0.28852
  70   37934.2    263.6   0.003253777   0.02824   0.03181   0.04825  -0.15779
  71   38199.8    261.8   0.001861025   0.01604   0.03635  -0.07408   0.09607
  72   38405.2    260.4   0.255140732   2.18708  -0.55764  -1.25067  -0.55851
  73   38483.0    259.9   0.013299326   0.11377   0.17154   0.28509   0.05542
  74   38759.0    258.0   0.007401769   0.06287   0.07020   0.24013  -0.01671
  75   38772.1    257.9   0.947459172   8.04483   2.04046   1.92523   0.41815
  76   38812.7    257.6   0.507315911   4.30309   0.96999   1.70206   0.68205
  77   39004.4    256.4   0.031536087   0.26618  -0.18776   0.18512  -0.44346
  78   39062.2    256.0   0.003289461   0.02772   0.12107  -0.01523   0.11328
  79   39465.2    253.4   0.062363060   0.52022   0.68750   0.09962  -0.19402
  80   40276.1    248.3   0.157497527   1.28736  -0.01168  -0.98437  -0.56413

FINAL SINGLE POINT ENERGY     -3834.493973470344

DIPOLE MOMENT
-------------
                                X             Y             Z
Electronic contribution:      1.69876      -2.79130       4.91267
Nuclear contribution   :     -2.32287       3.86800      -6.80448
                        -----------------------------------------
Total Dipole Moment    :     -0.62411       1.07670      -1.89181
                        -----------------------------------------
Magnitude (a.u.)       :      2.26445
Magnitude (Debye)      :      5.75579

Rotational constants in cm-1:     0.001526     0.000459     0.000369
Rotational constants in MHz :    45.756818    13.747117    11.052635

                             ****ORCA TERMINATED NORMALLY****
TOTAL RUN TIME: 0 days 0 hours 21 minutes 12 seconds 57 msec
