                         Program Version 4.2.0 -  RELEASE  -
|  1> # ORCA input file
|  2> # SCF done       -192.711554070733          0.000537886783
|  3> ! CAM-B3LYP def2-SVP def2/J RIJCOSX Grid4 TightSCF
|  4> %maxcore 5000
|  5> %tddft
|  6>     Mode sTDDFT
|  7>     Ethresh 5.0
|  8>     maxcore 5000
|  9> end
| 10>
| 11> %pal
| 12>   nprocs 6
| 13>   end
| 14> * xyz 0 1
| 15>    C       13.22642         4.24546        -9.75769
| 16>    C       12.69142         4.49704       -10.99060
| 17>    F       13.43318         4.28101       -12.09025
| 18>    C       11.38501         4.97697       -11.15968
| 19>    C       10.61434         5.20209       -10.05342
| 20>    C       11.11513         4.95889        -8.75771
| 21>    C       12.44765         4.47391        -8.60659
| 22>    C       12.97644         4.23401        -7.31712
| 23>    C       12.19603         4.47021        -6.21730
| 24>    C       10.85805         4.93777        -6.37523
| 25>    C       10.32524         5.18248        -7.60854
| 26>    C       10.22499         5.07847        -5.05077
| 27>    O        9.11957         5.48756        -4.78857
| 28>    C       11.22668         4.53450        -4.08638
| 29>    C       12.48198         4.35860        -4.79079
| 30>    C       13.72547         4.32926        -4.21839
| 31>    C       13.95469         4.52745        -2.83959
| 32>    N       14.19420         4.76339        -1.74219
| 33>    C       14.92197         4.21239        -4.95658
| 34>    N       15.91487         4.10163        -5.52070
| 35>    C       10.86001         4.19758        -2.82535
| 36>    C       11.57122         3.35848        -1.92484
| 37>    C       12.40775         2.19792        -2.27533
| 38>    N       12.91033         1.57699        -1.25227
| 39>    C       12.49095         2.27021        -0.15489
| 40>    C       11.60973         3.37485        -0.55203
| 41>    C       11.19181         4.12045         0.61281
| 42>    S       10.20000         5.43882         0.62758
| 43>    C       11.82803         3.45117         1.70827
| 44>    C       12.61978         2.31831         1.21048
| 45>    N       13.24863         1.67783         2.24227
| 46>    C       12.91600         2.32762         3.31401
| 47>    C       12.02177         3.47005         3.07992
| 48>    C       11.51722         4.34050         4.06429
| 49>    N       10.67053         5.37267         3.74158
| 50>    C       10.35456         6.03221         4.87926
| 51>    C        9.62600         7.09013         5.39288
| 52>    C        9.85743         7.08776         6.78392
| 53>    N       10.70473         6.04886         7.10739
| 54>    C       11.02922         5.38758         5.96655
| 55>    C       11.75599         4.32862         5.45720
| 56>    C        9.31794         7.99556         7.71759
| 57>    C        9.54017         7.96819         9.06300
| 58>    C        9.01987         8.89798         9.98453
| 59>    C        8.14073        10.05538         9.73444
| 60>    N        7.86773        10.75814        10.78855
| 61>    C        8.53639        10.15316        11.82167
| 62>    C        9.23718         8.96227        11.34852
| 63>    C        9.93848         8.33667        12.43088
| 64>    S       10.79152         6.92040        12.35494
| 65>    C        9.73012         9.21049        13.55350
| 66>    C        8.81592        10.30172        13.15541
| 67>    N        8.56706        11.13368        14.20258
| 68>    C        9.25678        10.66304        15.19458
| 69>    C       10.06569         9.47380        14.87395
| 70>    C       10.88047         8.88062        15.85803
| 71>    C       11.93613         8.01174        15.81970
| 72>    C       12.31280         7.34297        17.10907
| 73>    O       11.90346         7.63496        18.20805
| 74>    C       13.23766         6.26199        16.73485
| 75>    C       13.79989         5.29860        17.52143
| 76>    C       14.65479         4.34057        16.93121
| 77>    C       14.90529         4.39981        15.52927
| 78>    C       15.75428         3.43953        14.94681
| 79>    C       16.32004         2.47619        15.73574
| 80>    C       16.08701         2.40197        17.11540
| 81>    C       15.26366         3.32591        17.69719
| 82>    F       17.13211         1.55933        15.17988
| 83>    C       14.31293         5.41434        14.74008
| 84>    C       13.49576         6.33587        15.33565
| 85>    C       12.78411         7.48872        14.79043
| 86>    C       12.98941         8.02858        13.53757
| 87>    C       12.55769         9.32109        13.18278
| 88>    N       12.23757        10.37702        12.86660
| 89>    C       13.84334         7.47446        12.55754
| 90>    N       14.50157         7.07208        11.70848
| 91>    H       14.23722         3.88013        -9.66529
| 92>    H       11.01745         5.15755       -12.15733
| 93>    H        9.60536         5.57134       -10.15821
| 94>    H       13.98476         3.86082        -7.23090
| 95>    H        9.31289         5.54505        -7.70552
| 96>    H        9.89581         4.56828        -2.49015
| 97>    H       12.56554         1.82936        -3.27427
| 98>    H       13.28487         2.01893         4.27600
| 99>    H       10.37072         5.57889         2.78597
|100>    H        9.00409         7.78762         4.86945
|101>    H       11.04349         5.84734         8.03240
|102>    H       12.37898         3.63251         5.98049
|103>    H        8.68193         8.76260         7.30020
|104>    H       10.16894         7.20072         9.49589
|105>    H        7.71897        10.32530         8.78235
|106>    H        9.23486        11.13870        16.15976
|107>    H       10.58958         9.13782        16.87595
|108>    H       13.59513         5.26625        18.58108
|109>    H       15.95860         3.46722        13.88789
|110>    H       16.56090         1.61987        17.68701
|111>    H       15.06861         3.28952        18.75840
|112>    H       14.51510         5.42990        13.68109
|113> *
|114>
|115>                          ****END OF INPUT****

CARTESIAN COORDINATES (ANGSTROEM)
---------------------------------
  C     13.226420    4.245460   -9.757690
  C     12.691420    4.497040  -10.990600
  F     13.433180    4.281010  -12.090250
  C     11.385010    4.976970  -11.159680
  C     10.614340    5.202090  -10.053420
  C     11.115130    4.958890   -8.757710
  C     12.447650    4.473910   -8.606590
  C     12.976440    4.234010   -7.317120
  C     12.196030    4.470210   -6.217300
  C     10.858050    4.937770   -6.375230
  C     10.325240    5.182480   -7.608540
  C     10.224990    5.078470   -5.050770
  O      9.119570    5.487560   -4.788570
  C     11.226680    4.534500   -4.086380
  C     12.481980    4.358600   -4.790790
  C     13.725470    4.329260   -4.218390
  C     13.954690    4.527450   -2.839590
  N     14.194200    4.763390   -1.742190
  C     14.921970    4.212390   -4.956580
  N     15.914870    4.101630   -5.520700
  C     10.860010    4.197580   -2.825350
  C     11.571220    3.358480   -1.924840
  C     12.407750    2.197920   -2.275330
  N     12.910330    1.576990   -1.252270
  C     12.490950    2.270210   -0.154890
  C     11.609730    3.374850   -0.552030
  C     11.191810    4.120450    0.612810
  S     10.200000    5.438820    0.627580
  C     11.828030    3.451170    1.708270
  C     12.619780    2.318310    1.210480
  N     13.248630    1.677830    2.242270
  C     12.916000    2.327620    3.314010
  C     12.021770    3.470050    3.079920
  C     11.517220    4.340500    4.064290
  N     10.670530    5.372670    3.741580
  C     10.354560    6.032210    4.879260
  C      9.626000    7.090130    5.392880
  C      9.857430    7.087760    6.783920
  N     10.704730    6.048860    7.107390
  C     11.029220    5.387580    5.966550
  C     11.755990    4.328620    5.457200
  C      9.317940    7.995560    7.717590
  C      9.540170    7.968190    9.063000
  C      9.019870    8.897980    9.984530
  C      8.140730   10.055380    9.734440
  N      7.867730   10.758140   10.788550
  C      8.536390   10.153160   11.821670
  C      9.237180    8.962270   11.348520
  C      9.938480    8.336670   12.430880
  S     10.791520    6.920400   12.354940
  C      9.730120    9.210490   13.553500
  C      8.815920   10.301720   13.155410
  N      8.567060   11.133680   14.202580
  C      9.256780   10.663040   15.194580
  C     10.065690    9.473800   14.873950
  C     10.880470    8.880620   15.858030
  C     11.936130    8.011740   15.819700
  C     12.312800    7.342970   17.109070
  O     11.903460    7.634960   18.208050
  C     13.237660    6.261990   16.734850
  C     13.799890    5.298600   17.521430
  C     14.654790    4.340570   16.931210
  C     14.905290    4.399810   15.529270
  C     15.754280    3.439530   14.946810
  C     16.320040    2.476190   15.735740
  C     16.087010    2.401970   17.115400
  C     15.263660    3.325910   17.697190
  F     17.132110    1.559330   15.179880
  C     14.312930    5.414340   14.740080
  C     13.495760    6.335870   15.335650
  C     12.784110    7.488720   14.790430
  C     12.989410    8.028580   13.537570
  C     12.557690    9.321090   13.182780
  N     12.237570   10.377020   12.866600
  C     13.843340    7.474460   12.557540
  N     14.501570    7.072080   11.708480
  H     14.237220    3.880130   -9.665290
  H     11.017450    5.157550  -12.157330
  H      9.605360    5.571340  -10.158210
  H     13.984760    3.860820   -7.230900
  H      9.312890    5.545050   -7.705520
  H      9.895810    4.568280   -2.490150
  H     12.565540    1.829360   -3.274270
  H     13.284870    2.018930    4.276000
  H     10.370720    5.578890    2.785970
  H      9.004090    7.787620    4.869450
  H     11.043490    5.847340    8.032400
  H     12.378980    3.632510    5.980490
  H      8.681930    8.762600    7.300200
  H     10.168940    7.200720    9.495890
  H      7.718970   10.325300    8.782350
  H      9.234860   11.138700   16.159760
  H     10.589580    9.137820   16.875950
  H     13.595130    5.266250   18.581080
  H     15.958600    3.467220   13.887890
  H     16.560900    1.619870   17.687010
  H     15.068610    3.289520   18.758400
  H     14.515100    5.429900   13.681090

 Total Charge           Charge          ....    0
 Multiplicity           Mult            ....    1
 Number of Electrons    NEL             ....  518
 Basis Dimension        Dim             .... 1182

ORBITAL ENERGIES
----------------

  NO   OCC          E(Eh)            E(eV)
   0   2.0000     -88.914010     -2419.4732
   1   2.0000     -88.913721     -2419.4653
   2   2.0000     -24.790725      -674.5899
   3   2.0000     -24.787676      -674.5070
   4   2.0000     -19.222152      -523.0614
   5   2.0000     -19.222078      -523.0593
   6   2.0000     -14.473552      -393.8454
   7   2.0000     -14.459505      -393.4631
   8   2.0000     -14.426041      -392.5525
   9   2.0000     -14.423969      -392.4962
  10   2.0000     -14.421949      -392.4412
  11   2.0000     -14.421567      -392.4308
  12   2.0000     -14.421567      -392.4308
  13   2.0000     -14.421112      -392.4184
  14   2.0000     -14.418052      -392.3351
  15   2.0000     -14.417595      -392.3227
  16   2.0000     -10.375002      -282.3182
  17   2.0000     -10.373155      -282.2679
  18   2.0000     -10.371429      -282.2209
  19   2.0000     -10.370452      -282.1943
  20   2.0000     -10.355932      -281.7992
  21   2.0000     -10.354949      -281.7725
  22   2.0000     -10.352536      -281.7068
  23   2.0000     -10.350126      -281.6413
  24   2.0000     -10.346678      -281.5474
  25   2.0000     -10.346329      -281.5379
  26   2.0000     -10.340803      -281.3875
  27   2.0000     -10.339085      -281.3408
  28   2.0000     -10.338366      -281.3212
  29   2.0000     -10.334606      -281.2189
  30   2.0000     -10.333530      -281.1896
  31   2.0000     -10.332495      -281.1615
  32   2.0000     -10.329311      -281.0748
  33   2.0000     -10.328685      -281.0578
  34   2.0000     -10.328486      -281.0524
  35   2.0000     -10.327949      -281.0378
  36   2.0000     -10.325578      -280.9733
  37   2.0000     -10.324678      -280.9488
  38   2.0000     -10.324654      -280.9481
  39   2.0000     -10.323098      -280.9058
  40   2.0000     -10.322740      -280.8960
  41   2.0000     -10.321093      -280.8512
  42   2.0000     -10.318653      -280.7848
  43   2.0000     -10.315773      -280.7064
  44   2.0000     -10.313974      -280.6575
  45   2.0000     -10.313600      -280.6473
  46   2.0000     -10.313384      -280.6415
  47   2.0000     -10.313152      -280.6351
  48   2.0000     -10.312430      -280.6155
  49   2.0000     -10.312402      -280.6147
  50   2.0000     -10.311079      -280.5787
  51   2.0000     -10.308956      -280.5210
  52   2.0000     -10.308153      -280.4991
  53   2.0000     -10.307910      -280.4925
  54   2.0000     -10.307866      -280.4913
  55   2.0000     -10.307415      -280.4790
  56   2.0000     -10.307304      -280.4760
  57   2.0000     -10.306579      -280.4563
  58   2.0000     -10.305308      -280.4217
  59   2.0000     -10.305292      -280.4213
  60   2.0000     -10.303195      -280.3642
  61   2.0000     -10.303039      -280.3599
  62   2.0000     -10.302289      -280.3395
  63   2.0000     -10.299871      -280.2737
  64   2.0000     -10.299528      -280.2644
  65   2.0000     -10.298602      -280.2392
  66   2.0000     -10.296910      -280.1932
  67   2.0000     -10.295882      -280.1652
  68   2.0000     -10.295639      -280.1586
  69   2.0000     -10.294319      -280.1227
  70   2.0000     -10.293938      -280.1123
  71   2.0000     -10.291458      -280.0448
  72   2.0000     -10.290581      -280.0209
  73   2.0000     -10.289432      -279.9897
  74   2.0000     -10.288388      -279.9613
  75   2.0000     -10.285148      -279.8731
  76   2.0000      -8.009458      -217.9484
  77   2.0000      -8.009102      -217.9387
  78   2.0000      -5.978234      -162.6760
  79   2.0000      -5.978032      -162.6705
  80   2.0000      -5.977529      -162.6568
  81   2.0000      -5.977112      -162.6455
  82   2.0000      -5.969670      -162.4430
  83   2.0000      -5.968391      -162.4082
  84   2.0000      -1.306090       -35.5405
  85   2.0000      -1.302670       -35.4475
  86   2.0000      -1.137591       -30.9554
  87   2.0000      -1.137016       -30.9398
  88   2.0000      -1.106327       -30.1047
  89   2.0000      -1.089745       -29.6535
  90   2.0000      -1.086962       -29.5777
  91   2.0000      -1.071456       -29.1558
  92   2.0000      -1.068076       -29.0638
  93   2.0000      -1.066459       -29.0198
  94   2.0000      -1.026441       -27.9309
  95   2.0000      -1.024170       -27.8691
  96   2.0000      -1.007288       -27.4097
  97   2.0000      -1.004146       -27.3242
  98   2.0000      -1.001037       -27.2396
  99   2.0000      -1.000645       -27.2289
 100   2.0000      -0.983413       -26.7600
 101   2.0000      -0.978760       -26.6334
 102   2.0000      -0.970211       -26.4008
 103   2.0000      -0.968134       -26.3443
 104   2.0000      -0.937550       -25.5120
 105   2.0000      -0.932676       -25.3794
 106   2.0000      -0.927873       -25.2487
 107   2.0000      -0.918899       -25.0045
 108   2.0000      -0.917249       -24.9596
 109   2.0000      -0.908034       -24.7089
 110   2.0000      -0.896808       -24.4034
 111   2.0000      -0.893637       -24.3171
 112   2.0000      -0.890420       -24.2296
 113   2.0000      -0.887857       -24.1598
 114   2.0000      -0.887513       -24.1504
 115   2.0000      -0.876621       -23.8541
 116   2.0000      -0.866355       -23.5747
 117   2.0000      -0.861938       -23.4545
 118   2.0000      -0.854185       -23.2436
 119   2.0000      -0.847791       -23.0696
 120   2.0000      -0.844313       -22.9749
 121   2.0000      -0.839589       -22.8464
 122   2.0000      -0.835367       -22.7315
 123   2.0000      -0.807825       -21.9820
 124   2.0000      -0.803225       -21.8569
 125   2.0000      -0.797153       -21.6916
 126   2.0000      -0.782076       -21.2814
 127   2.0000      -0.774150       -21.0657
 128   2.0000      -0.767760       -20.8918
 129   2.0000      -0.763341       -20.7716
 130   2.0000      -0.757087       -20.6014
 131   2.0000      -0.744971       -20.2717
 132   2.0000      -0.732480       -19.9318
 133   2.0000      -0.729572       -19.8527
 134   2.0000      -0.724018       -19.7015
 135   2.0000      -0.716688       -19.5021
 136   2.0000      -0.713765       -19.4225
 137   2.0000      -0.712041       -19.3756
 138   2.0000      -0.710322       -19.3288
 139   2.0000      -0.704504       -19.1705
 140   2.0000      -0.702423       -19.1139
 141   2.0000      -0.700905       -19.0726
 142   2.0000      -0.696031       -18.9400
 143   2.0000      -0.687749       -18.7146
 144   2.0000      -0.684736       -18.6326
 145   2.0000      -0.676065       -18.3967
 146   2.0000      -0.660923       -17.9846
 147   2.0000      -0.659640       -17.9497
 148   2.0000      -0.656427       -17.8623
 149   2.0000      -0.649112       -17.6632
 150   2.0000      -0.643027       -17.4977
 151   2.0000      -0.640560       -17.4305
 152   2.0000      -0.636694       -17.3253
 153   2.0000      -0.635023       -17.2799
 154   2.0000      -0.630941       -17.1688
 155   2.0000      -0.616158       -16.7665
 156   2.0000      -0.610000       -16.5989
 157   2.0000      -0.608409       -16.5556
 158   2.0000      -0.604846       -16.4587
 159   2.0000      -0.600143       -16.3307
 160   2.0000      -0.595709       -16.2101
 161   2.0000      -0.584656       -15.9093
 162   2.0000      -0.583029       -15.8650
 163   2.0000      -0.581837       -15.8326
 164   2.0000      -0.573983       -15.6189
 165   2.0000      -0.571323       -15.5465
 166   2.0000      -0.567341       -15.4381
 167   2.0000      -0.565966       -15.4007
 168   2.0000      -0.563477       -15.3330
 169   2.0000      -0.561414       -15.2768
 170   2.0000      -0.560107       -15.2413
 171   2.0000      -0.557803       -15.1786
 172   2.0000      -0.556941       -15.1551
 173   2.0000      -0.554252       -15.0820
 174   2.0000      -0.553083       -15.0502
 175   2.0000      -0.551293       -15.0015
 176   2.0000      -0.549924       -14.9642
 177   2.0000      -0.547239       -14.8911
 178   2.0000      -0.544791       -14.8245
 179   2.0000      -0.541969       -14.7477
 180   2.0000      -0.540556       -14.7093
 181   2.0000      -0.539193       -14.6722
 182   2.0000      -0.536571       -14.6008
 183   2.0000      -0.533902       -14.5282
 184   2.0000      -0.529332       -14.4039
 185   2.0000      -0.525573       -14.3016
 186   2.0000      -0.525023       -14.2866
 187   2.0000      -0.520937       -14.1754
 188   2.0000      -0.517665       -14.0864
 189   2.0000      -0.515279       -14.0214
 190   2.0000      -0.514040       -13.9877
 191   2.0000      -0.512200       -13.9377
 192   2.0000      -0.507470       -13.8090
 193   2.0000      -0.505441       -13.7537
 194   2.0000      -0.500723       -13.6254
 195   2.0000      -0.497780       -13.5453
 196   2.0000      -0.497470       -13.5368
 197   2.0000      -0.495267       -13.4769
 198   2.0000      -0.494117       -13.4456
 199   2.0000      -0.493325       -13.4241
 200   2.0000      -0.488688       -13.2979
 201   2.0000      -0.487750       -13.2724
 202   2.0000      -0.486620       -13.2416
 203   2.0000      -0.483638       -13.1605
 204   2.0000      -0.481709       -13.1080
 205   2.0000      -0.477834       -13.0025
 206   2.0000      -0.476891       -12.9769
 207   2.0000      -0.473327       -12.8799
 208   2.0000      -0.471553       -12.8316
 209   2.0000      -0.465026       -12.6540
 210   2.0000      -0.463089       -12.6013
 211   2.0000      -0.459632       -12.5072
 212   2.0000      -0.458401       -12.4737
 213   2.0000      -0.456369       -12.4184
 214   2.0000      -0.455643       -12.3987
 215   2.0000      -0.450256       -12.2521
 216   2.0000      -0.449660       -12.2359
 217   2.0000      -0.449487       -12.2312
 218   2.0000      -0.448323       -12.1995
 219   2.0000      -0.444448       -12.0940
 220   2.0000      -0.442961       -12.0536
 221   2.0000      -0.440902       -11.9976
 222   2.0000      -0.437524       -11.9056
 223   2.0000      -0.435035       -11.8379
 224   2.0000      -0.432926       -11.7805
 225   2.0000      -0.429490       -11.6870
 226   2.0000      -0.429228       -11.6799
 227   2.0000      -0.428715       -11.6659
 228   2.0000      -0.421431       -11.4677
 229   2.0000      -0.420445       -11.4409
 230   2.0000      -0.415781       -11.3140
 231   2.0000      -0.410184       -11.1617
 232   2.0000      -0.406306       -11.0561
 233   2.0000      -0.406207       -11.0535
 234   2.0000      -0.387325       -10.5396
 235   2.0000      -0.384164       -10.4536
 236   2.0000      -0.383506       -10.4357
 237   2.0000      -0.371425       -10.1070
 238   2.0000      -0.370327       -10.0771
 239   2.0000      -0.364092        -9.9074
 240   2.0000      -0.358494        -9.7551
 241   2.0000      -0.357147        -9.7185
 242   2.0000      -0.355399        -9.6709
 243   2.0000      -0.351717        -9.5707
 244   2.0000      -0.342395        -9.3171
 245   2.0000      -0.342303        -9.3145
 246   2.0000      -0.330850        -9.0029
 247   2.0000      -0.327173        -8.9028
 248   2.0000      -0.320225        -8.7138
 249   2.0000      -0.317591        -8.6421
 250   2.0000      -0.311759        -8.4834
 251   2.0000      -0.309653        -8.4261
 252   2.0000      -0.307661        -8.3719
 253   2.0000      -0.304537        -8.2869
 254   2.0000      -0.303747        -8.2654
 255   2.0000      -0.303179        -8.2499
 256   2.0000      -0.298733        -8.1289
 257   2.0000      -0.280217        -7.6251
 258   2.0000      -0.239047        -6.5048
 259   0.0000      -0.127248        -3.4626
 260   0.0000      -0.118297        -3.2190
 261   0.0000      -0.104713        -2.8494
 262   0.0000      -0.088770        -2.4155
 263   0.0000      -0.081390        -2.2147

MULLIKEN ATOMIC CHARGES
-----------------------
   0 C :   -0.093344
   1 C :    0.304306
   2 F :   -0.187185
   3 C :   -0.031067
   4 C :   -0.004404
   5 C :    0.097274
   6 C :    0.098046
   7 C :   -0.080451
   8 C :    0.042947
   9 C :    0.002640
  10 C :   -0.072384
  11 C :    0.141653
  12 O :   -0.129880
  13 C :   -0.123328
  14 C :    0.263775
  15 C :   -0.329778
  16 C :   -0.188600
  17 N :    0.177769
  18 C :   -0.177189
  19 N :    0.161412
  20 C :    0.027415
  21 C :   -0.068741
  22 C :    0.054945
  23 N :   -0.008587
  24 C :    0.004336
  25 C :    0.043839
  26 C :    0.012818
  27 S :   -0.138434
  28 C :   -0.061844
  29 C :    0.018185
  30 N :   -0.014253
  31 C :    0.072388
  32 C :    0.056250
  33 C :    0.023890
  34 N :   -0.021110
  35 C :    0.141027
  36 C :   -0.157054
  37 C :    0.091651
  38 N :   -0.033706
  39 C :    0.135089
  40 C :   -0.165948
  41 C :    0.042337
  42 C :   -0.033401
  43 C :   -0.005554
  44 C :    0.066146
  45 N :   -0.019442
  46 C :    0.045839
  47 C :    0.004945
  48 C :   -0.025347
  49 S :   -0.100270
  50 C :    0.004698
  51 C :   -0.014944
  52 N :   -0.020873
  53 C :    0.061138
  54 C :    0.027185
  55 C :   -0.026797
  56 C :   -0.091759
  57 C :    0.131351
  58 O :   -0.135041
  59 C :    0.011399
  60 C :   -0.077143
  61 C :    0.097518
  62 C :    0.105748
  63 C :   -0.101331
  64 C :    0.305369
  65 C :   -0.031763
  66 C :   -0.009517
  67 F :   -0.189867
  68 C :   -0.098189
  69 C :    0.053273
  70 C :    0.340218
  71 C :   -0.389057
  72 C :   -0.204516
  73 N :    0.177488
  74 C :   -0.158706
  75 N :    0.148774
  76 H :   -0.001321
  77 H :    0.005976
  78 H :   -0.006933
  79 H :   -0.003684
  80 H :   -0.009364
  81 H :    0.035236
  82 H :    0.014580
  83 H :    0.010154
  84 H :    0.106516
  85 H :   -0.019510
  86 H :    0.138473
  87 H :   -0.025354
  88 H :   -0.010918
  89 H :   -0.028975
  90 H :    0.011987
  91 H :    0.011042
  92 H :    0.024002
  93 H :   -0.010827
  94 H :   -0.002757
  95 H :    0.004347
  96 H :   -0.007768
  97 H :   -0.009181
Sum of atomic charges:   -0.0000000

LOEWDIN ATOMIC CHARGES
----------------------
   0 C :   -0.040907
   1 C :    0.094603
   2 F :   -0.061972
   3 C :   -0.034259
   4 C :    0.005996
   5 C :   -0.017703
   6 C :    0.004010
   7 C :    0.013633
   8 C :   -0.019426
   9 C :   -0.061357
  10 C :    0.038019
  11 C :    0.082986
  12 O :   -0.132156
  13 C :   -0.074965
  14 C :    0.064916
  15 C :   -0.126128
  16 C :   -0.020254
  17 N :   -0.036774
  18 C :   -0.018303
  19 N :   -0.041021
  20 C :    0.075331
  21 C :   -0.054698
  22 C :    0.072355
  23 N :   -0.067144
  24 C :    0.021179
  25 C :   -0.003080
  26 C :   -0.124096
  27 S :    0.072752
  28 C :   -0.078652
  29 C :    0.059455
  30 N :   -0.067053
  31 C :    0.100480
  32 C :   -0.028336
  33 C :    0.006968
  34 N :    0.079407
  35 C :    0.001028
  36 C :   -0.070145
  37 C :    0.011194
  38 N :    0.071679
  39 C :   -0.003159
  40 C :   -0.077128
  41 C :   -0.000586
  42 C :   -0.035286
  43 C :   -0.024121
  44 C :    0.092620
  45 N :   -0.070168
  46 C :    0.049109
  47 C :   -0.056810
  48 C :   -0.140865
  49 S :    0.096479
  50 C :    0.002909
  51 C :    0.026534
  52 N :   -0.067845
  53 C :    0.083707
  54 C :   -0.051831
  55 C :    0.048486
  56 C :   -0.061580
  57 C :    0.086571
  58 O :   -0.134364
  59 C :   -0.063798
  60 C :    0.038914
  61 C :   -0.021175
  62 C :    0.005375
  63 C :   -0.043574
  64 C :    0.094243
  65 C :   -0.038279
  66 C :    0.005703
  67 F :   -0.064353
  68 C :    0.005952
  69 C :   -0.012973
  70 C :    0.053028
  71 C :   -0.134114
  72 C :   -0.016784
  73 N :   -0.042220
  74 C :   -0.025466
  75 N :   -0.052404
  76 H :    0.043843
  77 H :    0.042952
  78 H :    0.036687
  79 H :    0.039789
  80 H :    0.040910
  81 H :    0.052504
  82 H :    0.024200
  83 H :    0.027448
  84 H :    0.030642
  85 H :    0.031577
  86 H :    0.095411
  87 H :    0.027915
  88 H :    0.037340
  89 H :    0.020810
  90 H :    0.024389
  91 H :    0.027370
  92 H :    0.048939
  93 H :    0.040125
  94 H :    0.042669
  95 H :    0.042125
  96 H :    0.036050
  97 H :    0.038004

  Mayer bond orders larger than 0.100000
B(  0-C ,  1-C ) :   1.4408 B(  0-C ,  6-C ) :   1.2045 B(  0-C , 76-H ) :   1.0056
B(  1-C ,  2-F ) :   1.0919 B(  1-C ,  3-C ) :   1.2530 B(  3-C ,  4-C ) :   1.4624
B(  3-C , 77-H ) :   0.9936 B(  4-C ,  5-C ) :   1.2323 B(  4-C , 78-H ) :   0.9968
B(  5-C ,  6-C ) :   1.2513 B(  5-C , 10-C ) :   1.1980 B(  6-C ,  7-C ) :   1.2060
B(  7-C ,  8-C ) :   1.4592 B(  7-C , 79-H ) :   0.9936 B(  8-C ,  9-C ) :   1.2139
B(  8-C , 14-C ) :   1.0056 B(  9-C , 10-C ) :   1.4675 B(  9-C , 11-C ) :   0.9215
B( 10-C , 80-H ) :   1.0143 B( 11-C , 12-O ) :   2.2889 B( 11-C , 13-C ) :   0.9231
B( 13-C , 14-C ) :   1.0241 B( 13-C , 20-C ) :   1.6987 B( 14-C , 15-C ) :   1.6607
B( 15-C , 16-C ) :   1.1539 B( 15-C , 18-C ) :   1.1340 B( 16-C , 17-N ) :   3.0049
B( 18-C , 19-N ) :   2.9855 B( 20-C , 21-C ) :   1.0309 B( 20-C , 81-H ) :   0.9524
B( 21-C , 22-C ) :   1.0095 B( 21-C , 25-C ) :   1.5446 B( 22-C , 23-N ) :   1.7429
B( 22-C , 82-H ) :   0.9892 B( 23-N , 24-C ) :   1.2637 B( 24-C , 25-C ) :   1.0904
B( 24-C , 29-C ) :   1.5067 B( 25-C , 26-C ) :   1.0311 B( 26-C , 27-S ) :   1.6154
B( 26-C , 28-C ) :   1.0873 B( 27-S , 84-H ) :   0.1861 B( 28-C , 29-C ) :   1.0796
B( 28-C , 32-C ) :   1.4299 B( 29-C , 30-N ) :   1.2535 B( 30-N , 31-C ) :   1.7425
B( 31-C , 32-C ) :   1.0319 B( 31-C , 83-H ) :   0.9866 B( 32-C , 33-C ) :   1.1034
B( 33-C , 34-N ) :   1.2572 B( 33-C , 40-C ) :   1.3135 B( 34-N , 35-C ) :   1.1967
B( 34-N , 84-H ) :   0.8506 B( 35-C , 36-C ) :   1.2677 B( 35-C , 39-C ) :   1.2487
B( 36-C , 37-C ) :   1.3171 B( 36-C , 85-H ) :   1.0432 B( 37-C , 38-N ) :   1.1981
B( 37-C , 41-C ) :   1.1863 B( 38-N , 39-C ) :   1.1679 B( 38-N , 86-H ) :   0.9279
B( 39-C , 40-C ) :   1.3156 B( 40-C , 87-H ) :   1.0252 B( 41-C , 42-C ) :   1.5357
B( 41-C , 88-H ) :   0.9616 B( 42-C , 43-C ) :   1.1926 B( 42-C , 89-H ) :   0.9623
B( 43-C , 44-C ) :   0.9822 B( 43-C , 47-C ) :   1.4687 B( 44-C , 45-N ) :   1.7705
B( 44-C , 90-H ) :   0.9865 B( 45-N , 46-C ) :   1.2354 B( 46-C , 47-C ) :   1.0825
B( 46-C , 51-C ) :   1.5140 B( 47-C , 48-C ) :   1.0468 B( 48-C , 49-S ) :   1.6092
B( 48-C , 50-C ) :   1.0647 B( 49-S , 71-C ) :   0.1771 B( 50-C , 51-C ) :   1.0771
B( 50-C , 54-C ) :   1.4227 B( 51-C , 52-N ) :   1.2743 B( 52-N , 53-C ) :   1.7303
B( 53-C , 54-C ) :   1.0201 B( 53-C , 91-H ) :   0.9927 B( 54-C , 55-C ) :   1.1378
B( 55-C , 56-C ) :   1.6065 B( 55-C , 92-H ) :   0.9307 B( 56-C , 57-C ) :   0.9200
B( 56-C , 70-C ) :   1.1117 B( 57-C , 58-O ) :   2.2618 B( 57-C , 59-C ) :   0.9273
B( 59-C , 60-C ) :   1.4713 B( 59-C , 69-C ) :   1.2085 B( 60-C , 61-C ) :   1.1902
B( 60-C , 93-H ) :   1.0150 B( 61-C , 62-C ) :   1.2552 B( 61-C , 66-C ) :   1.2361
B( 62-C , 63-C ) :   1.2071 B( 62-C , 68-C ) :   1.1999 B( 63-C , 64-C ) :   1.4378
B( 63-C , 94-H ) :   1.0058 B( 64-C , 65-C ) :   1.2567 B( 64-C , 67-F ) :   1.0894
B( 65-C , 66-C ) :   1.4588 B( 65-C , 95-H ) :   0.9930 B( 66-C , 96-H ) :   0.9966
B( 68-C , 69-C ) :   1.4675 B( 68-C , 97-H ) :   0.9915 B( 69-C , 70-C ) :   1.0052
B( 70-C , 71-C ) :   1.5307 B( 71-C , 72-C ) :   1.1784 B( 71-C , 74-C ) :   1.1117
B( 72-C , 73-N ) :   2.9920 B( 74-C , 75-N ) :   2.9837

-----------------------------------------------------------------------------
         ABSORPTION SPECTRUM VIA TRANSITION ELECTRIC DIPOLE MOMENTS
-----------------------------------------------------------------------------
State   Energy  Wavelength   fosc         T2         TX        TY        TZ
        (cm-1)    (nm)                  (au**2)     (au)      (au)      (au)
-----------------------------------------------------------------------------
   0    9979.9   1002.0   0.634632527  20.93498  -0.44509   1.43784   4.32082
   1   11385.3    878.3   0.158557610   4.58478  -0.06583  -0.68211  -2.02859
   2   14051.6    711.7   0.020423303   0.47849   0.28279   0.09874   0.62352
   3   14722.5    679.2   0.902031566  20.17041   0.38454  -1.35347  -4.26505
   4   17427.9    573.8   0.018676797   0.35280  -0.35487   0.35226   0.32059
   5   18663.5    535.8   0.000025292   0.00045  -0.00268  -0.01494  -0.01469
   6   19019.8    525.8   0.060053560   1.03946   0.19001   0.09378   0.99728
   7   20884.8    478.8   0.009234318   0.14556   0.09362   0.11280  -0.35224
   8   20986.1    476.5   0.038090705   0.59753  -0.08471  -0.14748   0.75406
   9   21282.6    469.9   0.005528521   0.08552   0.20159   0.18237   0.10780
  10   21550.3    464.0   0.037715116   0.57615   0.52773  -0.54484  -0.02839
  11   22032.0    453.9   0.132288776   1.97672  -0.19495   0.02130   1.39221
  12   22412.8    446.2   0.017809836   0.26160  -0.14335   0.02140  -0.49050
  13   22882.8    437.0   0.081425991   1.17146   0.78255  -0.10183   0.74075
  14   23517.1    425.2   0.121224145   1.69699   0.08839   0.05872  -1.29836
  15   23777.9    420.6   0.061160181   0.84678  -0.33704   0.64856  -0.55907
  16   24491.5    408.3   0.041716488   0.56075  -0.74129  -0.05095  -0.09295
  17   24781.1    403.5   0.032145257   0.42704  -0.03759  -0.54764   0.35458
  18   25310.2    395.1   0.175955197   2.28866   0.39767  -0.00290  -1.45963
  19   25571.6    391.1   0.011186706   0.14402  -0.18252   0.21572   0.25332
  20   25680.1    389.4   0.018953362   0.24298  -0.11720   0.05796   0.47527
  21   25764.0    388.1   0.036351436   0.46450   0.28221   0.18968  -0.59066
  22   25839.5    387.0   0.005356802   0.06825   0.01324  -0.14842  -0.21458
  23   26106.1    383.1   0.054550831   0.68792  -0.05199  -0.30946   0.76775
  24   26413.7    378.6   0.035262055   0.43950  -0.47088   0.13251   0.44745
  25   26648.0    375.3   0.014720450   0.18186   0.13777  -0.00122   0.40358
  26   26800.7    373.1   0.007823227   0.09610   0.27971  -0.08394   0.10398
  27   26865.5    372.2   0.006875554   0.08425   0.04072   0.10620  -0.26705
  28   27415.0    364.8   0.289983314   3.48225  -0.09051  -0.21465   1.85148
  29   27942.6    357.9   0.062701971   0.73874  -0.71227   0.46163  -0.13528
  30   28087.0    356.0   0.105474922   1.23629   0.91242  -0.54242   0.33100
  31   28181.4    354.8   0.353173630   4.12574   1.17683  -0.64376   1.52525
  32   28394.1    352.2   0.042130682   0.48848   0.52816  -0.30926   0.33747
  33   29184.1    342.7   0.043068386   0.48583  -0.20878   0.04222   0.66367
  34   29387.9    340.3   0.005200762   0.05826   0.10087   0.08352   0.20275
  35   29593.2    337.9   0.026272033   0.29226   0.12356  -0.46011  -0.25553
  36   29679.5    336.9   0.095812756   1.06278   0.58548  -0.73563   0.42290
  37   30162.6    331.5   0.201028366   2.19414  -1.07950   1.01346  -0.04140
  38   30409.6    328.8   0.282610809   3.05952   0.83337  -0.54876   1.43662
  39   30430.8    328.6   0.080032996   0.86583  -0.07220   0.27881   0.88480
  40   30582.2    327.0   0.019193286   0.20661   0.36551  -0.25397  -0.09227
  41   31079.2    321.8   0.104584027   1.10783   0.82234  -0.15030   0.63953
  42   31141.4    321.1   0.048248538   0.51006  -0.64532   0.26699   0.14944
  43   31315.8    319.3   0.002815824   0.02960  -0.01962  -0.12397   0.11768
  44   31421.4    318.3   0.118518599   1.24176  -0.56518   0.42850  -0.85948
  45   31765.5    314.8   0.054634073   0.56622  -0.50200   0.37708  -0.41476
  46   31964.1    312.9   0.007181291   0.07396  -0.09876   0.24979   0.04257
  47   32098.5    311.5   0.003910719   0.04011   0.02230  -0.06407  -0.18843
  48   32218.1    310.4   0.045900887   0.46903   0.16069  -0.49935  -0.44029
  49   32743.4    305.4   0.073525601   0.73925   0.22549   0.34139   0.75621
  50   32871.2    304.2   0.071961520   0.72071  -0.24747   0.14168   0.79962
  51   33125.7    301.9   0.173838144   1.72765  -0.42206   0.69177   1.03487
  52   33314.0    300.2   0.139151165   1.37510   0.38617   0.03784   1.10659
  53   33376.1    299.6   0.061216211   0.60382   0.52167  -0.55731  -0.14520
  54   33469.3    298.8   0.220906446   2.17289  -0.47226   0.48485  -1.30949
  55   33599.9    297.6   0.175171181   1.71633  -0.58356   0.84313  -0.81542
  56   33843.5    295.5   0.029314872   0.28516  -0.16094   0.09193   0.50081
  57   33896.3    295.0   0.237413416   2.30584  -0.09676   0.16683   1.50620
  58   34195.5    292.4   0.121739427   1.17203   0.56379  -0.84376   0.37714
  59   34481.3    290.0   0.005907005   0.05640  -0.06570   0.06075  -0.21998
  60   34566.5    289.3   0.064566426   0.61493  -0.20814   0.68116   0.32807
  61   34879.1    286.7   0.065862616   0.62165   0.00180   0.04931  -0.78691
  62   35000.2    285.7   0.021577488   0.20296   0.26994  -0.34280  -0.11216
  63   35193.3    284.1   0.037400991   0.34986   0.20079   0.07383   0.55145
  64   35224.3    283.9   0.006391317   0.05973   0.22211  -0.08783   0.05185
  65   35254.2    283.7   0.019296613   0.18020  -0.25502   0.08972  -0.32728
  66   35428.7    282.3   0.040473218   0.37609  -0.49329   0.33198  -0.15012
  67   35524.2    281.5   0.065934833   0.61104   0.06349   0.11408   0.77071
  68   36018.5    277.6   0.031418748   0.28717  -0.15520   0.01862  -0.51258
  69   36262.9    275.8   0.152197343   1.38172  -0.40013  -0.34957  -1.04853
  70   36353.1    275.1   0.141551763   1.28189   0.80490  -0.78699   0.12113
  71   36469.7    274.2   0.112365909   1.01433  -0.01520  -0.32830   0.95201
  72   36785.4    271.8   0.015698557   0.14049  -0.20671   0.07603  -0.30329
  73   36920.7    270.9   0.032051834   0.28580   0.42341  -0.23965  -0.22155
  74   37016.7    270.1   0.003123443   0.02778   0.15181   0.06631  -0.01830
  75   37223.0    268.7   0.169424669   1.49845   1.02232  -0.45283   0.49825
  76   37246.0    268.5   0.013000678   0.11491  -0.24017   0.02594  -0.23781
  77   37319.2    268.0   0.000643386   0.00568   0.06171  -0.04311   0.00317
  78   37395.9    267.4   0.083200319   0.73245   0.33458  -0.75077   0.23841
  79   37633.4    265.7   0.001571496   0.01375   0.01420  -0.11201   0.03161
  80   37735.8    265.0   0.039599291   0.34547   0.36080  -0.18725   0.42454
  81   37893.9    263.9   0.009357957   0.08130  -0.14783   0.17415  -0.17063
  82   38067.4    262.7   0.023886824   0.20658  -0.35015  -0.05311  -0.28487
  83   38185.5    261.9   0.073149085   0.63065   0.41427  -0.27671   0.61843
  84   38287.4    261.2   0.028179968   0.24230   0.42055   0.22256  -0.12614
  85   38486.9    259.8   0.107911997   0.92307   0.66585  -0.66387  -0.19747
  86   38588.0    259.1   0.367974891   3.13937   0.41260  -1.02679   1.38377
  87   38617.5    258.9   0.012751535   0.10871  -0.21406  -0.05575  -0.24449
  88   38793.5    257.8   0.040892492   0.34702   0.43789  -0.20763   0.33491
  89   38886.2    257.2   0.015627850   0.13231   0.36202  -0.03072   0.01752
  90   38941.3    256.8   0.064346386   0.54399   0.39939  -0.61868   0.04133
  91   39175.8    255.3   0.195708767   1.64463  -0.30181   1.24483   0.06272
  92   39307.3    254.4   0.182622901   1.52953  -0.76661   0.95909  -0.14824
  93   39313.9    254.4   0.004978142   0.04169   0.03463  -0.14305   0.14150
  94   39385.5    253.9   0.105468976   0.88158   0.35576  -0.65232   0.57402
  95   39676.2    252.0   0.159837539   1.32625  -0.68550   0.92494   0.02855
  96   39739.6    251.6   0.008385697   0.06947  -0.23219   0.07308   0.10107
  97   39970.9    250.2   0.024453139   0.20140  -0.11781  -0.21566   0.37552
  98   40283.5    248.2   0.002912728   0.02380  -0.07859   0.13183  -0.01573

FINAL SINGLE POINT ENERGY     -3989.179999392339

DIPOLE MOMENT
-------------
                                X             Y             Z
Electronic contribution:      7.89789      -1.91716      -5.78025
Nuclear contribution   :     -9.51291       0.44576       5.52779
                        -----------------------------------------
Total Dipole Moment    :     -1.61502      -1.47140      -0.25246
                        -----------------------------------------
Magnitude (a.u.)       :      2.19933
Magnitude (Debye)      :      5.59026

Rotational constants in cm-1:     0.001795     0.000193     0.000178
Rotational constants in MHz :    53.824468     5.779625     5.348764

                             ****ORCA TERMINATED NORMALLY****
TOTAL RUN TIME: 0 days 0 hours 25 minutes 27 seconds 925 msec
