                         Program Version 4.2.0 -  RELEASE  -
|  1> # ORCA input file
|  2> # SCF done       -191.057905810038          0.000665699413
|  3> ! CAM-B3LYP def2-SVP def2/J RIJCOSX Grid4 TightSCF
|  4> %maxcore 5000
|  5> %tddft
|  6>     Mode sTDDFT
|  7>     Ethresh 5.0
|  8>     maxcore 5000
|  9> end
| 10>
| 11> %pal
| 12>   nprocs 6
| 13>   end
| 14> * xyz 0 1
| 15>    C       21.59069         3.69862         2.15373
| 16>    C       22.89078         3.43216         2.48369
| 17>    F       23.59234         4.33572         3.19064
| 18>    C       23.53144         2.24220         2.11296
| 19>    C       22.83292         1.31089         1.39563
| 20>    C       21.48937         1.53275         1.03066
| 21>    C       20.85621         2.75095         1.41533
| 22>    C       19.50976         2.99828         1.05846
| 23>    C       18.82070         2.05232         0.34968
| 24>    C       19.45382         0.83019        -0.01992
| 25>    C       20.75511         0.57078         0.30054
| 26>    C       18.48216        -0.02126        -0.72714
| 27>    O       18.66262        -1.09857        -1.24340
| 28>    C       17.17692         0.71016        -0.63339
| 29>    C       17.44975         2.03318        -0.14594
| 30>    C       16.61148         3.11921        -0.23289
| 31>    C       15.41122         3.09354        -0.96302
| 32>    N       14.43623         3.11941        -1.56976
| 33>    C       16.90215         4.39874         0.28313
| 34>    N       17.05749         5.45081         0.71465
| 35>    C       16.03673         0.01148        -0.90437
| 36>    C       14.67036         0.22657        -0.61201
| 37>    C       13.63073        -0.51921        -1.32710
| 38>    N       12.41692        -0.29525        -0.91514
| 39>    C       12.53464         0.58291         0.11027
| 40>    C       13.95167         0.95256         0.33165
| 41>    C       14.03870         1.82046         1.47062
| 42>    S       15.36139         2.46598         2.22165
| 43>    C       12.68160         1.99255         1.91284
| 44>    C       11.76410         1.22507         1.04976
| 45>    N       10.49730         1.26157         1.56356
| 46>    C       10.57480         1.97068         2.64846
| 47>    C       11.92167         2.48500         2.93933
| 48>    C       12.31546         3.26415         4.09856
| 49>    C       11.86520         2.87908         5.36301
| 50>    F       11.01560         1.83678         5.46279
| 51>    C       12.28565         3.48823         6.52851
| 52>    C       13.20187         4.52387         6.44608
| 53>    C       13.66198         4.94157         5.21275
| 54>    C       13.21492         4.35161         4.02977
| 55>    C       13.65181         4.92275         2.76938
| 56>    C       12.88048         4.96528         1.66606
| 57>    C       13.26688         5.47190         0.39514
| 58>    C       14.30762         6.45282         0.04631
| 59>    N       14.36568         6.74288        -1.21978
| 60>    C       13.40248         5.98591        -1.82240
| 61>    C       12.70315         5.15880        -0.81697
| 62>    C       11.70324         4.34766        -1.44338
| 63>    S       10.75846         3.17449        -0.77896
| 64>    C       11.73739         4.76112        -2.82509
| 65>    C       12.80855         5.75723        -3.03220
| 66>    N       12.81348         6.18131        -4.32876
| 67>    C       11.80406         5.59623        -4.89550
| 68>    C       11.05745         4.68394        -4.01222
| 69>    C        9.90642         3.92256        -4.36760
| 70>    C        8.90177         4.32515        -5.18205
| 71>    C        7.94926         3.33559        -5.77239
| 72>    O        7.81447         2.18208        -5.44550
| 73>    C        7.27301         4.06209        -6.86316
| 74>    C        6.37301         3.58980        -7.77541
| 75>    C        5.84845         4.47034        -8.74706
| 76>    C        6.27906         5.82982        -8.76284
| 77>    C        5.75383         6.70229        -9.73598
| 78>    C        4.84116         6.22993       -10.63795
| 79>    C        4.40374         4.89779       -10.63742
| 80>    C        4.90576         4.03644        -9.70212
| 81>    F        4.33597         7.06129       -11.56503
| 82>    C        7.21100         6.29294        -7.80557
| 83>    C        7.69334         5.42487        -6.86253
| 84>    C        8.59379         5.63209        -5.73333
| 85>    C        8.89764         6.83986        -5.16314
| 86>    C        9.48913         6.98394        -3.89035
| 87>    N        9.88725         7.15458        -2.82745
| 88>    C        8.54094         8.08290        -5.72818
| 89>    N        8.28883         9.11366        -6.16410
| 90>    H       21.13020         4.62659         2.45476
| 91>    H       24.55882         2.08686         2.40172
| 92>    H       23.30497         0.38626         1.09940
| 93>    H       19.05085         3.92335         1.36913
| 94>    H       21.21859        -0.35931         0.00735
| 95>    H       16.23091        -0.94132        -1.39525
| 96>    H       13.81923        -1.19137        -2.14626
| 97>    H        9.70254         2.14774         3.25207
| 98>    H       11.90782         3.13621         7.47497
| 99>    H       13.55381         5.00190         7.34675
|100>    H       14.36513         5.75811         5.15012
|101>    H       14.63361         5.37668         2.76047
|102>    H       11.88428         4.54093         1.68888
|103>    H       14.97152         6.93211         0.74397
|104>    H       11.59191         5.75145        -5.93982
|105>    H        9.84511         2.90951        -3.98184
|106>    H        6.06103         2.55643        -7.75168
|107>    H        6.06477         7.73494        -9.76344
|108>    H        3.68136         4.58274       -11.37363
|109>    H        4.58351         3.00634        -9.68156
|110>    H        7.52498         7.32400        -7.84522
|111> *
|112>
|113>                          ****END OF INPUT****

CARTESIAN COORDINATES (ANGSTROEM)
---------------------------------
  C     21.590690    3.698620    2.153730
  C     22.890780    3.432160    2.483690
  F     23.592340    4.335720    3.190640
  C     23.531440    2.242200    2.112960
  C     22.832920    1.310890    1.395630
  C     21.489370    1.532750    1.030660
  C     20.856210    2.750950    1.415330
  C     19.509760    2.998280    1.058460
  C     18.820700    2.052320    0.349680
  C     19.453820    0.830190   -0.019920
  C     20.755110    0.570780    0.300540
  C     18.482160   -0.021260   -0.727140
  O     18.662620   -1.098570   -1.243400
  C     17.176920    0.710160   -0.633390
  C     17.449750    2.033180   -0.145940
  C     16.611480    3.119210   -0.232890
  C     15.411220    3.093540   -0.963020
  N     14.436230    3.119410   -1.569760
  C     16.902150    4.398740    0.283130
  N     17.057490    5.450810    0.714650
  C     16.036730    0.011480   -0.904370
  C     14.670360    0.226570   -0.612010
  C     13.630730   -0.519210   -1.327100
  N     12.416920   -0.295250   -0.915140
  C     12.534640    0.582910    0.110270
  C     13.951670    0.952560    0.331650
  C     14.038700    1.820460    1.470620
  S     15.361390    2.465980    2.221650
  C     12.681600    1.992550    1.912840
  C     11.764100    1.225070    1.049760
  N     10.497300    1.261570    1.563560
  C     10.574800    1.970680    2.648460
  C     11.921670    2.485000    2.939330
  C     12.315460    3.264150    4.098560
  C     11.865200    2.879080    5.363010
  F     11.015600    1.836780    5.462790
  C     12.285650    3.488230    6.528510
  C     13.201870    4.523870    6.446080
  C     13.661980    4.941570    5.212750
  C     13.214920    4.351610    4.029770
  C     13.651810    4.922750    2.769380
  C     12.880480    4.965280    1.666060
  C     13.266880    5.471900    0.395140
  C     14.307620    6.452820    0.046310
  N     14.365680    6.742880   -1.219780
  C     13.402480    5.985910   -1.822400
  C     12.703150    5.158800   -0.816970
  C     11.703240    4.347660   -1.443380
  S     10.758460    3.174490   -0.778960
  C     11.737390    4.761120   -2.825090
  C     12.808550    5.757230   -3.032200
  N     12.813480    6.181310   -4.328760
  C     11.804060    5.596230   -4.895500
  C     11.057450    4.683940   -4.012220
  C      9.906420    3.922560   -4.367600
  C      8.901770    4.325150   -5.182050
  C      7.949260    3.335590   -5.772390
  O      7.814470    2.182080   -5.445500
  C      7.273010    4.062090   -6.863160
  C      6.373010    3.589800   -7.775410
  C      5.848450    4.470340   -8.747060
  C      6.279060    5.829820   -8.762840
  C      5.753830    6.702290   -9.735980
  C      4.841160    6.229930  -10.637950
  C      4.403740    4.897790  -10.637420
  C      4.905760    4.036440   -9.702120
  F      4.335970    7.061290  -11.565030
  C      7.211000    6.292940   -7.805570
  C      7.693340    5.424870   -6.862530
  C      8.593790    5.632090   -5.733330
  C      8.897640    6.839860   -5.163140
  C      9.489130    6.983940   -3.890350
  N      9.887250    7.154580   -2.827450
  C      8.540940    8.082900   -5.728180
  N      8.288830    9.113660   -6.164100
  H     21.130200    4.626590    2.454760
  H     24.558820    2.086860    2.401720
  H     23.304970    0.386260    1.099400
  H     19.050850    3.923350    1.369130
  H     21.218590   -0.359310    0.007350
  H     16.230910   -0.941320   -1.395250
  H     13.819230   -1.191370   -2.146260
  H      9.702540    2.147740    3.252070
  H     11.907820    3.136210    7.474970
  H     13.553810    5.001900    7.346750
  H     14.365130    5.758110    5.150120
  H     14.633610    5.376680    2.760470
  H     11.884280    4.540930    1.688880
  H     14.971520    6.932110    0.743970
  H     11.591910    5.751450   -5.939820
  H      9.845110    2.909510   -3.981840
  H      6.061030    2.556430   -7.751680
  H      6.064770    7.734940   -9.763440
  H      3.681360    4.582740  -11.373630
  H      4.583510    3.006340   -9.681560
  H      7.524980    7.324000   -7.845220

 Total Charge           Charge          ....    0
 Multiplicity           Mult            ....    1
 Number of Electrons    NEL             ....  512
 Basis Dimension        Dim             .... 1163

ORBITAL ENERGIES
----------------

  NO   OCC          E(Eh)            E(eV)
   0   2.0000     -88.913745     -2419.4660
   1   2.0000     -88.905051     -2419.2294
   2   2.0000     -24.794557      -674.6942
   3   2.0000     -24.789394      -674.5537
   4   2.0000     -24.787558      -674.5037
   5   2.0000     -19.223373      -523.0946
   6   2.0000     -19.216572      -522.9095
   7   2.0000     -14.428299      -392.6140
   8   2.0000     -14.428106      -392.6087
   9   2.0000     -14.419312      -392.3694
  10   2.0000     -14.418409      -392.3448
  11   2.0000     -14.417712      -392.3259
  12   2.0000     -14.416426      -392.2909
  13   2.0000     -14.411915      -392.1682
  14   2.0000     -14.410068      -392.1179
  15   2.0000     -10.373397      -282.2745
  16   2.0000     -10.372772      -282.2575
  17   2.0000     -10.371473      -282.2221
  18   2.0000     -10.370753      -282.2025
  19   2.0000     -10.367568      -282.1159
  20   2.0000     -10.354407      -281.7577
  21   2.0000     -10.349673      -281.6289
  22   2.0000     -10.349232      -281.6169
  23   2.0000     -10.345408      -281.5129
  24   2.0000     -10.342987      -281.4470
  25   2.0000     -10.342043      -281.4213
  26   2.0000     -10.338411      -281.3225
  27   2.0000     -10.338272      -281.3187
  28   2.0000     -10.335453      -281.2420
  29   2.0000     -10.333539      -281.1899
  30   2.0000     -10.332133      -281.1516
  31   2.0000     -10.331401      -281.1317
  32   2.0000     -10.331105      -281.1237
  33   2.0000     -10.329482      -281.0795
  34   2.0000     -10.328724      -281.0589
  35   2.0000     -10.324934      -280.9557
  36   2.0000     -10.324612      -280.9470
  37   2.0000     -10.321131      -280.8523
  38   2.0000     -10.319017      -280.7947
  39   2.0000     -10.318656      -280.7849
  40   2.0000     -10.318474      -280.7800
  41   2.0000     -10.315063      -280.6871
  42   2.0000     -10.314243      -280.6648
  43   2.0000     -10.310281      -280.5570
  44   2.0000     -10.309790      -280.5436
  45   2.0000     -10.309614      -280.5389
  46   2.0000     -10.309194      -280.5274
  47   2.0000     -10.308440      -280.5069
  48   2.0000     -10.305260      -280.4204
  49   2.0000     -10.304843      -280.4090
  50   2.0000     -10.304426      -280.3977
  51   2.0000     -10.303489      -280.3722
  52   2.0000     -10.303178      -280.3637
  53   2.0000     -10.302823      -280.3541
  54   2.0000     -10.302524      -280.3459
  55   2.0000     -10.302222      -280.3377
  56   2.0000     -10.302215      -280.3375
  57   2.0000     -10.301466      -280.3172
  58   2.0000     -10.300975      -280.3038
  59   2.0000     -10.300548      -280.2922
  60   2.0000     -10.299956      -280.2760
  61   2.0000     -10.299480      -280.2631
  62   2.0000     -10.298399      -280.2337
  63   2.0000     -10.297787      -280.2170
  64   2.0000     -10.296357      -280.1781
  65   2.0000     -10.294296      -280.1220
  66   2.0000     -10.292723      -280.0792
  67   2.0000     -10.292457      -280.0720
  68   2.0000     -10.292367      -280.0696
  69   2.0000     -10.290935      -280.0306
  70   2.0000     -10.290761      -280.0258
  71   2.0000     -10.290104      -280.0080
  72   2.0000     -10.287816      -279.9457
  73   2.0000     -10.283732      -279.8346
  74   2.0000     -10.283513      -279.8286
  75   2.0000      -8.008542      -217.9235
  76   2.0000      -7.999737      -217.6839
  77   2.0000      -5.977530      -162.6569
  78   2.0000      -5.977198      -162.6478
  79   2.0000      -5.968345      -162.4069
  80   2.0000      -5.968002      -162.3976
  81   2.0000      -5.967600      -162.3866
  82   2.0000      -5.959537      -162.1673
  83   2.0000      -1.308356       -35.6022
  84   2.0000      -1.304491       -35.4970
  85   2.0000      -1.302922       -35.4543
  86   2.0000      -1.138495       -30.9800
  87   2.0000      -1.132453       -30.8156
  88   2.0000      -1.088862       -29.6294
  89   2.0000      -1.079783       -29.3824
  90   2.0000      -1.069016       -29.0894
  91   2.0000      -1.060685       -28.8627
  92   2.0000      -1.029378       -28.0108
  93   2.0000      -1.021586       -27.7988
  94   2.0000      -1.008317       -27.4377
  95   2.0000      -1.007338       -27.4110
  96   2.0000      -1.002839       -27.2886
  97   2.0000      -0.996332       -27.1116
  98   2.0000      -0.981776       -26.7155
  99   2.0000      -0.980396       -26.6779
 100   2.0000      -0.978913       -26.6376
 101   2.0000      -0.969699       -26.3868
 102   2.0000      -0.960696       -26.1419
 103   2.0000      -0.935394       -25.4534
 104   2.0000      -0.932789       -25.3825
 105   2.0000      -0.920308       -25.0429
 106   2.0000      -0.917042       -24.9540
 107   2.0000      -0.912887       -24.8409
 108   2.0000      -0.899354       -24.4727
 109   2.0000      -0.896096       -24.3840
 110   2.0000      -0.892114       -24.2757
 111   2.0000      -0.890039       -24.2192
 112   2.0000      -0.885724       -24.1018
 113   2.0000      -0.871243       -23.7077
 114   2.0000      -0.863756       -23.5040
 115   2.0000      -0.854201       -23.2440
 116   2.0000      -0.849723       -23.1221
 117   2.0000      -0.842500       -22.9256
 118   2.0000      -0.838676       -22.8215
 119   2.0000      -0.835403       -22.7325
 120   2.0000      -0.834234       -22.7007
 121   2.0000      -0.818023       -22.2595
 122   2.0000      -0.804368       -21.8880
 123   2.0000      -0.796061       -21.6619
 124   2.0000      -0.781311       -21.2606
 125   2.0000      -0.770729       -20.9726
 126   2.0000      -0.766548       -20.8588
 127   2.0000      -0.762879       -20.7590
 128   2.0000      -0.752593       -20.4791
 129   2.0000      -0.744967       -20.2716
 130   2.0000      -0.731020       -19.8921
 131   2.0000      -0.730402       -19.8752
 132   2.0000      -0.723823       -19.6962
 133   2.0000      -0.714258       -19.4359
 134   2.0000      -0.713340       -19.4110
 135   2.0000      -0.711610       -19.3639
 136   2.0000      -0.708723       -19.2853
 137   2.0000      -0.701455       -19.0876
 138   2.0000      -0.698947       -19.0193
 139   2.0000      -0.697179       -18.9712
 140   2.0000      -0.689103       -18.7514
 141   2.0000      -0.682966       -18.5844
 142   2.0000      -0.680058       -18.5053
 143   2.0000      -0.662196       -18.0193
 144   2.0000      -0.653036       -17.7700
 145   2.0000      -0.650175       -17.6922
 146   2.0000      -0.648437       -17.6449
 147   2.0000      -0.641058       -17.4441
 148   2.0000      -0.638597       -17.3771
 149   2.0000      -0.636336       -17.3156
 150   2.0000      -0.633250       -17.2316
 151   2.0000      -0.631005       -17.1705
 152   2.0000      -0.618378       -16.8269
 153   2.0000      -0.611788       -16.6476
 154   2.0000      -0.610561       -16.6142
 155   2.0000      -0.603977       -16.4350
 156   2.0000      -0.600472       -16.3397
 157   2.0000      -0.597319       -16.2539
 158   2.0000      -0.588827       -16.0228
 159   2.0000      -0.584489       -15.9048
 160   2.0000      -0.577614       -15.7177
 161   2.0000      -0.572981       -15.5916
 162   2.0000      -0.571973       -15.5642
 163   2.0000      -0.568421       -15.4675
 164   2.0000      -0.567889       -15.4530
 165   2.0000      -0.562716       -15.3123
 166   2.0000      -0.561946       -15.2913
 167   2.0000      -0.560232       -15.2447
 168   2.0000      -0.559441       -15.2232
 169   2.0000      -0.557252       -15.1636
 170   2.0000      -0.555249       -15.1091
 171   2.0000      -0.554089       -15.0775
 172   2.0000      -0.553096       -15.0505
 173   2.0000      -0.550553       -14.9813
 174   2.0000      -0.548697       -14.9308
 175   2.0000      -0.546955       -14.8834
 176   2.0000      -0.542689       -14.7673
 177   2.0000      -0.541830       -14.7439
 178   2.0000      -0.536869       -14.6089
 179   2.0000      -0.535171       -14.5627
 180   2.0000      -0.533154       -14.5079
 181   2.0000      -0.527790       -14.3619
 182   2.0000      -0.525490       -14.2993
 183   2.0000      -0.522835       -14.2271
 184   2.0000      -0.520397       -14.1607
 185   2.0000      -0.515746       -14.0342
 186   2.0000      -0.514279       -13.9942
 187   2.0000      -0.511726       -13.9248
 188   2.0000      -0.510670       -13.8960
 189   2.0000      -0.504116       -13.7177
 190   2.0000      -0.502901       -13.6846
 191   2.0000      -0.501000       -13.6329
 192   2.0000      -0.497464       -13.5367
 193   2.0000      -0.495943       -13.4953
 194   2.0000      -0.494183       -13.4474
 195   2.0000      -0.492171       -13.3926
 196   2.0000      -0.488759       -13.2998
 197   2.0000      -0.486983       -13.2515
 198   2.0000      -0.486154       -13.2289
 199   2.0000      -0.485073       -13.1995
 200   2.0000      -0.481881       -13.1127
 201   2.0000      -0.479928       -13.0595
 202   2.0000      -0.475290       -12.9333
 203   2.0000      -0.471437       -12.8284
 204   2.0000      -0.470599       -12.8057
 205   2.0000      -0.467728       -12.7275
 206   2.0000      -0.464238       -12.6326
 207   2.0000      -0.462099       -12.5743
 208   2.0000      -0.461086       -12.5468
 209   2.0000      -0.459109       -12.4930
 210   2.0000      -0.458405       -12.4738
 211   2.0000      -0.456475       -12.4213
 212   2.0000      -0.452268       -12.3068
 213   2.0000      -0.451782       -12.2936
 214   2.0000      -0.447384       -12.1739
 215   2.0000      -0.445628       -12.1262
 216   2.0000      -0.444648       -12.0995
 217   2.0000      -0.440888       -11.9972
 218   2.0000      -0.439058       -11.9474
 219   2.0000      -0.437502       -11.9050
 220   2.0000      -0.434485       -11.8229
 221   2.0000      -0.430961       -11.7270
 222   2.0000      -0.430199       -11.7063
 223   2.0000      -0.429450       -11.6859
 224   2.0000      -0.426018       -11.5925
 225   2.0000      -0.423592       -11.5265
 226   2.0000      -0.422313       -11.4917
 227   2.0000      -0.417279       -11.3547
 228   2.0000      -0.411399       -11.1947
 229   2.0000      -0.408411       -11.1134
 230   2.0000      -0.400670       -10.9028
 231   2.0000      -0.395914       -10.7734
 232   2.0000      -0.386010       -10.5039
 233   2.0000      -0.382954       -10.4207
 234   2.0000      -0.374490       -10.1904
 235   2.0000      -0.369586       -10.0570
 236   2.0000      -0.364547        -9.9198
 237   2.0000      -0.359305        -9.7772
 238   2.0000      -0.354398        -9.6437
 239   2.0000      -0.349372        -9.5069
 240   2.0000      -0.347345        -9.4518
 241   2.0000      -0.343585        -9.3494
 242   2.0000      -0.337551        -9.1852
 243   2.0000      -0.336286        -9.1508
 244   2.0000      -0.331680        -9.0255
 245   2.0000      -0.322364        -8.7720
 246   2.0000      -0.318060        -8.6548
 247   2.0000      -0.313344        -8.5265
 248   2.0000      -0.309563        -8.4236
 249   2.0000      -0.306124        -8.3301
 250   2.0000      -0.303882        -8.2691
 251   2.0000      -0.300391        -8.1741
 252   2.0000      -0.295576        -8.0430
 253   2.0000      -0.289154        -7.8683
 254   2.0000      -0.283506        -7.7146
 255   2.0000      -0.270615        -7.3638
 256   0.0000      -0.122091        -3.3223
 257   0.0000      -0.109515        -2.9800
 258   0.0000      -0.095335        -2.5942
 259   0.0000      -0.091810        -2.4983
 260   0.0000      -0.083424        -2.2701

MULLIKEN ATOMIC CHARGES
-----------------------
   0 C :   -0.098568
   1 C :    0.304047
   2 F :   -0.189351
   3 C :   -0.029643
   4 C :   -0.007137
   5 C :    0.097186
   6 C :    0.108097
   7 C :   -0.097051
   8 C :    0.048528
   9 C :    0.012482
  10 C :   -0.078637
  11 C :    0.136906
  12 O :   -0.136109
  13 C :   -0.111149
  14 C :    0.350410
  15 C :   -0.373279
  16 C :   -0.192474
  17 N :    0.170615
  18 C :   -0.133197
  19 N :    0.128693
  20 C :   -0.009783
  21 C :    0.010374
  22 C :    0.060590
  23 N :   -0.014755
  24 C :    0.020225
  25 C :    0.018272
  26 C :   -0.010464
  27 S :   -0.106183
  28 C :    0.024909
  29 C :    0.010797
  30 N :   -0.027589
  31 C :    0.080147
  32 C :   -0.096080
  33 C :    0.002486
  34 C :    0.225204
  35 F :   -0.188768
  36 C :   -0.044676
  37 C :    0.049183
  38 C :   -0.032856
  39 C :    0.117574
  40 C :   -0.015667
  41 C :    0.003877
  42 C :   -0.029827
  43 C :    0.070650
  44 N :   -0.028022
  45 C :    0.034528
  46 C :    0.021378
  47 C :    0.027926
  48 S :   -0.101413
  49 C :    0.071894
  50 C :    0.012838
  51 N :   -0.015502
  52 C :    0.060744
  53 C :   -0.095127
  54 C :    0.030466
  55 C :   -0.126820
  56 C :    0.140731
  57 O :   -0.127463
  58 C :    0.002496
  59 C :   -0.074725
  60 C :    0.099971
  61 C :    0.100759
  62 C :   -0.094389
  63 C :    0.303224
  64 C :   -0.032021
  65 C :   -0.006673
  66 F :   -0.188314
  67 C :   -0.084544
  68 C :    0.042730
  69 C :    0.273910
  70 C :   -0.341469
  71 C :   -0.177498
  72 N :    0.171170
  73 C :   -0.174981
  74 N :    0.157498
  75 H :   -0.003534
  76 H :    0.004990
  77 H :   -0.008196
  78 H :   -0.009416
  79 H :   -0.010507
  80 H :    0.024812
  81 H :    0.011682
  82 H :    0.014271
  83 H :   -0.001661
  84 H :    0.000594
  85 H :   -0.017186
  86 H :    0.004572
  87 H :    0.012186
  88 H :    0.024152
  89 H :    0.013838
  90 H :    0.043580
  91 H :   -0.008674
  92 H :   -0.000928
  93 H :    0.005222
  94 H :   -0.007279
  95 H :   -0.003828
Sum of atomic charges:   -0.0000000

LOEWDIN ATOMIC CHARGES
----------------------
   0 C :   -0.042461
   1 C :    0.094530
   2 F :   -0.063535
   3 C :   -0.036533
   4 C :    0.006040
   5 C :   -0.019503
   6 C :    0.005065
   7 C :    0.009633
   8 C :   -0.014080
   9 C :   -0.061833
  10 C :    0.038773
  11 C :    0.086601
  12 O :   -0.134590
  13 C :   -0.065971
  14 C :    0.063945
  15 C :   -0.140188
  16 C :   -0.002905
  17 N :   -0.045839
  18 C :   -0.012241
  19 N :   -0.057305
  20 C :    0.054975
  21 C :   -0.059101
  22 C :    0.085320
  23 N :   -0.068696
  24 C :    0.022138
  25 C :    0.008732
  26 C :   -0.144009
  27 S :    0.119050
  28 C :   -0.026598
  29 C :    0.043511
  30 N :   -0.079700
  31 C :    0.100169
  32 C :   -0.023508
  33 C :   -0.057294
  34 C :    0.100148
  35 F :   -0.062734
  36 C :   -0.048767
  37 C :    0.001199
  38 C :   -0.021256
  39 C :    0.003818
  40 C :   -0.007643
  41 C :   -0.018475
  42 C :   -0.041058
  43 C :    0.104782
  44 N :   -0.079412
  45 C :    0.058592
  46 C :   -0.024679
  47 C :   -0.132937
  48 S :    0.116569
  49 C :    0.014213
  50 C :    0.038082
  51 N :   -0.070800
  52 C :    0.079548
  53 C :   -0.066525
  54 C :    0.080679
  55 C :   -0.079068
  56 C :    0.082440
  57 O :   -0.129843
  58 C :   -0.060834
  59 C :    0.036979
  60 C :   -0.017718
  61 C :    0.003785
  62 C :   -0.041328
  63 C :    0.093675
  64 C :   -0.035216
  65 C :    0.005542
  66 F :   -0.062707
  67 C :    0.012782
  68 C :   -0.019363
  69 C :    0.066509
  70 C :   -0.127687
  71 C :   -0.018105
  72 N :   -0.040963
  73 C :   -0.017416
  74 N :   -0.043780
  75 H :    0.042699
  76 H :    0.042500
  77 H :    0.036211
  78 H :    0.038019
  79 H :    0.040358
  80 H :    0.049899
  81 H :    0.028070
  82 H :    0.028179
  83 H :    0.040193
  84 H :    0.035556
  85 H :    0.032265
  86 H :    0.030383
  87 H :    0.032096
  88 H :    0.026492
  89 H :    0.024624
  90 H :    0.055511
  91 H :    0.040879
  92 H :    0.043764
  93 H :    0.042584
  94 H :    0.036488
  95 H :    0.039614

  Mayer bond orders larger than 0.100000
B(  0-C ,  1-C ) :   1.4382 B(  0-C ,  6-C ) :   1.2040 B(  0-C , 75-H ) :   1.0066
B(  1-C ,  2-F ) :   1.0898 B(  1-C ,  3-C ) :   1.2561 B(  3-C ,  4-C ) :   1.4604
B(  3-C , 76-H ) :   0.9926 B(  4-C ,  5-C ) :   1.2360 B(  4-C , 77-H ) :   0.9967
B(  5-C ,  6-C ) :   1.2562 B(  5-C , 10-C ) :   1.1909 B(  6-C ,  7-C ) :   1.1998
B(  7-C ,  8-C ) :   1.4637 B(  7-C , 78-H ) :   0.9942 B(  8-C ,  9-C ) :   1.2088
B(  8-C , 14-C ) :   1.0034 B(  9-C , 10-C ) :   1.4691 B(  9-C , 11-C ) :   0.9234
B( 10-C , 79-H ) :   1.0156 B( 11-C , 12-O ) :   2.2662 B( 11-C , 13-C ) :   0.9193
B( 13-C , 14-C ) :   1.0801 B( 13-C , 20-C ) :   1.6350 B( 14-C , 15-C ) :   1.5707
B( 15-C , 16-C ) :   1.2071 B( 15-C , 18-C ) :   1.1321 B( 15-C , 27-S ) :   0.1338
B( 16-C , 17-N ) :   2.9194 B( 18-C , 19-N ) :   2.9007 B( 20-C , 21-C ) :   1.1204
B( 20-C , 80-H ) :   0.9313 B( 21-C , 22-C ) :   1.0386 B( 21-C , 25-C ) :   1.4149
B( 22-C , 23-N ) :   1.7028 B( 22-C , 81-H ) :   0.9948 B( 23-N , 24-C ) :   1.3010
B( 24-C , 25-C ) :   1.0752 B( 24-C , 29-C ) :   1.4681 B( 25-C , 26-C ) :   1.0536
B( 26-C , 27-S ) :   1.6428 B( 26-C , 28-C ) :   1.0407 B( 28-C , 29-C ) :   1.0250
B( 28-C , 32-C ) :   1.6229 B( 29-C , 30-N ) :   1.2422 B( 30-N , 31-C ) :   1.7246
B( 31-C , 32-C ) :   1.0207 B( 31-C , 82-H ) :   0.9957 B( 32-C , 33-C ) :   0.9485
B( 33-C , 34-C ) :   1.3409 B( 33-C , 39-C ) :   1.3585 B( 34-C , 35-F ) :   1.1064
B( 34-C , 36-C ) :   1.3818 B( 36-C , 37-C ) :   1.3376 B( 36-C , 83-H ) :   0.9954
B( 37-C , 38-C ) :   1.3734 B( 37-C , 84-H ) :   0.9929 B( 38-C , 39-C ) :   1.3565
B( 38-C , 85-H ) :   1.0014 B( 39-C , 40-C ) :   1.0446 B( 40-C , 41-C ) :   1.7171
B( 40-C , 86-H ) :   0.9590 B( 41-C , 42-C ) :   1.1257 B( 41-C , 87-H ) :   0.9460
B( 42-C , 43-C ) :   1.0060 B( 42-C , 46-C ) :   1.5265 B( 43-C , 44-N ) :   1.7082
B( 43-C , 88-H ) :   0.9868 B( 44-N , 45-C ) :   1.2679 B( 45-C , 46-C ) :   1.0516
B( 45-C , 50-C ) :   1.5220 B( 46-C , 47-C ) :   1.0287 B( 47-C , 48-S ) :   1.6491
B( 47-C , 49-C ) :   1.0244 B( 49-C , 50-C ) :   1.0698 B( 49-C , 53-C ) :   1.5603
B( 50-C , 51-N ) :   1.2612 B( 51-N , 52-C ) :   1.7395 B( 52-C , 53-C ) :   1.0156
B( 52-C , 89-H ) :   0.9905 B( 53-C , 54-C ) :   1.0200 B( 54-C , 55-C ) :   1.7062
B( 54-C , 90-H ) :   0.9549 B( 55-C , 56-C ) :   0.9236 B( 55-C , 69-C ) :   1.0230
B( 56-C , 57-O ) :   2.2929 B( 56-C , 58-C ) :   0.9193 B( 58-C , 59-C ) :   1.4703
B( 58-C , 68-C ) :   1.2152 B( 59-C , 60-C ) :   1.1963 B( 59-C , 91-H ) :   1.0142
B( 60-C , 61-C ) :   1.2512 B( 60-C , 65-C ) :   1.2331 B( 61-C , 62-C ) :   1.2019
B( 61-C , 67-C ) :   1.2071 B( 62-C , 63-C ) :   1.4416 B( 62-C , 92-H ) :   1.0060
B( 63-C , 64-C ) :   1.2531 B( 63-C , 66-F ) :   1.0906 B( 64-C , 65-C ) :   1.4627
B( 64-C , 93-H ) :   0.9936 B( 65-C , 94-H ) :   0.9969 B( 67-C , 68-C ) :   1.4563
B( 67-C , 95-H ) :   0.9935 B( 68-C , 69-C ) :   1.0088 B( 69-C , 70-C ) :   1.6549
B( 70-C , 71-C ) :   1.1573 B( 70-C , 73-C ) :   1.1342 B( 71-C , 72-N ) :   2.9951
B( 73-C , 74-N ) :   2.9831

-----------------------------------------------------------------------------
         ABSORPTION SPECTRUM VIA TRANSITION ELECTRIC DIPOLE MOMENTS
-----------------------------------------------------------------------------
State   Energy  Wavelength   fosc         T2         TX        TY        TZ
        (cm-1)    (nm)                  (au**2)     (au)      (au)      (au)
-----------------------------------------------------------------------------
   0   12041.0    830.5   0.004001124   0.10939  -0.30407   0.04560   0.12188
   1   15429.5    648.1   0.053912770   1.15031  -0.75555   0.67156  -0.35841
   2   15478.5    646.1   0.008430164   0.17930   0.14613  -0.39414  -0.05103
   3   16335.0    612.2   0.077534454   1.56261   0.82376  -0.55100   0.76186
   4   17026.7    587.3   0.015812323   0.30573  -0.42313   0.35560   0.01553
   5   17477.0    572.2   0.047944609   0.90313  -0.40242   0.21719  -0.83308
   6   18919.0    528.6   0.020132637   0.35033  -0.49368   0.15649   0.28656
   7   19162.1    521.9   0.012626950   0.21694  -0.30960   0.08131   0.33834
   8   20905.6    478.3   0.001467574   0.02311   0.04338   0.14569  -0.00205
   9   21148.7    472.8   0.065121660   1.01372   0.83459  -0.55403   0.10116
  10   21458.0    466.0   0.031760313   0.48727  -0.51544   0.29772   0.36464
  11   21519.7    464.7   0.027970582   0.42790  -0.24208  -0.12589  -0.59451
  12   22459.8    445.2   0.228409403   3.34799   1.46135  -0.89422   0.64249
  13   22881.8    437.0   0.042433672   0.61052  -0.72975  -0.22420   0.16647
  14   23095.0    433.0   0.027210188   0.38787   0.57870  -0.02630   0.22867
  15   23243.3    430.2   0.025304335   0.35840   0.16532  -0.13491  -0.55935
  16   23576.7    424.1   0.020600355   0.28765  -0.52717  -0.02719   0.09488
  17   23776.9    420.6   0.219749175   3.04262  -0.71202   0.28944  -1.56585
  18   24210.7    413.0   0.149915214   2.03851  -1.03161   0.31950  -0.93392
  19   24890.0    401.8   0.004542414   0.06008  -0.23574  -0.03748  -0.05571
  20   25045.6    399.3   0.281925633   3.70578  -1.17887   0.62482  -1.38768
  21   25473.4    392.6   0.004105647   0.05306   0.22389   0.00289   0.05409
  22   25501.2    392.1   0.014314663   0.18480   0.25221  -0.02267   0.34738
  23   25906.6    386.0   0.004759438   0.06048  -0.14100  -0.18013   0.09030
  24   26166.4    382.2   0.013100955   0.16483  -0.38478   0.00188   0.12949
  25   26410.9    378.6   0.023083169   0.28773   0.53585  -0.00726  -0.02326
  26   26542.5    376.8   0.051751226   0.64188  -0.57594  -0.05876  -0.55382
  27   26612.6    375.8   0.052275975   0.64668   0.39974  -0.18867   0.67178
  28   26782.2    373.4   0.027103704   0.33316   0.38156   0.10619  -0.41988
  29   27387.8    365.1   0.053291202   0.64058  -0.78833  -0.12712   0.05437
  30   27421.8    364.7   0.018810786   0.22583   0.12965   0.27352  -0.36635
  31   27587.3    362.5   0.229622562   2.74019  -0.43279  -0.33987   1.56121
  32   27868.8    358.8   0.220068580   2.59965   1.27132   0.02241   0.99141
  33   28020.2    356.9   0.186177105   2.18741   1.28566  -0.29712  -0.66799
  34   28217.5    354.4   0.201323418   2.34883  -0.14094  -0.39051  -1.47529
  35   28403.7    352.1   0.022786017   0.26410  -0.37426   0.07120   0.34490
  36   28761.0    347.7   0.013786000   0.15780   0.06049  -0.04186  -0.39037
  37   28921.0    345.8   0.049633489   0.56498  -0.56328  -0.31289   0.38704
  38   29078.5    343.9   0.029704306   0.33630   0.48870  -0.16086   0.26756
  39   29153.5    343.0   0.088703170   1.00167   0.81656   0.13340  -0.56312
  40   29412.8    340.0   0.052483126   0.58743   0.00545   0.19359   0.74157
  41   29630.5    337.5   0.084887761   0.94315   0.96309   0.03639   0.11949
  42   29908.5    334.4   0.140503726   1.54657  -1.17618  -0.16629  -0.36812
  43   30019.9    333.1   0.129165548   1.41649  -1.03263  -0.51471  -0.29195
  44   30122.7    332.0   0.019530347   0.21345   0.39423   0.01173  -0.24062
  45   30486.7    328.0   0.009453901   0.10209  -0.15804   0.23830   0.14256
  46   30782.3    324.9   0.020836042   0.22284   0.26626   0.22089   0.32118
  47   30956.0    323.0   0.025041181   0.26631  -0.48283   0.18197  -0.00834
  48   31139.0    321.1   0.030255831   0.31987  -0.50829   0.19669  -0.15110
  49   31241.2    320.1   0.141268679   1.48865   0.72014   0.24004   0.95521
  50   31404.5    318.4   0.270536253   2.83602   0.98013   0.34952   1.32409
  51   31527.9    317.2   0.028142173   0.29386  -0.27354  -0.40361  -0.23692
  52   31652.4    315.9   0.026272866   0.27326   0.26085   0.44454  -0.08717
  53   31768.6    314.8   0.105071272   1.08883  -0.41006   0.44203  -0.85164
  54   31909.3    313.4   0.083552421   0.86202   0.32887  -0.41520  -0.76255
  55   32027.7    312.2   0.028593487   0.29391  -0.51988   0.09978   0.11695
  56   32266.2    309.9   0.174250779   1.77788   0.05770   0.12484   1.32626
  57   32465.5    308.0   0.029989789   0.30411   0.47611   0.06549   0.27045
  58   32748.7    305.4   0.030820949   0.30983  -0.04087  -0.53867   0.13417
  59   32949.2    303.5   0.013310542   0.13299   0.03272   0.25693   0.25672
  60   32971.4    303.3   0.002746177   0.02742   0.01789  -0.14516  -0.07764
  61   33166.9    301.5   0.010722884   0.10643   0.23933   0.01548   0.22117
  62   33231.2    300.9   0.027045637   0.26793  -0.20109  -0.17782  -0.44258
  63   33632.0    297.3   0.120737314   1.18185   1.03721  -0.13311   0.29721
  64   33773.8    296.1   0.110749852   1.07954  -0.93041  -0.35431  -0.29723
  65   33965.0    294.4   0.040034339   0.38804   0.51218  -0.35452  -0.00532
  66   33994.9    294.2   0.038351365   0.37140   0.11692   0.24039   0.54767
  67   34011.4    294.0   0.269811305   2.61163  -1.11304  -0.26213  -1.14195
  68   34219.4    292.2   0.048745040   0.46896  -0.39023  -0.02975  -0.56196
  69   34416.1    290.6   0.080156716   0.76675  -0.64726  -0.34562  -0.47786
  70   34465.8    290.1   0.026030551   0.24864  -0.22304   0.02233  -0.44541
  71   34553.9    289.4   0.089560448   0.85329  -0.23231  -0.06910  -0.89137
  72   34901.9    286.5   0.017131887   0.16160   0.09182   0.03459   0.38983
  73   35057.6    285.2   0.019914930   0.18701   0.41121  -0.11130   0.07437
  74   35246.8    283.7   0.241107689   2.25199   0.75630   0.21426   1.27832
  75   35341.0    283.0   0.047463898   0.44214   0.56439   0.10141   0.33662
  76   35588.4    281.0   0.056125595   0.51919  -0.54829  -0.33606  -0.32502
  77   35735.6    279.8   0.077305956   0.71218   0.71433   0.39451   0.21512
  78   35867.3    278.8   0.025581128   0.23480   0.20362   0.24597   0.36447
  79   35995.0    277.8   0.006592179   0.06029  -0.11700  -0.03293   0.21335
  80   36020.5    277.6   0.001530491   0.01399   0.11708   0.00233  -0.01657
  81   36265.0    275.7   0.076939263   0.69845   0.69872   0.13482   0.43826
  82   36387.6    274.8   0.072486170   0.65581   0.29293  -0.44591  -0.60923
  83   36582.5    273.4   0.038007422   0.34204  -0.54718   0.19029  -0.08011
  84   36834.3    271.5   0.083246323   0.74403  -0.72137  -0.28318  -0.37877
  85   36872.0    271.2   0.043504733   0.38843   0.58433   0.17385   0.12949
  86   36999.3    270.3   0.029164857   0.25950  -0.44531  -0.23173  -0.08662
  87   37148.2    269.2   0.227556583   2.01663   1.29314   0.54487   0.21804
  88   37215.6    268.7   0.022693576   0.20075   0.14919   0.31492   0.28164
  89   37498.3    266.7   0.015992188   0.14040  -0.37230  -0.03280  -0.02680
  90   37682.8    265.4   0.050701515   0.44295   0.05761   0.57336  -0.33301
  91   37716.7    265.1   0.151536224   1.32269   0.97698  -0.60564  -0.03752
  92   37813.0    264.5   0.057277324   0.49867   0.04564  -0.47818   0.51763
  93   38032.2    262.9   0.102519961   0.88743   0.79422  -0.25301  -0.43890
  94   38160.5    262.1   0.016066464   0.13861   0.29487   0.06345   0.21824
  95   38207.3    261.7   0.016842454   0.14512   0.37126  -0.03157   0.07933
  96   38434.6    260.2   0.160066281   1.37105   1.13510  -0.02031  -0.28669
  97   38529.1    259.5   0.213468451   1.82398  -0.04250   1.32858  -0.23888
  98   38711.9    258.3   0.003702411   0.03149  -0.14440  -0.10133  -0.01916
  99   38788.1    257.8   0.065840162   0.55881   0.14926  -0.62593   0.38046
 100   38862.9    257.3   0.075717417   0.64141  -0.19729  -0.32827  -0.70337
 101   38913.9    257.0   0.030809070   0.26064  -0.46207  -0.12026  -0.18075
 102   39091.1    255.8   0.057798437   0.48676  -0.61513  -0.32816  -0.02612
 103   39134.6    255.5   0.017271441   0.14529  -0.35009   0.09542   0.11673
 104   39263.1    254.7   0.016319672   0.13684  -0.21853  -0.17429  -0.24229
 105   39497.2    253.2   0.006089277   0.05075  -0.02272   0.08711   0.20652
 106   39594.2    252.6   0.021540232   0.17910  -0.06689  -0.36079  -0.21085
 107   39671.2    252.1   0.021365864   0.17731  -0.19693   0.37159   0.02109
 108   39804.5    251.2   0.313581427   2.59354   1.02194   0.78831   0.96320
 109   39871.8    250.8   0.040473077   0.33418  -0.30217  -0.28643  -0.40103
 110   40233.6    248.5   0.019421724   0.15892  -0.14770  -0.31491  -0.19476

FINAL SINGLE POINT ENERGY     -3978.914498439390

DIPOLE MOMENT
-------------
                                X             Y             Z
Electronic contribution:     -4.93397       1.86522      -2.45153
Nuclear contribution   :      6.14514      -3.50682       3.48873
                        -----------------------------------------
Total Dipole Moment    :      1.21116      -1.64159       1.03719
                        -----------------------------------------
Magnitude (a.u.)       :      2.28856
Magnitude (Debye)      :      5.81706

Rotational constants in cm-1:     0.001601     0.000412     0.000382
Rotational constants in MHz :    47.987867    12.355722    11.449741

                             ****ORCA TERMINATED NORMALLY****
TOTAL RUN TIME: 0 days 0 hours 12 minutes 4 seconds 972 msec
