                         Program Version 4.2.0 -  RELEASE  -
|  1> # ORCA input file
|  2> # SCF done       -209.478751679947          0.001121623339
|  3> ! CAM-B3LYP def2-SVP def2/J RIJCOSX Grid4 TightSCF
|  4> %maxcore 5000
|  5> %tddft
|  6>     Mode sTDDFT
|  7>     Ethresh 5.0
|  8>     maxcore 5000
|  9> end
| 10>
| 11> %pal
| 12>   nprocs 6
| 13>   end
| 14> * xyz 0 1
| 15>    C        9.47863        -2.98417        -7.32683
| 16>    C        9.43145        -4.18230        -7.98362
| 17>    F        9.81466        -4.24749        -9.27177
| 18>    C        8.99540        -5.36211        -7.36508
| 19>    C        8.60272        -5.31634        -6.05634
| 20>    C        8.63282        -4.10790        -5.33024
| 21>    C        9.07731        -2.91813        -5.97829
| 22>    C        9.11105        -1.69263        -5.27283
| 23>    C        8.71965        -1.66311        -3.96186
| 24>    C        8.29156        -2.85861        -3.31405
| 25>    C        8.23961        -4.05255        -3.97425
| 26>    C        7.97436        -2.56159        -1.90507
| 27>    O        7.52458        -3.30668        -1.06457
| 28>    C        8.37981        -1.14018        -1.70761
| 29>    C        8.63592        -0.56228        -3.00904
| 30>    C        8.59538         0.76912        -3.32446
| 31>    C        8.79040         1.27991        -4.62336
| 32>    N        8.94921         1.74740        -5.65923
| 33>    C        8.26786         1.76837        -2.38720
| 34>    N        7.97050         2.59737        -1.65013
| 35>    C        8.53328        -0.66584        -0.44507
| 36>    C        9.26046         0.47995         0.00728
| 37>    C        8.99282         1.12222         1.22735
| 38>    N        9.83516         2.01546         1.80522
| 39>    C       10.89540         2.45364         1.21353
| 40>    C       11.22308         1.99578        -0.08516
| 41>    C       10.40447         0.96753        -0.67680
| 42>    N       10.96310         0.64474        -1.82976
| 43>    O       12.04202         1.42740        -1.94821
| 44>    N       12.21561         2.23976        -0.91505
| 45>    C        7.77477         0.87626         1.98173
| 46>    C        7.80853         1.02484         3.35236
| 47>    C        6.67531         0.72198         4.12931
| 48>    C        6.45781         0.70909         5.50553
| 49>    C        7.37653         1.02276         6.63117
| 50>    C        8.39185        -0.13649         6.88571
| 51>    N        9.31938        -0.44986         5.83409
| 52>    C        8.07972         2.37893         6.46844
| 53>    N        7.07875         3.40796         6.25477
| 54>    C        5.09292         0.27518         5.70170
| 55>    C        4.39366         0.03799         6.82553
| 56>    C        2.96297        -0.37963         6.78236
| 57>    C        2.41473        -0.59400         5.40614
| 58>    C        3.14050        -0.38284         4.29148
| 59>    C        4.48367         0.04964         4.38383
| 60>    C        5.45493         0.31335         3.43945
| 61>    C        5.42771         0.25672         2.02731
| 62>    C        6.55754         0.51848         1.32272
| 63>    C        2.17092         0.71621         7.44741
| 64>    C        1.34777         0.52330         8.48198
| 65>    C        0.63677         1.57312         9.16355
| 66>    C        1.08413         2.89139         9.28179
| 67>    N        0.36153         3.89031         9.86400
| 68>    C       -0.79403         3.68109        10.39986
| 69>    C       -1.34692         2.37730        10.41721
| 70>    C       -0.60881         1.31258         9.78602
| 71>    N       -1.31668         0.20766         9.93190
| 72>    O       -2.40928         0.56017        10.60407
| 73>    N       -2.45260         1.85204        10.90531
| 74>    C        2.41640         3.26727         8.87781
| 75>    C        2.84833         4.50088         8.52994
| 76>    C        4.29812         4.83246         8.56794
| 77>    O        5.21817         4.04242         8.60973
| 78>    C        4.35462         6.30242         8.60537
| 79>    C        5.43418         7.12060         8.78535
| 80>    C        5.24112         8.51898         8.83436
| 81>    C        3.92392         9.04851         8.69730
| 82>    C        3.73709        10.44296         8.75937
| 83>    C        4.81918        11.25776         8.94639
| 84>    C        6.12191        10.75726         9.08056
| 85>    C        6.32121         9.40595         9.02404
| 86>    F        4.64304        12.58855         9.00606
| 87>    C        2.82512         8.18044         8.50053
| 88>    C        3.03734         6.82927         8.45042
| 89>    C        2.11516         5.72042         8.24098
| 90>    C        0.87177         5.79600         7.67983
| 91>    C        0.15245         4.65638         7.26299
| 92>    N       -0.42280         3.74956         6.85777
| 93>    C        0.21696         7.00883         7.38211
| 94>    N       -0.35361         7.97500         7.14164
| 95>    H        9.81762        -2.09520        -7.83538
| 96>    H        8.98021        -6.27842        -7.93365
| 97>    H        8.26396        -6.21224        -5.55797
| 98>    H        9.45971        -0.80804        -5.78192
| 99>    H        7.90609        -4.94612        -3.46783
|100>    H        8.13225        -1.30589         0.33610
|101>    H       11.52640         3.15153         1.74356
|102>    H        8.73384         1.34602         3.80055
|103>    H        6.77356         1.09541         7.54261
|104>    H        7.81880        -1.04338         7.09985
|105>    H        8.97374         0.11862         7.77590
|106>    H        9.92194         0.33613         5.62297
|107>    H        8.83891        -0.73215         4.98791
|108>    H        8.73828         2.38061         5.59784
|109>    H        8.70468         2.54779         7.36455
|110>    H        6.47314         3.48670         7.06768
|111>    H        7.52419         4.30787         6.11440
|112>    H        4.81938         0.17436         7.81058
|113>    H        2.83963        -1.29897         7.37107
|114>    H        1.38506        -0.91188         5.35710
|115>    H        2.70958        -0.55162         3.31564
|116>    H        4.50655         0.00731         1.52287
|117>    H        6.54155         0.51252         0.24330
|118>    H        2.27751         1.69260         6.99572
|119>    H        1.14066        -0.47619         8.84301
|120>    H       -1.31182         4.52419        10.83265
|121>    H        3.18020         2.50270         8.97713
|122>    H        6.42560         6.70704         8.89534
|123>    H        2.74861        10.86268         8.65711
|124>    H        6.93681        11.44850         9.22588
|125>    H        7.31581         8.99841         9.12601
|126>    H        1.83779         8.60439         8.40564
|127> *
|128>
|129>                          ****END OF INPUT****

CARTESIAN COORDINATES (ANGSTROEM)
---------------------------------
  C      9.478630   -2.984170   -7.326830
  C      9.431450   -4.182300   -7.983620
  F      9.814660   -4.247490   -9.271770
  C      8.995400   -5.362110   -7.365080
  C      8.602720   -5.316340   -6.056340
  C      8.632820   -4.107900   -5.330240
  C      9.077310   -2.918130   -5.978290
  C      9.111050   -1.692630   -5.272830
  C      8.719650   -1.663110   -3.961860
  C      8.291560   -2.858610   -3.314050
  C      8.239610   -4.052550   -3.974250
  C      7.974360   -2.561590   -1.905070
  O      7.524580   -3.306680   -1.064570
  C      8.379810   -1.140180   -1.707610
  C      8.635920   -0.562280   -3.009040
  C      8.595380    0.769120   -3.324460
  C      8.790400    1.279910   -4.623360
  N      8.949210    1.747400   -5.659230
  C      8.267860    1.768370   -2.387200
  N      7.970500    2.597370   -1.650130
  C      8.533280   -0.665840   -0.445070
  C      9.260460    0.479950    0.007280
  C      8.992820    1.122220    1.227350
  N      9.835160    2.015460    1.805220
  C     10.895400    2.453640    1.213530
  C     11.223080    1.995780   -0.085160
  C     10.404470    0.967530   -0.676800
  N     10.963100    0.644740   -1.829760
  O     12.042020    1.427400   -1.948210
  N     12.215610    2.239760   -0.915050
  C      7.774770    0.876260    1.981730
  C      7.808530    1.024840    3.352360
  C      6.675310    0.721980    4.129310
  C      6.457810    0.709090    5.505530
  C      7.376530    1.022760    6.631170
  C      8.391850   -0.136490    6.885710
  N      9.319380   -0.449860    5.834090
  C      8.079720    2.378930    6.468440
  N      7.078750    3.407960    6.254770
  C      5.092920    0.275180    5.701700
  C      4.393660    0.037990    6.825530
  C      2.962970   -0.379630    6.782360
  C      2.414730   -0.594000    5.406140
  C      3.140500   -0.382840    4.291480
  C      4.483670    0.049640    4.383830
  C      5.454930    0.313350    3.439450
  C      5.427710    0.256720    2.027310
  C      6.557540    0.518480    1.322720
  C      2.170920    0.716210    7.447410
  C      1.347770    0.523300    8.481980
  C      0.636770    1.573120    9.163550
  C      1.084130    2.891390    9.281790
  N      0.361530    3.890310    9.864000
  C     -0.794030    3.681090   10.399860
  C     -1.346920    2.377300   10.417210
  C     -0.608810    1.312580    9.786020
  N     -1.316680    0.207660    9.931900
  O     -2.409280    0.560170   10.604070
  N     -2.452600    1.852040   10.905310
  C      2.416400    3.267270    8.877810
  C      2.848330    4.500880    8.529940
  C      4.298120    4.832460    8.567940
  O      5.218170    4.042420    8.609730
  C      4.354620    6.302420    8.605370
  C      5.434180    7.120600    8.785350
  C      5.241120    8.518980    8.834360
  C      3.923920    9.048510    8.697300
  C      3.737090   10.442960    8.759370
  C      4.819180   11.257760    8.946390
  C      6.121910   10.757260    9.080560
  C      6.321210    9.405950    9.024040
  F      4.643040   12.588550    9.006060
  C      2.825120    8.180440    8.500530
  C      3.037340    6.829270    8.450420
  C      2.115160    5.720420    8.240980
  C      0.871770    5.796000    7.679830
  C      0.152450    4.656380    7.262990
  N     -0.422800    3.749560    6.857770
  C      0.216960    7.008830    7.382110
  N     -0.353610    7.975000    7.141640
  H      9.817620   -2.095200   -7.835380
  H      8.980210   -6.278420   -7.933650
  H      8.263960   -6.212240   -5.557970
  H      9.459710   -0.808040   -5.781920
  H      7.906090   -4.946120   -3.467830
  H      8.132250   -1.305890    0.336100
  H     11.526400    3.151530    1.743560
  H      8.733840    1.346020    3.800550
  H      6.773560    1.095410    7.542610
  H      7.818800   -1.043380    7.099850
  H      8.973740    0.118620    7.775900
  H      9.921940    0.336130    5.622970
  H      8.838910   -0.732150    4.987910
  H      8.738280    2.380610    5.597840
  H      8.704680    2.547790    7.364550
  H      6.473140    3.486700    7.067680
  H      7.524190    4.307870    6.114400
  H      4.819380    0.174360    7.810580
  H      2.839630   -1.298970    7.371070
  H      1.385060   -0.911880    5.357100
  H      2.709580   -0.551620    3.315640
  H      4.506550    0.007310    1.522870
  H      6.541550    0.512520    0.243300
  H      2.277510    1.692600    6.995720
  H      1.140660   -0.476190    8.843010
  H     -1.311820    4.524190   10.832650
  H      3.180200    2.502700    8.977130
  H      6.425600    6.707040    8.895340
  H      2.748610   10.862680    8.657110
  H      6.936810   11.448500    9.225880
  H      7.315810    8.998410    9.126010
  H      1.837790    8.604390    8.405640

 Total Charge           Charge          ....    0
 Multiplicity           Mult            ....    1
 Number of Electrons    NEL             ....  538
 Basis Dimension        Dim             .... 1280

ORBITAL ENERGIES
----------------

  NO   OCC          E(Eh)            E(eV)
   0   2.0000     -24.793609      -674.6684
   1   2.0000     -24.782828      -674.3750
   2   2.0000     -19.377017      -527.2754
   3   2.0000     -19.363408      -526.9051
   4   2.0000     -19.233375      -523.3667
   5   2.0000     -19.212550      -522.8001
   6   2.0000     -14.503696      -394.6656
   7   2.0000     -14.499503      -394.5515
   8   2.0000     -14.495769      -394.4499
   9   2.0000     -14.482242      -394.0818
  10   2.0000     -14.443082      -393.0163
  11   2.0000     -14.434352      -392.7787
  12   2.0000     -14.424085      -392.4993
  13   2.0000     -14.423627      -392.4868
  14   2.0000     -14.413990      -392.2246
  15   2.0000     -14.411116      -392.1464
  16   2.0000     -14.378410      -391.2564
  17   2.0000     -14.366173      -390.9235
  18   2.0000     -10.383454      -282.5481
  19   2.0000     -10.378228      -282.4059
  20   2.0000     -10.366466      -282.0859
  21   2.0000     -10.363311      -282.0000
  22   2.0000     -10.352307      -281.7006
  23   2.0000     -10.352185      -281.6973
  24   2.0000     -10.348700      -281.6024
  25   2.0000     -10.347892      -281.5804
  26   2.0000     -10.347442      -281.5682
  27   2.0000     -10.345750      -281.5222
  28   2.0000     -10.343199      -281.4527
  29   2.0000     -10.342185      -281.4252
  30   2.0000     -10.338198      -281.3167
  31   2.0000     -10.334662      -281.2204
  32   2.0000     -10.334599      -281.2187
  33   2.0000     -10.332279      -281.1556
  34   2.0000     -10.331895      -281.1451
  35   2.0000     -10.326395      -280.9955
  36   2.0000     -10.325948      -280.9833
  37   2.0000     -10.325823      -280.9799
  38   2.0000     -10.315787      -280.7068
  39   2.0000     -10.315693      -280.7043
  40   2.0000     -10.315661      -280.7034
  41   2.0000     -10.315575      -280.7011
  42   2.0000     -10.313339      -280.6402
  43   2.0000     -10.312320      -280.6125
  44   2.0000     -10.312156      -280.6080
  45   2.0000     -10.311574      -280.5922
  46   2.0000     -10.311214      -280.5824
  47   2.0000     -10.310979      -280.5760
  48   2.0000     -10.310840      -280.5722
  49   2.0000     -10.307164      -280.4722
  50   2.0000     -10.306661      -280.4585
  51   2.0000     -10.306020      -280.4411
  52   2.0000     -10.302820      -280.3540
  53   2.0000     -10.302761      -280.3524
  54   2.0000     -10.302623      -280.3486
  55   2.0000     -10.301825      -280.3269
  56   2.0000     -10.301644      -280.3220
  57   2.0000     -10.297887      -280.2197
  58   2.0000     -10.297075      -280.1977
  59   2.0000     -10.297060      -280.1972
  60   2.0000     -10.296200      -280.1739
  61   2.0000     -10.294815      -280.1362
  62   2.0000     -10.293743      -280.1070
  63   2.0000     -10.291469      -280.0451
  64   2.0000     -10.286654      -279.9141
  65   2.0000     -10.285675      -279.8874
  66   2.0000     -10.284446      -279.8540
  67   2.0000     -10.283922      -279.8397
  68   2.0000     -10.282386      -279.7979
  69   2.0000     -10.281392      -279.7709
  70   2.0000     -10.281088      -279.7626
  71   2.0000     -10.277600      -279.6677
  72   2.0000     -10.274820      -279.5921
  73   2.0000     -10.272923      -279.5405
  74   2.0000     -10.271626      -279.5052
  75   2.0000     -10.271116      -279.4913
  76   2.0000     -10.270919      -279.4859
  77   2.0000     -10.267514      -279.3933
  78   2.0000     -10.266759      -279.3727
  79   2.0000     -10.264618      -279.3145
  80   2.0000      -1.330530       -36.2056
  81   2.0000      -1.316044       -35.8114
  82   2.0000      -1.308956       -35.6185
  83   2.0000      -1.297691       -35.3120
  84   2.0000      -1.146787       -31.2057
  85   2.0000      -1.127271       -30.6746
  86   2.0000      -1.080300       -29.3965
  87   2.0000      -1.071597       -29.1596
  88   2.0000      -1.032328       -28.0911
  89   2.0000      -1.026958       -27.9449
  90   2.0000      -1.023153       -27.8414
  91   2.0000      -1.012660       -27.5559
  92   2.0000      -1.009954       -27.4823
  93   2.0000      -1.002522       -27.2800
  94   2.0000      -0.997500       -27.1433
  95   2.0000      -0.991228       -26.9727
  96   2.0000      -0.990507       -26.9531
  97   2.0000      -0.988358       -26.8946
  98   2.0000      -0.984196       -26.7813
  99   2.0000      -0.977224       -26.5916
 100   2.0000      -0.971545       -26.4371
 101   2.0000      -0.967086       -26.3157
 102   2.0000      -0.958085       -26.0708
 103   2.0000      -0.947730       -25.7890
 104   2.0000      -0.945251       -25.7216
 105   2.0000      -0.935854       -25.4659
 106   2.0000      -0.929846       -25.3024
 107   2.0000      -0.921137       -25.0654
 108   2.0000      -0.910386       -24.7729
 109   2.0000      -0.904458       -24.6115
 110   2.0000      -0.895718       -24.3737
 111   2.0000      -0.889666       -24.2090
 112   2.0000      -0.883757       -24.0482
 113   2.0000      -0.881587       -23.9892
 114   2.0000      -0.874472       -23.7956
 115   2.0000      -0.861954       -23.4550
 116   2.0000      -0.848208       -23.0809
 117   2.0000      -0.843899       -22.9637
 118   2.0000      -0.841779       -22.9060
 119   2.0000      -0.833102       -22.6699
 120   2.0000      -0.830730       -22.6053
 121   2.0000      -0.826684       -22.4952
 122   2.0000      -0.814458       -22.1625
 123   2.0000      -0.803038       -21.8518
 124   2.0000      -0.796619       -21.6771
 125   2.0000      -0.785761       -21.3816
 126   2.0000      -0.778136       -21.1742
 127   2.0000      -0.770175       -20.9575
 128   2.0000      -0.766270       -20.8513
 129   2.0000      -0.762042       -20.7362
 130   2.0000      -0.757840       -20.6219
 131   2.0000      -0.737054       -20.0563
 132   2.0000      -0.733483       -19.9591
 133   2.0000      -0.728366       -19.8198
 134   2.0000      -0.724674       -19.7194
 135   2.0000      -0.718550       -19.5527
 136   2.0000      -0.716314       -19.4919
 137   2.0000      -0.709711       -19.3122
 138   2.0000      -0.707381       -19.2488
 139   2.0000      -0.705614       -19.2007
 140   2.0000      -0.690833       -18.7985
 141   2.0000      -0.686022       -18.6676
 142   2.0000      -0.681584       -18.5469
 143   2.0000      -0.678247       -18.4560
 144   2.0000      -0.677515       -18.4361
 145   2.0000      -0.675448       -18.3799
 146   2.0000      -0.665269       -18.1029
 147   2.0000      -0.662284       -18.0217
 148   2.0000      -0.651019       -17.7151
 149   2.0000      -0.650268       -17.6947
 150   2.0000      -0.645204       -17.5569
 151   2.0000      -0.638944       -17.3865
 152   2.0000      -0.638112       -17.3639
 153   2.0000      -0.634737       -17.2721
 154   2.0000      -0.628302       -17.0970
 155   2.0000      -0.626864       -17.0578
 156   2.0000      -0.625823       -17.0295
 157   2.0000      -0.620373       -16.8812
 158   2.0000      -0.617367       -16.7994
 159   2.0000      -0.614820       -16.7301
 160   2.0000      -0.610510       -16.6128
 161   2.0000      -0.600280       -16.3345
 162   2.0000      -0.597452       -16.2575
 163   2.0000      -0.591718       -16.1015
 164   2.0000      -0.588510       -16.0142
 165   2.0000      -0.584456       -15.9039
 166   2.0000      -0.580229       -15.7888
 167   2.0000      -0.576142       -15.6776
 168   2.0000      -0.572431       -15.5766
 169   2.0000      -0.570862       -15.5340
 170   2.0000      -0.568547       -15.4709
 171   2.0000      -0.566318       -15.4103
 172   2.0000      -0.563839       -15.3428
 173   2.0000      -0.562185       -15.2978
 174   2.0000      -0.558807       -15.2059
 175   2.0000      -0.556124       -15.1329
 176   2.0000      -0.555224       -15.1084
 177   2.0000      -0.555064       -15.1041
 178   2.0000      -0.551043       -14.9946
 179   2.0000      -0.550380       -14.9766
 180   2.0000      -0.545262       -14.8373
 181   2.0000      -0.544242       -14.8096
 182   2.0000      -0.544123       -14.8063
 183   2.0000      -0.543484       -14.7890
 184   2.0000      -0.532628       -14.4935
 185   2.0000      -0.532029       -14.4772
 186   2.0000      -0.531729       -14.4691
 187   2.0000      -0.530559       -14.4372
 188   2.0000      -0.529594       -14.4110
 189   2.0000      -0.526374       -14.3234
 190   2.0000      -0.524581       -14.2746
 191   2.0000      -0.521691       -14.1959
 192   2.0000      -0.520099       -14.1526
 193   2.0000      -0.515797       -14.0355
 194   2.0000      -0.513482       -13.9725
 195   2.0000      -0.510517       -13.8919
 196   2.0000      -0.508492       -13.8368
 197   2.0000      -0.503273       -13.6948
 198   2.0000      -0.501635       -13.6502
 199   2.0000      -0.500505       -13.6194
 200   2.0000      -0.500261       -13.6128
 201   2.0000      -0.495965       -13.4959
 202   2.0000      -0.494947       -13.4682
 203   2.0000      -0.493478       -13.4282
 204   2.0000      -0.491449       -13.3730
 205   2.0000      -0.488457       -13.2916
 206   2.0000      -0.485687       -13.2162
 207   2.0000      -0.480175       -13.0662
 208   2.0000      -0.479641       -13.0517
 209   2.0000      -0.478736       -13.0271
 210   2.0000      -0.472309       -12.8522
 211   2.0000      -0.470981       -12.8161
 212   2.0000      -0.467219       -12.7137
 213   2.0000      -0.465085       -12.6556
 214   2.0000      -0.462157       -12.5759
 215   2.0000      -0.458758       -12.4835
 216   2.0000      -0.456211       -12.4141
 217   2.0000      -0.453765       -12.3476
 218   2.0000      -0.452591       -12.3156
 219   2.0000      -0.448560       -12.2059
 220   2.0000      -0.447719       -12.1831
 221   2.0000      -0.446677       -12.1547
 222   2.0000      -0.446192       -12.1415
 223   2.0000      -0.443702       -12.0737
 224   2.0000      -0.441699       -12.0192
 225   2.0000      -0.438848       -11.9417
 226   2.0000      -0.437936       -11.9168
 227   2.0000      -0.434956       -11.8357
 228   2.0000      -0.434255       -11.8167
 229   2.0000      -0.433225       -11.7887
 230   2.0000      -0.431782       -11.7494
 231   2.0000      -0.426101       -11.5948
 232   2.0000      -0.424927       -11.5629
 233   2.0000      -0.424222       -11.5437
 234   2.0000      -0.423349       -11.5199
 235   2.0000      -0.420667       -11.4469
 236   2.0000      -0.414578       -11.2812
 237   2.0000      -0.414120       -11.2688
 238   2.0000      -0.413856       -11.2616
 239   2.0000      -0.411766       -11.2047
 240   2.0000      -0.409862       -11.1529
 241   2.0000      -0.406461       -11.0604
 242   2.0000      -0.403492       -10.9796
 243   2.0000      -0.399284       -10.8651
 244   2.0000      -0.395533       -10.7630
 245   2.0000      -0.392936       -10.6923
 246   2.0000      -0.389587       -10.6012
 247   2.0000      -0.388758       -10.5786
 248   2.0000      -0.385393       -10.4871
 249   2.0000      -0.382069       -10.3966
 250   2.0000      -0.377168       -10.2633
 251   2.0000      -0.371282       -10.1031
 252   2.0000      -0.369385       -10.0515
 253   2.0000      -0.362009        -9.8508
 254   2.0000      -0.358891        -9.7659
 255   2.0000      -0.352899        -9.6029
 256   2.0000      -0.349250        -9.5036
 257   2.0000      -0.336321        -9.1518
 258   2.0000      -0.332687        -9.0529
 259   2.0000      -0.325474        -8.8566
 260   2.0000      -0.321313        -8.7434
 261   2.0000      -0.310074        -8.4376
 262   2.0000      -0.307707        -8.3731
 263   2.0000      -0.302888        -8.2420
 264   2.0000      -0.299672        -8.1545
 265   2.0000      -0.295619        -8.0442
 266   2.0000      -0.292250        -7.9525
 267   2.0000      -0.289222        -7.8701
 268   2.0000      -0.225643        -6.1401
 269   0.0000      -0.106925        -2.9096
 270   0.0000      -0.103309        -2.8112
 271   0.0000      -0.081276        -2.2116
 272   0.0000      -0.070281        -1.9124
 273   0.0000      -0.063991        -1.7413

MULLIKEN ATOMIC CHARGES
-----------------------
   0 C :   -0.095718
   1 C :    0.302585
   2 F :   -0.190538
   3 C :   -0.030886
   4 C :   -0.008897
   5 C :    0.100226
   6 C :    0.102768
   7 C :   -0.085152
   8 C :    0.038899
   9 C :    0.011952
  10 C :   -0.081678
  11 C :    0.133008
  12 O :   -0.140373
  13 C :   -0.109730
  14 C :    0.321244
  15 C :   -0.321094
  16 C :   -0.183369
  17 N :    0.156548
  18 C :   -0.201126
  19 N :    0.155669
  20 C :   -0.056971
  21 C :    0.081071
  22 C :    0.005059
  23 N :   -0.036281
  24 C :    0.017197
  25 C :   -0.028252
  26 C :   -0.056601
  27 N :    0.028645
  28 O :   -0.092252
  29 N :    0.085671
  30 C :    0.048656
  31 C :   -0.075040
  32 C :    0.056909
  33 C :    0.043849
  34 C :   -0.073482
  35 C :    0.153533
  36 N :   -0.219478
  37 C :    0.140646
  38 N :   -0.222849
  39 C :    0.107186
  40 C :   -0.157783
  41 C :    0.134897
  42 C :   -0.039087
  43 C :    0.029391
  44 C :    0.010665
  45 C :    0.042706
  46 C :   -0.003923
  47 C :   -0.014047
  48 C :   -0.048000
  49 C :   -0.011052
  50 C :    0.129417
  51 C :   -0.076643
  52 N :   -0.046396
  53 C :    0.014660
  54 C :   -0.023449
  55 C :   -0.037791
  56 N :    0.056230
  57 O :   -0.090422
  58 N :    0.081086
  59 C :   -0.017335
  60 C :   -0.081335
  61 C :    0.160573
  62 O :   -0.169148
  63 C :    0.013252
  64 C :   -0.075221
  65 C :    0.097911
  66 C :    0.099973
  67 C :   -0.094451
  68 C :    0.304804
  69 C :   -0.028382
  70 C :   -0.006685
  71 F :   -0.186578
  72 C :   -0.080131
  73 C :    0.042057
  74 C :    0.292636
  75 C :   -0.307597
  76 C :   -0.186348
  77 N :    0.158280
  78 C :   -0.184665
  79 N :    0.156265
  80 H :   -0.002933
  81 H :    0.002732
  82 H :   -0.009851
  83 H :   -0.002887
  84 H :   -0.012846
  85 H :    0.045322
  86 H :    0.017657
  87 H :   -0.046450
  88 H :   -0.025958
  89 H :   -0.006197
  90 H :   -0.001580
  91 H :    0.092702
  92 H :    0.102279
  93 H :   -0.014367
  94 H :   -0.021319
  95 H :    0.091652
  96 H :    0.082481
  97 H :    0.000243
  98 H :    0.030085
  99 H :   -0.004835
 100 H :   -0.029264
 101 H :   -0.031951
 102 H :    0.002069
 103 H :    0.053208
 104 H :    0.014376
 105 H :    0.019069
 106 H :    0.034989
 107 H :   -0.014840
 108 H :    0.000166
 109 H :    0.007286
 110 H :   -0.008623
 111 H :   -0.002303
Sum of atomic charges:   -0.0000000

LOEWDIN ATOMIC CHARGES
----------------------
   0 C :   -0.041643
   1 C :    0.093213
   2 F :   -0.065186
   3 C :   -0.037719
   4 C :    0.004449
   5 C :   -0.019109
   6 C :    0.004378
   7 C :    0.012919
   8 C :   -0.012714
   9 C :   -0.060130
  10 C :    0.034731
  11 C :    0.084894
  12 O :   -0.141918
  13 C :   -0.082364
  14 C :    0.073985
  15 C :   -0.129901
  16 C :   -0.016671
  17 N :   -0.050078
  18 C :   -0.016957
  19 N :   -0.057442
  20 C :    0.064642
  21 C :   -0.069315
  22 C :    0.062437
  23 N :   -0.040868
  24 C :    0.066014
  25 C :   -0.083915
  26 C :   -0.038464
  27 N :   -0.033754
  28 O :    0.081494
  29 N :    0.004791
  30 C :   -0.046750
  31 C :    0.029417
  32 C :   -0.024916
  33 C :    0.003831
  34 C :   -0.056370
  35 C :    0.027178
  36 N :   -0.096626
  37 C :    0.024251
  38 N :   -0.123440
  39 C :   -0.009839
  40 C :    0.065437
  41 C :   -0.026713
  42 C :   -0.037218
  43 C :   -0.006450
  44 C :   -0.043666
  45 C :   -0.020480
  46 C :   -0.007394
  47 C :   -0.022149
  48 C :    0.041447
  49 C :   -0.035938
  50 C :   -0.001242
  51 C :   -0.007825
  52 N :   -0.044359
  53 C :    0.053858
  54 C :   -0.077750
  55 C :   -0.044064
  56 N :   -0.016919
  57 O :    0.089859
  58 N :    0.000610
  59 C :    0.059387
  60 C :   -0.070120
  61 C :    0.099493
  62 O :   -0.150814
  63 C :   -0.062405
  64 C :    0.037329
  65 C :   -0.018887
  66 C :    0.005978
  67 C :   -0.040677
  68 C :    0.096049
  69 C :   -0.034339
  70 C :    0.005816
  71 F :   -0.060996
  72 C :    0.014097
  73 C :   -0.013880
  74 C :    0.076552
  75 C :   -0.119928
  76 C :   -0.015893
  77 N :   -0.054927
  78 C :   -0.018368
  79 N :   -0.045199
  80 H :    0.043222
  81 H :    0.041526
  82 H :    0.035364
  83 H :    0.040044
  84 H :    0.039261
  85 H :    0.052383
  86 H :    0.034747
  87 H :    0.019496
  88 H :    0.024015
  89 H :    0.017744
  90 H :    0.017111
  91 H :    0.048276
  92 H :    0.052308
  93 H :    0.009018
  94 H :   -0.002087
  95 H :    0.040345
  96 H :    0.050744
  97 H :    0.030380
  98 H :    0.054357
  99 H :    0.027799
 100 H :    0.033084
 101 H :    0.030174
 102 H :    0.033629
 103 H :    0.039975
 104 H :    0.038959
 105 H :    0.035604
 106 H :    0.046110
 107 H :    0.038365
 108 H :    0.044331
 109 H :    0.043399
 110 H :    0.035999
 111 H :    0.040469

  Mayer bond orders larger than 0.100000
B(  0-C ,  1-C ) :   1.4412 B(  0-C ,  6-C ) :   1.2023 B(  0-C , 80-H ) :   1.0064
B(  1-C ,  2-F ) :   1.0885 B(  1-C ,  3-C ) :   1.2552 B(  3-C ,  4-C ) :   1.4609
B(  3-C , 81-H ) :   0.9929 B(  4-C ,  5-C ) :   1.2344 B(  4-C , 82-H ) :   0.9968
B(  5-C ,  6-C ) :   1.2555 B(  5-C , 10-C ) :   1.1935 B(  6-C ,  7-C ) :   1.2024
B(  7-C ,  8-C ) :   1.4635 B(  7-C , 83-H ) :   0.9939 B(  8-C ,  9-C ) :   1.2136
B(  8-C , 14-C ) :   1.0032 B(  9-C , 10-C ) :   1.4681 B(  9-C , 11-C ) :   0.9201
B( 10-C , 84-H ) :   1.0149 B( 11-C , 12-O ) :   2.2729 B( 11-C , 13-C ) :   0.9312
B( 13-C , 14-C ) :   1.0363 B( 13-C , 20-C ) :   1.6888 B( 14-C , 15-C ) :   1.6510
B( 15-C , 16-C ) :   1.1383 B( 15-C , 18-C ) :   1.1754 B( 16-C , 17-N ) :   2.9868
B( 18-C , 19-N ) :   2.9697 B( 20-C , 21-C ) :   1.0538 B( 20-C , 85-H ) :   0.9334
B( 21-C , 22-C ) :   1.3825 B( 21-C , 26-C ) :   1.1447 B( 22-C , 23-N ) :   1.3676
B( 22-C , 30-C ) :   1.0432 B( 23-N , 24-C ) :   1.7721 B( 24-C , 25-C ) :   1.0914
B( 24-C , 86-H ) :   0.9896 B( 25-C , 26-C ) :   1.1729 B( 25-C , 29-N ) :   1.6085
B( 26-C , 27-N ) :   1.5816 B( 27-N , 28-O ) :   1.0372 B( 27-N , 29-N ) :   0.1746
B( 28-O , 29-N ) :   1.0977 B( 30-C , 31-C ) :   1.5122 B( 30-C , 47-C ) :   1.1360
B( 31-C , 32-C ) :   1.0923 B( 31-C , 87-H ) :   0.9896 B( 32-C , 33-C ) :   1.4535
B( 32-C , 45-C ) :   1.1276 B( 33-C , 34-C ) :   1.0141 B( 33-C , 39-C ) :   1.1176
B( 34-C , 35-C ) :   1.0014 B( 34-C , 37-C ) :   1.0409 B( 34-C , 88-H ) :   0.8785
B( 35-C , 36-N ) :   1.1421 B( 35-C , 89-H ) :   0.9451 B( 35-C , 90-H ) :   0.9448
B( 36-N , 91-H ) :   0.9819 B( 36-N , 92-H ) :   0.9781 B( 37-C , 38-N ) :   1.0988
B( 37-C , 93-H ) :   0.9352 B( 37-C , 94-H ) :   0.9365 B( 38-N , 95-H ) :   0.9548
B( 38-N , 96-H ) :   0.9676 B( 39-C , 40-C ) :   1.6503 B( 39-C , 44-C ) :   1.0423
B( 40-C , 41-C ) :   0.9597 B( 40-C , 97-H ) :   0.9729 B( 41-C , 42-C ) :   0.9890
B( 41-C , 48-C ) :   0.9526 B( 41-C , 98-H ) :   0.8785 B( 42-C , 43-C ) :   1.7068
B( 42-C , 99-H ) :   0.9739 B( 43-C , 44-C ) :   1.1328 B( 43-C ,100-H ) :   0.9900
B( 44-C , 45-C ) :   1.4417 B( 45-C , 46-C ) :   1.1435 B( 46-C , 47-C ) :   1.6004
B( 46-C ,101-H ) :   0.9915 B( 47-C ,102-H ) :   0.9724 B( 48-C , 49-C ) :   1.7451
B( 48-C ,103-H ) :   0.9565 B( 49-C , 50-C ) :   1.0933 B( 49-C ,104-H ) :   0.9689
B( 50-C , 51-C ) :   1.4369 B( 50-C , 55-C ) :   1.1293 B( 51-C , 52-N ) :   1.3138
B( 51-C , 59-C ) :   1.0625 B( 52-N , 53-C ) :   1.7582 B( 53-C , 54-C ) :   1.0919
B( 53-C ,105-H ) :   0.9960 B( 54-C , 55-C ) :   1.1689 B( 54-C , 58-N ) :   1.6024
B( 55-C , 56-N ) :   1.6152 B( 56-N , 57-O ) :   1.0621 B( 56-N , 58-N ) :   0.1823
B( 57-O , 58-N ) :   1.0885 B( 59-C , 60-C ) :   1.7038 B( 59-C ,106-H ) :   0.9370
B( 60-C , 61-C ) :   0.9418 B( 60-C , 74-C ) :   1.0167 B( 61-C , 62-O ) :   2.1576
B( 61-C , 63-C ) :   0.9333 B( 63-C , 64-C ) :   1.4549 B( 63-C , 73-C ) :   1.2104
B( 64-C , 65-C ) :   1.2027 B( 64-C ,107-H ) :   1.0148 B( 65-C , 66-C ) :   1.2533
B( 65-C , 70-C ) :   1.2300 B( 66-C , 67-C ) :   1.2049 B( 66-C , 72-C ) :   1.2016
B( 67-C , 68-C ) :   1.4389 B( 67-C ,108-H ) :   1.0072 B( 68-C , 69-C ) :   1.2529
B( 68-C , 71-F ) :   1.0928 B( 69-C , 70-C ) :   1.4650 B( 69-C ,109-H ) :   0.9924
B( 70-C ,110-H ) :   0.9974 B( 72-C , 73-C ) :   1.4638 B( 72-C ,111-H ) :   0.9951
B( 73-C , 74-C ) :   1.0039 B( 74-C , 75-C ) :   1.6871 B( 75-C , 76-C ) :   1.1634
B( 75-C , 78-C ) :   1.1335 B( 76-C , 77-N ) :   2.9796 B( 78-C , 79-N ) :   2.9842

-----------------------------------------------------------------------------
         ABSORPTION SPECTRUM VIA TRANSITION ELECTRIC DIPOLE MOMENTS
-----------------------------------------------------------------------------
State   Energy  Wavelength   fosc         T2         TX        TY        TZ
        (cm-1)    (nm)                  (au**2)     (au)      (au)      (au)
-----------------------------------------------------------------------------
   0   10164.7    983.8   0.124813828   4.04246  -0.33923   0.54086   1.90653
   1   12392.4    806.9   0.012300812   0.32678  -0.32640   0.46486  -0.06434
   2   15751.0    634.9   0.144267893   3.01534  -1.35648   0.16096   1.07209
   3   18999.5    526.3   0.036878493   0.63901   0.61360  -0.07355  -0.50704
   4   21831.1    458.1   0.026074655   0.39320   0.51220  -0.09408  -0.34929
   5   22483.0    444.8   0.057824735   0.84671  -0.44004  -0.34146  -0.73245
   6   23143.8    432.1   0.564136506   8.02463   0.42959  -0.71820  -2.70634
   7   23687.5    422.2   0.021207501   0.29474  -0.24908  -0.06392  -0.47814
   8   24805.1    403.1   0.020736336   0.27521  -0.03557  -0.49144   0.18008
   9   25077.7    398.8   0.178025120   2.33705   0.21491  -0.84995  -1.25238
  10   25306.3    395.2   0.054420969   0.70797  -0.03979  -0.65224  -0.53007
  11   25512.8    392.0   0.303519958   3.91655   0.33921  -1.86218  -0.57773
  12   25857.3    386.7   0.168696556   2.14783  -0.35198  -1.21391   0.74186
  13   26750.7    373.8   0.040875718   0.50304  -0.33274  -0.58528  -0.22310
  14   26953.1    371.0   0.017804943   0.21747   0.06313  -0.42568  -0.17967
  15   28122.8    355.6   0.026561676   0.31094  -0.31210   0.45352   0.08860
  16   28613.9    349.5   0.028355256   0.32624  -0.12656  -0.48011  -0.28234
  17   28755.0    347.8   0.020428415   0.23388  -0.34675  -0.30726   0.13870
  18   29578.6    338.1   0.018419569   0.20501  -0.12913   0.31263   0.30100
  19   29735.9    336.3   0.192714231   2.13358  -0.37521   0.67798   1.23820
  20   30374.5    329.2   0.026062941   0.28248  -0.33766   0.21987   0.34659
  21   30507.0    327.8   0.013946873   0.15051  -0.25190  -0.03793   0.29260
  22   30570.0    327.1   0.097739078   1.05256  -0.59780  -0.82665   0.10883
  23   30670.1    326.1   0.024214553   0.25992  -0.28600  -0.42186   0.01245
  24   30830.3    324.4   0.002324961   0.02483   0.05881  -0.12724  -0.07196
  25   30988.8    322.7   0.066934517   0.71108  -0.50015   0.40803   0.54262
  26   31364.5    318.8   0.054972981   0.57701  -0.60830  -0.44564  -0.09160
  27   31641.0    316.0   0.053440058   0.55602   0.22906  -0.27345  -0.65481
  28   31744.8    315.0   0.066953608   0.69435  -0.72556   0.24968   0.32492
  29   31892.9    313.5   0.138064528   1.42516   0.47309  -0.01315  -1.09598
  30   32296.2    309.6   0.012518245   0.12761   0.08429  -0.07694  -0.33850
  31   32525.9    307.4   0.012878565   0.13035  -0.19541   0.30358  -0.00236
  32   32719.1    305.6   0.543006133   5.46360   1.21451  -1.01070  -1.72251
  33   33010.6    302.9   0.290586316   2.89800   1.37210   0.99298   0.17125
  34   33190.9    301.3   0.362654187   3.59708  -1.05598  -1.55573   0.24837
  35   33589.6    297.7   0.464660312   4.55414  -1.58110  -1.40271  -0.29438
  36   33727.5    296.5   0.071530245   0.69820  -0.66772  -0.32999   0.37877
  37   33951.5    294.5   0.067136139   0.65099  -0.54902  -0.58108  -0.10914
  38   34100.3    293.3   0.018025515   0.17402   0.40168  -0.05958   0.09552
  39   34227.0    292.2   0.105989531   1.01946  -0.96118  -0.25850   0.16964
  40   34770.1    287.6   0.101447631   0.96053   0.35889   0.78544   0.46347
  41   34806.5    287.3   0.086501451   0.81816  -0.71339  -0.35719   0.42621
  42   35075.0    285.1   0.065755963   0.61718   0.04940   0.74459   0.24561
  43   35363.8    282.8   0.138538660   1.28970  -0.68051  -0.82837   0.37471
  44   35685.5    280.2   0.028199976   0.26015  -0.43144  -0.14360   0.23107
  45   35792.5    279.4   0.152040575   1.39844   0.43375  -0.79441  -0.76106
  46   35983.7    277.9   0.088298425   0.80784  -0.20545  -0.85252   0.19707
  47   36041.5    277.5   0.141877879   1.29595   0.81772   0.79166  -0.02352
  48   36825.8    271.5   0.020420205   0.18255   0.08327  -0.38154   0.17333
  49   36899.6    271.0   0.004140832   0.03694  -0.15725  -0.05630  -0.09511
  50   37056.9    269.9   0.064283968   0.57110  -0.56513  -0.48546  -0.12670
  51   37096.4    269.6   0.291033516   2.58277   1.53339   0.13487  -0.46183
  52   37203.6    268.8   0.363482086   3.21642  -1.11112  -1.30658  -0.52412
  53   37239.0    268.5   0.052149829   0.46103  -0.12468  -0.50922   0.43149
  54   37316.2    268.0   0.127629529   1.12598   0.38467  -0.76604  -0.62545
  55   37677.2    265.4   0.063515859   0.55498   0.71440  -0.16982   0.12563
  56   38065.1    262.7   0.336173077   2.90744  -0.33972  -1.54253   0.64237
  57   38107.5    262.4   0.028319926   0.24466   0.07441   0.27444  -0.40472
  58   38553.6    259.4   0.041595577   0.35519   0.16794   0.28786  -0.49408
  59   38804.7    257.7   0.013926119   0.11815  -0.06237   0.21848  -0.25792
  60   38889.7    257.1   0.011617123   0.09834   0.25388   0.17296   0.06301
  61   39198.3    255.1   0.001825206   0.01533  -0.03793  -0.10387   0.05569
  62   39239.1    254.8   0.004297189   0.03605   0.05877   0.16636   0.07018
  63   39410.4    253.7   0.109513359   0.91481   0.24332  -0.24518  -0.89191
  64   39599.5    252.5   0.016265174   0.13522   0.23058   0.27518  -0.07954
  65   39773.0    251.4   0.096917449   0.80221  -0.23274  -0.85884  -0.10217
  66   40183.9    248.9   0.008251676   0.06760  -0.10599  -0.23741   0.00259
  67   40325.1    248.0   0.029216270   0.23852   0.31665   0.10725  -0.35602

FINAL SINGLE POINT ENERGY     -3534.720648293824

DIPOLE MOMENT
-------------
                                X             Y             Z
Electronic contribution:    -13.42706      16.98655     -30.94506
Nuclear contribution   :     14.45752     -17.49588      34.26456
                        -----------------------------------------
Total Dipole Moment    :      1.03046      -0.50933       3.31949
                        -----------------------------------------
Magnitude (a.u.)       :      3.51287
Magnitude (Debye)      :      8.92902

Rotational constants in cm-1:     0.001271     0.000300     0.000268
Rotational constants in MHz :    38.095975     8.997298     8.028822

                             ****ORCA TERMINATED NORMALLY****
TOTAL RUN TIME: 0 days 0 hours 19 minutes 40 seconds 791 msec
