                         Program Version 4.2.0 -  RELEASE  -
|  1> # ORCA input file
|  2> # SCF done       -158.449929904360          0.000212245499
|  3> ! CAM-B3LYP def2-SVP def2/J RIJCOSX Grid4 TightSCF
|  4> %maxcore 5000
|  5> %tddft
|  6>     Mode sTDDFT
|  7>     Ethresh 5.0
|  8>     maxcore 5000
|  9> end
| 10>
| 11> %pal
| 12>   nprocs 6
| 13>   end
| 14> * xyz 0 1
| 15>    C       -3.24056        -1.37640        -0.64210
| 16>    C       -2.43655        -1.91910         0.28395
| 17>    C       -2.09389        -1.16309         1.46239
| 18>    C       -1.27691        -1.66624         2.45340
| 19>    C       -0.95283        -0.91868         3.59873
| 20>    N       -0.69133        -0.30482         4.53338
| 21>    C       -0.72465        -2.95581         2.37345
| 22>    N       -0.27733        -4.01125         2.30105
| 23>    C       -2.66471         0.14467         1.52857
| 24>    C       -3.47178         0.60703         0.53588
| 25>    O       -3.77177        -0.14313        -0.55971
| 26>    C       -4.08677         1.90736         0.53613
| 27>    C       -4.92638         2.41515        -0.41543
| 28>    C       -5.37453         3.72536        -0.12533
| 29>    C       -4.83665         4.21008         1.09930
| 30>    S       -3.79787         3.02754         1.84890
| 31>    C       -5.13119         5.46061         1.59093
| 32>    C       -5.99589         6.26618         0.84535
| 33>    C       -6.53705         5.78260        -0.37817
| 34>    C       -6.23733         4.53237        -0.86905
| 35>    S       -7.58899         6.95934        -1.11428
| 36>    C       -7.30376         8.08642         0.20259
| 37>    C       -6.44723         7.56940         1.14269
| 38>    C       -7.95025         9.36295         0.19010
| 39>    C       -7.78515        10.35708         1.18011
| 40>    C       -8.47591        11.61671         1.10723
| 41>    N       -8.28498        12.53367         2.07844
| 42>    C       -7.48835        12.28049         3.06194
| 43>    C       -6.80506        11.03739         3.13221
| 44>    N       -6.95866        10.13126         2.22588
| 45>    F       -5.97950        10.76523         4.14027
| 46>    F       -7.32832        13.20950         3.99711
| 47>    C       -9.36019        11.95915         0.06203
| 48>    C       -9.52449        10.97092        -0.93257
| 49>    C       -8.82874         9.70742        -0.85965
| 50>    N       -9.12413         8.92304        -1.89720
| 51>    S      -10.15639         9.67843        -2.85880
| 52>    N      -10.29265        11.03944        -2.02351
| 53>    C      -10.03208        13.21965         0.02635
| 54>    C      -10.91816        13.64636        -0.93373
| 55>    C      -11.41982        14.94393        -0.70395
| 56>    C      -10.88226        15.51414         0.48386
| 57>    S       -9.77865        14.41991         1.27483
| 58>    C      -11.22440        16.77749         0.90832
| 59>    C      -12.12928        17.50814         0.13536
| 60>    C      -12.66749        16.93387        -1.05017
| 61>    C      -12.32820        15.67130        -1.47768
| 62>    S      -13.76874        18.02760        -1.84118
| 63>    C      -13.50076        19.23205        -0.59839
| 64>    C      -12.62308        18.81438         0.36240
| 65>    C      -14.19642        20.48472        -0.70846
| 66>    C      -14.07038        21.52436         0.16070
| 67>    C      -14.80218        22.73523        -0.03621
| 68>    C      -14.69469        23.80956         0.82364
| 69>    C      -15.41700        24.99732         0.62110
| 70>    N      -16.01001        25.96605         0.45037
| 71>    C      -13.85331        23.77112         1.94826
| 72>    N      -13.16129        23.72552         2.86395
| 73>    C      -15.65719        22.75401        -1.19613
| 74>    C      -15.71428        21.67761        -1.99496
| 75>    O      -15.01536        20.54881        -1.79152
| 76>    H       -3.54175        -1.87937        -1.54882
| 77>    H       -2.04422        -2.91453         0.15742
| 78>    H       -2.45370         0.77307         2.38005
| 79>    H       -5.21619         1.86709        -1.29373
| 80>    H       -4.71502         5.81424         2.52035
| 81>    H       -6.65458         4.17938        -1.79846
| 82>    H       -6.15405         8.11147         2.02104
| 83>    H      -11.19344        13.03879        -1.77578
| 84>    H      -10.80877        17.19786         1.80991
| 85>    H      -12.74363        15.24987        -2.37900
| 86>    H      -12.33121        19.40939         1.20834
| 87>    H      -13.41127        21.44246         1.00896
| 88>    H      -16.24234        23.63254        -1.41174
| 89>    H      -16.32824        21.61329        -2.88064
| 90> *
| 91>
| 92>                          ****END OF INPUT****

CARTESIAN COORDINATES (ANGSTROEM)
---------------------------------
  C     -3.240560   -1.376400   -0.642100
  C     -2.436550   -1.919100    0.283950
  C     -2.093890   -1.163090    1.462390
  C     -1.276910   -1.666240    2.453400
  C     -0.952830   -0.918680    3.598730
  N     -0.691330   -0.304820    4.533380
  C     -0.724650   -2.955810    2.373450
  N     -0.277330   -4.011250    2.301050
  C     -2.664710    0.144670    1.528570
  C     -3.471780    0.607030    0.535880
  O     -3.771770   -0.143130   -0.559710
  C     -4.086770    1.907360    0.536130
  C     -4.926380    2.415150   -0.415430
  C     -5.374530    3.725360   -0.125330
  C     -4.836650    4.210080    1.099300
  S     -3.797870    3.027540    1.848900
  C     -5.131190    5.460610    1.590930
  C     -5.995890    6.266180    0.845350
  C     -6.537050    5.782600   -0.378170
  C     -6.237330    4.532370   -0.869050
  S     -7.588990    6.959340   -1.114280
  C     -7.303760    8.086420    0.202590
  C     -6.447230    7.569400    1.142690
  C     -7.950250    9.362950    0.190100
  C     -7.785150   10.357080    1.180110
  C     -8.475910   11.616710    1.107230
  N     -8.284980   12.533670    2.078440
  C     -7.488350   12.280490    3.061940
  C     -6.805060   11.037390    3.132210
  N     -6.958660   10.131260    2.225880
  F     -5.979500   10.765230    4.140270
  F     -7.328320   13.209500    3.997110
  C     -9.360190   11.959150    0.062030
  C     -9.524490   10.970920   -0.932570
  C     -8.828740    9.707420   -0.859650
  N     -9.124130    8.923040   -1.897200
  S    -10.156390    9.678430   -2.858800
  N    -10.292650   11.039440   -2.023510
  C    -10.032080   13.219650    0.026350
  C    -10.918160   13.646360   -0.933730
  C    -11.419820   14.943930   -0.703950
  C    -10.882260   15.514140    0.483860
  S     -9.778650   14.419910    1.274830
  C    -11.224400   16.777490    0.908320
  C    -12.129280   17.508140    0.135360
  C    -12.667490   16.933870   -1.050170
  C    -12.328200   15.671300   -1.477680
  S    -13.768740   18.027600   -1.841180
  C    -13.500760   19.232050   -0.598390
  C    -12.623080   18.814380    0.362400
  C    -14.196420   20.484720   -0.708460
  C    -14.070380   21.524360    0.160700
  C    -14.802180   22.735230   -0.036210
  C    -14.694690   23.809560    0.823640
  C    -15.417000   24.997320    0.621100
  N    -16.010010   25.966050    0.450370
  C    -13.853310   23.771120    1.948260
  N    -13.161290   23.725520    2.863950
  C    -15.657190   22.754010   -1.196130
  C    -15.714280   21.677610   -1.994960
  O    -15.015360   20.548810   -1.791520
  H     -3.541750   -1.879370   -1.548820
  H     -2.044220   -2.914530    0.157420
  H     -2.453700    0.773070    2.380050
  H     -5.216190    1.867090   -1.293730
  H     -4.715020    5.814240    2.520350
  H     -6.654580    4.179380   -1.798460
  H     -6.154050    8.111470    2.021040
  H    -11.193440   13.038790   -1.775780
  H    -10.808770   17.197860    1.809910
  H    -12.743630   15.249870   -2.379000
  H    -12.331210   19.409390    1.208340
  H    -13.411270   21.442460    1.008960
  H    -16.242340   23.632540   -1.411740
  H    -16.328240   21.613290   -2.880640

 Total Charge           Charge          ....    0
 Multiplicity           Mult            ....    1
 Number of Electrons    NEL             ....  448
 Basis Dimension        Dim             ....  944

ORBITAL ENERGIES
----------------

  NO   OCC          E(Eh)            E(eV)
   0   2.0000     -89.055845     -2423.3327
   1   2.0000     -88.967386     -2420.9256
   2   2.0000     -88.966234     -2420.8943
   3   2.0000     -88.954355     -2420.5711
   4   2.0000     -88.953479     -2420.5472
   5   2.0000     -24.827354      -675.5867
   6   2.0000     -24.826285      -675.5575
   7   2.0000     -19.329594      -525.9850
   8   2.0000     -19.327212      -525.9202
   9   2.0000     -14.467841      -393.6900
  10   2.0000     -14.465144      -393.6166
  11   2.0000     -14.463732      -393.5782
  12   2.0000     -14.463074      -393.5602
  13   2.0000     -14.398164      -391.7939
  14   2.0000     -14.397428      -391.7739
  15   2.0000     -14.397355      -391.7719
  16   2.0000     -14.397100      -391.7650
  17   2.0000     -10.444224      -284.2018
  18   2.0000     -10.443236      -284.1749
  19   2.0000     -10.391757      -282.7741
  20   2.0000     -10.390401      -282.7372
  21   2.0000     -10.379468      -282.4397
  22   2.0000     -10.378801      -282.4215
  23   2.0000     -10.358635      -281.8728
  24   2.0000     -10.357702      -281.8474
  25   2.0000     -10.352378      -281.7025
  26   2.0000     -10.351411      -281.6762
  27   2.0000     -10.339761      -281.3592
  28   2.0000     -10.339310      -281.3469
  29   2.0000     -10.329174      -281.0711
  30   2.0000     -10.328323      -281.0479
  31   2.0000     -10.327832      -281.0346
  32   2.0000     -10.327508      -281.0258
  33   2.0000     -10.322332      -280.8849
  34   2.0000     -10.320876      -280.8453
  35   2.0000     -10.319591      -280.8104
  36   2.0000     -10.319104      -280.7971
  37   2.0000     -10.316891      -280.7369
  38   2.0000     -10.315094      -280.6880
  39   2.0000     -10.309125      -280.5255
  40   2.0000     -10.308516      -280.5090
  41   2.0000     -10.308293      -280.5029
  42   2.0000     -10.307977      -280.4943
  43   2.0000     -10.306381      -280.4509
  44   2.0000     -10.303282      -280.3666
  45   2.0000     -10.302516      -280.3457
  46   2.0000     -10.301912      -280.3293
  47   2.0000     -10.301419      -280.3159
  48   2.0000     -10.301106      -280.3074
  49   2.0000     -10.300984      -280.3040
  50   2.0000     -10.300848      -280.3003
  51   2.0000     -10.299362      -280.2599
  52   2.0000     -10.298791      -280.2443
  53   2.0000     -10.295020      -280.1417
  54   2.0000     -10.294559      -280.1292
  55   2.0000     -10.294055      -280.1155
  56   2.0000     -10.293288      -280.0946
  57   2.0000     -10.293080      -280.0889
  58   2.0000     -10.292688      -280.0783
  59   2.0000     -10.284286      -279.8496
  60   2.0000     -10.283711      -279.8340
  61   2.0000      -8.146906      -221.6886
  62   2.0000      -8.062960      -219.4043
  63   2.0000      -8.061811      -219.3730
  64   2.0000      -8.049004      -219.0245
  65   2.0000      -8.047698      -218.9890
  66   2.0000      -6.117986      -166.4789
  67   2.0000      -6.110157      -166.2658
  68   2.0000      -6.109777      -166.2555
  69   2.0000      -6.032697      -164.1580
  70   2.0000      -6.031447      -164.1240
  71   2.0000      -6.028620      -164.0471
  72   2.0000      -6.027390      -164.0136
  73   2.0000      -6.024038      -163.9224
  74   2.0000      -6.023054      -163.8956
  75   2.0000      -6.018814      -163.7803
  76   2.0000      -6.017531      -163.7453
  77   2.0000      -6.014457      -163.6617
  78   2.0000      -6.013083      -163.6243
  79   2.0000      -6.010163      -163.5449
  80   2.0000      -6.008945      -163.5117
  81   2.0000      -1.355250       -36.8782
  82   2.0000      -1.341195       -36.4958
  83   2.0000      -1.240653       -33.7599
  84   2.0000      -1.236829       -33.6558
  85   2.0000      -1.153096       -31.3773
  86   2.0000      -1.126667       -30.6582
  87   2.0000      -1.052175       -28.6312
  88   2.0000      -1.015725       -27.6393
  89   2.0000      -1.013931       -27.5905
  90   2.0000      -1.008770       -27.4500
  91   2.0000      -0.998820       -27.1793
  92   2.0000      -0.998483       -27.1701
  93   2.0000      -0.997817       -27.1520
  94   2.0000      -0.986863       -26.8539
  95   2.0000      -0.976989       -26.5852
  96   2.0000      -0.976609       -26.5749
  97   2.0000      -0.976014       -26.5587
  98   2.0000      -0.960373       -26.1331
  99   2.0000      -0.959950       -26.1216
 100   2.0000      -0.941506       -25.6197
 101   2.0000      -0.937145       -25.5010
 102   2.0000      -0.913709       -24.8633
 103   2.0000      -0.900945       -24.5160
 104   2.0000      -0.897771       -24.4296
 105   2.0000      -0.887401       -24.1474
 106   2.0000      -0.886909       -24.1340
 107   2.0000      -0.881872       -23.9969
 108   2.0000      -0.877129       -23.8679
 109   2.0000      -0.875280       -23.8176
 110   2.0000      -0.845579       -23.0094
 111   2.0000      -0.843825       -22.9616
 112   2.0000      -0.834462       -22.7069
 113   2.0000      -0.822647       -22.3854
 114   2.0000      -0.815509       -22.1911
 115   2.0000      -0.802024       -21.8242
 116   2.0000      -0.799433       -21.7537
 117   2.0000      -0.789813       -21.4919
 118   2.0000      -0.780952       -21.2508
 119   2.0000      -0.778509       -21.1843
 120   2.0000      -0.773458       -21.0469
 121   2.0000      -0.759431       -20.6652
 122   2.0000      -0.757639       -20.6164
 123   2.0000      -0.738734       -20.1020
 124   2.0000      -0.720810       -19.6142
 125   2.0000      -0.700100       -19.0507
 126   2.0000      -0.696384       -18.9496
 127   2.0000      -0.692074       -18.8323
 128   2.0000      -0.690223       -18.7819
 129   2.0000      -0.689108       -18.7516
 130   2.0000      -0.683515       -18.5994
 131   2.0000      -0.681321       -18.5397
 132   2.0000      -0.676576       -18.4106
 133   2.0000      -0.666732       -18.1427
 134   2.0000      -0.661376       -17.9970
 135   2.0000      -0.654243       -17.8029
 136   2.0000      -0.643219       -17.5029
 137   2.0000      -0.641524       -17.4568
 138   2.0000      -0.637719       -17.3532
 139   2.0000      -0.635649       -17.2969
 140   2.0000      -0.630406       -17.1542
 141   2.0000      -0.616511       -16.7761
 142   2.0000      -0.613840       -16.7034
 143   2.0000      -0.608122       -16.5478
 144   2.0000      -0.599993       -16.3267
 145   2.0000      -0.598493       -16.2858
 146   2.0000      -0.589589       -16.0435
 147   2.0000      -0.589099       -16.0302
 148   2.0000      -0.587905       -15.9977
 149   2.0000      -0.586789       -15.9673
 150   2.0000      -0.582233       -15.8434
 151   2.0000      -0.578612       -15.7448
 152   2.0000      -0.578381       -15.7385
 153   2.0000      -0.573770       -15.6131
 154   2.0000      -0.573571       -15.6077
 155   2.0000      -0.569853       -15.5065
 156   2.0000      -0.565540       -15.3891
 157   2.0000      -0.551776       -15.0146
 158   2.0000      -0.549926       -14.9643
 159   2.0000      -0.547090       -14.8871
 160   2.0000      -0.545427       -14.8418
 161   2.0000      -0.535671       -14.5763
 162   2.0000      -0.533121       -14.5070
 163   2.0000      -0.531287       -14.4570
 164   2.0000      -0.524901       -14.2833
 165   2.0000      -0.523123       -14.2349
 166   2.0000      -0.517795       -14.0899
 167   2.0000      -0.515023       -14.0145
 168   2.0000      -0.514632       -14.0039
 169   2.0000      -0.509998       -13.8777
 170   2.0000      -0.496638       -13.5142
 171   2.0000      -0.495619       -13.4865
 172   2.0000      -0.495024       -13.4703
 173   2.0000      -0.492678       -13.4064
 174   2.0000      -0.492006       -13.3882
 175   2.0000      -0.488642       -13.2966
 176   2.0000      -0.482115       -13.1190
 177   2.0000      -0.479512       -13.0482
 178   2.0000      -0.479117       -13.0374
 179   2.0000      -0.476678       -12.9711
 180   2.0000      -0.475376       -12.9356
 181   2.0000      -0.469768       -12.7830
 182   2.0000      -0.467524       -12.7220
 183   2.0000      -0.460718       -12.5368
 184   2.0000      -0.459669       -12.5082
 185   2.0000      -0.453984       -12.3535
 186   2.0000      -0.449182       -12.2229
 187   2.0000      -0.444653       -12.0996
 188   2.0000      -0.443213       -12.0604
 189   2.0000      -0.434401       -11.8207
 190   2.0000      -0.432775       -11.7764
 191   2.0000      -0.432249       -11.7621
 192   2.0000      -0.428590       -11.6625
 193   2.0000      -0.428100       -11.6492
 194   2.0000      -0.426600       -11.6084
 195   2.0000      -0.425928       -11.5901
 196   2.0000      -0.419168       -11.4061
 197   2.0000      -0.417962       -11.3733
 198   2.0000      -0.415211       -11.2985
 199   2.0000      -0.414970       -11.2919
 200   2.0000      -0.414800       -11.2873
 201   2.0000      -0.413873       -11.2621
 202   2.0000      -0.411089       -11.1863
 203   2.0000      -0.410414       -11.1679
 204   2.0000      -0.408023       -11.1029
 205   2.0000      -0.399565       -10.8727
 206   2.0000      -0.398959       -10.8562
 207   2.0000      -0.397933       -10.8283
 208   2.0000      -0.391206       -10.6453
 209   2.0000      -0.388634       -10.5753
 210   2.0000      -0.376265       -10.2387
 211   2.0000      -0.372683       -10.1412
 212   2.0000      -0.370257       -10.0752
 213   2.0000      -0.365822        -9.9545
 214   2.0000      -0.354466        -9.6455
 215   2.0000      -0.345794        -9.4095
 216   2.0000      -0.335259        -9.1229
 217   2.0000      -0.324080        -8.8187
 218   2.0000      -0.308727        -8.4009
 219   2.0000      -0.288101        -7.8396
 220   2.0000      -0.285141        -7.7591
 221   2.0000      -0.282475        -7.6865
 222   2.0000      -0.271000        -7.3743
 223   2.0000      -0.250596        -6.8191
 224   0.0000      -0.125629        -3.4185
 225   0.0000      -0.071198        -1.9374
 226   0.0000      -0.070644        -1.9223
 227   0.0000      -0.036355        -0.9893
 228   0.0000      -0.032454        -0.8831

MULLIKEN ATOMIC CHARGES
-----------------------
   0 C :    0.193710
   1 C :   -0.070152
   2 C :    0.244044
   3 C :   -0.333816
   4 C :   -0.175687
   5 N :    0.130840
   6 C :   -0.182040
   7 N :    0.130245
   8 C :   -0.160948
   9 C :    0.244144
  10 O :   -0.209627
  11 C :   -0.074967
  12 C :   -0.023272
  13 C :    0.118173
  14 C :   -0.034711
  15 S :    0.128465
  16 C :   -0.049210
  17 C :    0.126407
  18 C :   -0.015738
  19 C :   -0.056186
  20 S :    0.133680
  21 C :   -0.157008
  22 C :   -0.040129
  23 C :    0.207724
  24 C :   -0.068194
  25 C :   -0.060190
  26 N :   -0.036126
  27 C :    0.154192
  28 C :    0.142712
  29 N :    0.001396
  30 F :   -0.138909
  31 F :   -0.132091
  32 C :    0.184473
  33 C :    0.000662
  34 C :   -0.029642
  35 N :   -0.319169
  36 S :    0.559122
  37 N :   -0.295492
  38 C :   -0.153888
  39 C :   -0.039606
  40 C :    0.126916
  41 C :   -0.015432
  42 S :    0.138990
  43 C :   -0.057123
  44 C :    0.102779
  45 C :   -0.036693
  46 C :   -0.054008
  47 S :    0.145431
  48 C :   -0.082947
  49 C :   -0.017068
  50 C :    0.250596
  51 C :   -0.151152
  52 C :    0.244679
  53 C :   -0.337833
  54 C :   -0.181354
  55 N :    0.128409
  56 C :   -0.170783
  57 N :    0.124332
  58 C :   -0.067424
  59 C :    0.191694
  60 O :   -0.210396
  61 H :    0.038039
  62 H :    0.037317
  63 H :    0.039141
  64 H :   -0.008517
  65 H :   -0.023270
  66 H :   -0.030651
  67 H :   -0.002894
  68 H :   -0.009414
  69 H :   -0.025606
  70 H :   -0.029042
  71 H :   -0.005834
  72 H :    0.026514
  73 H :    0.038154
  74 H :    0.041257
Sum of atomic charges:    0.0000000

LOEWDIN ATOMIC CHARGES
----------------------
   0 C :    0.101645
   1 C :   -0.052133
   2 C :    0.056246
   3 C :   -0.175445
   4 C :   -0.029621
   5 N :   -0.066908
   6 C :   -0.030269
   7 N :   -0.068288
   8 C :   -0.055277
   9 C :    0.077607
  10 O :    0.002796
  11 C :   -0.178580
  12 C :   -0.021294
  13 C :   -0.046074
  14 C :   -0.148173
  15 S :    0.413885
  16 C :   -0.028148
  17 C :   -0.042199
  18 C :   -0.156696
  19 C :   -0.030115
  20 S :    0.425488
  21 C :   -0.149633
  22 C :   -0.031479
  23 C :   -0.037531
  24 C :   -0.005175
  25 C :   -0.010391
  26 N :   -0.048195
  27 C :    0.063515
  28 C :    0.062320
  29 N :   -0.030257
  30 F :   -0.027536
  31 F :   -0.021701
  32 C :   -0.035637
  33 C :   -0.036499
  34 C :   -0.044998
  35 N :   -0.293729
  36 S :    0.681589
  37 N :   -0.280002
  38 C :   -0.152518
  39 C :   -0.032049
  40 C :   -0.042409
  41 C :   -0.158012
  42 S :    0.427979
  43 C :   -0.028494
  44 C :   -0.045148
  45 C :   -0.152079
  46 C :   -0.031194
  47 S :    0.412429
  48 C :   -0.179360
  49 C :   -0.021320
  50 C :    0.076376
  51 C :   -0.045633
  52 C :    0.056142
  53 C :   -0.178581
  54 C :   -0.030845
  55 N :   -0.069079
  56 C :   -0.028811
  57 N :   -0.071414
  58 C :   -0.050501
  59 C :    0.101869
  60 O :   -0.000980
  61 H :    0.039941
  62 H :    0.052891
  63 H :    0.043376
  64 H :    0.035309
  65 H :    0.034209
  66 H :    0.031287
  67 H :    0.030044
  68 H :    0.029033
  69 H :    0.032963
  70 H :    0.031783
  71 H :    0.037417
  72 H :    0.047980
  73 H :    0.053166
  74 H :    0.041123

  Mayer bond orders larger than 0.100000
B(  0-C ,  1-C ) :   1.6855 B(  0-C , 10-O ) :   1.1107 B(  0-C , 61-H ) :   0.9745
B(  1-C ,  2-C ) :   1.1271 B(  1-C , 62-H ) :   0.9604 B(  2-C ,  3-C ) :   1.5758
B(  2-C ,  8-C ) :   1.1390 B(  3-C ,  4-C ) :   1.1314 B(  3-C ,  6-C ) :   1.1295
B(  4-C ,  5-N ) :   3.0096 B(  6-C ,  7-N ) :   3.0146 B(  8-C ,  9-C ) :   1.5552
B(  8-C , 63-H ) :   0.9610 B(  9-C , 10-O ) :   1.1513 B(  9-C , 11-C ) :   1.1001
B( 11-C , 12-C ) :   1.5473 B( 11-C , 15-S ) :   1.0841 B( 12-C , 13-C ) :   1.1365
B( 12-C , 64-H ) :   1.0108 B( 13-C , 14-C ) :   1.2746 B( 13-C , 19-C ) :   1.3099
B( 14-C , 15-S ) :   1.0410 B( 14-C , 16-C ) :   1.3904 B( 16-C , 17-C ) :   1.3063
B( 16-C , 19-C ) :   0.1008 B( 16-C , 65-H ) :   1.0033 B( 17-C , 18-C ) :   1.2684
B( 17-C , 22-C ) :   1.1312 B( 18-C , 19-C ) :   1.3885 B( 18-C , 20-S ) :   1.0103
B( 19-C , 66-H ) :   1.0034 B( 20-S , 21-C ) :   1.0805 B( 21-C , 22-C ) :   1.5289
B( 21-C , 23-C ) :   1.1578 B( 22-C , 67-H ) :   0.9918 B( 23-C , 24-C ) :   1.3123
B( 23-C , 32-C ) :   0.1299 B( 23-C , 34-C ) :   1.1939 B( 24-C , 25-C ) :   1.1100
B( 24-C , 29-N ) :   1.4214 B( 25-C , 26-N ) :   1.3819 B( 25-C , 32-C ) :   1.3040
B( 26-N , 27-C ) :   1.6630 B( 27-C , 28-C ) :   1.0990 B( 27-C , 31-F ) :   1.1903
B( 28-C , 29-N ) :   1.6747 B( 28-C , 30-F ) :   1.1753 B( 32-C , 33-C ) :   1.2104
B( 32-C , 38-C ) :   1.1615 B( 33-C , 34-C ) :   1.1097 B( 33-C , 37-N ) :   1.4973
B( 34-C , 35-N ) :   1.4705 B( 35-N , 36-S ) :   1.2835 B( 35-N , 37-N ) :   0.1546
B( 36-S , 37-N ) :   1.2828 B( 38-C , 39-C ) :   1.5356 B( 38-C , 42-S ) :   1.0735
B( 39-C , 40-C ) :   1.1354 B( 39-C , 68-H ) :   0.9869 B( 40-C , 41-C ) :   1.2678
B( 40-C , 46-C ) :   1.3084 B( 41-C , 42-S ) :   1.0005 B( 41-C , 43-C ) :   1.3934
B( 43-C , 44-C ) :   1.3038 B( 43-C , 46-C ) :   0.1008 B( 43-C , 69-H ) :   1.0032
B( 44-C , 45-C ) :   1.2791 B( 44-C , 49-C ) :   1.1650 B( 45-C , 46-C ) :   1.3847
B( 45-C , 47-S ) :   1.0368 B( 46-C , 70-H ) :   1.0032 B( 47-S , 48-C ) :   1.0674
B( 48-C , 49-C ) :   1.5955 B( 48-C , 50-C ) :   1.0518 B( 49-C , 71-H ) :   0.9923
B( 50-C , 51-C ) :   1.5877 B( 50-C , 60-O ) :   1.1484 B( 51-C , 52-C ) :   1.1294
B( 51-C , 72-H ) :   0.9653 B( 52-C , 53-C ) :   1.5676 B( 52-C , 58-C ) :   1.1263
B( 53-C , 54-C ) :   1.1286 B( 53-C , 56-C ) :   1.1322 B( 54-C , 55-N ) :   3.0149
B( 56-C , 57-N ) :   3.0067 B( 58-C , 59-C ) :   1.6859 B( 58-C , 73-H ) :   0.9612
B( 59-C , 60-O ) :   1.1084 B( 59-C , 74-H ) :   0.9750

-----------------------------------------------------------------------------
         ABSORPTION SPECTRUM VIA TRANSITION ELECTRIC DIPOLE MOMENTS
-----------------------------------------------------------------------------
State   Energy  Wavelength   fosc         T2         TX        TY        TZ
        (cm-1)    (nm)                  (au**2)     (au)      (au)      (au)
-----------------------------------------------------------------------------
   0   12237.3    817.2   0.980031410  26.36521  -2.53946   4.43477  -0.49912
   1   16939.1    590.4   0.000311221   0.00605   0.01397   0.07136   0.02758
   2   18938.0    528.0   0.072881897   1.26695  -0.31599   1.03775   0.30029
   3   22386.7    446.7   0.002859203   0.04205   0.05085   0.08868   0.17775
   4   24629.4    406.0   1.273821029  17.02667   1.96999  -3.60651   0.37266
   5   25369.4    394.2   0.588408998   7.63561  -1.39637   2.36058  -0.33677
   6   25870.2    386.5   0.194999273   2.48147   0.94552  -0.97694   0.79565
   7   27055.5    369.6   0.028533614   0.34720  -0.33007  -0.00503  -0.48808
   8   28154.1    355.2   0.007158454   0.08371   0.12462   0.05613   0.25500
   9   29210.5    342.3   0.114708332   1.29280  -0.29685   1.06609   0.26101
  10   29655.2    337.2   0.082575925   0.91670   0.20057   0.54934   0.75809
  11   29707.1    336.6   0.015606387   0.17295  -0.23132  -0.14855  -0.31205
  12   29884.5    334.6   0.399460670   4.40052  -0.89121   1.89827   0.05315
  13   30485.8    328.0   0.051213610   0.55305   0.21483   0.36228   0.61291
  14   30495.2    327.9   0.033868369   0.36563  -0.18387  -0.27348  -0.50698
  15   31210.3    320.4   0.021524661   0.22705   0.15334  -0.45113  -0.00417
  16   31562.9    316.8   0.191452980   1.99692  -0.01870   1.20578   0.73665
  17   32053.2    312.0   0.240359776   2.46869   0.80965   0.01203   1.34648
  18   32371.8    308.9   0.045712210   0.46488   0.34852   0.05195   0.58371
  19   33762.4    296.2   0.063371124   0.61792   0.44134   0.03249   0.64968
  20   34211.8    292.3   0.098277250   0.94570   0.13984   0.67206   0.68883
  21   35122.3    284.7   0.138538783   1.29856   0.41688  -1.04872  -0.15802
  22   35911.5    278.5   0.031714034   0.29073   0.14403   0.30956   0.41732
  23   36089.4    277.1   0.287095133   2.61892   0.78223  -1.41222   0.11263
  24   36790.5    271.8   0.001435212   0.01284  -0.05392  -0.03145   0.09458
  25   37066.6    269.8   0.061172804   0.54331  -0.13636   0.69122   0.21663
  26   37249.6    268.5   0.372588588   3.29293  -1.08005   0.19233  -1.44549
  27   37583.6    266.1   0.015872952   0.13904   0.17297   0.06721   0.32343
  28   38055.0    262.8   0.329508391   2.85056  -1.01584   0.54812  -1.23215
  29   38633.9    258.8   0.002214332   0.01887   0.09508   0.03939  -0.09098
  30   38693.9    258.4   0.154052304   1.31069   0.40559   0.49216   0.95077
  31   39072.7    255.9   0.053709154   0.45253   0.37893  -0.07439   0.55083
  32   39365.7    254.0   0.052243627   0.43691   0.43168  -0.34504   0.36264
  33   39598.2    252.5   0.006381681   0.05306  -0.10264   0.20564   0.01530
  34   40013.7    249.9   0.190468338   1.56707   0.53777   0.41733   1.05058

FINAL SINGLE POINT ENERGY     -4460.477904916699

DIPOLE MOMENT
-------------
                                X             Y             Z
Electronic contribution:      5.28208       3.50092       9.85061
Nuclear contribution   :     -7.55655      -4.90845     -14.41167
                        -----------------------------------------
Total Dipole Moment    :     -2.27447      -1.40753      -4.56105
                        -----------------------------------------
Magnitude (a.u.)       :      5.28749
Magnitude (Debye)      :     13.43974

Rotational constants in cm-1:     0.004918     0.000234     0.000224
Rotational constants in MHz :   147.428438     7.023761     6.705311

                             ****ORCA TERMINATED NORMALLY****
TOTAL RUN TIME: 0 days 0 hours 6 minutes 1 seconds 107 msec
