                         Program Version 4.2.0 -  RELEASE  -
|  1> # ORCA input file
|  2> # SCF done       -173.767525586376          0.000836547556
|  3> ! CAM-B3LYP def2-SVP def2/J RIJCOSX Grid4 TightSCF
|  4> %maxcore 5000
|  5> %tddft
|  6>     Mode sTDDFT
|  7>     Ethresh 5.0
|  8>     maxcore 5000
|  9> end
| 10>
| 11> %pal
| 12>   nprocs 6
| 13>   end
| 14> * xyz 0 1
| 15>    C        4.70921        -4.69810        -5.28514
| 16>    N        3.44822        -4.38252        -5.26537
| 17>    N        2.97867        -3.28362        -5.82188
| 18>    C        3.72493        -2.41512        -6.47021
| 19>    C        5.13167        -2.66066        -6.57060
| 20>    C        5.63830        -3.85205        -5.93574
| 21>    N        6.94198        -3.88191        -6.13998
| 22>    O        7.21811        -2.79178        -6.84896
| 23>    N        6.15759        -2.04664        -7.12081
| 24>    C        3.12750        -1.23987        -7.04990
| 25>    N        3.89597        -0.34469        -7.64014
| 26>    C        3.06312         0.62929        -8.06940
| 27>    C        1.67091         0.32693        -7.72794
| 28>    C        0.78582         1.40350        -8.19554
| 29>    O       -0.41931         1.50151        -8.08639
| 30>    C        1.72690         2.34792        -8.83050
| 31>    C        3.10892         1.83574        -8.73041
| 32>    N        3.98174         2.69614        -9.30872
| 33>    C        3.24547         3.68567        -9.75080
| 34>    C        1.82606         3.53236        -9.48500
| 35>    C        1.69122        -0.88197        -7.06576
| 36>    C        0.64325        -1.65919        -6.50108
| 37>    C       -0.65644        -1.28072        -6.55678
| 38>    C       -1.77030        -1.98983        -5.99437
| 39>    C       -3.03624        -1.44395        -6.14323
| 40>    C       -4.15253        -2.08040        -5.58458
| 41>    C       -5.50369        -1.72535        -5.57697
| 42>    C       -6.09207        -0.51845        -6.22026
| 43>    C       -7.08932        -0.90766        -7.33269
| 44>    N       -7.30912         0.22312        -8.21091
| 45>    C       -6.72676         0.40974        -5.16976
| 46>    N       -5.81696         0.55394        -4.04546
| 47>    C       -6.19762        -2.74261        -4.83198
| 48>    C       -7.49124        -2.88013        -4.48004
| 49>    C       -7.96919        -4.05350        -3.69517
| 50>    C       -6.90046        -5.00048        -3.26332
| 51>    C       -5.60641        -4.84598        -3.61321
| 52>    C       -5.20589        -3.73819        -4.39006
| 53>    C       -3.96878        -3.32279        -4.85559
| 54>    C       -2.67424        -3.87115        -4.73058
| 55>    C       -1.61396        -3.22149        -5.28147
| 56>    C       -8.92955        -4.79843        -4.58387
| 57>    C      -10.26096        -4.79363        -4.42335
| 58>    C      -11.13310        -5.50577        -5.30249
| 59>    N      -10.67281        -6.32249        -6.23986
| 60>    C      -11.75681        -6.82222        -6.86011
| 61>    C      -12.99962        -6.28047        -6.28883
| 62>    C      -14.17529        -6.84384        -6.97998
| 63>    O      -15.34776        -6.61836        -6.77564
| 64>    C      -13.56308        -7.74036        -7.97409
| 65>    C      -12.08906        -7.69660        -7.86993
| 66>    N      -11.52041        -8.51425        -8.78522
| 67>    C      -12.52664        -9.05216        -9.43612
| 68>    C      -13.82790        -8.61272        -8.98197
| 69>    C      -12.61211        -5.42681        -5.28471
| 70>    C      -13.38112        -4.60314        -4.41527
| 71>    C      -14.72943        -4.51306        -4.44148
| 72>    C      -15.43147        -3.63714        -3.54574
| 73>    N      -14.76213        -2.91269        -2.67062
| 74>    N      -15.33707        -2.09002        -1.81584
| 75>    C      -16.62295        -1.90637        -1.76238
| 76>    C      -17.47515        -2.60649        -2.65067
| 77>    C      -16.85598        -3.51556        -3.58042
| 78>    N      -17.81713        -4.05166        -4.30344
| 79>    O      -18.94803        -3.51966        -3.86001
| 80>    N      -18.77632        -2.64891        -2.86935
| 81>    H        5.00197        -5.61498        -4.79840
| 82>    H        3.70063         4.51760       -10.25959
| 83>    H        1.06104         4.22965        -9.76438
| 84>    H        0.95585        -2.57262        -6.01917
| 85>    H       -0.90277        -0.35422        -7.06039
| 86>    H       -3.15090        -0.51952        -6.69024
| 87>    H       -5.28739         0.03667        -6.71107
| 88>    H       -8.01271        -1.30369        -6.88003
| 89>    H       -6.64072        -1.70725        -7.92873
| 90>    H       -7.86617         0.93750        -7.75680
| 91>    H       -7.78723        -0.05984        -9.05739
| 92>    H       -7.65148        -0.02799        -4.78402
| 93>    H       -6.98014         1.36804        -5.65283
| 94>    H       -4.92851         0.93069        -4.35914
| 95>    H       -6.19961         1.19609        -3.36018
| 96>    H       -8.25159        -2.17221        -4.77280
| 97>    H       -8.52168        -3.68981        -2.81825
| 98>    H       -7.22661        -5.84532        -2.67694
| 99>    H       -4.86058        -5.55687        -3.28926
|100>    H       -2.53617        -4.79911        -4.19592
|101>    H       -0.62429        -3.63749        -5.18112
|102>    H       -8.49687        -5.35365        -5.40295
|103>    H      -10.71729        -4.23416        -3.61810
|104>    H      -12.34407        -9.75330       -10.23193
|105>    H      -14.76989        -8.93242        -9.38132
|106>    H      -12.85567        -3.99576        -3.69091
|107>    H      -15.32983        -5.08629        -5.13436
|108>    H      -16.99807        -1.21218        -1.02744
|109> *
|110>
|111>                          ****END OF INPUT****

CARTESIAN COORDINATES (ANGSTROEM)
---------------------------------
  C      4.709210   -4.698100   -5.285140
  N      3.448220   -4.382520   -5.265370
  N      2.978670   -3.283620   -5.821880
  C      3.724930   -2.415120   -6.470210
  C      5.131670   -2.660660   -6.570600
  C      5.638300   -3.852050   -5.935740
  N      6.941980   -3.881910   -6.139980
  O      7.218110   -2.791780   -6.848960
  N      6.157590   -2.046640   -7.120810
  C      3.127500   -1.239870   -7.049900
  N      3.895970   -0.344690   -7.640140
  C      3.063120    0.629290   -8.069400
  C      1.670910    0.326930   -7.727940
  C      0.785820    1.403500   -8.195540
  O     -0.419310    1.501510   -8.086390
  C      1.726900    2.347920   -8.830500
  C      3.108920    1.835740   -8.730410
  N      3.981740    2.696140   -9.308720
  C      3.245470    3.685670   -9.750800
  C      1.826060    3.532360   -9.485000
  C      1.691220   -0.881970   -7.065760
  C      0.643250   -1.659190   -6.501080
  C     -0.656440   -1.280720   -6.556780
  C     -1.770300   -1.989830   -5.994370
  C     -3.036240   -1.443950   -6.143230
  C     -4.152530   -2.080400   -5.584580
  C     -5.503690   -1.725350   -5.576970
  C     -6.092070   -0.518450   -6.220260
  C     -7.089320   -0.907660   -7.332690
  N     -7.309120    0.223120   -8.210910
  C     -6.726760    0.409740   -5.169760
  N     -5.816960    0.553940   -4.045460
  C     -6.197620   -2.742610   -4.831980
  C     -7.491240   -2.880130   -4.480040
  C     -7.969190   -4.053500   -3.695170
  C     -6.900460   -5.000480   -3.263320
  C     -5.606410   -4.845980   -3.613210
  C     -5.205890   -3.738190   -4.390060
  C     -3.968780   -3.322790   -4.855590
  C     -2.674240   -3.871150   -4.730580
  C     -1.613960   -3.221490   -5.281470
  C     -8.929550   -4.798430   -4.583870
  C    -10.260960   -4.793630   -4.423350
  C    -11.133100   -5.505770   -5.302490
  N    -10.672810   -6.322490   -6.239860
  C    -11.756810   -6.822220   -6.860110
  C    -12.999620   -6.280470   -6.288830
  C    -14.175290   -6.843840   -6.979980
  O    -15.347760   -6.618360   -6.775640
  C    -13.563080   -7.740360   -7.974090
  C    -12.089060   -7.696600   -7.869930
  N    -11.520410   -8.514250   -8.785220
  C    -12.526640   -9.052160   -9.436120
  C    -13.827900   -8.612720   -8.981970
  C    -12.612110   -5.426810   -5.284710
  C    -13.381120   -4.603140   -4.415270
  C    -14.729430   -4.513060   -4.441480
  C    -15.431470   -3.637140   -3.545740
  N    -14.762130   -2.912690   -2.670620
  N    -15.337070   -2.090020   -1.815840
  C    -16.622950   -1.906370   -1.762380
  C    -17.475150   -2.606490   -2.650670
  C    -16.855980   -3.515560   -3.580420
  N    -17.817130   -4.051660   -4.303440
  O    -18.948030   -3.519660   -3.860010
  N    -18.776320   -2.648910   -2.869350
  H      5.001970   -5.614980   -4.798400
  H      3.700630    4.517600  -10.259590
  H      1.061040    4.229650   -9.764380
  H      0.955850   -2.572620   -6.019170
  H     -0.902770   -0.354220   -7.060390
  H     -3.150900   -0.519520   -6.690240
  H     -5.287390    0.036670   -6.711070
  H     -8.012710   -1.303690   -6.880030
  H     -6.640720   -1.707250   -7.928730
  H     -7.866170    0.937500   -7.756800
  H     -7.787230   -0.059840   -9.057390
  H     -7.651480   -0.027990   -4.784020
  H     -6.980140    1.368040   -5.652830
  H     -4.928510    0.930690   -4.359140
  H     -6.199610    1.196090   -3.360180
  H     -8.251590   -2.172210   -4.772800
  H     -8.521680   -3.689810   -2.818250
  H     -7.226610   -5.845320   -2.676940
  H     -4.860580   -5.556870   -3.289260
  H     -2.536170   -4.799110   -4.195920
  H     -0.624290   -3.637490   -5.181120
  H     -8.496870   -5.353650   -5.402950
  H    -10.717290   -4.234160   -3.618100
  H    -12.344070   -9.753300  -10.231930
  H    -14.769890   -8.932420   -9.381320
  H    -12.855670   -3.995760   -3.690910
  H    -15.329830   -5.086290   -5.134360
  H    -16.998070   -1.212180   -1.027440

 Total Charge           Charge          ....    0
 Multiplicity           Mult            ....    1
 Number of Electrons    NEL             ....  446
 Basis Dimension        Dim             .... 1064

ORBITAL ENERGIES
----------------

  NO   OCC          E(Eh)            E(eV)
   0   2.0000     -19.383153      -527.4424
   1   2.0000     -19.377017      -527.2754
   2   2.0000     -19.215900      -522.8912
   3   2.0000     -19.209290      -522.7113
   4   2.0000     -14.507311      -394.7640
   5   2.0000     -14.504543      -394.6887
   6   2.0000     -14.501538      -394.6069
   7   2.0000     -14.499662      -394.5559
   8   2.0000     -14.470576      -393.7644
   9   2.0000     -14.466550      -393.6548
  10   2.0000     -14.453741      -393.3063
  11   2.0000     -14.448672      -393.1683
  12   2.0000     -14.421935      -392.4408
  13   2.0000     -14.409498      -392.1024
  14   2.0000     -14.407562      -392.0497
  15   2.0000     -14.406821      -392.0295
  16   2.0000     -14.378903      -391.2698
  17   2.0000     -14.377265      -391.2253
  18   2.0000     -10.375798      -282.3398
  19   2.0000     -10.368971      -282.1541
  20   2.0000     -10.365352      -282.0556
  21   2.0000     -10.355973      -281.8003
  22   2.0000     -10.351251      -281.6719
  23   2.0000     -10.350796      -281.6595
  24   2.0000     -10.350019      -281.6383
  25   2.0000     -10.349216      -281.6165
  26   2.0000     -10.345975      -281.5283
  27   2.0000     -10.342191      -281.4253
  28   2.0000     -10.341913      -281.4178
  29   2.0000     -10.338025      -281.3120
  30   2.0000     -10.336051      -281.2582
  31   2.0000     -10.333215      -281.1811
  32   2.0000     -10.328543      -281.0539
  33   2.0000     -10.327227      -281.0181
  34   2.0000     -10.326234      -280.9911
  35   2.0000     -10.325702      -280.9766
  36   2.0000     -10.310490      -280.5627
  37   2.0000     -10.308850      -280.5181
  38   2.0000     -10.304160      -280.3904
  39   2.0000     -10.303101      -280.3616
  40   2.0000     -10.300567      -280.2927
  41   2.0000     -10.300306      -280.2856
  42   2.0000     -10.299044      -280.2512
  43   2.0000     -10.293541      -280.1015
  44   2.0000     -10.291338      -280.0415
  45   2.0000     -10.291233      -280.0387
  46   2.0000     -10.290608      -280.0217
  47   2.0000     -10.289974      -280.0044
  48   2.0000     -10.289449      -279.9901
  49   2.0000     -10.285463      -279.8817
  50   2.0000     -10.283876      -279.8385
  51   2.0000     -10.279210      -279.7115
  52   2.0000     -10.275659      -279.6149
  53   2.0000     -10.274043      -279.5709
  54   2.0000     -10.272008      -279.5156
  55   2.0000     -10.270860      -279.4843
  56   2.0000     -10.269914      -279.4586
  57   2.0000     -10.268575      -279.4221
  58   2.0000     -10.265141      -279.3287
  59   2.0000     -10.263578      -279.2862
  60   2.0000     -10.263177      -279.2752
  61   2.0000     -10.262004      -279.2433
  62   2.0000     -10.261053      -279.2175
  63   2.0000     -10.260904      -279.2134
  64   2.0000     -10.260809      -279.2108
  65   2.0000     -10.260253      -279.1957
  66   2.0000      -1.337325       -36.3905
  67   2.0000      -1.330364       -36.2010
  68   2.0000      -1.146436       -31.1961
  69   2.0000      -1.130649       -30.7665
  70   2.0000      -1.128882       -30.7184
  71   2.0000      -1.122892       -30.5555
  72   2.0000      -1.083676       -29.4883
  73   2.0000      -1.080481       -29.4014
  74   2.0000      -1.063604       -28.9421
  75   2.0000      -1.060909       -28.8688
  76   2.0000      -1.037182       -28.2232
  77   2.0000      -1.031273       -28.0624
  78   2.0000      -0.995856       -27.0986
  79   2.0000      -0.988388       -26.8954
  80   2.0000      -0.984156       -26.7802
  81   2.0000      -0.966683       -26.3048
  82   2.0000      -0.966566       -26.3016
  83   2.0000      -0.958591       -26.0846
  84   2.0000      -0.952313       -25.9138
  85   2.0000      -0.950373       -25.8610
  86   2.0000      -0.938952       -25.5502
  87   2.0000      -0.933172       -25.3929
  88   2.0000      -0.919691       -25.0261
  89   2.0000      -0.911973       -24.8161
  90   2.0000      -0.896764       -24.4022
  91   2.0000      -0.884414       -24.0661
  92   2.0000      -0.868590       -23.6355
  93   2.0000      -0.865325       -23.5467
  94   2.0000      -0.857839       -23.3430
  95   2.0000      -0.853506       -23.2251
  96   2.0000      -0.845913       -23.0185
  97   2.0000      -0.838257       -22.8101
  98   2.0000      -0.833793       -22.6887
  99   2.0000      -0.826384       -22.4871
 100   2.0000      -0.815544       -22.1921
 101   2.0000      -0.801965       -21.8226
 102   2.0000      -0.799040       -21.7430
 103   2.0000      -0.788152       -21.4467
 104   2.0000      -0.782865       -21.3028
 105   2.0000      -0.771507       -20.9938
 106   2.0000      -0.761145       -20.7118
 107   2.0000      -0.755358       -20.5543
 108   2.0000      -0.751120       -20.4390
 109   2.0000      -0.735083       -20.0026
 110   2.0000      -0.730800       -19.8861
 111   2.0000      -0.726793       -19.7771
 112   2.0000      -0.725216       -19.7341
 113   2.0000      -0.709575       -19.3085
 114   2.0000      -0.696274       -18.9466
 115   2.0000      -0.695070       -18.9138
 116   2.0000      -0.691300       -18.8112
 117   2.0000      -0.681507       -18.5448
 118   2.0000      -0.671671       -18.2771
 119   2.0000      -0.665818       -18.1178
 120   2.0000      -0.662268       -18.0212
 121   2.0000      -0.660340       -17.9688
 122   2.0000      -0.657524       -17.8921
 123   2.0000      -0.655582       -17.8393
 124   2.0000      -0.645234       -17.5577
 125   2.0000      -0.641729       -17.4623
 126   2.0000      -0.636487       -17.3197
 127   2.0000      -0.633276       -17.2323
 128   2.0000      -0.632733       -17.2175
 129   2.0000      -0.626299       -17.0425
 130   2.0000      -0.622837       -16.9483
 131   2.0000      -0.619772       -16.8649
 132   2.0000      -0.604251       -16.4425
 133   2.0000      -0.596609       -16.2346
 134   2.0000      -0.594076       -16.1656
 135   2.0000      -0.588185       -16.0053
 136   2.0000      -0.587470       -15.9859
 137   2.0000      -0.584688       -15.9102
 138   2.0000      -0.582126       -15.8405
 139   2.0000      -0.574198       -15.6247
 140   2.0000      -0.572625       -15.5819
 141   2.0000      -0.570611       -15.5271
 142   2.0000      -0.564692       -15.3661
 143   2.0000      -0.557358       -15.1665
 144   2.0000      -0.556434       -15.1413
 145   2.0000      -0.552871       -15.0444
 146   2.0000      -0.549267       -14.9463
 147   2.0000      -0.548500       -14.9254
 148   2.0000      -0.547214       -14.8904
 149   2.0000      -0.542388       -14.7591
 150   2.0000      -0.538720       -14.6593
 151   2.0000      -0.538433       -14.6515
 152   2.0000      -0.533370       -14.5137
 153   2.0000      -0.531434       -14.4611
 154   2.0000      -0.530445       -14.4341
 155   2.0000      -0.526945       -14.3389
 156   2.0000      -0.524386       -14.2693
 157   2.0000      -0.522490       -14.2177
 158   2.0000      -0.521919       -14.2021
 159   2.0000      -0.517098       -14.0709
 160   2.0000      -0.510691       -13.8966
 161   2.0000      -0.508789       -13.8449
 162   2.0000      -0.504015       -13.7149
 163   2.0000      -0.502382       -13.6705
 164   2.0000      -0.499046       -13.5797
 165   2.0000      -0.493385       -13.4257
 166   2.0000      -0.492077       -13.3901
 167   2.0000      -0.490444       -13.3457
 168   2.0000      -0.487841       -13.2748
 169   2.0000      -0.481504       -13.1024
 170   2.0000      -0.476782       -12.9739
 171   2.0000      -0.476428       -12.9643
 172   2.0000      -0.472696       -12.8627
 173   2.0000      -0.471525       -12.8309
 174   2.0000      -0.469670       -12.7804
 175   2.0000      -0.466896       -12.7049
 176   2.0000      -0.465141       -12.6571
 177   2.0000      -0.462778       -12.5928
 178   2.0000      -0.457981       -12.4623
 179   2.0000      -0.452102       -12.3023
 180   2.0000      -0.450657       -12.2630
 181   2.0000      -0.443427       -12.0663
 182   2.0000      -0.441120       -12.0035
 183   2.0000      -0.438595       -11.9348
 184   2.0000      -0.431619       -11.7450
 185   2.0000      -0.429581       -11.6895
 186   2.0000      -0.427458       -11.6317
 187   2.0000      -0.425538       -11.5795
 188   2.0000      -0.417757       -11.3677
 189   2.0000      -0.415995       -11.3198
 190   2.0000      -0.414974       -11.2920
 191   2.0000      -0.411621       -11.2008
 192   2.0000      -0.409514       -11.1434
 193   2.0000      -0.409345       -11.1389
 194   2.0000      -0.406653       -11.0656
 195   2.0000      -0.405514       -11.0346
 196   2.0000      -0.403176       -10.9710
 197   2.0000      -0.397323       -10.8117
 198   2.0000      -0.392324       -10.6757
 199   2.0000      -0.383125       -10.4253
 200   2.0000      -0.382064       -10.3965
 201   2.0000      -0.374839       -10.1999
 202   2.0000      -0.364578        -9.9207
 203   2.0000      -0.361594        -9.8395
 204   2.0000      -0.361118        -9.8265
 205   2.0000      -0.358939        -9.7672
 206   2.0000      -0.355196        -9.6654
 207   2.0000      -0.354963        -9.6590
 208   2.0000      -0.337933        -9.1956
 209   2.0000      -0.336013        -9.1434
 210   2.0000      -0.333551        -9.0764
 211   2.0000      -0.332909        -9.0589
 212   2.0000      -0.329350        -8.9621
 213   2.0000      -0.326921        -8.8960
 214   2.0000      -0.325546        -8.8586
 215   2.0000      -0.321608        -8.7514
 216   2.0000      -0.314966        -8.5707
 217   2.0000      -0.307902        -8.3784
 218   2.0000      -0.302128        -8.2213
 219   2.0000      -0.300357        -8.1731
 220   2.0000      -0.290912        -7.9161
 221   2.0000      -0.267205        -7.2710
 222   2.0000      -0.216921        -5.9027
 223   0.0000      -0.127729        -3.4757
 224   0.0000      -0.119361        -3.2480
 225   0.0000      -0.087676        -2.3858
 226   0.0000      -0.081078        -2.2063
 227   0.0000      -0.065969        -1.7951

MULLIKEN ATOMIC CHARGES
-----------------------
   0 C :    0.009803
   1 N :   -0.033400
   2 N :   -0.043867
   3 C :   -0.009477
   4 C :   -0.025996
   5 C :   -0.021152
   6 N :    0.080740
   7 O :   -0.080210
   8 N :    0.126486
   9 C :   -0.018489
  10 N :   -0.012624
  11 C :    0.082400
  12 C :   -0.189687
  13 C :    0.222860
  14 O :   -0.144555
  15 C :   -0.005409
  16 C :   -0.027782
  17 N :   -0.050221
  18 C :    0.093746
  19 C :   -0.097540
  20 C :    0.040357
  21 C :   -0.026981
  22 C :    0.006298
  23 C :    0.115005
  24 C :   -0.110556
  25 C :    0.059760
  26 C :    0.036074
  27 C :   -0.066908
  28 C :    0.136827
  29 N :   -0.214791
  30 C :    0.134899
  31 N :   -0.210412
  32 C :    0.127760
  33 C :   -0.135862
  34 C :    0.136459
  35 C :   -0.061189
  36 C :    0.028813
  37 C :    0.001407
  38 C :    0.045373
  39 C :   -0.003023
  40 C :   -0.009800
  41 C :    0.013904
  42 C :   -0.040510
  43 C :    0.040082
  44 N :   -0.035932
  45 C :    0.067539
  46 C :   -0.156363
  47 C :    0.217290
  48 O :   -0.130866
  49 C :   -0.014024
  50 C :   -0.034502
  51 N :   -0.053721
  52 C :    0.090184
  53 C :   -0.093597
  54 C :    0.074866
  55 C :   -0.004193
  56 C :   -0.039802
  57 C :   -0.006451
  58 N :   -0.076352
  59 N :   -0.032886
  60 C :   -0.017155
  61 C :   -0.002381
  62 C :   -0.023061
  63 N :    0.084360
  64 O :   -0.085787
  65 N :    0.071533
  66 H :    0.023642
  67 H :    0.012274
  68 H :   -0.002618
  69 H :   -0.003664
  70 H :   -0.007123
  71 H :   -0.021355
  72 H :   -0.015866
  73 H :   -0.029009
  74 H :    0.007689
  75 H :    0.087338
  76 H :    0.094999
  77 H :   -0.020831
  78 H :   -0.013007
  79 H :    0.093590
  80 H :    0.089436
  81 H :   -0.008238
  82 H :    0.030021
  83 H :   -0.007495
  84 H :   -0.031263
  85 H :   -0.038333
  86 H :   -0.019694
  87 H :    0.045218
  88 H :   -0.005306
  89 H :    0.011450
  90 H :   -0.004679
  91 H :    0.002257
  92 H :    0.018359
  93 H :    0.014896
Sum of atomic charges:   -0.0000000

LOEWDIN ATOMIC CHARGES
----------------------
   0 C :    0.038073
   1 N :   -0.034309
   2 N :   -0.021114
   3 C :    0.002377
   4 C :   -0.061552
   5 C :   -0.079277
   6 N :   -0.002774
   7 O :    0.100231
   8 N :    0.027153
   9 C :    0.051865
  10 N :   -0.066431
  11 C :    0.045609
  12 C :   -0.075635
  13 C :    0.071069
  14 O :   -0.142651
  15 C :   -0.036028
  16 C :    0.033185
  17 N :   -0.094019
  18 C :    0.079609
  19 C :   -0.028926
  20 C :   -0.002966
  21 C :   -0.056860
  22 C :    0.031687
  23 C :   -0.030571
  24 C :    0.006413
  25 C :   -0.020975
  26 C :   -0.006254
  27 C :   -0.042221
  28 C :    0.028525
  29 N :   -0.116499
  30 C :    0.022777
  31 N :   -0.113963
  32 C :   -0.004644
  33 C :    0.063288
  34 C :   -0.029264
  35 C :   -0.041810
  36 C :   -0.006112
  37 C :   -0.036947
  38 C :   -0.023455
  39 C :   -0.008935
  40 C :   -0.017774
  41 C :    0.089638
  42 C :   -0.073343
  43 C :    0.078558
  44 N :   -0.107339
  45 C :    0.046717
  46 C :   -0.027196
  47 C :    0.066688
  48 O :   -0.134444
  49 C :   -0.040265
  50 C :    0.022594
  51 N :   -0.095982
  52 C :    0.075349
  53 C :   -0.035977
  54 C :   -0.036819
  55 C :    0.020847
  56 C :   -0.012479
  57 C :    0.007839
  58 N :   -0.059438
  59 N :   -0.031279
  60 C :    0.010377
  61 C :   -0.076813
  62 C :   -0.069351
  63 N :    0.003296
  64 O :    0.093813
  65 N :   -0.008569
  66 H :    0.042044
  67 H :    0.024728
  68 H :    0.035307
  69 H :    0.023690
  70 H :    0.029753
  71 H :    0.030245
  72 H :    0.028207
  73 H :   -0.004431
  74 H :    0.024349
  75 H :    0.048206
  76 H :    0.056291
  77 H :    0.008738
  78 H :   -0.001103
  79 H :    0.054975
  80 H :    0.054380
  81 H :    0.024877
  82 H :    0.054037
  83 H :    0.025812
  84 H :    0.032100
  85 H :    0.027126
  86 H :    0.030660
  87 H :    0.044320
  88 H :    0.031821
  89 H :    0.024346
  90 H :    0.034807
  91 H :    0.033603
  92 H :    0.037780
  93 H :    0.037018

  Mayer bond orders larger than 0.100000
B(  0-C ,  1-N ) :   1.7585 B(  0-C ,  3-C ) :   0.1103 B(  0-C ,  5-C ) :   1.0882
B(  0-C , 66-H ) :   1.0158 B(  1-N ,  2-N ) :   1.1705 B(  2-N ,  3-C ) :   1.7871
B(  3-C ,  4-C ) :   1.0622 B(  3-C ,  9-C ) :   1.0213 B(  4-C ,  5-C ) :   1.1709
B(  4-C ,  8-N ) :   1.6083 B(  5-C ,  6-N ) :   1.5946 B(  6-N ,  7-O ) :   1.0860
B(  6-N ,  8-N ) :   0.1875 B(  7-O ,  8-N ) :   1.0664 B(  9-C , 10-N ) :   1.7220
B(  9-C , 11-C ) :   0.1250 B(  9-C , 20-C ) :   1.0185 B( 10-N , 11-C ) :   1.2889
B( 11-C , 12-C ) :   1.0690 B( 11-C , 16-C ) :   1.4392 B( 12-C , 13-C ) :   0.9081
B( 12-C , 20-C ) :   1.5009 B( 13-C , 14-O ) :   2.1787 B( 13-C , 15-C ) :   0.9241
B( 14-O , 70-H ) :   0.1035 B( 15-C , 16-C ) :   1.0641 B( 15-C , 19-C ) :   1.6274
B( 16-C , 17-N ) :   1.2970 B( 17-N , 18-C ) :   1.6738 B( 18-C , 19-C ) :   1.0455
B( 18-C , 67-H ) :   0.9889 B( 19-C , 68-H ) :   1.0108 B( 20-C , 21-C ) :   1.1640
B( 21-C , 22-C ) :   1.5713 B( 21-C , 69-H ) :   0.9445 B( 22-C , 23-C ) :   1.0884
B( 22-C , 70-H ) :   0.9742 B( 23-C , 24-C ) :   1.4751 B( 23-C , 40-C ) :   1.1225
B( 24-C , 25-C ) :   1.1206 B( 24-C , 71-H ) :   1.0094 B( 25-C , 26-C ) :   1.4773
B( 25-C , 38-C ) :   1.1209 B( 26-C , 27-C ) :   1.0176 B( 26-C , 32-C ) :   1.0954
B( 27-C , 28-C ) :   1.0429 B( 27-C , 30-C ) :   1.0376 B( 27-C , 72-H ) :   0.8791
B( 28-C , 29-N ) :   1.1093 B( 28-C , 73-H ) :   0.9308 B( 28-C , 74-H ) :   0.9435
B( 29-N , 75-H ) :   0.9703 B( 29-N , 76-H ) :   0.9683 B( 30-C , 31-N ) :   1.1007
B( 30-C , 77-H ) :   0.9320 B( 30-C , 78-H ) :   0.9394 B( 31-N , 79-H ) :   0.9690
B( 31-N , 80-H ) :   0.9682 B( 32-C , 33-C ) :   1.6399 B( 32-C , 37-C ) :   1.0432
B( 33-C , 34-C ) :   0.9779 B( 33-C , 81-H ) :   0.9661 B( 34-C , 35-C ) :   0.9767
B( 34-C , 41-C ) :   0.9344 B( 34-C , 82-H ) :   0.8781 B( 35-C , 36-C ) :   1.6962
B( 35-C , 83-H ) :   0.9764 B( 36-C , 37-C ) :   1.1451 B( 36-C , 84-H ) :   0.9893
B( 37-C , 38-C ) :   1.4353 B( 38-C , 39-C ) :   1.1371 B( 39-C , 40-C ) :   1.6170
B( 39-C , 85-H ) :   0.9900 B( 40-C , 86-H ) :   0.9874 B( 41-C , 42-C ) :   1.7347
B( 41-C , 87-H ) :   0.9631 B( 42-C , 43-C ) :   1.1166 B( 42-C , 88-H ) :   0.9610
B( 43-C , 44-N ) :   1.5996 B( 43-C , 45-C ) :   0.1112 B( 43-C , 54-C ) :   1.0045
B( 44-N , 45-C ) :   1.3642 B( 45-C , 46-C ) :   1.0544 B( 45-C , 50-C ) :   1.4029
B( 46-C , 47-C ) :   0.8887 B( 46-C , 54-C ) :   1.5585 B( 47-C , 48-O ) :   2.2017
B( 47-C , 49-C ) :   0.9278 B( 49-C , 50-C ) :   1.0695 B( 49-C , 53-C ) :   1.5925
B( 50-C , 51-N ) :   1.3238 B( 51-N , 52-C ) :   1.6415 B( 52-C , 53-C ) :   1.0785
B( 52-C , 89-H ) :   0.9898 B( 53-C , 90-H ) :   1.0121 B( 54-C , 55-C ) :   1.0667
B( 55-C , 56-C ) :   1.6697 B( 55-C , 91-H ) :   0.9693 B( 56-C , 57-C ) :   1.1091
B( 56-C , 92-H ) :   0.9666 B( 57-C , 58-N ) :   1.7111 B( 57-C , 60-C ) :   0.1042
B( 57-C , 62-C ) :   1.0395 B( 58-N , 59-N ) :   1.1704 B( 59-N , 60-C ) :   1.7630
B( 60-C , 61-C ) :   1.0881 B( 60-C , 93-H ) :   1.0162 B( 61-C , 62-C ) :   1.1785
B( 61-C , 65-N ) :   1.5937 B( 62-C , 63-N ) :   1.6194 B( 63-N , 64-O ) :   1.0775
B( 63-N , 65-N ) :   0.1876 B( 64-O , 65-N ) :   1.0799

-----------------------------------------------------------------------------
         ABSORPTION SPECTRUM VIA TRANSITION ELECTRIC DIPOLE MOMENTS
-----------------------------------------------------------------------------
State   Energy  Wavelength   fosc         T2         TX        TY        TZ
        (cm-1)    (nm)                  (au**2)     (au)      (au)      (au)
-----------------------------------------------------------------------------
   0    6594.7   1516.4   0.066129326   3.30124  -1.47166  -0.93530   0.51056
   1    8791.4   1137.5   0.099349759   3.72036  -1.77084  -0.60571  -0.46648
   2   13324.6    750.5   0.044688594   1.10413  -0.23665   0.97454  -0.31369
   3   14278.4    700.4   0.004154714   0.09579   0.26585   0.04110  -0.15306
   4   17899.3    558.7   0.010540499   0.19387   0.29470   0.09977  -0.31155
   5   18171.0    550.3   0.250066581   4.53056  -1.77409  -1.02644   0.57410
   6   19041.3    525.2   0.001172376   0.02027  -0.07544  -0.11971  -0.01574
   7   19617.7    509.7   0.115686889   1.94138  -0.53037   0.89005   0.93161
   8   20059.9    498.5   0.000315847   0.00518  -0.00050   0.02901   0.06589
   9   20226.2    494.4   0.000082738   0.00135   0.02127  -0.01556   0.02554
  10   21641.1    462.1   0.041823627   0.63624  -0.65107  -0.45856  -0.04551
  11   21937.2    455.8   0.113453253   1.70260   1.18379   0.54607  -0.05518
  12   22454.8    445.3   0.221886516   3.25310   1.48027   0.93821  -0.42620
  13   24009.5    416.5   0.033181159   0.45497   0.52717  -0.23221   0.35091
  14   24102.4    414.9   0.516571849   7.05581   1.74300   1.62675   1.17109
  15   24243.0    412.5   0.000089515   0.00122   0.00011   0.03239  -0.01290
  16   24537.6    407.5   0.410692670   5.51012  -1.98482   0.46337   1.16443
  17   25326.4    394.8   0.235237940   3.05781  -0.11693   1.27486   1.19116
  18   25581.8    390.9   0.076834866   0.98879   0.07216  -0.78908  -0.60077
  19   25774.1    388.0   0.013287360   0.16972   0.12986   0.11291  -0.37431
  20   25906.6    386.0   0.183627345   2.33347   0.86130   0.78336  -0.98893
  21   26374.2    379.2   0.225273640   2.81195   1.41006   0.15010  -0.89507
  22   26596.2    376.0   0.290227687   3.59248   1.47648  -1.07093  -0.51536
  23   26889.9    371.9   0.013528306   0.16563  -0.05200   0.34111   0.21580
  24   27162.2    368.2   0.124961590   1.51456  -0.05660  -1.07413   0.59799
  25   27222.4    367.3   0.000884062   0.01069   0.05500  -0.07567   0.04405
  26   27440.3    364.4   0.055877987   0.67039  -0.12700   0.67787  -0.44131
  27   27584.6    362.5   0.504883993   6.02559   0.14921  -2.15397   1.16779
  28   28071.1    356.2   0.004028274   0.04724   0.02589   0.17886  -0.12076
  29   28282.9    353.6   0.089720574   1.04434  -0.16573   0.91445  -0.42505
  30   29193.1    342.5   0.000838294   0.00945  -0.02501  -0.05735   0.07442
  31   29255.9    341.8   0.011019086   0.12400  -0.13537   0.31776  -0.06854
  32   29773.4    335.9   0.018372626   0.20315   0.17741   0.41311  -0.03188
  33   30216.0    331.0   0.268102019   2.92105  -0.98323  -1.15413   0.78885
  34   30346.3    329.5   0.021473132   0.23295  -0.33578  -0.33435   0.09171
  35   30845.1    324.2   0.110314191   1.17739   0.66324   0.79250  -0.33081
  36   30876.1    323.9   0.021302055   0.22713   0.42887   0.20785   0.00151
  37   30964.8    322.9   0.000810560   0.00862  -0.07469  -0.04053   0.03737
  38   31258.7    319.9   0.001105588   0.01164  -0.04772  -0.04385  -0.08628
  39   31822.8    314.2   0.086828630   0.89825  -0.73252  -0.15194  -0.58188
  40   31882.4    313.7   0.077757462   0.80291   0.77736  -0.04605   0.44329
  41   32092.3    311.6   0.223712457   2.29491   1.39289  -0.21111   0.55696
  42   32368.7    308.9   0.112532970   1.14454  -0.52573   0.79324   0.48878
  43   32656.5    306.2   0.111074851   1.11975   0.82804   0.43381  -0.49590
  44   33206.9    301.1   0.087607068   0.86853  -0.15497   0.61763   0.68047
  45   33397.3    299.4   0.009030953   0.08902  -0.20767   0.12686   0.17263
  46   34221.2    292.2   0.026043116   0.25054  -0.49404   0.02208   0.07732
  47   34439.2    290.4   0.079650266   0.76140  -0.86391   0.10413   0.06487
  48   35152.7    284.5   0.089328839   0.83658  -0.90287  -0.06092   0.13303
  49   35201.7    284.1   0.000020528   0.00019  -0.00372   0.00849  -0.01030
  50   35643.4    280.6   0.107476533   0.99268  -0.97472  -0.05493   0.19894
  51   35743.5    279.8   0.001059293   0.00976   0.08234   0.02549  -0.04824
  52   36091.1    277.1   0.060646045   0.55319   0.05039   0.73737  -0.08333
  53   36163.5    276.5   0.035790146   0.32581  -0.37684  -0.21667  -0.36994
  54   36249.9    275.9   0.011957646   0.10860  -0.19546  -0.12051  -0.23636
  55   36313.9    275.4   0.089481002   0.81121  -0.67876  -0.43335  -0.40336
  56   36410.4    274.6   0.105431846   0.95328  -0.31860  -0.33834  -0.85866
  57   37146.9    269.2   0.015789274   0.13993  -0.09213   0.33337  -0.14250
  58   37327.8    267.9   0.004425164   0.03903   0.03783   0.15997  -0.10958
  59   37555.8    266.3   0.065039096   0.57013   0.68388   0.07024  -0.31226
  60   37814.9    264.4   0.022705829   0.19767  -0.30263  -0.19015   0.26445
  61   37909.7    263.8   0.004201033   0.03648  -0.18936  -0.00840  -0.02358
  62   37981.3    263.3   0.032400910   0.28084  -0.51170  -0.05000   0.12847
  63   38097.4    262.5   0.002362845   0.02042  -0.03255  -0.04794  -0.13062
  64   38101.3    262.5   0.006609790   0.05711  -0.21712   0.03364   0.09401
  65   38372.9    260.6   0.002751094   0.02360   0.13501   0.05363  -0.04999
  66   38456.9    260.0   0.034549990   0.29577   0.53554   0.08042  -0.05002
  67   38598.6    259.1   0.001091009   0.00931   0.04727   0.05239   0.06577
  68   38710.6    258.3   0.056133090   0.47738   0.19032   0.28213   0.60130
  69   38872.1    257.3   0.000019951   0.00017  -0.00156   0.00630  -0.01126
  70   39281.1    254.6   0.001255133   0.01052   0.00784   0.07483  -0.06970
  71   39373.2    254.0   0.031572798   0.26399  -0.49326   0.03468   0.13958
  72   39474.0    253.3   0.002608001   0.02175  -0.13540  -0.01273  -0.05706
  73   39481.2    253.3   0.000407155   0.00340   0.02009   0.02663  -0.04777
  74   39659.0    252.1   0.003444153   0.02859   0.00089   0.11776   0.12134
  75   39830.4    251.1   0.006085949   0.05030   0.15864   0.15840   0.00690
  76   39849.7    250.9   0.012011767   0.09923  -0.26745  -0.13892   0.09168
  77   40099.9    249.4   0.066345500   0.54468   0.53335  -0.29056  -0.41928
  78   40193.8    248.8   0.057554297   0.47141   0.24583   0.54797  -0.33273

FINAL SINGLE POINT ENERGY     -2909.226638813709

DIPOLE MOMENT
-------------
                                X             Y             Z
Electronic contribution:     17.29446     -15.01513      -3.65410
Nuclear contribution   :    -17.84184      15.46175       4.05871
                        -----------------------------------------
Total Dipole Moment    :     -0.54738       0.44662       0.40461
                        -----------------------------------------
Magnitude (a.u.)       :      0.81413
Magnitude (Debye)      :      2.06936

Rotational constants in cm-1:     0.002154     0.000292     0.000279
Rotational constants in MHz :    64.585024     8.764138     8.374778

                             ****ORCA TERMINATED NORMALLY****
TOTAL RUN TIME: 0 days 0 hours 12 minutes 3 seconds 36 msec
