                         Program Version 4.2.0 -  RELEASE  -
|  1> # ORCA input file
|  2> # SCF done       -131.737675223839          0.000388298790
|  3> ! CAM-B3LYP def2-SVP def2/J RIJCOSX Grid4 TightSCF
|  4> %maxcore 5000
|  5> %tddft
|  6>     Mode sTDDFT
|  7>     Ethresh 5.0
|  8>     maxcore 5000
|  9> end
| 10>
| 11> %pal
| 12>   nprocs 6
| 13>   end
| 14> * xyz 0 1
| 15>    C        1.12037         0.25715         2.47967
| 16>    N        0.87061         0.31693         1.20508
| 17>    N        0.34072        -0.67664         0.52422
| 18>    C        0.00840        -1.82981         1.07422
| 19>    C        0.23620        -2.01494         2.47290
| 20>    C        0.81981        -0.92182         3.20506
| 21>    N        0.93927        -1.31502         4.45939
| 22>    O        0.46582        -2.55628         4.50024
| 23>    N        0.03768        -3.00036         3.32210
| 24>    C       -0.56335        -2.84480         0.25045
| 25>    C       -0.80835        -2.73965        -1.10671
| 26>    C       -1.37158        -3.90519        -1.61253
| 27>    C       -1.56102        -4.90789        -0.64327
| 28>    S       -1.02947        -4.39281         0.91758
| 29>    C       -2.12394        -6.07643        -1.14309
| 30>    C       -2.37471        -5.99049        -2.50349
| 31>    S       -1.90144        -4.43401        -3.16948
| 32>    C       -2.93621        -6.97393        -3.37027
| 33>    C       -3.38306        -8.25495        -2.96259
| 34>    C       -3.92473        -9.21724        -3.88934
| 35>    N       -4.32843       -10.41822        -3.42087
| 36>    C       -4.23014       -10.69035        -2.16287
| 37>    C       -3.70063        -9.74253        -1.25091
| 38>    N       -3.30022        -8.58378        -1.65502
| 39>    F       -3.59948       -10.01227         0.04782
| 40>    F       -4.64364       -11.88748        -1.75576
| 41>    C       -4.05070        -8.95136        -5.27516
| 42>    C       -3.62169        -7.66702        -5.67324
| 43>    C       -3.08089        -6.70696        -4.74853
| 44>    N       -2.74548        -5.57085        -5.36233
| 45>    S       -3.07291        -5.69182        -6.92580
| 46>    N       -3.65446        -7.18435        -6.91665
| 47>    C       -4.55786        -9.87055        -6.24030
| 48>    C       -5.00524       -11.16817        -6.05013
| 49>    C       -5.41453       -11.75925        -7.24035
| 50>    C       -5.28742       -10.92082        -8.36384
| 51>    S       -4.65028        -9.37634        -7.92504
| 52>    C       -5.68944       -11.51737        -9.55432
| 53>    C       -6.12383       -12.81235        -9.34128
| 54>    S       -6.04494       -13.30969        -7.66870
| 55>    C       -6.59983       -13.73746       -10.31410
| 56>    N       -6.97450       -14.93547        -9.91293
| 57>    N       -7.42173       -15.86513       -10.72889
| 58>    C       -7.53307       -15.68762       -12.01165
| 59>    C       -7.16775       -14.44645       -12.59018
| 60>    C       -6.67971       -13.41866       -11.70699
| 61>    N       -6.40259       -12.36365       -12.44426
| 62>    O       -6.69635       -12.70730       -13.69724
| 63>    N       -7.15620       -13.94803       -13.81197
| 64>    H        1.55622         1.12689         2.94422
| 65>    H       -0.57709        -1.85058        -1.66221
| 66>    H       -2.34517        -6.95076        -0.56319
| 67>    H       -5.02366       -11.64351        -5.08934
| 68>    H       -5.67343       -11.05658       -10.52485
| 69>    H       -7.90773       -16.50989       -12.59961
| 70> *
| 71>
| 72>                          ****END OF INPUT****

CARTESIAN COORDINATES (ANGSTROEM)
---------------------------------
  C      1.120370    0.257150    2.479670
  N      0.870610    0.316930    1.205080
  N      0.340720   -0.676640    0.524220
  C      0.008400   -1.829810    1.074220
  C      0.236200   -2.014940    2.472900
  C      0.819810   -0.921820    3.205060
  N      0.939270   -1.315020    4.459390
  O      0.465820   -2.556280    4.500240
  N      0.037680   -3.000360    3.322100
  C     -0.563350   -2.844800    0.250450
  C     -0.808350   -2.739650   -1.106710
  C     -1.371580   -3.905190   -1.612530
  C     -1.561020   -4.907890   -0.643270
  S     -1.029470   -4.392810    0.917580
  C     -2.123940   -6.076430   -1.143090
  C     -2.374710   -5.990490   -2.503490
  S     -1.901440   -4.434010   -3.169480
  C     -2.936210   -6.973930   -3.370270
  C     -3.383060   -8.254950   -2.962590
  C     -3.924730   -9.217240   -3.889340
  N     -4.328430  -10.418220   -3.420870
  C     -4.230140  -10.690350   -2.162870
  C     -3.700630   -9.742530   -1.250910
  N     -3.300220   -8.583780   -1.655020
  F     -3.599480  -10.012270    0.047820
  F     -4.643640  -11.887480   -1.755760
  C     -4.050700   -8.951360   -5.275160
  C     -3.621690   -7.667020   -5.673240
  C     -3.080890   -6.706960   -4.748530
  N     -2.745480   -5.570850   -5.362330
  S     -3.072910   -5.691820   -6.925800
  N     -3.654460   -7.184350   -6.916650
  C     -4.557860   -9.870550   -6.240300
  C     -5.005240  -11.168170   -6.050130
  C     -5.414530  -11.759250   -7.240350
  C     -5.287420  -10.920820   -8.363840
  S     -4.650280   -9.376340   -7.925040
  C     -5.689440  -11.517370   -9.554320
  C     -6.123830  -12.812350   -9.341280
  S     -6.044940  -13.309690   -7.668700
  C     -6.599830  -13.737460  -10.314100
  N     -6.974500  -14.935470   -9.912930
  N     -7.421730  -15.865130  -10.728890
  C     -7.533070  -15.687620  -12.011650
  C     -7.167750  -14.446450  -12.590180
  C     -6.679710  -13.418660  -11.706990
  N     -6.402590  -12.363650  -12.444260
  O     -6.696350  -12.707300  -13.697240
  N     -7.156200  -13.948030  -13.811970
  H      1.556220    1.126890    2.944220
  H     -0.577090   -1.850580   -1.662210
  H     -2.345170   -6.950760   -0.563190
  H     -5.023660  -11.643510   -5.089340
  H     -5.673430  -11.056580  -10.524850
  H     -7.907730  -16.509890  -12.599610

 Total Charge           Charge          ....    0
 Multiplicity           Mult            ....    1
 Number of Electrons    NEL             ....  372
 Basis Dimension        Dim             ....  736

ORBITAL ENERGIES
----------------

  NO   OCC          E(Eh)            E(eV)
   0   2.0000     -89.051531     -2423.2153
   1   2.0000     -88.965297     -2420.8688
   2   2.0000     -88.961178     -2420.7567
   3   2.0000     -88.959101     -2420.7002
   4   2.0000     -88.958588     -2420.6862
   5   2.0000     -24.821693      -675.4326
   6   2.0000     -24.821505      -675.4275
   7   2.0000     -19.378714      -527.3216
   8   2.0000     -19.376839      -527.2706
   9   2.0000     -14.505623      -394.7181
  10   2.0000     -14.503207      -394.6523
  11   2.0000     -14.502910      -394.6442
  12   2.0000     -14.500244      -394.5717
  13   2.0000     -14.460131      -393.4802
  14   2.0000     -14.459986      -393.4762
  15   2.0000     -14.458798      -393.4439
  16   2.0000     -14.458650      -393.4399
  17   2.0000     -14.452578      -393.2747
  18   2.0000     -14.450995      -393.2316
  19   2.0000     -14.447161      -393.1272
  20   2.0000     -14.445079      -393.0706
  21   2.0000     -10.437567      -284.0206
  22   2.0000     -10.437262      -284.0123
  23   2.0000     -10.355334      -281.7830
  24   2.0000     -10.354440      -281.7586
  25   2.0000     -10.353817      -281.7417
  26   2.0000     -10.353555      -281.7346
  27   2.0000     -10.347188      -281.5613
  28   2.0000     -10.345775      -281.5228
  29   2.0000     -10.345499      -281.5153
  30   2.0000     -10.344220      -281.4805
  31   2.0000     -10.343970      -281.4737
  32   2.0000     -10.342206      -281.4257
  33   2.0000     -10.335457      -281.2421
  34   2.0000     -10.333688      -281.1939
  35   2.0000     -10.322748      -280.8962
  36   2.0000     -10.322575      -280.8916
  37   2.0000     -10.320109      -280.8245
  38   2.0000     -10.319715      -280.8137
  39   2.0000     -10.314610      -280.6748
  40   2.0000     -10.314155      -280.6624
  41   2.0000     -10.305475      -280.4262
  42   2.0000     -10.303692      -280.3777
  43   2.0000     -10.300860      -280.3007
  44   2.0000     -10.300370      -280.2873
  45   2.0000     -10.295718      -280.1607
  46   2.0000     -10.293142      -280.0906
  47   2.0000     -10.286198      -279.9017
  48   2.0000     -10.285057      -279.8706
  49   2.0000      -8.142428      -221.5667
  50   2.0000      -8.060020      -219.3243
  51   2.0000      -8.055803      -219.2095
  52   2.0000      -8.053147      -219.1373
  53   2.0000      -8.052739      -219.1262
  54   2.0000      -6.113480      -166.3562
  55   2.0000      -6.105793      -166.1471
  56   2.0000      -6.105216      -166.1314
  57   2.0000      -6.029506      -164.0712
  58   2.0000      -6.025422      -163.9601
  59   2.0000      -6.025344      -163.9579
  60   2.0000      -6.022845      -163.8899
  61   2.0000      -6.022435      -163.8788
  62   2.0000      -6.021724      -163.8594
  63   2.0000      -6.021244      -163.8464
  64   2.0000      -6.018471      -163.7709
  65   2.0000      -6.018072      -163.7601
  66   2.0000      -6.017428      -163.7426
  67   2.0000      -6.014680      -163.6678
  68   2.0000      -6.014227      -163.6554
  69   2.0000      -1.349630       -36.7253
  70   2.0000      -1.335887       -36.3513
  71   2.0000      -1.331651       -36.2361
  72   2.0000      -1.330043       -36.1923
  73   2.0000      -1.149027       -31.2666
  74   2.0000      -1.129706       -30.7409
  75   2.0000      -1.127232       -30.6735
  76   2.0000      -1.119775       -30.4706
  77   2.0000      -1.044659       -28.4266
  78   2.0000      -1.034542       -28.1513
  79   2.0000      -1.033127       -28.1128
  80   2.0000      -1.015477       -27.6325
  81   2.0000      -1.013493       -27.5785
  82   2.0000      -1.002485       -27.2790
  83   2.0000      -0.991425       -26.9781
  84   2.0000      -0.989826       -26.9345
  85   2.0000      -0.983645       -26.7664
  86   2.0000      -0.963639       -26.2220
  87   2.0000      -0.958187       -26.0736
  88   2.0000      -0.933690       -25.4070
  89   2.0000      -0.927051       -25.2263
  90   2.0000      -0.892607       -24.2891
  91   2.0000      -0.888178       -24.1685
  92   2.0000      -0.863927       -23.5086
  93   2.0000      -0.862760       -23.4769
  94   2.0000      -0.845043       -22.9948
  95   2.0000      -0.836638       -22.7661
  96   2.0000      -0.822287       -22.3756
  97   2.0000      -0.811438       -22.0804
  98   2.0000      -0.808914       -22.0117
  99   2.0000      -0.806008       -21.9326
 100   2.0000      -0.791457       -21.5367
 101   2.0000      -0.784316       -21.3423
 102   2.0000      -0.780848       -21.2480
 103   2.0000      -0.770831       -20.9754
 104   2.0000      -0.762423       -20.7466
 105   2.0000      -0.744788       -20.2667
 106   2.0000      -0.726419       -19.7669
 107   2.0000      -0.702079       -19.1045
 108   2.0000      -0.692692       -18.8491
 109   2.0000      -0.684808       -18.6346
 110   2.0000      -0.680827       -18.5263
 111   2.0000      -0.673847       -18.3363
 112   2.0000      -0.670549       -18.2466
 113   2.0000      -0.663364       -18.0511
 114   2.0000      -0.659497       -17.9458
 115   2.0000      -0.658349       -17.9146
 116   2.0000      -0.647768       -17.6267
 117   2.0000      -0.644282       -17.5318
 118   2.0000      -0.637040       -17.3347
 119   2.0000      -0.633440       -17.2368
 120   2.0000      -0.628519       -17.1029
 121   2.0000      -0.626703       -17.0534
 122   2.0000      -0.624817       -17.0021
 123   2.0000      -0.620390       -16.8817
 124   2.0000      -0.612272       -16.6608
 125   2.0000      -0.589744       -16.0477
 126   2.0000      -0.579895       -15.7798
 127   2.0000      -0.578134       -15.7318
 128   2.0000      -0.577007       -15.7012
 129   2.0000      -0.576354       -15.6834
 130   2.0000      -0.574237       -15.6258
 131   2.0000      -0.574192       -15.6246
 132   2.0000      -0.567185       -15.4339
 133   2.0000      -0.557674       -15.1751
 134   2.0000      -0.553346       -15.0573
 135   2.0000      -0.537408       -14.6236
 136   2.0000      -0.535458       -14.5706
 137   2.0000      -0.534453       -14.5432
 138   2.0000      -0.531790       -14.4707
 139   2.0000      -0.526642       -14.3306
 140   2.0000      -0.523185       -14.2366
 141   2.0000      -0.519543       -14.1375
 142   2.0000      -0.509213       -13.8564
 143   2.0000      -0.505168       -13.7463
 144   2.0000      -0.502758       -13.6807
 145   2.0000      -0.496978       -13.5235
 146   2.0000      -0.493786       -13.4366
 147   2.0000      -0.492279       -13.3956
 148   2.0000      -0.486447       -13.2369
 149   2.0000      -0.474518       -12.9123
 150   2.0000      -0.469112       -12.7652
 151   2.0000      -0.468009       -12.7352
 152   2.0000      -0.458178       -12.4677
 153   2.0000      -0.454169       -12.3586
 154   2.0000      -0.448191       -12.1959
 155   2.0000      -0.447646       -12.1811
 156   2.0000      -0.439303       -11.9540
 157   2.0000      -0.438476       -11.9316
 158   2.0000      -0.430577       -11.7166
 159   2.0000      -0.430076       -11.7030
 160   2.0000      -0.429737       -11.6937
 161   2.0000      -0.424250       -11.5444
 162   2.0000      -0.415492       -11.3061
 163   2.0000      -0.411826       -11.2063
 164   2.0000      -0.411120       -11.1871
 165   2.0000      -0.409665       -11.1475
 166   2.0000      -0.408386       -11.1127
 167   2.0000      -0.408007       -11.1024
 168   2.0000      -0.406595       -11.0640
 169   2.0000      -0.402729       -10.9588
 170   2.0000      -0.401559       -10.9270
 171   2.0000      -0.388444       -10.5701
 172   2.0000      -0.373974       -10.1764
 173   2.0000      -0.370111       -10.0712
 174   2.0000      -0.366355        -9.9690
 175   2.0000      -0.365140        -9.9360
 176   2.0000      -0.362109        -9.8535
 177   2.0000      -0.354046        -9.6341
 178   2.0000      -0.348719        -9.4891
 179   2.0000      -0.322153        -8.7662
 180   2.0000      -0.313533        -8.5317
 181   2.0000      -0.311874        -8.4865
 182   2.0000      -0.299556        -8.1513
 183   2.0000      -0.296095        -8.0572
 184   2.0000      -0.284191        -7.7332
 185   2.0000      -0.243989        -6.6393
 186   0.0000      -0.123547        -3.3619
 187   0.0000      -0.086697        -2.3591
 188   0.0000      -0.083435        -2.2704
 189   0.0000      -0.031266        -0.8508
 190   0.0000      -0.024305        -0.6614

MULLIKEN ATOMIC CHARGES
-----------------------
   0 C :   -0.019500
   1 N :   -0.032540
   2 N :   -0.065417
   3 C :    0.039144
   4 C :   -0.065677
   5 C :   -0.002294
   6 N :    0.075256
   7 O :   -0.086241
   8 N :    0.061245
   9 C :   -0.115937
  10 C :   -0.053796
  11 C :    0.042976
  12 C :    0.015426
  13 S :    0.176272
  14 C :   -0.045716
  15 C :   -0.177488
  16 S :    0.161037
  17 C :    0.201798
  18 C :   -0.075337
  19 C :   -0.074402
  20 N :   -0.003488
  21 C :    0.144543
  22 C :    0.145678
  23 N :   -0.003347
  24 F :   -0.138916
  25 F :   -0.138677
  26 C :    0.204200
  27 C :   -0.018116
  28 C :   -0.021331
  29 N :   -0.324008
  30 S :    0.567191
  31 N :   -0.325223
  32 C :   -0.173624
  33 C :   -0.054772
  34 C :    0.016499
  35 C :    0.019145
  36 S :    0.159046
  37 C :   -0.051905
  38 C :   -0.133573
  39 S :    0.199976
  40 C :    0.046590
  41 N :   -0.070066
  42 N :   -0.030701
  43 C :   -0.015860
  44 C :   -0.010698
  45 C :   -0.046307
  46 N :    0.061872
  47 O :   -0.085575
  48 N :    0.078293
  49 H :    0.012352
  50 H :    0.007212
  51 H :    0.004017
  52 H :    0.004144
  53 H :    0.003630
  54 H :    0.012991
Sum of atomic charges:   -0.0000000

LOEWDIN ATOMIC CHARGES
----------------------
   0 C :    0.002876
   1 N :   -0.026964
   2 N :   -0.062778
   3 C :   -0.006002
   4 C :   -0.075089
   5 C :   -0.074183
   6 N :   -0.006026
   7 O :    0.090863
   8 N :   -0.014578
   9 C :   -0.184772
  10 C :   -0.019276
  11 C :   -0.202382
  12 C :   -0.192716
  13 S :    0.450508
  14 C :   -0.049375
  15 C :   -0.152868
  16 S :    0.456702
  17 C :   -0.040531
  18 C :   -0.005845
  19 C :   -0.005751
  20 N :   -0.029283
  21 C :    0.059082
  22 C :    0.058996
  23 N :   -0.029662
  24 F :   -0.027708
  25 F :   -0.027520
  26 C :   -0.040194
  27 C :   -0.047005
  28 C :   -0.047185
  29 N :   -0.296662
  30 S :    0.685760
  31 N :   -0.297018
  32 C :   -0.152409
  33 C :   -0.049846
  34 C :   -0.191383
  35 C :   -0.204349
  36 S :    0.455104
  37 C :   -0.039020
  38 C :   -0.182002
  39 S :    0.463652
  40 C :   -0.006963
  41 N :   -0.072153
  42 N :   -0.024619
  43 C :    0.004386
  44 C :   -0.074195
  45 C :   -0.062380
  46 N :   -0.010245
  47 O :    0.089083
  48 N :   -0.003490
  49 H :    0.036363
  50 H :    0.042529
  51 H :    0.032351
  52 H :    0.032323
  53 H :    0.036859
  54 H :    0.036991

  Mayer bond orders larger than 0.100000
B(  0-C ,  1-N ) :   1.7599 B(  0-C ,  5-C ) :   1.0882 B(  0-C , 49-H ) :   1.0177
B(  1-N ,  2-N ) :   1.1673 B(  2-N ,  3-C ) :   1.7627 B(  3-C ,  4-C ) :   1.0422
B(  3-C ,  9-C ) :   1.1653 B(  4-C ,  5-C ) :   1.1845 B(  4-C ,  8-N ) :   1.6001
B(  5-C ,  6-N ) :   1.5973 B(  6-N ,  7-O ) :   1.0812 B(  6-N ,  8-N ) :   0.1856
B(  7-O ,  8-N ) :   1.0739 B(  9-C , 10-C ) :   1.4655 B(  9-C , 13-S ) :   1.1021
B( 10-C , 11-C ) :   1.2377 B( 10-C , 50-H ) :   1.0188 B( 11-C , 12-C ) :   1.3683
B( 11-C , 16-S ) :   1.0316 B( 12-C , 13-S ) :   1.0643 B( 12-C , 14-C ) :   1.2450
B( 14-C , 15-C ) :   1.4642 B( 14-C , 51-H ) :   0.9923 B( 15-C , 16-S ) :   1.1023
B( 15-C , 17-C ) :   1.1931 B( 17-C , 18-C ) :   1.2939 B( 17-C , 26-C ) :   0.1257
B( 17-C , 28-C ) :   1.1930 B( 18-C , 19-C ) :   1.1065 B( 18-C , 23-N ) :   1.4270
B( 19-C , 20-N ) :   1.4282 B( 19-C , 26-C ) :   1.2961 B( 20-N , 21-C ) :   1.6699
B( 21-C , 22-C ) :   1.1034 B( 21-C , 25-F ) :   1.1762 B( 22-C , 23-N ) :   1.6701
B( 22-C , 24-F ) :   1.1767 B( 26-C , 27-C ) :   1.1893 B( 26-C , 32-C ) :   1.1911
B( 27-C , 28-C ) :   1.1219 B( 27-C , 31-N ) :   1.4678 B( 28-C , 29-N ) :   1.4688
B( 29-N , 30-S ) :   1.2814 B( 29-N , 31-N ) :   0.1551 B( 30-S , 31-N ) :   1.2811
B( 32-C , 33-C ) :   1.4645 B( 32-C , 36-S ) :   1.1012 B( 33-C , 34-C ) :   1.2391
B( 33-C , 52-H ) :   0.9941 B( 34-C , 35-C ) :   1.3856 B( 34-C , 39-S ) :   1.0636
B( 35-C , 36-S ) :   1.0346 B( 35-C , 37-C ) :   1.2535 B( 37-C , 38-C ) :   1.5077
B( 37-C , 53-H ) :   0.9897 B( 38-C , 39-S ) :   1.0846 B( 38-C , 40-C ) :   1.1786
B( 40-C , 41-N ) :   1.7620 B( 40-C , 43-C ) :   0.1004 B( 40-C , 45-C ) :   1.0670
B( 41-N , 42-N ) :   1.1726 B( 42-N , 43-C ) :   1.7684 B( 43-C , 44-C ) :   1.0847
B( 43-C , 54-H ) :   1.0174 B( 44-C , 45-C ) :   1.1771 B( 44-C , 48-N ) :   1.6005
B( 45-C , 46-N ) :   1.6120 B( 46-N , 47-O ) :   1.0660 B( 46-N , 48-N ) :   0.1841
B( 47-O , 48-N ) :   1.0835

-----------------------------------------------------------------------------
         ABSORPTION SPECTRUM VIA TRANSITION ELECTRIC DIPOLE MOMENTS
-----------------------------------------------------------------------------
State   Energy  Wavelength   fosc         T2         TX        TY        TZ
        (cm-1)    (nm)                  (au**2)     (au)      (au)      (au)
-----------------------------------------------------------------------------
   0   11228.4    890.6   0.976393060  28.62750   1.98647   3.52997   3.49582
   1   19855.4    503.6   0.000732705   0.01215   0.07416  -0.01253  -0.08058
   2   20701.0    483.1   0.007398655   0.11766  -0.10702  -0.22566  -0.23513
   3   20768.0    481.5   0.889917604  14.10687  -1.34244  -2.33399  -2.61863
   4   20947.7    477.4   0.000588707   0.00925   0.04073   0.06637   0.05647
   5   20978.4    476.7   0.002708225   0.04250   0.02832   0.10024  -0.17790
   6   21186.8    472.0   0.025900870   0.40246   0.33592   0.49490   0.21140
   7   21876.6    457.1   0.015820478   0.23808  -0.09092  -0.32656   0.35095
   8   27237.5    367.1   0.020703818   0.25024   0.19410   0.36708   0.27897
   9   27683.0    361.2   0.031501660   0.37462  -0.13345  -0.10293  -0.58841
  10   28110.0    355.7   0.027283664   0.31953  -0.20154  -0.52812   0.00263
  11   28634.8    349.2   0.119984146   1.37945   0.41847   0.74061   0.80983
  12   29474.8    339.3   0.000044786   0.00050  -0.01185  -0.01893   0.00120
  13   30218.9    330.9   0.120736803   1.31534  -0.16887  -0.79983   0.80442
  14   30679.4    326.0   0.036086710   0.38724  -0.23215  -0.34004  -0.46660
  15   31044.0    322.1   0.000172487   0.00183   0.00758  -0.03889   0.01609
  16   31137.8    321.2   0.035769628   0.37818   0.15570   0.55416  -0.21644
  17   31315.4    319.3   0.001254278   0.01319  -0.10876   0.03279   0.01679
  18   31421.4    318.3   0.000685047   0.00718   0.08054  -0.02604  -0.00361
  19   32737.7    305.5   0.690178281   6.94047  -0.97608  -1.75203  -1.70825
  20   34825.7    287.1   0.264711357   2.50235   0.28612   1.06804  -1.13127
  21   35192.2    284.2   0.020295755   0.18986   0.05644   0.23337  -0.36361
  22   36294.7    275.5   0.004518248   0.04098  -0.08378  -0.17926  -0.04277
  23   37209.3    268.7   0.086711640   0.76719  -0.10374  -0.49409   0.71576
  24   37256.6    268.4   0.015272975   0.13496  -0.03286   0.24247  -0.27401
  25   37608.3    265.9   0.008120346   0.07108  -0.04252   0.00607  -0.26313
  26   37873.0    264.0   0.144475946   1.25586  -0.16346  -0.80835   0.75876
  27   38074.3    262.6   0.090488828   0.78242  -0.14271  -0.65379   0.57846
  28   38467.5    260.0   0.068111655   0.58291   0.04223  -0.20492   0.73426
  29   39078.1    255.9   0.031226114   0.26306  -0.20435  -0.45543  -0.11787
  30   39711.8    251.8   0.011999562   0.09948  -0.10101  -0.15119  -0.25772
  31   39771.1    251.4   0.036295390   0.30044   0.02384   0.30805  -0.45274

FINAL SINGLE POINT ENERGY     -4065.301390654944

DIPOLE MOMENT
-------------
                                X             Y             Z
Electronic contribution:     -1.69316      -5.94410       7.21862
Nuclear contribution   :      1.73999       6.36269      -7.76802
                        -----------------------------------------
Total Dipole Moment    :      0.04683       0.41860      -0.54939
                        -----------------------------------------
Magnitude (a.u.)       :      0.69228
Magnitude (Debye)      :      1.75963

Rotational constants in cm-1:     0.005723     0.000485     0.000447
Rotational constants in MHz :   171.580237    14.541029    13.411057

                             ****ORCA TERMINATED NORMALLY****
TOTAL RUN TIME: 0 days 0 hours 4 minutes 8 seconds 883 msec
