                         Program Version 4.2.0 -  RELEASE  -
|  1> # ORCA input file
|  2> # SCF done       -169.514426675955          0.000344417130
|  3> ! CAM-B3LYP def2-SVP def2/J RIJCOSX Grid4 TightSCF
|  4> %maxcore 5000
|  5> %tddft
|  6>     Mode sTDDFT
|  7>     Ethresh 5.0
|  8>     maxcore 5000
|  9> end
| 10>
| 11> %pal
| 12>   nprocs 6
| 13>   end
| 14> * xyz 0 1
| 15>    C       -1.70135        -9.54781         6.34888
| 16>    N       -0.88258        -9.21708         5.39513
| 17>    N       -1.23448        -9.18519         4.12859
| 18>    C       -2.44558        -9.48775         3.70499
| 19>    C       -3.43775        -9.86930         4.66052
| 20>    C       -3.04096        -9.89657         6.04452
| 21>    N       -4.09797       -10.26600         6.74332
| 22>    O       -5.07246       -10.45282         5.86210
| 23>    N       -4.70510       -10.22216         4.60558
| 24>    C       -2.70774        -9.41383         2.30762
| 25>    C       -3.89111        -9.69162         1.64503
| 26>    C       -3.75802        -9.49668         0.27399
| 27>    C       -2.46070        -9.06673        -0.09276
| 28>    S       -1.41358        -8.90887         1.24300
| 29>    C       -2.42442        -8.88532        -1.49537
| 30>    C       -3.69760        -9.20215        -2.01704
| 31>    C       -4.57332        -9.59695        -0.92381
| 32>    C       -5.88038        -9.97506        -1.01410
| 33>    C       -6.56186       -10.02690        -2.24919
| 34>    N       -7.12241       -10.06926        -3.24843
| 35>    C       -6.64243       -10.34014         0.11675
| 36>    N       -7.27196       -10.63702         1.02738
| 37>    C       -3.76980        -9.04641        -3.39243
| 38>    C       -2.56258        -8.60916        -3.92923
| 39>    S       -1.32068        -8.39483        -2.70600
| 40>    C       -2.29435        -8.33001        -5.29315
| 41>    C       -1.02500        -7.86534        -5.70745
| 42>    C       -0.73215        -7.54193        -7.07902
| 43>    N        0.48681        -7.10050        -7.40696
| 44>    C        1.40696        -6.96577        -6.48305
| 45>    C        1.11553        -7.28812        -5.11766
| 46>    N       -0.07436        -7.72086        -4.77809
| 47>    C        2.11005        -7.14308        -4.11847
| 48>    N        2.93270        -7.01628        -3.33223
| 49>    C        2.69308        -6.49769        -6.85085
| 50>    N        3.74055        -6.12161        -7.11975
| 51>    C       -1.69278        -7.66759        -8.10869
| 52>    C       -2.95858        -8.15234        -7.70198
| 53>    C       -3.25316        -8.47631        -6.32364
| 54>    N       -4.50696        -8.90929        -6.18384
| 55>    S       -5.23689        -8.91370        -7.60912
| 56>    N       -4.01459        -8.36768        -8.48779
| 57>    C       -1.38314        -7.31363        -9.44620
| 58>    C       -2.23857        -7.37798       -10.54204
| 59>    C       -1.62322        -6.94055       -11.70441
| 60>    C       -0.28527        -6.53898       -11.49895
| 61>    S        0.20861        -6.70434        -9.87010
| 62>    C        0.24492        -6.10771       -12.73767
| 63>    C       -0.75783        -6.23621       -13.72781
| 64>    C       -1.96142        -6.76301       -13.10867
| 65>    C       -3.15750        -7.03209       -13.70575
| 66>    C       -3.38042        -6.81933       -15.08339
| 67>    N       -3.57409        -6.64956       -16.20022
| 68>    C       -4.25796        -7.54153       -12.98320
| 69>    N       -5.15603        -7.95543       -12.40309
| 70>    C       -0.32526        -5.82873       -14.98569
| 71>    C        0.98932        -5.39629       -14.94747
| 72>    S        1.70853        -5.48886       -13.35455
| 73>    C        1.78252        -4.90227       -16.02153
| 74>    N        3.02172        -4.53434       -15.76318
| 75>    N        3.84138        -4.06313       -16.67702
| 76>    C        3.50266        -3.91634       -17.92326
| 77>    C        2.19867        -4.27128       -18.35040
| 78>    C        1.29152        -4.78895       -17.35909
| 79>    N        0.15198        -5.05103       -17.96449
| 80>    O        0.33406        -4.72146       -19.23931
| 81>    N        1.54808        -4.25250       -19.49864
| 82>    H       -1.32092        -9.54365         7.35743
| 83>    H       -4.78024       -10.01328         2.15777
| 84>    H       -4.63275        -9.22694        -4.00651
| 85>    H       -3.24999        -7.72955       -10.45377
| 86>    H       -0.90714        -5.83402       -15.89029
| 87>    H        4.24382        -3.52137       -18.59899
| 88> *
| 89>
| 90>                          ****END OF INPUT****

CARTESIAN COORDINATES (ANGSTROEM)
---------------------------------
  C     -1.701350   -9.547810    6.348880
  N     -0.882580   -9.217080    5.395130
  N     -1.234480   -9.185190    4.128590
  C     -2.445580   -9.487750    3.704990
  C     -3.437750   -9.869300    4.660520
  C     -3.040960   -9.896570    6.044520
  N     -4.097970  -10.266000    6.743320
  O     -5.072460  -10.452820    5.862100
  N     -4.705100  -10.222160    4.605580
  C     -2.707740   -9.413830    2.307620
  C     -3.891110   -9.691620    1.645030
  C     -3.758020   -9.496680    0.273990
  C     -2.460700   -9.066730   -0.092760
  S     -1.413580   -8.908870    1.243000
  C     -2.424420   -8.885320   -1.495370
  C     -3.697600   -9.202150   -2.017040
  C     -4.573320   -9.596950   -0.923810
  C     -5.880380   -9.975060   -1.014100
  C     -6.561860  -10.026900   -2.249190
  N     -7.122410  -10.069260   -3.248430
  C     -6.642430  -10.340140    0.116750
  N     -7.271960  -10.637020    1.027380
  C     -3.769800   -9.046410   -3.392430
  C     -2.562580   -8.609160   -3.929230
  S     -1.320680   -8.394830   -2.706000
  C     -2.294350   -8.330010   -5.293150
  C     -1.025000   -7.865340   -5.707450
  C     -0.732150   -7.541930   -7.079020
  N      0.486810   -7.100500   -7.406960
  C      1.406960   -6.965770   -6.483050
  C      1.115530   -7.288120   -5.117660
  N     -0.074360   -7.720860   -4.778090
  C      2.110050   -7.143080   -4.118470
  N      2.932700   -7.016280   -3.332230
  C      2.693080   -6.497690   -6.850850
  N      3.740550   -6.121610   -7.119750
  C     -1.692780   -7.667590   -8.108690
  C     -2.958580   -8.152340   -7.701980
  C     -3.253160   -8.476310   -6.323640
  N     -4.506960   -8.909290   -6.183840
  S     -5.236890   -8.913700   -7.609120
  N     -4.014590   -8.367680   -8.487790
  C     -1.383140   -7.313630   -9.446200
  C     -2.238570   -7.377980  -10.542040
  C     -1.623220   -6.940550  -11.704410
  C     -0.285270   -6.538980  -11.498950
  S      0.208610   -6.704340   -9.870100
  C      0.244920   -6.107710  -12.737670
  C     -0.757830   -6.236210  -13.727810
  C     -1.961420   -6.763010  -13.108670
  C     -3.157500   -7.032090  -13.705750
  C     -3.380420   -6.819330  -15.083390
  N     -3.574090   -6.649560  -16.200220
  C     -4.257960   -7.541530  -12.983200
  N     -5.156030   -7.955430  -12.403090
  C     -0.325260   -5.828730  -14.985690
  C      0.989320   -5.396290  -14.947470
  S      1.708530   -5.488860  -13.354550
  C      1.782520   -4.902270  -16.021530
  N      3.021720   -4.534340  -15.763180
  N      3.841380   -4.063130  -16.677020
  C      3.502660   -3.916340  -17.923260
  C      2.198670   -4.271280  -18.350400
  C      1.291520   -4.788950  -17.359090
  N      0.151980   -5.051030  -17.964490
  O      0.334060   -4.721460  -19.239310
  N      1.548080   -4.252500  -19.498640
  H     -1.320920   -9.543650    7.357430
  H     -4.780240  -10.013280    2.157770
  H     -4.632750   -9.226940   -4.006510
  H     -3.249990   -7.729550  -10.453770
  H     -0.907140   -5.834020  -15.890290
  H      4.243820   -3.521370  -18.598990

 Total Charge           Charge          ....    0
 Multiplicity           Mult            ....    1
 Number of Electrons    NEL             ....  480
 Basis Dimension        Dim             ....  988

ORBITAL ENERGIES
----------------

  NO   OCC          E(Eh)            E(eV)
   0   2.0000     -89.063118     -2423.5307
   1   2.0000     -88.998231     -2421.7650
   2   2.0000     -88.998066     -2421.7605
   3   2.0000     -88.995589     -2421.6931
   4   2.0000     -88.995461     -2421.6896
   5   2.0000     -19.386034      -527.5208
   6   2.0000     -19.386032      -527.5208
   7   2.0000     -14.512497      -394.9051
   8   2.0000     -14.512467      -394.9043
   9   2.0000     -14.509641      -394.8274
  10   2.0000     -14.509622      -394.8269
  11   2.0000     -14.487704      -394.2305
  12   2.0000     -14.487560      -394.2266
  13   2.0000     -14.470911      -393.7735
  14   2.0000     -14.470840      -393.7716
  15   2.0000     -14.461257      -393.5108
  16   2.0000     -14.461251      -393.5106
  17   2.0000     -14.458900      -393.4467
  18   2.0000     -14.458866      -393.4457
  19   2.0000     -14.447620      -393.1397
  20   2.0000     -14.447557      -393.1380
  21   2.0000     -14.435491      -392.8097
  22   2.0000     -14.435459      -392.8088
  23   2.0000     -14.433900      -392.7664
  24   2.0000     -14.433822      -392.7643
  25   2.0000     -10.405153      -283.1386
  26   2.0000     -10.404921      -283.1323
  27   2.0000     -10.370571      -282.1976
  28   2.0000     -10.370529      -282.1964
  29   2.0000     -10.368434      -282.1394
  30   2.0000     -10.368180      -282.1325
  31   2.0000     -10.366927      -282.0984
  32   2.0000     -10.366891      -282.0974
  33   2.0000     -10.363490      -282.0049
  34   2.0000     -10.363249      -281.9983
  35   2.0000     -10.357837      -281.8511
  36   2.0000     -10.357811      -281.8504
  37   2.0000     -10.354893      -281.7710
  38   2.0000     -10.354883      -281.7707
  39   2.0000     -10.351602      -281.6814
  40   2.0000     -10.351598      -281.6813
  41   2.0000     -10.344367      -281.4845
  42   2.0000     -10.344366      -281.4845
  43   2.0000     -10.343952      -281.4732
  44   2.0000     -10.343939      -281.4729
  45   2.0000     -10.340885      -281.3898
  46   2.0000     -10.340718      -281.3852
  47   2.0000     -10.340594      -281.3819
  48   2.0000     -10.340518      -281.3798
  49   2.0000     -10.336909      -281.2816
  50   2.0000     -10.336779      -281.2781
  51   2.0000     -10.335723      -281.2493
  52   2.0000     -10.335690      -281.2484
  53   2.0000     -10.335267      -281.2369
  54   2.0000     -10.335174      -281.2344
  55   2.0000     -10.333561      -281.1905
  56   2.0000     -10.333504      -281.1889
  57   2.0000     -10.331995      -281.1479
  58   2.0000     -10.331936      -281.1463
  59   2.0000     -10.315460      -280.6979
  60   2.0000     -10.315453      -280.6977
  61   2.0000     -10.313389      -280.6416
  62   2.0000     -10.313373      -280.6411
  63   2.0000     -10.310813      -280.5715
  64   2.0000     -10.310799      -280.5711
  65   2.0000     -10.308279      -280.5025
  66   2.0000     -10.308265      -280.5021
  67   2.0000      -8.154128      -221.8851
  68   2.0000      -8.092058      -220.1961
  69   2.0000      -8.091980      -220.1940
  70   2.0000      -8.088172      -220.0903
  71   2.0000      -8.088102      -220.0884
  72   2.0000      -6.125165      -166.6742
  73   2.0000      -6.117209      -166.4577
  74   2.0000      -6.117112      -166.4551
  75   2.0000      -6.061264      -164.9354
  76   2.0000      -6.061184      -164.9332
  77   2.0000      -6.057731      -164.8392
  78   2.0000      -6.057653      -164.8371
  79   2.0000      -6.056945      -164.8178
  80   2.0000      -6.056858      -164.8155
  81   2.0000      -6.054676      -164.7561
  82   2.0000      -6.054575      -164.7533
  83   2.0000      -6.052894      -164.7076
  84   2.0000      -6.052835      -164.7060
  85   2.0000      -6.050638      -164.6462
  86   2.0000      -6.050546      -164.6437
  87   2.0000      -1.339865       -36.4596
  88   2.0000      -1.339864       -36.4596
  89   2.0000      -1.160976       -31.5918
  90   2.0000      -1.146658       -31.2022
  91   2.0000      -1.139906       -31.0184
  92   2.0000      -1.139881       -31.0177
  93   2.0000      -1.075405       -29.2633
  94   2.0000      -1.052529       -28.6408
  95   2.0000      -1.052006       -28.6265
  96   2.0000      -1.041723       -28.3467
  97   2.0000      -1.041653       -28.3448
  98   2.0000      -1.033222       -28.1154
  99   2.0000      -1.027038       -27.9471
 100   2.0000      -1.026830       -27.9415
 101   2.0000      -1.023068       -27.8391
 102   2.0000      -1.017178       -27.6788
 103   2.0000      -1.013701       -27.5842
 104   2.0000      -1.011942       -27.5363
 105   2.0000      -1.011434       -27.5225
 106   2.0000      -1.005125       -27.3508
 107   2.0000      -0.999444       -27.1963
 108   2.0000      -0.997473       -27.1426
 109   2.0000      -0.992981       -27.0204
 110   2.0000      -0.972510       -26.4633
 111   2.0000      -0.967596       -26.3296
 112   2.0000      -0.951756       -25.8986
 113   2.0000      -0.951627       -25.8951
 114   2.0000      -0.929817       -25.3016
 115   2.0000      -0.927763       -25.2457
 116   2.0000      -0.912509       -24.8306
 117   2.0000      -0.896109       -24.3844
 118   2.0000      -0.878224       -23.8977
 119   2.0000      -0.877472       -23.8772
 120   2.0000      -0.863880       -23.5074
 121   2.0000      -0.863493       -23.4968
 122   2.0000      -0.857855       -23.3434
 123   2.0000      -0.847943       -23.0737
 124   2.0000      -0.846592       -23.0369
 125   2.0000      -0.826082       -22.4788
 126   2.0000      -0.820701       -22.3324
 127   2.0000      -0.800635       -21.7864
 128   2.0000      -0.796263       -21.6674
 129   2.0000      -0.789207       -21.4754
 130   2.0000      -0.788126       -21.4460
 131   2.0000      -0.782610       -21.2959
 132   2.0000      -0.769689       -20.9443
 133   2.0000      -0.754415       -20.5287
 134   2.0000      -0.744066       -20.2471
 135   2.0000      -0.731669       -19.9097
 136   2.0000      -0.726490       -19.7688
 137   2.0000      -0.713431       -19.4134
 138   2.0000      -0.707437       -19.2503
 139   2.0000      -0.702352       -19.1120
 140   2.0000      -0.700746       -19.0683
 141   2.0000      -0.692256       -18.8373
 142   2.0000      -0.689014       -18.7490
 143   2.0000      -0.682592       -18.5743
 144   2.0000      -0.676498       -18.4084
 145   2.0000      -0.670261       -18.2387
 146   2.0000      -0.665192       -18.1008
 147   2.0000      -0.665150       -18.0997
 148   2.0000      -0.652213       -17.7476
 149   2.0000      -0.650054       -17.6889
 150   2.0000      -0.644895       -17.5485
 151   2.0000      -0.641400       -17.4534
 152   2.0000      -0.635825       -17.3017
 153   2.0000      -0.635824       -17.3017
 154   2.0000      -0.633456       -17.2372
 155   2.0000      -0.628399       -17.0996
 156   2.0000      -0.623010       -16.9530
 157   2.0000      -0.619655       -16.8617
 158   2.0000      -0.608237       -16.5510
 159   2.0000      -0.603160       -16.4128
 160   2.0000      -0.589055       -16.0290
 161   2.0000      -0.584821       -15.9138
 162   2.0000      -0.581611       -15.8264
 163   2.0000      -0.576862       -15.6972
 164   2.0000      -0.575037       -15.6476
 165   2.0000      -0.570352       -15.5201
 166   2.0000      -0.558429       -15.1956
 167   2.0000      -0.557290       -15.1646
 168   2.0000      -0.556480       -15.1426
 169   2.0000      -0.548737       -14.9319
 170   2.0000      -0.545517       -14.8443
 171   2.0000      -0.544097       -14.8056
 172   2.0000      -0.543530       -14.7902
 173   2.0000      -0.543140       -14.7796
 174   2.0000      -0.529495       -14.4083
 175   2.0000      -0.528982       -14.3943
 176   2.0000      -0.519267       -14.1300
 177   2.0000      -0.512393       -13.9429
 178   2.0000      -0.506937       -13.7945
 179   2.0000      -0.506662       -13.7870
 180   2.0000      -0.506607       -13.7855
 181   2.0000      -0.504806       -13.7365
 182   2.0000      -0.503870       -13.7110
 183   2.0000      -0.503596       -13.7035
 184   2.0000      -0.501259       -13.6399
 185   2.0000      -0.491086       -13.3631
 186   2.0000      -0.489715       -13.3258
 187   2.0000      -0.487481       -13.2650
 188   2.0000      -0.484143       -13.1742
 189   2.0000      -0.479878       -13.0581
 190   2.0000      -0.474845       -12.9212
 191   2.0000      -0.470152       -12.7935
 192   2.0000      -0.468275       -12.7424
 193   2.0000      -0.466035       -12.6815
 194   2.0000      -0.466022       -12.6811
 195   2.0000      -0.465692       -12.6721
 196   2.0000      -0.462014       -12.5720
 197   2.0000      -0.461337       -12.5536
 198   2.0000      -0.461153       -12.5486
 199   2.0000      -0.457016       -12.4360
 200   2.0000      -0.454196       -12.3593
 201   2.0000      -0.453691       -12.3455
 202   2.0000      -0.446775       -12.1574
 203   2.0000      -0.445019       -12.1096
 204   2.0000      -0.444625       -12.0989
 205   2.0000      -0.444137       -12.0856
 206   2.0000      -0.444105       -12.0847
 207   2.0000      -0.443886       -12.0787
 208   2.0000      -0.437095       -11.8940
 209   2.0000      -0.436970       -11.8906
 210   2.0000      -0.436490       -11.8775
 211   2.0000      -0.435804       -11.8588
 212   2.0000      -0.432757       -11.7759
 213   2.0000      -0.431873       -11.7519
 214   2.0000      -0.426027       -11.5928
 215   2.0000      -0.421444       -11.4681
 216   2.0000      -0.421369       -11.4660
 217   2.0000      -0.419080       -11.4038
 218   2.0000      -0.419056       -11.4031
 219   2.0000      -0.416141       -11.3238
 220   2.0000      -0.415091       -11.2952
 221   2.0000      -0.412202       -11.2166
 222   2.0000      -0.411949       -11.2097
 223   2.0000      -0.404733       -11.0133
 224   2.0000      -0.395726       -10.7682
 225   2.0000      -0.393733       -10.7140
 226   2.0000      -0.389629       -10.6023
 227   2.0000      -0.370345       -10.0776
 228   2.0000      -0.368833       -10.0365
 229   2.0000      -0.368689       -10.0325
 230   2.0000      -0.356771        -9.7082
 231   2.0000      -0.355543        -9.6748
 232   2.0000      -0.353714        -9.6250
 233   2.0000      -0.330917        -9.0047
 234   2.0000      -0.327601        -8.9145
 235   2.0000      -0.324285        -8.8242
 236   2.0000      -0.324230        -8.8228
 237   2.0000      -0.319911        -8.7052
 238   2.0000      -0.290016        -7.8917
 239   2.0000      -0.253062        -6.8862
 240   0.0000      -0.149040        -4.0556
 241   0.0000      -0.113222        -3.0809
 242   0.0000      -0.108102        -2.9416
 243   0.0000      -0.092879        -2.5274
 244   0.0000      -0.092507        -2.5172

MULLIKEN ATOMIC CHARGES
-----------------------
   0 C :   -0.007475
   1 N :   -0.031775
   2 N :   -0.074591
   3 C :    0.035451
   4 C :   -0.039775
   5 C :   -0.011589
   6 N :    0.079691
   7 O :   -0.077370
   8 N :    0.075207
   9 C :   -0.131812
  10 C :   -0.047468
  11 C :    0.006880
  12 C :   -0.088301
  13 S :    0.263676
  14 C :   -0.066166
  15 C :    0.038875
  16 C :    0.311734
  17 C :   -0.300120
  18 C :   -0.186143
  19 N :    0.170836
  20 C :   -0.194400
  21 N :    0.186809
  22 C :   -0.062503
  23 C :   -0.178103
  24 S :    0.212027
  25 C :    0.191337
  26 C :   -0.064589
  27 C :   -0.063815
  28 N :    0.001965
  29 C :   -0.102270
  30 C :   -0.099101
  31 N :    0.002980
  32 C :   -0.243893
  33 N :    0.259076
  34 C :   -0.243332
  35 N :    0.261320
  36 C :    0.190186
  37 C :   -0.008041
  38 C :   -0.010156
  39 N :   -0.282799
  40 S :    0.596088
  41 N :   -0.284965
  42 C :   -0.176756
  43 C :   -0.063795
  44 C :    0.040128
  45 C :   -0.068139
  46 S :    0.212776
  47 C :   -0.086928
  48 C :    0.008710
  49 C :    0.312595
  50 C :   -0.303477
  51 C :   -0.194932
  52 N :    0.187703
  53 C :   -0.187065
  54 N :    0.173505
  55 C :   -0.049919
  56 C :   -0.131953
  57 S :    0.263513
  58 C :    0.034476
  59 N :   -0.073983
  60 N :   -0.030930
  61 C :   -0.009945
  62 C :   -0.012153
  63 C :   -0.038646
  64 N :    0.074240
  65 O :   -0.077490
  66 N :    0.082013
  67 H :    0.017395
  68 H :    0.024943
  69 H :    0.022944
  70 H :    0.024414
  71 H :    0.025701
  72 H :    0.017472
Sum of atomic charges:   -0.0000000

LOEWDIN ATOMIC CHARGES
----------------------
   0 C :    0.010791
   1 N :   -0.024856
   2 N :   -0.074815
   3 C :   -0.009102
   4 C :   -0.064961
   5 C :   -0.073477
   6 N :   -0.000178
   7 O :    0.097215
   8 N :   -0.003416
   9 C :   -0.185888
  10 C :   -0.003680
  11 C :   -0.069258
  12 C :   -0.166380
  13 S :    0.532427
  14 C :   -0.179405
  15 C :   -0.066883
  16 C :    0.077459
  17 C :   -0.098891
  18 C :   -0.015778
  19 N :   -0.032146
  20 C :   -0.021084
  21 N :   -0.023060
  22 C :   -0.006713
  23 C :   -0.164800
  24 S :    0.514233
  25 C :   -0.036185
  26 C :   -0.014786
  27 C :   -0.014733
  28 N :   -0.015440
  29 C :   -0.019683
  30 C :   -0.019663
  31 N :   -0.015428
  32 C :   -0.040339
  33 N :    0.006545
  34 C :   -0.040534
  35 N :    0.006737
  36 C :   -0.036258
  37 C :   -0.036195
  38 C :   -0.036325
  39 N :   -0.270117
  40 S :    0.713022
  41 N :   -0.270328
  42 C :   -0.164835
  43 C :   -0.006592
  44 C :   -0.066977
  45 C :   -0.179419
  46 S :    0.514318
  47 C :   -0.166293
  48 C :   -0.069214
  49 C :    0.077434
  50 C :   -0.098964
  51 C :   -0.021072
  52 N :   -0.023113
  53 C :   -0.015908
  54 N :   -0.032004
  55 C :   -0.003836
  56 C :   -0.185879
  57 S :    0.532359
  58 C :   -0.009151
  59 N :   -0.074772
  60 N :   -0.024685
  61 C :    0.010556
  62 C :   -0.073594
  63 C :   -0.064853
  64 N :   -0.003554
  65 O :    0.097238
  66 N :    0.000012
  67 H :    0.038884
  68 H :    0.044782
  69 H :    0.038720
  70 H :    0.038903
  71 H :    0.044883
  72 H :    0.038981

  Mayer bond orders larger than 0.100000
B(  0-C ,  1-N ) :   1.7656 B(  0-C ,  3-C ) :   0.1016 B(  0-C ,  5-C ) :   1.0861
B(  0-C , 67-H ) :   1.0172 B(  1-N ,  2-N ) :   1.1761 B(  2-N ,  3-C ) :   1.7655
B(  3-C ,  4-C ) :   1.0737 B(  3-C ,  9-C ) :   1.1663 B(  4-C ,  5-C ) :   1.1779
B(  4-C ,  8-N ) :   1.6108 B(  5-C ,  6-N ) :   1.5959 B(  6-N ,  7-O ) :   1.0871
B(  6-N ,  8-N ) :   0.1843 B(  7-O ,  8-N ) :   1.0703 B(  9-C , 10-C ) :   1.4736
B(  9-C , 13-S ) :   1.0854 B( 10-C , 11-C ) :   1.2868 B( 10-C , 68-H ) :   0.9811
B( 11-C , 12-C ) :   1.4073 B( 11-C , 16-C ) :   0.9963 B( 12-C , 13-S ) :   1.1352
B( 12-C , 14-C ) :   1.2062 B( 14-C , 15-C ) :   1.4015 B( 14-C , 24-S ) :   1.0871
B( 15-C , 16-C ) :   0.9880 B( 15-C , 22-C ) :   1.2847 B( 16-C , 17-C ) :   1.7119
B( 17-C , 18-C ) :   1.1387 B( 17-C , 20-C ) :   1.1343 B( 18-C , 19-N ) :   2.9828
B( 20-C , 21-N ) :   2.9954 B( 22-C , 23-C ) :   1.4039 B( 22-C , 69-H ) :   0.9809
B( 23-C , 24-S ) :   1.0920 B( 23-C , 25-C ) :   1.2107 B( 25-C , 26-C ) :   1.2529
B( 25-C , 36-C ) :   0.1239 B( 25-C , 38-C ) :   1.1981 B( 26-C , 27-C ) :   1.1068
B( 26-C , 31-N ) :   1.4074 B( 27-C , 28-N ) :   1.4074 B( 27-C , 36-C ) :   1.2544
B( 28-N , 29-C ) :   1.6966 B( 29-C , 30-C ) :   1.2169 B( 29-C , 34-C ) :   1.1687
B( 30-C , 31-N ) :   1.6961 B( 30-C , 32-C ) :   1.1677 B( 32-C , 33-N ) :   3.0414
B( 34-C , 35-N ) :   3.0420 B( 36-C , 37-C ) :   1.1957 B( 36-C , 42-C ) :   1.2117
B( 37-C , 38-C ) :   1.0965 B( 37-C , 41-N ) :   1.5141 B( 38-C , 39-N ) :   1.5158
B( 39-N , 40-S ) :   1.2878 B( 39-N , 41-N ) :   0.1464 B( 40-S , 41-N ) :   1.2882
B( 42-C , 43-C ) :   1.4045 B( 42-C , 46-S ) :   1.0918 B( 43-C , 44-C ) :   1.2843
B( 43-C , 70-H ) :   0.9807 B( 44-C , 45-C ) :   1.4024 B( 44-C , 49-C ) :   0.9888
B( 45-C , 46-S ) :   1.0877 B( 45-C , 47-C ) :   1.2064 B( 47-C , 48-C ) :   1.4083
B( 47-C , 57-S ) :   1.1351 B( 48-C , 49-C ) :   0.9951 B( 48-C , 55-C ) :   1.2849
B( 49-C , 50-C ) :   1.7117 B( 50-C , 51-C ) :   1.1351 B( 50-C , 53-C ) :   1.1404
B( 51-C , 52-N ) :   2.9964 B( 53-C , 54-N ) :   2.9840 B( 55-C , 56-C ) :   1.4714
B( 55-C , 71-H ) :   0.9828 B( 56-C , 57-S ) :   1.0859 B( 56-C , 58-C ) :   1.1668
B( 58-C , 59-N ) :   1.7662 B( 58-C , 61-C ) :   0.1020 B( 58-C , 63-C ) :   1.0746
B( 59-N , 60-N ) :   1.1754 B( 60-N , 61-C ) :   1.7679 B( 61-C , 62-C ) :   1.0869
B( 61-C , 72-H ) :   1.0169 B( 62-C , 63-C ) :   1.1764 B( 62-C , 66-N ) :   1.5975
B( 63-C , 64-N ) :   1.6098 B( 64-N , 65-O ) :   1.0712 B( 64-N , 66-N ) :   0.1844
B( 65-O , 66-N ) :   1.0873

-----------------------------------------------------------------------------
         ABSORPTION SPECTRUM VIA TRANSITION ELECTRIC DIPOLE MOMENTS
-----------------------------------------------------------------------------
State   Energy  Wavelength   fosc         T2         TX        TY        TZ
        (cm-1)    (nm)                  (au**2)     (au)      (au)      (au)
-----------------------------------------------------------------------------
   0    7527.7   1328.4   0.618884462  27.06581   1.06283   1.15458  -4.96016
   1   14003.8    714.1   0.001283650   0.03018   0.10744   0.12753   0.04867
   2   14552.2    687.2   0.058581900   1.32529   0.23550   0.25292  -1.09812
   3   16683.0    599.4   0.000767514   0.01515  -0.01395  -0.11852  -0.03009
   4   21044.0    475.2   0.000182580   0.00286  -0.00294  -0.01988   0.04952
   5   21051.6    475.0   0.000044278   0.00069   0.00009  -0.01708   0.02002
   6   21231.8    471.0   1.277031838  19.80113   0.91161   0.97935  -4.24393
   7   21525.5    464.6   0.021116128   0.32295  -0.45919  -0.28376  -0.17770
   8   22685.2    440.8   0.103142862   1.49683   0.25286   0.26732  -1.16680
   9   23428.3    426.8   0.008820565   0.12395   0.30989   0.13624   0.09671
  10   23554.6    424.5   0.004976969   0.06956  -0.06095  -0.06123   0.24919
  11   23660.2    422.7   0.135660870   1.88761  -1.27185  -0.37181  -0.36298
  12   24792.6    403.3   0.000008947   0.00012   0.00016  -0.00823   0.00714
  13   25176.0    397.2   0.001113611   0.01456  -0.01524  -0.11750  -0.02290
  14   25455.4    392.8   0.002046606   0.02647  -0.14644  -0.05334  -0.04669
  15   25636.1    390.1   0.011925649   0.15315  -0.07813  -0.08736   0.37338
  16   28305.3    353.3   0.000025766   0.00030   0.00943   0.01451   0.00037
  17   28349.5    352.7   0.000419651   0.00487  -0.01736   0.06409   0.02154
  18   28969.5    345.2   0.039070424   0.44400   0.61750   0.17872   0.17535
  19   29303.4    341.3   0.014483551   0.16272   0.08328   0.09250  -0.38370
  20   30520.8    327.6   0.000482354   0.00520   0.00745   0.01832  -0.06937
  21   30585.0    327.0   0.000165047   0.00178   0.03785   0.00849   0.01648
  22   30629.2    326.5   0.015334589   0.16482  -0.35668  -0.15948  -0.11031
  23   30884.1    323.8   0.608725207   6.48875  -2.36171  -0.68620  -0.66348
  24   31077.2    321.8   0.251373228   2.66289  -1.52596  -0.40485  -0.41282
  25   31301.2    319.5   0.963761538  10.13642  -0.64838  -0.70012   3.03741
  26   32064.1    311.9   0.146668931   1.50590  -0.31072  -0.29225   1.15063
  27   32121.3    311.3   0.583979142   5.98522  -2.28849  -0.55986  -0.65921
  28   32396.7    308.7   0.034549351   0.35109  -0.13146  -0.12914   0.56314
  29   32401.7    308.6   0.000299553   0.00304   0.04022  -0.00343   0.03760
  30   32415.8    308.5   0.000339209   0.00344  -0.00431   0.01245   0.05720
  31   33074.0    302.4   0.195906041   1.95001   1.31156   0.31650   0.36007
  32   33612.1    297.5   0.000055863   0.00055   0.00862   0.00671  -0.02068
  33   33662.6    297.1   0.019592081   0.19161  -0.09028  -0.10106   0.41622
  34   33923.7    294.8   0.063289506   0.61419   0.16139   0.17487  -0.74670
  35   34416.5    290.6   0.001940170   0.01856  -0.13237   0.00896  -0.03093
  36   34662.5    288.5   0.087738607   0.83331  -0.08407  -0.17232   0.89249
  37   34668.6    288.4   0.116155732   1.10301  -1.00162  -0.26334  -0.17443
  38   35323.1    283.1   0.131407156   1.22472   0.23392   0.25242  -1.05180
  39   35509.2    281.6   0.319278290   2.96009  -1.59630  -0.45327  -0.45439
  40   36540.4    273.7   0.103235193   0.93010  -0.86691  -0.33408  -0.25877
  41   37430.4    267.2   0.000053750   0.00047   0.01743   0.00863  -0.00972
  42   37478.8    266.8   0.065664616   0.57680   0.69828   0.22470   0.19673
  43   38121.5    262.3   0.024828675   0.21442   0.08949   0.10080  -0.44300
  44   38649.0    258.7   0.001657649   0.01412   0.00746   0.02088  -0.11674
  45   38730.8    258.2   0.018529151   0.15750   0.35699   0.15652  -0.07455
  46   38748.1    258.1   0.083666406   0.71085   0.10771   0.16531  -0.81971
  47   39054.9    256.0   0.181684067   1.53150  -1.14004  -0.34596  -0.33484
  48   39211.9    255.0   0.007710705   0.06474  -0.06120  -0.05517   0.24072
  49   39540.9    252.9   0.031263584   0.26030  -0.46510  -0.15537  -0.14085
  50   39671.2    252.1   0.005523990   0.04584  -0.02278   0.20765   0.04696
  51   40120.0    249.3   0.000132693   0.00109   0.00412   0.03152   0.00884
  52   40137.9    249.1   0.000409183   0.00336  -0.02587   0.05016   0.01309
  53   40171.3    248.9   0.008505044   0.06970  -0.07609  -0.07031   0.24283
  54   40232.4    248.6   0.151653337   1.24094   1.04277   0.26745   0.28644

FINAL SINGLE POINT ENERGY     -4726.563612674277

DIPOLE MOMENT
-------------
                                X             Y             Z
Electronic contribution:      1.29617      -0.30421       0.20774
Nuclear contribution   :     -0.97394       0.34790      -0.12981
                        -----------------------------------------
Total Dipole Moment    :      0.32222       0.04368       0.07793
                        -----------------------------------------
Magnitude (a.u.)       :      0.33438
Magnitude (Debye)      :      0.84992

Rotational constants in cm-1:     0.002872     0.000301     0.000273
Rotational constants in MHz :    86.088819     9.025147     8.176437

                             ****ORCA TERMINATED NORMALLY****
TOTAL RUN TIME: 0 days 0 hours 7 minutes 0 seconds 585 msec
