                         Program Version 4.2.0 -  RELEASE  -
|  1> # ORCA input file
|  2> # SCF done       -166.996252475298          0.000802032346
|  3> ! CAM-B3LYP def2-SVP def2/J RIJCOSX Grid4 TightSCF
|  4> %maxcore 5000
|  5> %tddft
|  6>     Mode sTDDFT
|  7>     Ethresh 5.0
|  8>     maxcore 5000
|  9> end
| 10>
| 11> %pal
| 12>   nprocs 6
| 13>   end
| 14> * xyz 0 1
| 15>    C       -0.06948        -5.79416         5.99718
| 16>    N        0.62843        -5.86694         4.90312
| 17>    N        0.11864        -6.25184         3.75327
| 18>    C       -1.14316        -6.60164         3.60109
| 19>    C       -2.01364        -6.56428         4.73421
| 20>    C       -1.44415        -6.13890         5.98648
| 21>    N       -2.41071        -6.17648         6.88446
| 22>    O       -3.49355        -6.59285         6.23960
| 23>    N       -3.28475        -6.83248         4.94873
| 24>    C       -1.58016        -6.99826         2.30546
| 25>    C       -2.84696        -7.39719         1.91680
| 26>    C       -2.88450        -7.70017         0.55883
| 27>    C       -1.63196        -7.52680        -0.07374
| 28>    S       -0.41760        -6.99524         0.99645
| 29>    C       -1.77023        -7.84871        -1.44632
| 30>    C       -3.11121        -8.22265        -1.68144
| 31>    C       -3.85011        -8.14609        -0.42940
| 32>    C       -5.16849        -8.43617        -0.23563
| 33>    C       -5.99944        -8.86535        -1.29239
| 34>    N       -6.67239        -9.21087        -2.15405
| 35>    C       -5.79142        -8.33138         1.02672
| 36>    N       -6.30986        -8.25285         2.04587
| 37>    C       -3.35430        -8.54674        -3.00873
| 38>    C       -2.20448        -8.42220        -3.78041
| 39>    S       -0.80438        -7.90257        -2.85508
| 40>    C       -2.05928        -8.64773        -5.15917
| 41>    C       -0.86322        -8.50907        -5.87264
| 42>    C       -0.99249        -8.79247        -7.27416
| 43>    N        0.07726        -8.76191        -8.07300
| 44>    C        1.22549        -8.43357        -7.52252
| 45>    C        2.42689        -8.47212        -8.39881
| 46>    O        2.40004        -8.92580        -9.52056
| 47>    C        3.65948        -7.94457        -7.78466
| 48>    C        3.75046        -7.57562        -6.50292
| 49>    C        2.62716        -7.64245        -5.55214
| 50>    O        2.74338        -7.34861        -4.38175
| 51>    C        1.33637        -8.08486        -6.13892
| 52>    N        0.29765        -8.13999        -5.33370
| 53>    C       -2.30618        -9.12631        -7.63598
| 54>    S       -3.33536        -9.12107        -6.23194
| 55>    C       -2.78166        -9.41337        -8.92891
| 56>    C       -2.06967        -9.27943       -10.11713
| 57>    C       -2.84703        -9.61622       -11.21739
| 58>    C       -4.14999       -10.03127       -10.87050
| 59>    S       -4.42723        -9.97640        -9.18774
| 60>    C       -4.85010       -10.37510       -12.04935
| 61>    C       -3.98956       -10.17474       -13.15271
| 62>    C       -2.71614        -9.66928       -12.66828
| 63>    C       -1.64899        -9.26774       -13.41428
| 64>    C       -0.50119        -8.66807       -12.84904
| 65>    N        0.41924        -8.13442       -12.42375
| 66>    C       -1.63680        -9.36875       -14.82307
| 67>    N       -1.61364        -9.45345       -15.96595
| 68>    C       -4.59904       -10.47845       -14.36722
| 69>    C       -5.90190       -10.90562       -14.18219
| 70>    S       -6.39500       -10.93595       -12.50309
| 71>    C       -6.85200       -11.29941       -15.16609
| 72>    N       -8.05004       -11.66852       -14.75772
| 73>    N       -9.00796       -12.04706       -15.57584
| 74>    C       -8.85941       -12.08936       -16.86640
| 75>    C       -7.62256       -11.71933       -17.45122
| 76>    C       -6.56500       -11.30528       -16.56594
| 77>    N       -5.51929       -11.01032       -17.30946
| 78>    O       -5.89576       -11.22434       -18.56629
| 79>    N       -7.14827       -11.64854       -18.68084
| 80>    H        0.43624        -5.46673         6.89104
| 81>    H       -3.67320        -7.45247         2.60318
| 82>    H       -4.29867        -8.85648        -3.41933
| 83>    H        4.51377        -7.89701        -8.44627
| 84>    H        4.68059        -7.21402        -6.08562
| 85>    H       -1.04380        -8.95699       -10.13191
| 86>    H       -4.14774       -10.40403       -15.34063
| 87>    H       -9.70264       -12.41181       -17.45541
| 88> *
| 89>
| 90>                          ****END OF INPUT****

CARTESIAN COORDINATES (ANGSTROEM)
---------------------------------
  C     -0.069480   -5.794160    5.997180
  N      0.628430   -5.866940    4.903120
  N      0.118640   -6.251840    3.753270
  C     -1.143160   -6.601640    3.601090
  C     -2.013640   -6.564280    4.734210
  C     -1.444150   -6.138900    5.986480
  N     -2.410710   -6.176480    6.884460
  O     -3.493550   -6.592850    6.239600
  N     -3.284750   -6.832480    4.948730
  C     -1.580160   -6.998260    2.305460
  C     -2.846960   -7.397190    1.916800
  C     -2.884500   -7.700170    0.558830
  C     -1.631960   -7.526800   -0.073740
  S     -0.417600   -6.995240    0.996450
  C     -1.770230   -7.848710   -1.446320
  C     -3.111210   -8.222650   -1.681440
  C     -3.850110   -8.146090   -0.429400
  C     -5.168490   -8.436170   -0.235630
  C     -5.999440   -8.865350   -1.292390
  N     -6.672390   -9.210870   -2.154050
  C     -5.791420   -8.331380    1.026720
  N     -6.309860   -8.252850    2.045870
  C     -3.354300   -8.546740   -3.008730
  C     -2.204480   -8.422200   -3.780410
  S     -0.804380   -7.902570   -2.855080
  C     -2.059280   -8.647730   -5.159170
  C     -0.863220   -8.509070   -5.872640
  C     -0.992490   -8.792470   -7.274160
  N      0.077260   -8.761910   -8.073000
  C      1.225490   -8.433570   -7.522520
  C      2.426890   -8.472120   -8.398810
  O      2.400040   -8.925800   -9.520560
  C      3.659480   -7.944570   -7.784660
  C      3.750460   -7.575620   -6.502920
  C      2.627160   -7.642450   -5.552140
  O      2.743380   -7.348610   -4.381750
  C      1.336370   -8.084860   -6.138920
  N      0.297650   -8.139990   -5.333700
  C     -2.306180   -9.126310   -7.635980
  S     -3.335360   -9.121070   -6.231940
  C     -2.781660   -9.413370   -8.928910
  C     -2.069670   -9.279430  -10.117130
  C     -2.847030   -9.616220  -11.217390
  C     -4.149990  -10.031270  -10.870500
  S     -4.427230   -9.976400   -9.187740
  C     -4.850100  -10.375100  -12.049350
  C     -3.989560  -10.174740  -13.152710
  C     -2.716140   -9.669280  -12.668280
  C     -1.648990   -9.267740  -13.414280
  C     -0.501190   -8.668070  -12.849040
  N      0.419240   -8.134420  -12.423750
  C     -1.636800   -9.368750  -14.823070
  N     -1.613640   -9.453450  -15.965950
  C     -4.599040  -10.478450  -14.367220
  C     -5.901900  -10.905620  -14.182190
  S     -6.395000  -10.935950  -12.503090
  C     -6.852000  -11.299410  -15.166090
  N     -8.050040  -11.668520  -14.757720
  N     -9.007960  -12.047060  -15.575840
  C     -8.859410  -12.089360  -16.866400
  C     -7.622560  -11.719330  -17.451220
  C     -6.565000  -11.305280  -16.565940
  N     -5.519290  -11.010320  -17.309460
  O     -5.895760  -11.224340  -18.566290
  N     -7.148270  -11.648540  -18.680840
  H      0.436240   -5.466730    6.891040
  H     -3.673200   -7.452470    2.603180
  H     -4.298670   -8.856480   -3.419330
  H      4.513770   -7.897010   -8.446270
  H      4.680590   -7.214020   -6.085620
  H     -1.043800   -8.956990  -10.131910
  H     -4.147740  -10.404030  -15.340630
  H     -9.702640  -12.411810  -17.455410

 Total Charge           Charge          ....    0
 Multiplicity           Mult            ....    1
 Number of Electrons    NEL             ....  470
 Basis Dimension        Dim             ....  970

ORBITAL ENERGIES
----------------

  NO   OCC          E(Eh)            E(eV)
   0   2.0000     -89.011501     -2422.1261
   1   2.0000     -89.001121     -2421.8436
   2   2.0000     -88.995883     -2421.7011
   3   2.0000     -88.994750     -2421.6703
   4   2.0000     -88.993999     -2421.6498
   5   2.0000     -19.383770      -527.4592
   6   2.0000     -19.383286      -527.4460
   7   2.0000     -19.235940      -523.4365
   8   2.0000     -19.233624      -523.3735
   9   2.0000     -14.510431      -394.8489
  10   2.0000     -14.509955      -394.8359
  11   2.0000     -14.507430      -394.7672
  12   2.0000     -14.506927      -394.7536
  13   2.0000     -14.463647      -393.5759
  14   2.0000     -14.460314      -393.4852
  15   2.0000     -14.459311      -393.4579
  16   2.0000     -14.458531      -393.4366
  17   2.0000     -14.456188      -393.3729
  18   2.0000     -14.455137      -393.3443
  19   2.0000     -14.435530      -392.8107
  20   2.0000     -14.432512      -392.7286
  21   2.0000     -14.432340      -392.7239
  22   2.0000     -14.430024      -392.6609
  23   2.0000     -10.385707      -282.6095
  24   2.0000     -10.382472      -282.5214
  25   2.0000     -10.369782      -282.1761
  26   2.0000     -10.369078      -282.1569
  27   2.0000     -10.364670      -282.0370
  28   2.0000     -10.363741      -282.0117
  29   2.0000     -10.356823      -281.8235
  30   2.0000     -10.355691      -281.7927
  31   2.0000     -10.353782      -281.7407
  32   2.0000     -10.352752      -281.7127
  33   2.0000     -10.351994      -281.6921
  34   2.0000     -10.351860      -281.6884
  35   2.0000     -10.349562      -281.6259
  36   2.0000     -10.348840      -281.6063
  37   2.0000     -10.348424      -281.5949
  38   2.0000     -10.346932      -281.5543
  39   2.0000     -10.346258      -281.5360
  40   2.0000     -10.344462      -281.4871
  41   2.0000     -10.343049      -281.4487
  42   2.0000     -10.341937      -281.4184
  43   2.0000     -10.341933      -281.4183
  44   2.0000     -10.341543      -281.4077
  45   2.0000     -10.341144      -281.3968
  46   2.0000     -10.340971      -281.3921
  47   2.0000     -10.339706      -281.3577
  48   2.0000     -10.336030      -281.2577
  49   2.0000     -10.333588      -281.1912
  50   2.0000     -10.332215      -281.1539
  51   2.0000     -10.331749      -281.1412
  52   2.0000     -10.328944      -281.0648
  53   2.0000     -10.328444      -281.0513
  54   2.0000     -10.327333      -281.0210
  55   2.0000     -10.316321      -280.7214
  56   2.0000     -10.315467      -280.6981
  57   2.0000     -10.313986      -280.6578
  58   2.0000     -10.313225      -280.6371
  59   2.0000     -10.313079      -280.6331
  60   2.0000     -10.312440      -280.6158
  61   2.0000     -10.311963      -280.6028
  62   2.0000     -10.310316      -280.5579
  63   2.0000     -10.309052      -280.5236
  64   2.0000     -10.307425      -280.4793
  65   2.0000      -8.105939      -220.5738
  66   2.0000      -8.095882      -220.3002
  67   2.0000      -8.089747      -220.1332
  68   2.0000      -8.088690      -220.1044
  69   2.0000      -8.087202      -220.0639
  70   2.0000      -6.075013      -165.3095
  71   2.0000      -6.070925      -165.1983
  72   2.0000      -6.068571      -165.1342
  73   2.0000      -6.065193      -165.0423
  74   2.0000      -6.060992      -164.9280
  75   2.0000      -6.059034      -164.8747
  76   2.0000      -6.058126      -164.8500
  77   2.0000      -6.057908      -164.8440
  78   2.0000      -6.056570      -164.8077
  79   2.0000      -6.054665      -164.7558
  80   2.0000      -6.053558      -164.7257
  81   2.0000      -6.052267      -164.6905
  82   2.0000      -6.052126      -164.6867
  83   2.0000      -6.051276      -164.6636
  84   2.0000      -6.049529      -164.6160
  85   2.0000      -1.337643       -36.3991
  86   2.0000      -1.337166       -36.3861
  87   2.0000      -1.153137       -31.3785
  88   2.0000      -1.147809       -31.2335
  89   2.0000      -1.137475       -30.9523
  90   2.0000      -1.136561       -30.9274
  91   2.0000      -1.113218       -30.2922
  92   2.0000      -1.052668       -28.6445
  93   2.0000      -1.051038       -28.6002
  94   2.0000      -1.040934       -28.3253
  95   2.0000      -1.039583       -28.2885
  96   2.0000      -1.038851       -28.2686
  97   2.0000      -1.027178       -27.9509
  98   2.0000      -1.024976       -27.8910
  99   2.0000      -1.022102       -27.8128
 100   2.0000      -1.011527       -27.5250
 101   2.0000      -1.008829       -27.4516
 102   2.0000      -1.007159       -27.4062
 103   2.0000      -1.001061       -27.2403
 104   2.0000      -0.995785       -27.0967
 105   2.0000      -0.994346       -27.0575
 106   2.0000      -0.972171       -26.4541
 107   2.0000      -0.967307       -26.3218
 108   2.0000      -0.949593       -25.8397
 109   2.0000      -0.949387       -25.8341
 110   2.0000      -0.947559       -25.7844
 111   2.0000      -0.922068       -25.0908
 112   2.0000      -0.910602       -24.7787
 113   2.0000      -0.887968       -24.1628
 114   2.0000      -0.884204       -24.0604
 115   2.0000      -0.877211       -23.8701
 116   2.0000      -0.871957       -23.7272
 117   2.0000      -0.863742       -23.5036
 118   2.0000      -0.861823       -23.4514
 119   2.0000      -0.847733       -23.0680
 120   2.0000      -0.840674       -22.8759
 121   2.0000      -0.816337       -22.2136
 122   2.0000      -0.811188       -22.0735
 123   2.0000      -0.802595       -21.8397
 124   2.0000      -0.795991       -21.6600
 125   2.0000      -0.793488       -21.5919
 126   2.0000      -0.787336       -21.4245
 127   2.0000      -0.784811       -21.3558
 128   2.0000      -0.778189       -21.1756
 129   2.0000      -0.761718       -20.7274
 130   2.0000      -0.758693       -20.6451
 131   2.0000      -0.731732       -19.9114
 132   2.0000      -0.723860       -19.6972
 133   2.0000      -0.702726       -19.1221
 134   2.0000      -0.700861       -19.0714
 135   2.0000      -0.695035       -18.9129
 136   2.0000      -0.692686       -18.8489
 137   2.0000      -0.691368       -18.8131
 138   2.0000      -0.688745       -18.7417
 139   2.0000      -0.681467       -18.5437
 140   2.0000      -0.672633       -18.3033
 141   2.0000      -0.667473       -18.1629
 142   2.0000      -0.664023       -18.0690
 143   2.0000      -0.661250       -17.9935
 144   2.0000      -0.651735       -17.7346
 145   2.0000      -0.647109       -17.6087
 146   2.0000      -0.637265       -17.3409
 147   2.0000      -0.635224       -17.2853
 148   2.0000      -0.633705       -17.2440
 149   2.0000      -0.633181       -17.2297
 150   2.0000      -0.623262       -16.9598
 151   2.0000      -0.621874       -16.9221
 152   2.0000      -0.619716       -16.8633
 153   2.0000      -0.614437       -16.7197
 154   2.0000      -0.606084       -16.4924
 155   2.0000      -0.588342       -16.0096
 156   2.0000      -0.584007       -15.8916
 157   2.0000      -0.580782       -15.8039
 158   2.0000      -0.579336       -15.7645
 159   2.0000      -0.577104       -15.7038
 160   2.0000      -0.571273       -15.5451
 161   2.0000      -0.567264       -15.4360
 162   2.0000      -0.556836       -15.1523
 163   2.0000      -0.555963       -15.1285
 164   2.0000      -0.554884       -15.0992
 165   2.0000      -0.551528       -15.0078
 166   2.0000      -0.542708       -14.7678
 167   2.0000      -0.541936       -14.7468
 168   2.0000      -0.541508       -14.7352
 169   2.0000      -0.538317       -14.6483
 170   2.0000      -0.533839       -14.5265
 171   2.0000      -0.531699       -14.4683
 172   2.0000      -0.524611       -14.2754
 173   2.0000      -0.522633       -14.2216
 174   2.0000      -0.515358       -14.0236
 175   2.0000      -0.511135       -13.9087
 176   2.0000      -0.506864       -13.7925
 177   2.0000      -0.506133       -13.7726
 178   2.0000      -0.505233       -13.7481
 179   2.0000      -0.504300       -13.7227
 180   2.0000      -0.503834       -13.7100
 181   2.0000      -0.499903       -13.6031
 182   2.0000      -0.498896       -13.5757
 183   2.0000      -0.495580       -13.4854
 184   2.0000      -0.490717       -13.3531
 185   2.0000      -0.487379       -13.2623
 186   2.0000      -0.480998       -13.0886
 187   2.0000      -0.475024       -12.9261
 188   2.0000      -0.467474       -12.7206
 189   2.0000      -0.465794       -12.6749
 190   2.0000      -0.461888       -12.5686
 191   2.0000      -0.461207       -12.5501
 192   2.0000      -0.460516       -12.5313
 193   2.0000      -0.459475       -12.5030
 194   2.0000      -0.457940       -12.4612
 195   2.0000      -0.453650       -12.3444
 196   2.0000      -0.451827       -12.2948
 197   2.0000      -0.447035       -12.1644
 198   2.0000      -0.446361       -12.1461
 199   2.0000      -0.444953       -12.1078
 200   2.0000      -0.442894       -12.0518
 201   2.0000      -0.442577       -12.0431
 202   2.0000      -0.440900       -11.9975
 203   2.0000      -0.439845       -11.9688
 204   2.0000      -0.434686       -11.8284
 205   2.0000      -0.434528       -11.8241
 206   2.0000      -0.430912       -11.7257
 207   2.0000      -0.427248       -11.6260
 208   2.0000      -0.419425       -11.4131
 209   2.0000      -0.418931       -11.3997
 210   2.0000      -0.418350       -11.3839
 211   2.0000      -0.416885       -11.3440
 212   2.0000      -0.416347       -11.3294
 213   2.0000      -0.413763       -11.2591
 214   2.0000      -0.411200       -11.1893
 215   2.0000      -0.409745       -11.1497
 216   2.0000      -0.408533       -11.1167
 217   2.0000      -0.397305       -10.8112
 218   2.0000      -0.388376       -10.5682
 219   2.0000      -0.380309       -10.3487
 220   2.0000      -0.373323       -10.1586
 221   2.0000      -0.369969       -10.0674
 222   2.0000      -0.362222        -9.8566
 223   2.0000      -0.356278        -9.6948
 224   2.0000      -0.354558        -9.6480
 225   2.0000      -0.353622        -9.6226
 226   2.0000      -0.352642        -9.5959
 227   2.0000      -0.345726        -9.4077
 228   2.0000      -0.329692        -8.9714
 229   2.0000      -0.326189        -8.8760
 230   2.0000      -0.322506        -8.7758
 231   2.0000      -0.321384        -8.7453
 232   2.0000      -0.316085        -8.6011
 233   2.0000      -0.285941        -7.7809
 234   2.0000      -0.245869        -6.6904
 235   0.0000      -0.127051        -3.4572
 236   0.0000      -0.111401        -3.0314
 237   0.0000      -0.098191        -2.6719
 238   0.0000      -0.094372        -2.5680
 239   0.0000      -0.089487        -2.4351

MULLIKEN ATOMIC CHARGES
-----------------------
   0 C :   -0.014225
   1 N :   -0.030089
   2 N :   -0.075252
   3 C :    0.035124
   4 C :   -0.041695
   5 C :   -0.014639
   6 N :    0.082828
   7 O :   -0.078841
   8 N :    0.073916
   9 C :   -0.131972
  10 C :   -0.047935
  11 C :    0.002361
  12 C :   -0.081466
  13 S :    0.261659
  14 C :   -0.093456
  15 C :    0.035043
  16 C :    0.306256
  17 C :   -0.299004
  18 C :   -0.187740
  19 N :    0.168887
  20 C :   -0.192020
  21 N :    0.185805
  22 C :   -0.085918
  23 C :   -0.071870
  24 S :    0.248635
  25 C :   -0.109424
  26 C :    0.011440
  27 C :    0.036833
  28 N :    0.071132
  29 C :   -0.114104
  30 C :    0.138519
  31 O :   -0.090113
  32 C :   -0.011439
  33 C :   -0.017609
  34 C :    0.139485
  35 O :   -0.105602
  36 C :   -0.114348
  37 N :    0.032892
  38 C :   -0.126466
  39 S :    0.222107
  40 C :   -0.087978
  41 C :   -0.059727
  42 C :    0.033574
  43 C :   -0.105073
  44 S :    0.191097
  45 C :   -0.079865
  46 C :    0.007586
  47 C :    0.305265
  48 C :   -0.293293
  49 C :   -0.195734
  50 N :    0.198096
  51 C :   -0.195173
  52 N :    0.183716
  53 C :   -0.048524
  54 C :   -0.130246
  55 S :    0.253213
  56 C :    0.039979
  57 N :   -0.078712
  58 N :   -0.030738
  59 C :   -0.011875
  60 C :   -0.012963
  61 C :   -0.041319
  62 N :    0.073472
  63 O :   -0.078476
  64 N :    0.081347
  65 H :    0.015547
  66 H :    0.025241
  67 H :    0.008284
  68 H :    0.024559
  69 H :    0.020503
  70 H :    0.030384
  71 H :    0.024400
  72 H :    0.015737
Sum of atomic charges:   -0.0000000

LOEWDIN ATOMIC CHARGES
----------------------
   0 C :    0.007549
   1 N :   -0.024942
   2 N :   -0.077534
   3 C :   -0.008847
   4 C :   -0.065119
   5 C :   -0.074020
   6 N :   -0.001048
   7 O :    0.096055
   8 N :   -0.003708
   9 C :   -0.190382
  10 C :   -0.002820
  11 C :   -0.075631
  12 C :   -0.162579
  13 S :    0.531562
  14 C :   -0.187183
  15 C :   -0.061524
  16 C :    0.079069
  17 C :   -0.101243
  18 C :   -0.015117
  19 N :   -0.035588
  20 C :   -0.021059
  21 N :   -0.023113
  22 C :   -0.029980
  23 C :   -0.178062
  24 S :    0.535797
  25 C :   -0.190983
  26 C :   -0.053955
  27 C :   -0.042132
  28 N :    0.010678
  29 C :   -0.036948
  30 C :    0.054626
  31 O :   -0.085754
  32 C :   -0.007558
  33 C :   -0.014727
  34 C :    0.055794
  35 O :   -0.101859
  36 C :   -0.036548
  37 N :   -0.011223
  38 C :   -0.190470
  39 S :    0.509371
  40 C :   -0.180194
  41 C :   -0.008515
  42 C :   -0.056184
  43 C :   -0.183520
  44 S :    0.469121
  45 C :   -0.165736
  46 C :   -0.073097
  47 C :    0.073886
  48 C :   -0.090421
  49 C :   -0.023221
  50 N :   -0.014087
  51 C :   -0.019050
  52 N :   -0.022121
  53 C :   -0.002408
  54 C :   -0.189120
  55 S :    0.523978
  56 C :   -0.008426
  57 N :   -0.078550
  58 N :   -0.025129
  59 C :    0.008039
  60 C :   -0.073591
  61 C :   -0.065200
  62 N :   -0.003305
  63 O :    0.096398
  64 N :   -0.000950
  65 H :    0.038095
  66 H :    0.044487
  67 H :    0.037050
  68 H :    0.048112
  69 H :    0.046724
  70 H :    0.044953
  71 H :    0.044850
  72 H :    0.038285

  Mayer bond orders larger than 0.100000
B(  0-C ,  1-N ) :   1.7695 B(  0-C ,  3-C ) :   0.1003 B(  0-C ,  5-C ) :   1.0863
B(  0-C , 65-H ) :   1.0171 B(  1-N ,  2-N ) :   1.1740 B(  2-N ,  3-C ) :   1.7670
B(  3-C ,  4-C ) :   1.0737 B(  3-C ,  9-C ) :   1.1665 B(  4-C ,  5-C ) :   1.1765
B(  4-C ,  8-N ) :   1.6120 B(  5-C ,  6-N ) :   1.5999 B(  6-N ,  7-O ) :   1.0858
B(  6-N ,  8-N ) :   0.1843 B(  7-O ,  8-N ) :   1.0699 B(  9-C , 10-C ) :   1.4751
B(  9-C , 13-S ) :   1.0817 B( 10-C , 11-C ) :   1.2835 B( 10-C , 66-H ) :   0.9825
B( 11-C , 12-C ) :   1.4116 B( 11-C , 16-C ) :   0.9988 B( 12-C , 13-S ) :   1.1404
B( 12-C , 14-C ) :   1.2026 B( 14-C , 15-C ) :   1.4082 B( 14-C , 24-S ) :   1.0972
B( 15-C , 16-C ) :   0.9894 B( 15-C , 22-C ) :   1.3286 B( 16-C , 17-C ) :   1.7139
B( 17-C , 18-C ) :   1.1350 B( 17-C , 20-C ) :   1.1325 B( 18-C , 19-N ) :   2.9890
B( 20-C , 21-N ) :   2.9959 B( 22-C , 23-C ) :   1.3836 B( 22-C , 67-H ) :   0.9941
B( 23-C , 24-S ) :   1.1210 B( 23-C , 25-C ) :   1.2375 B( 25-C , 26-C ) :   1.3204
B( 25-C , 38-C ) :   0.1344 B( 25-C , 39-S ) :   1.1573 B( 26-C , 27-C ) :   1.1865
B( 26-C , 37-N ) :   1.4168 B( 27-C , 28-N ) :   1.4418 B( 27-C , 38-C ) :   1.3670
B( 28-N , 29-C ) :   1.7173 B( 29-C , 30-C ) :   0.8906 B( 29-C , 36-C ) :   1.0969
B( 30-C , 31-O ) :   2.2467 B( 30-C , 32-C ) :   1.0211 B( 32-C , 33-C ) :   1.6849
B( 32-C , 68-H ) :   0.9960 B( 33-C , 34-C ) :   1.0261 B( 33-C , 69-H ) :   0.9963
B( 34-C , 35-O ) :   2.2495 B( 34-C , 36-C ) :   0.8926 B( 36-C , 37-N ) :   1.7008
B( 38-C , 39-S ) :   1.1547 B( 38-C , 40-C ) :   1.1898 B( 40-C , 41-C ) :   1.4479
B( 40-C , 44-S ) :   1.0895 B( 41-C , 42-C ) :   1.2802 B( 41-C , 70-H ) :   0.9866
B( 42-C , 43-C ) :   1.4225 B( 42-C , 47-C ) :   0.9840 B( 43-C , 44-S ) :   1.1184
B( 43-C , 45-C ) :   1.2092 B( 45-C , 46-C ) :   1.4151 B( 45-C , 55-S ) :   1.1336
B( 46-C , 47-C ) :   0.9986 B( 46-C , 53-C ) :   1.2819 B( 47-C , 48-C ) :   1.7188
B( 48-C , 49-C ) :   1.1337 B( 48-C , 51-C ) :   1.1356 B( 49-C , 50-N ) :   3.0017
B( 51-C , 52-N ) :   2.9943 B( 53-C , 54-C ) :   1.4745 B( 53-C , 71-H ) :   0.9835
B( 54-C , 55-S ) :   1.0787 B( 54-C , 56-C ) :   1.1670 B( 56-C , 57-N ) :   1.7629
B( 56-C , 59-C ) :   0.1008 B( 56-C , 61-C ) :   1.0735 B( 57-N , 58-N ) :   1.1743
B( 58-N , 59-C ) :   1.7687 B( 59-C , 60-C ) :   1.0864 B( 59-C , 72-H ) :   1.0171
B( 60-C , 61-C ) :   1.1757 B( 60-C , 64-N ) :   1.5995 B( 61-C , 62-N ) :   1.6117
B( 62-N , 63-O ) :   1.0709 B( 62-N , 64-N ) :   0.1842 B( 63-O , 64-N ) :   1.0861

-----------------------------------------------------------------------------
         ABSORPTION SPECTRUM VIA TRANSITION ELECTRIC DIPOLE MOMENTS
-----------------------------------------------------------------------------
State   Energy  Wavelength   fosc         T2         TX        TY        TZ
        (cm-1)    (nm)                  (au**2)     (au)      (au)      (au)
-----------------------------------------------------------------------------
   0   10496.2    952.7   0.864994261  27.13052   0.93707   1.06352   5.01212
   1   12975.5    770.7   0.037081319   0.94082  -0.90745  -0.16984  -0.29750
   2   14661.7    682.0   0.072600316   1.63015   0.07434  -0.19505  -1.25960
   3   17634.6    567.1   0.134998638   2.52023  -1.56139  -0.26560  -0.10835
   4   20265.4    493.5   0.054889996   0.89169  -0.49542   0.11676   0.79537
   5   20703.4    483.0   0.934149077  14.85424   1.43385   0.98268   3.43987
   6   21393.1    467.4   0.043818142   0.67430  -0.79602  -0.06652   0.19034
   7   21413.4    467.0   0.000338097   0.00520  -0.06642  -0.00885   0.02662
   8   21496.1    465.2   0.000003679   0.00006   0.00195  -0.00619   0.00377
   9   23397.6    427.4   0.050811726   0.71494   0.45002   0.26147   0.66637
  10   24677.2    405.2   0.002229297   0.02974  -0.02121   0.15459  -0.07343
  11   25774.6    388.0   0.000192774   0.00246  -0.04817  -0.00837  -0.00850
  12   25933.5    385.6   0.028285078   0.35906  -0.59407  -0.06525  -0.04338
  13   26701.0    374.5   0.002183049   0.02692   0.03287   0.10210  -0.12414
  14   27559.4    362.9   0.324335196   3.87435  -0.30040   0.19111   1.93587
  15   28257.0    353.9   0.013616761   0.15864   0.13272   0.00802  -0.37545
  16   28614.8    349.5   0.096138569   1.10607  -0.56172  -0.18533  -0.86959
  17   28786.0    347.4   0.077160511   0.88245  -0.75238  -0.40592  -0.38937
  18   29654.0    337.2   0.398504040   4.42410  -1.69518  -0.40772   1.17653
  19   29954.5    333.8   0.000395422   0.00435   0.01489  -0.06248   0.01486
  20   30124.7    332.0   0.000541130   0.00591   0.04666  -0.06019   0.01065
  21   30147.0    331.7   0.002209748   0.02413  -0.04175   0.02837  -0.14691
  22   30603.7    326.8   0.352611937   3.79314  -0.57229  -0.47350  -1.80040
  23   30643.4    326.3   0.005570106   0.05984  -0.12050  -0.10057  -0.18764
  24   31599.8    316.5   0.000544427   0.00567   0.02223  -0.03571  -0.06247
  25   31983.9    312.7   0.285612746   2.93983   1.26918   0.46998   1.05268
  26   32290.4    309.7   0.229527277   2.34011  -1.11925  -0.55772  -0.88110
  27   33036.1    302.7   0.307420646   3.06351  -1.63157  -0.24715   0.58343
  28   33204.3    301.2   0.192819209   1.91175   0.97050   0.28475  -0.94277
  29   33612.1    297.5   0.005038710   0.04935  -0.06521   0.01622  -0.21174
  30   33695.4    296.8   0.019136694   0.18697  -0.17007   0.13976  -0.37218
  31   34526.2    289.6   0.071896989   0.68555  -0.66512  -0.05325   0.49023
  32   34651.1    288.6   0.033658244   0.31978  -0.43176   0.05128   0.36157
  33   34714.4    288.1   0.011759004   0.11152   0.09532  -0.05470   0.31534
  34   34884.1    286.7   0.074908659   0.70694  -0.74888  -0.29551   0.24244
  35   35002.7    285.7   0.111092663   1.04486  -0.89829  -0.33895  -0.35077
  36   35267.9    283.5   0.330134438   3.08167  -1.66774  -0.35996   0.41322
  37   35443.4    282.1   0.000134804   0.00125   0.01579  -0.03135   0.00450
  38   35517.9    281.5   0.166185095   1.54035   1.16907   0.27754  -0.31081
  39   35832.7    279.1   0.004221170   0.03878   0.17721  -0.08178   0.02626
  40   35955.4    278.1   0.087587650   0.80196   0.85505   0.25952  -0.05919
  41   36144.3    276.7   0.000222379   0.00203  -0.01145  -0.04352  -0.00060
  42   36285.5    275.6   0.027164462   0.24646  -0.26215  -0.03294   0.42030
  43   36776.6    271.9   0.010702649   0.09581   0.27897  -0.02652  -0.13146
  44   36852.1    271.4   0.037821540   0.33787  -0.50329  -0.11218   0.26830
  45   37057.6    269.9   0.029244657   0.25980   0.38219   0.15832   0.29777
  46   37743.0    264.9   0.021067187   0.18376   0.21651  -0.02377  -0.36921
  47   37888.4    263.9   0.016943388   0.14722  -0.33206  -0.11877  -0.15117
  48   38051.4    262.8   0.008391614   0.07260  -0.24173  -0.02469   0.11643
  49   38500.7    259.7   0.007568110   0.06471   0.09585  -0.23403   0.02746
  50   38654.5    258.7   0.189709435   1.61572  -0.85300  -0.42051  -0.84337
  51   38873.7    257.2   0.035193664   0.29805   0.27915   0.16515   0.43914
  52   38957.9    256.7   0.000663448   0.00561  -0.07324  -0.00860  -0.01297
  53   39006.0    256.4   0.002798336   0.02362   0.05931  -0.14133   0.01119
  54   39061.6    256.0   0.009893746   0.08338   0.20893   0.00479  -0.19928
  55   39121.9    255.6   0.003322152   0.02796  -0.16319  -0.03359   0.01406
  56   39308.9    254.4   0.001055314   0.00884   0.07568   0.02335   0.05065
  57   39481.8    253.3   0.143409605   1.19580  -0.75152  -0.32676  -0.72405
  58   39589.1    252.6   0.004698475   0.03907  -0.05184   0.18507  -0.04619
  59   40017.5    249.9   0.005320166   0.04377   0.12652   0.04500  -0.16043
  60   40131.1    249.2   0.062572306   0.51331  -0.69790  -0.10224   0.12565
  61   40221.3    248.6   0.000640471   0.00524  -0.03795   0.06099   0.00902

FINAL SINGLE POINT ENERGY     -4659.344422238593

DIPOLE MOMENT
-------------
                                X             Y             Z
Electronic contribution:     -7.17097      -1.70398       1.27137
Nuclear contribution   :      7.77441       1.67405      -0.97865
                        -----------------------------------------
Total Dipole Moment    :      0.60344      -0.02994       0.29271
                        -----------------------------------------
Magnitude (a.u.)       :      0.67136
Magnitude (Debye)      :      1.70645

Rotational constants in cm-1:     0.002219     0.000325     0.000284
Rotational constants in MHz :    66.523550     9.754124     8.528076

                             ****ORCA TERMINATED NORMALLY****
TOTAL RUN TIME: 0 days 0 hours 6 minutes 43 seconds 668 msec
