                         Program Version 4.2.0 -  RELEASE  -
|  1> # ORCA input file
|  2> # SCF done       -224.490134559491          0.000594778061
|  3> ! CAM-B3LYP def2-SVP def2/J RIJCOSX Grid4 TightSCF
|  4> %maxcore 5000
|  5> %tddft
|  6>     Mode sTDDFT
|  7>     Ethresh 5.0
|  8>     maxcore 5000
|  9> end
| 10>
| 11> %pal
| 12>   nprocs 6
| 13>   end
| 14> * xyz 0 1
| 15>    C        3.86338         7.86962         8.74466
| 16>    C        3.49962         8.76069         9.75531
| 17>    N        3.20993         9.48929        10.59317
| 18>    C        3.04403         6.96936         8.09811
| 19>    F        1.74357         6.82601         8.35937
| 20>    C        3.72793         6.21548         7.13372
| 21>    F        3.14711         5.27211         6.38271
| 22>    C        5.06987         6.53125         7.03694
| 23>    S        5.49674         7.79382         8.14644
| 24>    C        5.97327         5.92505         6.17249
| 25>    C        6.73097         5.33886         5.43139
| 26>    C        7.55127         4.70128         4.48102
| 27>    C        8.95563         4.73753         4.57153
| 28>    C        9.64309         5.32095         5.74096
| 29>    O       10.69398         5.92151         5.65915
| 30>    C        8.95812         5.07413         7.03709
| 31>    C        8.52012         3.84738         7.44209
| 32>    S        7.76599         3.89426         8.97995
| 33>    C        7.99475         5.59646         9.07343
| 34>    C        8.66211         6.08855         7.99743
| 35>    C        8.90795         7.53348         7.72454
| 36>    O        7.97660         8.27038         7.46098
| 37>    C       10.30759         7.97773         7.76024
| 38>    C       11.31048         7.18382         8.31703
| 39>    C       12.61548         7.63363         8.33120
| 40>    C       12.93268         8.86957         7.78849
| 41>    C       11.94031         9.66576         7.23776
| 42>    C       10.63223         9.22586         7.22693
| 43>    C        9.71172         4.22029         3.52324
| 44>    C        9.10472         3.62102         2.43998
| 45>    C        7.71166         3.52924         2.36394
| 46>    C        6.94892         4.08786         3.38515
| 47>    C        7.05704         2.87425         1.22740
| 48>    C        7.49883         3.08545        -0.05139
| 49>    C        6.83374         2.47712        -1.13966
| 50>    C        7.05124         2.55227        -2.50721
| 51>    C        8.14510         3.30936        -3.18975
| 52>    C        9.23812         2.32697        -3.64834
| 53>    N       10.29456         3.02619        -4.36854
| 54>    C        7.64549         4.20844        -4.34471
| 55>    N        7.64698         3.52990        -5.63255
| 56>    C        6.04629         1.73215        -3.13268
| 57>    C        5.79005         1.47940        -4.43342
| 58>    C        4.62557         0.64904        -4.83087
| 59>    C        3.91044        -0.02331        -3.71052
| 60>    C        4.17515         0.24745        -2.41730
| 61>    C        5.21751         1.13904        -2.07703
| 62>    C        5.69960         1.60607        -0.86796
| 63>    C        5.28343         1.39454         0.46416
| 64>    C        5.93796         2.02032         1.47648
| 65>    C        4.96098        -0.25310        -5.98366
| 66>    C        5.13901        -1.56765        -5.89074
| 67>    C        5.37881        -2.41442        -7.05520
| 68>    C        4.70403        -2.17800        -8.26552
| 69>    C        3.59941        -1.18648        -8.35744
| 70>    O        3.52464        -0.35012        -9.23339
| 71>    C        2.54407        -1.33866        -7.33451
| 72>    C        2.21785        -2.49988        -6.69061
| 73>    S        0.91822        -2.29853        -5.59819
| 74>    C        0.80308        -0.62304        -5.99136
| 75>    C        1.70388        -0.25362        -6.93517
| 76>    C        1.89637         1.13745        -7.45057
| 77>    O        2.61635         1.91581        -6.85894
| 78>    C        1.17007         1.48130        -8.68267
| 79>    C        0.29711         0.58653        -9.30097
| 80>    C       -0.35634         0.95222       -10.46142
| 81>    C       -0.14670         2.20627       -11.01490
| 82>    C        0.72004         3.10072       -10.40602
| 83>    C        1.37562         2.74161        -9.24588
| 84>    C        5.02782        -2.91265        -9.40299
| 85>    C        5.96896        -3.91778        -9.34738
| 86>    C        6.60795        -4.19788        -8.13401
| 87>    C        6.31128        -3.44252        -6.99948
| 88>    C        7.56066        -5.22910        -8.06131
| 89>    C        8.38875        -6.10974        -7.99041
| 90>    C        9.34020        -7.11694        -7.90011
| 91>    C       10.07863        -7.46833        -6.78747
| 92>    C       10.96750        -8.53136        -7.01955
| 93>    C       10.91738        -9.00509        -8.31417
| 94>    S        9.75499        -8.12195        -9.25564
| 95>    C       11.66557       -10.04682        -8.86663
| 96>    N       12.27841       -10.89975        -9.32749
| 97>    F       11.77496        -9.02949        -6.08628
| 98>    F        9.95671        -6.85396        -5.60801
| 99>    H        8.61976         2.91330         6.92520
|100>    H        7.64488         6.13733         9.93024
|101>    H       11.06428         6.22126         8.73994
|102>    H       13.39193         7.01812         8.76052
|103>    H       13.95714         9.21188         7.79365
|104>    H       12.19065        10.62743         6.81519
|105>    H        9.84263         9.82616         6.80007
|106>    H       10.78798         4.27848         3.59365
|107>    H        9.70777         3.19592         1.65182
|108>    H        5.87086         4.07888         3.32121
|109>    H        8.32997         3.75220        -0.23366
|110>    H        8.59431         3.97769        -2.44626
|111>    H        8.79931         1.59107        -4.32569
|112>    H        9.60289         1.78851        -2.75723
|113>    H       10.73291         3.71282        -3.76212
|114>    H       11.01323         2.37030        -4.65651
|115>    H        8.27320         5.11346        -4.36148
|116>    H        6.61950         4.51881        -4.12491
|117>    H        8.60968         3.31520        -5.87696
|118>    H        7.27758         4.15409        -6.34248
|119>    H        6.39252         1.92410        -5.21648
|120>    H        3.90844         1.37829        -5.26465
|121>    H        3.11965        -0.70456        -3.98829
|122>    H        3.60654        -0.22258        -1.62721
|123>    H        4.44508         0.74350         0.66542
|124>    H        5.63623         1.86218         2.50160
|125>    H        5.06303         0.24237        -6.94011
|126>    H        5.13218        -2.05439        -4.92431
|127>    H        2.66607        -3.46607        -6.81377
|128>    H        0.06914        -0.01249        -5.50432
|129>    H        0.13316        -0.39233        -8.87513
|130>    H       -1.03062         0.25791       -10.94069
|131>    H       -0.65887         2.48496       -11.92402
|132>    H        0.88332         4.07591       -10.83989
|133>    H        2.05839         3.41936        -8.75580
|134>    H        4.51334        -2.69354       -10.32685
|135>    H        6.21403        -4.49463       -10.22595
|136>    H        6.82938        -3.64743        -6.07418
|137> *
|138>
|139>                          ****END OF INPUT****

CARTESIAN COORDINATES (ANGSTROEM)
---------------------------------
  C      3.863380    7.869620    8.744660
  C      3.499620    8.760690    9.755310
  N      3.209930    9.489290   10.593170
  C      3.044030    6.969360    8.098110
  F      1.743570    6.826010    8.359370
  C      3.727930    6.215480    7.133720
  F      3.147110    5.272110    6.382710
  C      5.069870    6.531250    7.036940
  S      5.496740    7.793820    8.146440
  C      5.973270    5.925050    6.172490
  C      6.730970    5.338860    5.431390
  C      7.551270    4.701280    4.481020
  C      8.955630    4.737530    4.571530
  C      9.643090    5.320950    5.740960
  O     10.693980    5.921510    5.659150
  C      8.958120    5.074130    7.037090
  C      8.520120    3.847380    7.442090
  S      7.765990    3.894260    8.979950
  C      7.994750    5.596460    9.073430
  C      8.662110    6.088550    7.997430
  C      8.907950    7.533480    7.724540
  O      7.976600    8.270380    7.460980
  C     10.307590    7.977730    7.760240
  C     11.310480    7.183820    8.317030
  C     12.615480    7.633630    8.331200
  C     12.932680    8.869570    7.788490
  C     11.940310    9.665760    7.237760
  C     10.632230    9.225860    7.226930
  C      9.711720    4.220290    3.523240
  C      9.104720    3.621020    2.439980
  C      7.711660    3.529240    2.363940
  C      6.948920    4.087860    3.385150
  C      7.057040    2.874250    1.227400
  C      7.498830    3.085450   -0.051390
  C      6.833740    2.477120   -1.139660
  C      7.051240    2.552270   -2.507210
  C      8.145100    3.309360   -3.189750
  C      9.238120    2.326970   -3.648340
  N     10.294560    3.026190   -4.368540
  C      7.645490    4.208440   -4.344710
  N      7.646980    3.529900   -5.632550
  C      6.046290    1.732150   -3.132680
  C      5.790050    1.479400   -4.433420
  C      4.625570    0.649040   -4.830870
  C      3.910440   -0.023310   -3.710520
  C      4.175150    0.247450   -2.417300
  C      5.217510    1.139040   -2.077030
  C      5.699600    1.606070   -0.867960
  C      5.283430    1.394540    0.464160
  C      5.937960    2.020320    1.476480
  C      4.960980   -0.253100   -5.983660
  C      5.139010   -1.567650   -5.890740
  C      5.378810   -2.414420   -7.055200
  C      4.704030   -2.178000   -8.265520
  C      3.599410   -1.186480   -8.357440
  O      3.524640   -0.350120   -9.233390
  C      2.544070   -1.338660   -7.334510
  C      2.217850   -2.499880   -6.690610
  S      0.918220   -2.298530   -5.598190
  C      0.803080   -0.623040   -5.991360
  C      1.703880   -0.253620   -6.935170
  C      1.896370    1.137450   -7.450570
  O      2.616350    1.915810   -6.858940
  C      1.170070    1.481300   -8.682670
  C      0.297110    0.586530   -9.300970
  C     -0.356340    0.952220  -10.461420
  C     -0.146700    2.206270  -11.014900
  C      0.720040    3.100720  -10.406020
  C      1.375620    2.741610   -9.245880
  C      5.027820   -2.912650   -9.402990
  C      5.968960   -3.917780   -9.347380
  C      6.607950   -4.197880   -8.134010
  C      6.311280   -3.442520   -6.999480
  C      7.560660   -5.229100   -8.061310
  C      8.388750   -6.109740   -7.990410
  C      9.340200   -7.116940   -7.900110
  C     10.078630   -7.468330   -6.787470
  C     10.967500   -8.531360   -7.019550
  C     10.917380   -9.005090   -8.314170
  S      9.754990   -8.121950   -9.255640
  C     11.665570  -10.046820   -8.866630
  N     12.278410  -10.899750   -9.327490
  F     11.774960   -9.029490   -6.086280
  F      9.956710   -6.853960   -5.608010
  H      8.619760    2.913300    6.925200
  H      7.644880    6.137330    9.930240
  H     11.064280    6.221260    8.739940
  H     13.391930    7.018120    8.760520
  H     13.957140    9.211880    7.793650
  H     12.190650   10.627430    6.815190
  H      9.842630    9.826160    6.800070
  H     10.787980    4.278480    3.593650
  H      9.707770    3.195920    1.651820
  H      5.870860    4.078880    3.321210
  H      8.329970    3.752200   -0.233660
  H      8.594310    3.977690   -2.446260
  H      8.799310    1.591070   -4.325690
  H      9.602890    1.788510   -2.757230
  H     10.732910    3.712820   -3.762120
  H     11.013230    2.370300   -4.656510
  H      8.273200    5.113460   -4.361480
  H      6.619500    4.518810   -4.124910
  H      8.609680    3.315200   -5.876960
  H      7.277580    4.154090   -6.342480
  H      6.392520    1.924100   -5.216480
  H      3.908440    1.378290   -5.264650
  H      3.119650   -0.704560   -3.988290
  H      3.606540   -0.222580   -1.627210
  H      4.445080    0.743500    0.665420
  H      5.636230    1.862180    2.501600
  H      5.063030    0.242370   -6.940110
  H      5.132180   -2.054390   -4.924310
  H      2.666070   -3.466070   -6.813770
  H      0.069140   -0.012490   -5.504320
  H      0.133160   -0.392330   -8.875130
  H     -1.030620    0.257910  -10.940690
  H     -0.658870    2.484960  -11.924020
  H      0.883320    4.075910  -10.839890
  H      2.058390    3.419360   -8.755800
  H      4.513340   -2.693540  -10.326850
  H      6.214030   -4.494630  -10.225950
  H      6.829380   -3.647430   -6.074180

 Total Charge           Charge          ....    0
 Multiplicity           Mult            ....    1
 Number of Electrons    NEL             ....  606
 Basis Dimension        Dim             .... 1382

ORBITAL ENERGIES
----------------

  NO   OCC          E(Eh)            E(eV)
   0   2.0000     -89.000860     -2421.8365
   1   2.0000     -88.978351     -2421.2240
   2   2.0000     -88.976307     -2421.1684
   3   2.0000     -88.966641     -2420.9054
   4   2.0000     -24.819792      -675.3809
   5   2.0000     -24.814629      -675.2404
   6   2.0000     -24.799993      -674.8421
   7   2.0000     -24.795909      -674.7310
   8   2.0000     -19.220024      -523.0034
   9   2.0000     -19.219871      -522.9993
  10   2.0000     -19.214546      -522.8544
  11   2.0000     -19.210316      -522.7393
  12   2.0000     -14.421391      -392.4260
  13   2.0000     -14.402786      -391.9197
  14   2.0000     -14.388422      -391.5289
  15   2.0000     -14.373278      -391.1168
  16   2.0000     -10.402845      -283.0758
  17   2.0000     -10.394391      -282.8458
  18   2.0000     -10.380292      -282.4621
  19   2.0000     -10.374245      -282.2976
  20   2.0000     -10.373223      -282.2697
  21   2.0000     -10.372140      -282.2403
  22   2.0000     -10.364396      -282.0295
  23   2.0000     -10.364070      -282.0207
  24   2.0000     -10.354450      -281.7589
  25   2.0000     -10.354209      -281.7523
  26   2.0000     -10.331923      -281.1459
  27   2.0000     -10.327368      -281.0220
  28   2.0000     -10.324642      -280.9478
  29   2.0000     -10.316761      -280.7333
  30   2.0000     -10.316249      -280.7194
  31   2.0000     -10.312784      -280.6251
  32   2.0000     -10.306572      -280.4561
  33   2.0000     -10.306489      -280.4538
  34   2.0000     -10.305095      -280.4159
  35   2.0000     -10.303662      -280.3769
  36   2.0000     -10.303419      -280.3703
  37   2.0000     -10.302337      -280.3408
  38   2.0000     -10.300932      -280.3026
  39   2.0000     -10.295525      -280.1555
  40   2.0000     -10.295244      -280.1478
  41   2.0000     -10.295157      -280.1455
  42   2.0000     -10.295049      -280.1425
  43   2.0000     -10.294946      -280.1397
  44   2.0000     -10.294138      -280.1177
  45   2.0000     -10.287052      -279.9249
  46   2.0000     -10.286593      -279.9124
  47   2.0000     -10.286261      -279.9034
  48   2.0000     -10.284283      -279.8496
  49   2.0000     -10.283956      -279.8407
  50   2.0000     -10.282042      -279.7886
  51   2.0000     -10.281953      -279.7862
  52   2.0000     -10.281778      -279.7814
  53   2.0000     -10.281009      -279.7605
  54   2.0000     -10.280413      -279.7443
  55   2.0000     -10.279943      -279.7315
  56   2.0000     -10.279827      -279.7283
  57   2.0000     -10.279155      -279.7100
  58   2.0000     -10.277584      -279.6673
  59   2.0000     -10.276846      -279.6472
  60   2.0000     -10.276613      -279.6409
  61   2.0000     -10.275717      -279.6165
  62   2.0000     -10.275656      -279.6148
  63   2.0000     -10.275357      -279.6067
  64   2.0000     -10.274898      -279.5942
  65   2.0000     -10.274108      -279.5727
  66   2.0000     -10.272683      -279.5339
  67   2.0000     -10.272610      -279.5319
  68   2.0000     -10.269619      -279.4505
  69   2.0000     -10.269455      -279.4461
  70   2.0000     -10.269064      -279.4354
  71   2.0000     -10.266518      -279.3661
  72   2.0000     -10.266439      -279.3640
  73   2.0000     -10.262712      -279.2626
  74   2.0000     -10.261263      -279.2232
  75   2.0000     -10.261002      -279.2161
  76   2.0000     -10.260693      -279.2077
  77   2.0000     -10.258681      -279.1529
  78   2.0000     -10.256737      -279.1000
  79   2.0000     -10.254570      -279.0410
  80   2.0000     -10.250865      -278.9402
  81   2.0000     -10.249985      -278.9163
  82   2.0000     -10.247644      -278.8526
  83   2.0000     -10.245821      -278.8030
  84   2.0000      -8.096001      -220.3034
  85   2.0000      -8.073954      -219.7035
  86   2.0000      -8.069667      -219.5868
  87   2.0000      -8.062743      -219.3984
  88   2.0000      -6.065543      -165.0518
  89   2.0000      -6.061486      -164.9414
  90   2.0000      -6.057371      -164.8295
  91   2.0000      -6.043162      -164.4428
  92   2.0000      -6.039344      -164.3389
  93   2.0000      -6.038755      -164.3229
  94   2.0000      -6.036506      -164.2617
  95   2.0000      -6.034996      -164.2206
  96   2.0000      -6.031973      -164.1383
  97   2.0000      -6.031088      -164.1143
  98   2.0000      -6.027518      -164.0171
  99   2.0000      -6.025218      -163.9545
 100   2.0000      -1.338336       -36.4180
 101   2.0000      -1.325099       -36.0578
 102   2.0000      -1.317768       -35.8583
 103   2.0000      -1.305240       -35.5174
 104   2.0000      -1.139169       -30.9984
 105   2.0000      -1.133130       -30.8340
 106   2.0000      -1.130559       -30.7641
 107   2.0000      -1.125763       -30.6336
 108   2.0000      -1.032674       -28.1005
 109   2.0000      -1.009813       -27.4784
 110   2.0000      -1.001770       -27.2595
 111   2.0000      -0.999933       -27.2096
 112   2.0000      -0.992313       -27.0022
 113   2.0000      -0.983905       -26.7734
 114   2.0000      -0.981014       -26.6947
 115   2.0000      -0.977878       -26.6094
 116   2.0000      -0.972294       -26.4575
 117   2.0000      -0.963623       -26.2215
 118   2.0000      -0.955181       -25.9918
 119   2.0000      -0.947498       -25.7827
 120   2.0000      -0.944767       -25.7084
 121   2.0000      -0.934828       -25.4380
 122   2.0000      -0.920238       -25.0409
 123   2.0000      -0.908629       -24.7251
 124   2.0000      -0.897952       -24.4345
 125   2.0000      -0.889942       -24.2166
 126   2.0000      -0.879546       -23.9337
 127   2.0000      -0.874340       -23.7920
 128   2.0000      -0.873919       -23.7805
 129   2.0000      -0.868982       -23.6462
 130   2.0000      -0.866218       -23.5710
 131   2.0000      -0.861785       -23.4504
 132   2.0000      -0.857854       -23.3434
 133   2.0000      -0.856780       -23.3142
 134   2.0000      -0.846530       -23.0353
 135   2.0000      -0.843034       -22.9401
 136   2.0000      -0.841100       -22.8875
 137   2.0000      -0.836536       -22.7633
 138   2.0000      -0.833186       -22.6721
 139   2.0000      -0.831313       -22.6212
 140   2.0000      -0.828076       -22.5331
 141   2.0000      -0.826620       -22.4935
 142   2.0000      -0.823305       -22.4033
 143   2.0000      -0.820337       -22.3225
 144   2.0000      -0.813129       -22.1264
 145   2.0000      -0.785464       -21.3736
 146   2.0000      -0.775374       -21.0990
 147   2.0000      -0.753809       -20.5122
 148   2.0000      -0.750008       -20.4087
 149   2.0000      -0.745617       -20.2893
 150   2.0000      -0.740699       -20.1555
 151   2.0000      -0.736514       -20.0416
 152   2.0000      -0.730409       -19.8754
 153   2.0000      -0.728533       -19.8244
 154   2.0000      -0.717046       -19.5118
 155   2.0000      -0.716210       -19.4891
 156   2.0000      -0.713333       -19.4108
 157   2.0000      -0.701987       -19.1020
 158   2.0000      -0.698314       -19.0021
 159   2.0000      -0.694449       -18.8969
 160   2.0000      -0.691467       -18.8158
 161   2.0000      -0.689424       -18.7602
 162   2.0000      -0.688063       -18.7231
 163   2.0000      -0.682280       -18.5658
 164   2.0000      -0.678516       -18.4634
 165   2.0000      -0.674792       -18.3620
 166   2.0000      -0.668125       -18.1806
 167   2.0000      -0.667607       -18.1665
 168   2.0000      -0.663652       -18.0589
 169   2.0000      -0.656077       -17.8528
 170   2.0000      -0.654835       -17.8190
 171   2.0000      -0.652245       -17.7485
 172   2.0000      -0.645166       -17.5559
 173   2.0000      -0.638402       -17.3718
 174   2.0000      -0.630576       -17.1588
 175   2.0000      -0.627943       -17.0872
 176   2.0000      -0.624858       -17.0033
 177   2.0000      -0.621865       -16.9218
 178   2.0000      -0.618100       -16.8194
 179   2.0000      -0.616872       -16.7859
 180   2.0000      -0.612426       -16.6649
 181   2.0000      -0.606950       -16.5160
 182   2.0000      -0.604245       -16.4424
 183   2.0000      -0.599895       -16.3240
 184   2.0000      -0.590023       -16.0553
 185   2.0000      -0.585623       -15.9356
 186   2.0000      -0.584258       -15.8985
 187   2.0000      -0.581187       -15.8149
 188   2.0000      -0.579608       -15.7719
 189   2.0000      -0.575981       -15.6733
 190   2.0000      -0.574509       -15.6332
 191   2.0000      -0.573785       -15.6135
 192   2.0000      -0.570236       -15.5169
 193   2.0000      -0.565429       -15.3861
 194   2.0000      -0.560167       -15.2429
 195   2.0000      -0.559155       -15.2154
 196   2.0000      -0.556679       -15.1480
 197   2.0000      -0.554920       -15.1001
 198   2.0000      -0.550158       -14.9706
 199   2.0000      -0.547175       -14.8894
 200   2.0000      -0.546257       -14.8644
 201   2.0000      -0.543324       -14.7846
 202   2.0000      -0.540085       -14.6965
 203   2.0000      -0.538712       -14.6591
 204   2.0000      -0.537620       -14.6294
 205   2.0000      -0.534786       -14.5523
 206   2.0000      -0.532172       -14.4811
 207   2.0000      -0.528117       -14.3708
 208   2.0000      -0.525007       -14.2862
 209   2.0000      -0.524491       -14.2721
 210   2.0000      -0.523189       -14.2367
 211   2.0000      -0.519698       -14.1417
 212   2.0000      -0.517276       -14.0758
 213   2.0000      -0.515960       -14.0400
 214   2.0000      -0.514433       -13.9984
 215   2.0000      -0.513922       -13.9845
 216   2.0000      -0.511810       -13.9271
 217   2.0000      -0.509423       -13.8621
 218   2.0000      -0.508804       -13.8453
 219   2.0000      -0.506878       -13.7928
 220   2.0000      -0.505448       -13.7539
 221   2.0000      -0.504558       -13.7297
 222   2.0000      -0.504165       -13.7190
 223   2.0000      -0.503021       -13.6879
 224   2.0000      -0.501177       -13.6377
 225   2.0000      -0.498759       -13.5719
 226   2.0000      -0.497998       -13.5512
 227   2.0000      -0.492293       -13.3960
 228   2.0000      -0.490795       -13.3552
 229   2.0000      -0.489422       -13.3179
 230   2.0000      -0.488720       -13.2987
 231   2.0000      -0.487619       -13.2688
 232   2.0000      -0.485206       -13.2031
 233   2.0000      -0.482931       -13.1412
 234   2.0000      -0.479645       -13.0518
 235   2.0000      -0.478533       -13.0215
 236   2.0000      -0.476431       -12.9643
 237   2.0000      -0.474827       -12.9207
 238   2.0000      -0.473995       -12.8981
 239   2.0000      -0.472109       -12.8467
 240   2.0000      -0.470399       -12.8002
 241   2.0000      -0.468561       -12.7502
 242   2.0000      -0.465017       -12.6537
 243   2.0000      -0.462675       -12.5900
 244   2.0000      -0.459559       -12.5052
 245   2.0000      -0.457788       -12.4570
 246   2.0000      -0.455125       -12.3846
 247   2.0000      -0.450203       -12.2506
 248   2.0000      -0.449217       -12.2238
 249   2.0000      -0.448755       -12.2112
 250   2.0000      -0.446020       -12.1368
 251   2.0000      -0.442839       -12.0503
 252   2.0000      -0.441164       -12.0047
 253   2.0000      -0.439984       -11.9726
 254   2.0000      -0.439131       -11.9494
 255   2.0000      -0.437138       -11.8951
 256   2.0000      -0.434318       -11.8184
 257   2.0000      -0.433577       -11.7982
 258   2.0000      -0.431793       -11.7497
 259   2.0000      -0.430570       -11.7164
 260   2.0000      -0.428666       -11.6646
 261   2.0000      -0.423952       -11.5363
 262   2.0000      -0.422892       -11.5075
 263   2.0000      -0.421935       -11.4814
 264   2.0000      -0.420731       -11.4487
 265   2.0000      -0.413984       -11.2651
 266   2.0000      -0.411202       -11.1894
 267   2.0000      -0.409289       -11.1373
 268   2.0000      -0.403086       -10.9685
 269   2.0000      -0.401617       -10.9285
 270   2.0000      -0.400502       -10.8982
 271   2.0000      -0.388172       -10.5627
 272   2.0000      -0.385347       -10.4858
 273   2.0000      -0.381969       -10.3939
 274   2.0000      -0.374300       -10.1852
 275   2.0000      -0.372633       -10.1399
 276   2.0000      -0.365260        -9.9392
 277   2.0000      -0.356029        -9.6880
 278   2.0000      -0.355161        -9.6644
 279   2.0000      -0.347714        -9.4618
 280   2.0000      -0.345773        -9.4090
 281   2.0000      -0.345092        -9.3904
 282   2.0000      -0.343071        -9.3354
 283   2.0000      -0.339851        -9.2478
 284   2.0000      -0.335879        -9.1397
 285   2.0000      -0.333642        -9.0789
 286   2.0000      -0.331502        -9.0206
 287   2.0000      -0.328215        -8.9312
 288   2.0000      -0.326190        -8.8761
 289   2.0000      -0.325878        -8.8676
 290   2.0000      -0.321445        -8.7470
 291   2.0000      -0.319350        -8.6899
 292   2.0000      -0.318449        -8.6654
 293   2.0000      -0.315444        -8.5837
 294   2.0000      -0.313298        -8.5253
 295   2.0000      -0.312214        -8.4958
 296   2.0000      -0.309062        -8.4100
 297   2.0000      -0.303773        -8.2661
 298   2.0000      -0.296443        -8.0666
 299   2.0000      -0.291804        -7.9404
 300   2.0000      -0.282257        -7.6806
 301   2.0000      -0.274513        -7.4699
 302   2.0000      -0.212143        -5.7727
 303   0.0000      -0.069403        -1.8885
 304   0.0000      -0.056623        -1.5408
 305   0.0000      -0.047806        -1.3009
 306   0.0000      -0.033298        -0.9061
 307   0.0000      -0.026206        -0.7131

MULLIKEN ATOMIC CHARGES
-----------------------
   0 C :   -0.335534
   1 C :   -0.139898
   2 N :    0.131612
   3 C :    0.280662
   4 F :   -0.153285
   5 C :    0.212347
   6 F :   -0.162491
   7 C :   -0.223831
   8 S :    0.271735
   9 C :    0.071782
  10 C :   -0.017640
  11 C :    0.032180
  12 C :    0.011363
  13 C :    0.115709
  14 O :   -0.160515
  15 C :   -0.001781
  16 C :   -0.106129
  17 S :    0.137977
  18 C :   -0.120281
  19 C :   -0.028820
  20 C :    0.147305
  21 O :   -0.189772
  22 C :    0.012457
  23 C :    0.049767
  24 C :    0.022367
  25 C :    0.038339
  26 C :    0.027324
  27 C :    0.006138
  28 C :   -0.008784
  29 C :   -0.002003
  30 C :    0.092303
  31 C :   -0.065905
  32 C :    0.079260
  33 C :   -0.090306
  34 C :    0.051786
  35 C :   -0.042854
  36 C :   -0.046287
  37 C :    0.126201
  38 N :   -0.223254
  39 C :    0.149743
  40 N :   -0.218194
  41 C :    0.042784
  42 C :   -0.072818
  43 C :    0.164298
  44 C :   -0.058297
  45 C :    0.010124
  46 C :    0.025409
  47 C :    0.029631
  48 C :   -0.004787
  49 C :   -0.018001
  50 C :   -0.081018
  51 C :   -0.007541
  52 C :    0.115857
  53 C :   -0.036245
  54 C :    0.071994
  55 O :   -0.171415
  56 C :    0.074325
  57 C :   -0.115088
  58 S :    0.137388
  59 C :   -0.118027
  60 C :   -0.051906
  61 C :    0.159705
  62 O :   -0.177607
  63 C :    0.025793
  64 C :    0.031174
  65 C :    0.021614
  66 C :    0.038489
  67 C :    0.028835
  68 C :    0.001428
  69 C :    0.018199
  70 C :    0.017929
  71 C :   -0.001703
  72 C :   -0.050816
  73 C :    0.005016
  74 C :    0.041097
  75 C :   -0.205418
  76 C :    0.217863
  77 C :    0.287891
  78 C :   -0.341189
  79 S :    0.259135
  80 C :   -0.137501
  81 N :    0.145637
  82 F :   -0.143654
  83 F :   -0.154719
  84 H :    0.034142
  85 H :    0.029592
  86 H :   -0.004859
  87 H :   -0.015769
  88 H :   -0.009839
  89 H :   -0.012643
  90 H :   -0.002923
  91 H :   -0.004535
  92 H :   -0.017045
  93 H :   -0.009931
  94 H :   -0.044671
  95 H :   -0.030388
  96 H :    0.001502
  97 H :   -0.005865
  98 H :    0.094448
  99 H :    0.097545
 100 H :   -0.018456
 101 H :    0.007001
 102 H :    0.102310
 103 H :    0.097175
 104 H :   -0.020367
 105 H :    0.079392
 106 H :   -0.027280
 107 H :   -0.045839
 108 H :   -0.040417
 109 H :   -0.030844
 110 H :    0.031571
 111 H :    0.008215
 112 H :    0.040341
 113 H :    0.031865
 114 H :   -0.004990
 115 H :   -0.013888
 116 H :   -0.008300
 117 H :   -0.010609
 118 H :   -0.002273
 119 H :   -0.003648
 120 H :   -0.009928
 121 H :   -0.014448
Sum of atomic charges:   -0.0000000

LOEWDIN ATOMIC CHARGES
----------------------
   0 C :   -0.265124
   1 C :   -0.053761
   2 N :   -0.045536
   3 C :    0.049412
   4 F :   -0.036928
   5 C :    0.034374
   6 F :   -0.044703
   7 C :   -0.205461
   8 S :    0.550581
   9 C :   -0.048400
  10 C :    0.000145
  11 C :   -0.026103
  12 C :   -0.059614
  13 C :    0.087221
  14 O :   -0.127353
  15 C :   -0.088679
  16 C :   -0.162474
  17 S :    0.463905
  18 C :   -0.175018
  19 C :   -0.084067
  20 C :    0.101691
  21 O :   -0.151394
  22 C :   -0.071776
  23 C :    0.014881
  24 C :   -0.024659
  25 C :    0.000928
  26 C :   -0.024996
  27 C :    0.021003
  28 C :    0.012945
  29 C :   -0.014179
  30 C :    0.006625
  31 C :    0.003244
  32 C :   -0.029460
  33 C :   -0.015903
  34 C :   -0.026281
  35 C :   -0.041802
  36 C :   -0.038028
  37 C :    0.021578
  38 N :   -0.116393
  39 C :    0.027196
  40 N :   -0.097689
  41 C :   -0.033814
  42 C :    0.090189
  43 C :   -0.043038
  44 C :   -0.033365
  45 C :   -0.022596
  46 C :   -0.030869
  47 C :   -0.041436
  48 C :   -0.004844
  49 C :   -0.041949
  50 C :    0.017280
  51 C :   -0.034603
  52 C :   -0.004617
  53 C :   -0.048697
  54 C :    0.085587
  55 O :   -0.134894
  56 C :   -0.094285
  57 C :   -0.163226
  58 S :    0.465993
  59 C :   -0.172239
  60 C :   -0.073015
  61 C :    0.106937
  62 O :   -0.132770
  63 C :   -0.066457
  64 C :    0.004878
  65 C :   -0.025883
  66 C :   -0.001403
  67 C :   -0.022962
  68 C :    0.021136
  69 C :    0.007218
  70 C :   -0.003401
  71 C :   -0.037961
  72 C :    0.006125
  73 C :    0.016961
  74 C :   -0.065571
  75 C :   -0.203287
  76 C :    0.036519
  77 C :    0.056389
  78 C :   -0.254182
  79 S :    0.509608
  80 C :   -0.054962
  81 N :   -0.031201
  82 F :   -0.027832
  83 F :   -0.037554
  84 H :    0.028683
  85 H :    0.025535
  86 H :    0.031407
  87 H :    0.028879
  88 H :    0.029644
  89 H :    0.029281
  90 H :    0.033964
  91 H :    0.036565
  92 H :    0.030426
  93 H :    0.038072
  94 H :    0.020617
  95 H :    0.021840
  96 H :    0.018294
  97 H :    0.005861
  98 H :    0.054188
  99 H :    0.057483
 100 H :    0.002615
 101 H :    0.020227
 102 H :    0.046660
 103 H :    0.057045
 104 H :    0.020478
 105 H :    0.079716
 106 H :    0.016249
 107 H :    0.026002
 108 H :    0.025662
 109 H :    0.023448
 110 H :    0.032290
 111 H :    0.031684
 112 H :    0.029590
 113 H :    0.029398
 114 H :    0.031253
 115 H :    0.029299
 116 H :    0.030233
 117 H :    0.030099
 118 H :    0.033883
 119 H :    0.038101
 120 H :    0.035929
 121 H :    0.037545

  Mayer bond orders larger than 0.100000
B(  0-C ,  1-C ) :   1.1896 B(  0-C ,  3-C ) :   1.4609 B(  0-C ,  7-C ) :   0.1459
B(  0-C ,  8-S ) :   1.0905 B(  1-C ,  2-N ) :   3.0178 B(  3-C ,  4-F ) :   1.2062
B(  3-C ,  5-C ) :   1.2213 B(  5-C ,  6-F ) :   1.1936 B(  5-C ,  7-C ) :   1.4466
B(  7-C ,  8-S ) :   1.1269 B(  7-C ,  9-C ) :   0.9225 B(  9-C , 10-C ) :   2.2975
B( 10-C , 11-C ) :   0.8492 B( 11-C , 12-C ) :   1.3430 B( 11-C , 31-C ) :   1.3704
B( 12-C , 13-C ) :   0.9316 B( 12-C , 28-C ) :   1.3696 B( 13-C , 14-O ) :   2.2227
B( 13-C , 15-C ) :   0.8858 B( 15-C , 16-C ) :   1.5555 B( 15-C , 19-C ) :   1.3171
B( 16-C , 17-S ) :   1.1959 B( 16-C , 84-H ) :   0.9660 B( 17-S , 18-C ) :   1.1685
B( 18-C , 19-C ) :   1.5874 B( 18-C , 85-H ) :   0.9720 B( 19-C , 20-C ) :   0.8889
B( 20-C , 21-O ) :   2.1305 B( 20-C , 22-C ) :   0.9870 B( 22-C , 23-C ) :   1.3698
B( 22-C , 27-C ) :   1.3694 B( 23-C , 24-C ) :   1.3998 B( 23-C , 86-H ) :   0.9732
B( 24-C , 25-C ) :   1.3855 B( 24-C , 87-H ) :   0.9880 B( 25-C , 26-C ) :   1.3758
B( 25-C , 88-H ) :   0.9913 B( 26-C , 27-C ) :   1.3812 B( 26-C , 89-H ) :   0.9916
B( 27-C , 90-H ) :   0.9986 B( 28-C , 29-C ) :   1.3607 B( 28-C , 91-H ) :   0.9993
B( 29-C , 30-C ) :   1.3644 B( 29-C , 92-H ) :   0.9972 B( 30-C , 31-C ) :   1.3471
B( 30-C , 32-C ) :   0.9484 B( 31-C , 93-H ) :   1.0057 B( 32-C , 33-C ) :   1.5690
B( 32-C , 49-C ) :   1.1580 B( 33-C , 34-C ) :   1.1325 B( 33-C , 94-H ) :   0.9895
B( 34-C , 35-C ) :   1.4906 B( 34-C , 47-C ) :   1.1296 B( 35-C , 36-C ) :   1.0355
B( 35-C , 41-C ) :   1.1100 B( 36-C , 37-C ) :   1.0659 B( 36-C , 39-C ) :   1.0257
B( 36-C , 95-H ) :   0.8768 B( 37-C , 38-N ) :   1.0645 B( 37-C , 96-H ) :   0.9321
B( 37-C , 97-H ) :   0.9434 B( 38-N , 98-H ) :   0.9685 B( 38-N , 99-H ) :   0.9673
B( 39-C , 40-N ) :   1.0704 B( 39-C ,100-H ) :   0.9351 B( 39-C ,101-H ) :   0.9528
B( 40-N ,102-H ) :   0.9433 B( 40-N ,103-H ) :   0.9625 B( 40-N ,104-H ) :   0.1856
B( 41-C , 42-C ) :   1.6449 B( 41-C , 46-C ) :   1.0658 B( 42-C , 43-C ) :   0.9648
B( 42-C ,104-H ) :   0.9119 B( 43-C , 44-C ) :   0.9991 B( 43-C , 50-C ) :   0.9671
B( 43-C ,105-H ) :   0.7844 B( 44-C , 45-C ) :   1.6933 B( 44-C ,106-H ) :   0.9694
B( 45-C , 46-C ) :   1.1308 B( 45-C ,107-H ) :   0.9916 B( 46-C , 47-C ) :   1.4080
B( 47-C , 48-C ) :   1.1562 B( 48-C , 49-C ) :   1.5819 B( 48-C ,108-H ) :   0.9925
B( 49-C ,109-H ) :   0.9842 B( 50-C , 51-C ) :   1.8664 B( 50-C ,110-H ) :   0.9586
B( 51-C , 52-C ) :   1.0229 B( 51-C ,111-H ) :   0.9507 B( 52-C , 53-C ) :   1.3751
B( 52-C , 72-C ) :   1.3382 B( 53-C , 54-C ) :   0.9228 B( 53-C , 69-C ) :   1.3828
B( 54-C , 55-O ) :   2.1790 B( 54-C , 56-C ) :   0.9197 B( 56-C , 57-C ) :   1.5363
B( 56-C , 60-C ) :   1.2973 B( 57-C , 58-S ) :   1.2021 B( 57-C ,112-H ) :   0.9519
B( 58-S , 59-C ) :   1.1551 B( 59-C , 60-C ) :   1.6008 B( 59-C ,113-H ) :   0.9745
B( 60-C , 61-C ) :   0.8814 B( 61-C , 62-O ) :   2.1255 B( 61-C , 63-C ) :   0.9760
B( 63-C , 64-C ) :   1.3771 B( 63-C , 68-C ) :   1.3746 B( 64-C , 65-C ) :   1.3922
B( 64-C ,114-H ) :   0.9733 B( 65-C , 66-C ) :   1.3871 B( 65-C ,115-H ) :   0.9882
B( 66-C , 67-C ) :   1.3754 B( 66-C ,116-H ) :   0.9915 B( 67-C , 68-C ) :   1.3786
B( 67-C ,117-H ) :   0.9928 B( 68-C ,118-H ) :   0.9981 B( 69-C , 70-C ) :   1.3709
B( 69-C ,119-H ) :   0.9971 B( 70-C , 71-C ) :   1.3348 B( 70-C ,120-H ) :   1.0013
B( 71-C , 72-C ) :   1.3428 B( 71-C , 73-C ) :   0.9137 B( 72-C ,121-H ) :   1.0104
B( 73-C , 74-C ) :   2.3996 B( 74-C , 75-C ) :   0.9427 B( 75-C , 76-C ) :   1.4648
B( 75-C , 78-C ) :   0.1473 B( 75-C , 79-S ) :   1.1076 B( 76-C , 77-C ) :   1.2088
B( 76-C , 83-F ) :   1.2033 B( 77-C , 78-C ) :   1.4686 B( 77-C , 82-F ) :   1.2145
B( 78-C , 79-S ) :   1.1144 B( 78-C , 80-C ) :   1.1893 B( 80-C , 81-N ) :   3.0180

-----------------------------------------------------------------------------
         ABSORPTION SPECTRUM VIA TRANSITION ELECTRIC DIPOLE MOMENTS
-----------------------------------------------------------------------------
State   Energy  Wavelength   fosc         T2         TX        TY        TZ
        (cm-1)    (nm)                  (au**2)     (au)      (au)      (au)
-----------------------------------------------------------------------------
   0   16341.0    612.0   0.064561025   1.30067  -0.87774  -0.69930   0.20301
   1   20434.3    489.4   0.006306786   0.10161   0.10643   0.18849   0.23399
   2   22112.4    452.2   0.092896111   1.38305   0.53847   0.58296   0.86791
   3   25397.3    393.7   0.011391938   0.14767  -0.05867   0.27172   0.26532
   4   26994.0    370.5   0.017563288   0.21420  -0.07607   0.37498   0.26039
   5   27613.9    362.1   0.098834301   1.17830  -0.35530  -0.60491  -0.82834
   6   28623.9    349.4   0.025016981   0.28773  -0.00611   0.48611   0.22668
   7   30459.4    328.3   1.167664612  12.62039  -1.46634   1.70224   2.75184
   8   30651.5    326.2   0.257310148   2.76364  -0.74119  -0.34570  -1.44733
   9   31435.3    318.1   0.031507791   0.32997  -0.10008   0.33984   0.45218
  10   31778.4    314.7   1.192074841  12.34945  -2.46011   2.48730  -0.33266
  11   32489.2    307.8   0.052650962   0.53351  -0.24671  -0.19182  -0.66019
  12   34084.6    293.4   0.118913656   1.14855   0.22913  -0.97391  -0.38413
  13   34324.4    291.3   0.169564376   1.62632   0.86545  -0.56354  -0.74817
  14   34546.7    289.5   0.125119634   1.19232   0.18812   0.64833   0.85826
  15   34854.6    286.9   0.086129038   0.81351  -0.28130   0.41400   0.75033
  16   35126.9    284.7   0.060781483   0.56965  -0.22209  -0.14110  -0.70740
  17   35792.5    279.4   0.279030532   2.56647   0.86539   0.65473   1.17852
  18   36143.6    276.7   0.000088146   0.00080  -0.02274  -0.01343  -0.01027
  19   36316.6    275.4   0.059484320   0.53923   0.49108  -0.20876  -0.50446
  20   36394.1    274.8   0.022310890   0.20182  -0.14916  -0.30127   0.29800
  21   36768.2    272.0   0.015150295   0.13565  -0.24137   0.03979  -0.27533
  22   37355.1    267.7   0.314447547   2.77124  -0.36696   0.49676   1.54590
  23   37577.0    266.1   0.001851732   0.01622  -0.11165  -0.04413   0.04253
  24   38063.2    262.7   0.040304024   0.34859  -0.24470  -0.21298  -0.49331
  25   38256.0    261.4   0.039968604   0.34395  -0.34308  -0.14377  -0.45340
  26   38511.7    259.7   0.048743588   0.41668  -0.56667  -0.22182  -0.21532
  27   38537.5    259.5   0.000698348   0.00597  -0.04636   0.04518   0.04213
  28   39253.3    254.8   0.000052113   0.00044   0.00233  -0.00366   0.02045
  29   39279.2    254.6   0.006937709   0.05815  -0.14961   0.03257  -0.18628
  30   40075.1    249.5   0.561720974   4.61447   0.86550   0.65337   1.85432
  31   40132.0    249.2   0.134924511   1.10682  -0.01652   0.64246   0.83294
  32   40224.4    248.6   0.290460435   2.37724  -1.05581  -0.64972  -0.91672

FINAL SINGLE POINT ENERGY     -5121.027967381828

DIPOLE MOMENT
-------------
                                X             Y             Z
Electronic contribution:     -4.19730     -46.42494      52.39143
Nuclear contribution   :      4.15011      44.86921     -55.53335
                        -----------------------------------------
Total Dipole Moment    :     -0.04718      -1.55572      -3.14192
                        -----------------------------------------
Magnitude (a.u.)       :      3.50630
Magnitude (Debye)      :      8.91232

Rotational constants in cm-1:     0.000788     0.000198     0.000172
Rotational constants in MHz :    23.638119     5.925661     5.170733

                             ****ORCA TERMINATED NORMALLY****
TOTAL RUN TIME: 0 days 0 hours 13 minutes 38 seconds 372 msec
