                         Program Version 4.2.0 -  RELEASE  -
|  1> # ORCA input file
|  2> # SCF done       -110.687634906930          0.000923512529
|  3> ! CAM-B3LYP def2-SVP def2/J RIJCOSX Grid4 TightSCF
|  4> %maxcore 5000
|  5> %tddft
|  6>     Mode sTDDFT
|  7>     Ethresh 5.0
|  8>     maxcore 5000
|  9> end
| 10>
| 11> %pal
| 12>   nprocs 6
| 13>   end
| 14> * xyz 0 1
| 15>    N        4.34198         7.32076         6.12875
| 16>    C        5.36091         6.92296         5.78378
| 17>    C        6.59991         6.43864         5.35750
| 18>    S        6.72804         5.26636         4.08271
| 19>    C        8.46277         5.24729         4.20197
| 20>    C        9.24776         4.45698         3.37844
| 21>    C        9.92260         3.76927         2.63917
| 22>    C       10.71345         3.01456         1.78855
| 23>    C       10.25570         2.21486         0.76254
| 24>    C       11.25675         1.57722         0.01785
| 25>    C       12.54009         1.85416         0.42977
| 26>    C       13.79958         1.34224        -0.04251
| 27>    N       14.76884         1.24398         0.83578
| 28>    O       15.85162         0.72618         0.21315
| 29>    C       15.56842         0.49063        -1.07830
| 30>    C       16.60344        -0.04012        -1.89517
| 31>    C       17.88930        -0.25717        -1.42251
| 32>    C       18.79039        -0.76432        -2.35331
| 33>    C       18.25480        -0.97808        -3.60796
| 34>    C       18.95174        -1.45207        -4.71214
| 35>    C       19.53837        -1.84054        -5.70120
| 36>    C       20.22002        -2.28374        -6.82896
| 37>    S       20.33562        -3.97026        -7.23260
| 38>    C       21.26307        -3.62071        -8.65872
| 39>    C       21.71589        -4.63665        -9.50425
| 40>    N       22.08227        -5.47483       -10.19569
| 41>    C       21.46176        -2.26395        -8.79897
| 42>    F       22.14068        -1.72014        -9.80566
| 43>    C       20.87346        -1.51154        -7.76621
| 44>    F       20.94155        -0.18049        -7.69788
| 45>   Se       16.43543        -0.52232        -3.69941
| 46>    C       14.24825         0.88582        -1.32265
| 47>    C       13.61189         0.91362        -2.62749
| 48>    O       14.06161         0.31073        -3.58033
| 49>    O       12.51500         1.66104        -2.77593
| 50>   Se       12.59403         2.98470         1.91749
| 51>    C        8.89415         6.11323         5.18887
| 52>    F       10.18212         6.29295         5.48800
| 53>    C        7.84545         6.78457         5.83960
| 54>    F        8.03498         7.66473         6.81846
| 55>    H        9.20623         2.09540         0.55495
| 56>    H       11.02109         0.88818        -0.77711
| 57>    H       18.15760        -0.03647        -0.40313
| 58>    H       19.82098        -0.97350        -2.12176
| 59>    H       12.26462         2.13937        -1.97048
| 60> *
| 61>
| 62>                          ****END OF INPUT****

CARTESIAN COORDINATES (ANGSTROEM)
---------------------------------
  N      4.341980    7.320760    6.128750
  C      5.360910    6.922960    5.783780
  C      6.599910    6.438640    5.357500
  S      6.728040    5.266360    4.082710
  C      8.462770    5.247290    4.201970
  C      9.247760    4.456980    3.378440
  C      9.922600    3.769270    2.639170
  C     10.713450    3.014560    1.788550
  C     10.255700    2.214860    0.762540
  C     11.256750    1.577220    0.017850
  C     12.540090    1.854160    0.429770
  C     13.799580    1.342240   -0.042510
  N     14.768840    1.243980    0.835780
  O     15.851620    0.726180    0.213150
  C     15.568420    0.490630   -1.078300
  C     16.603440   -0.040120   -1.895170
  C     17.889300   -0.257170   -1.422510
  C     18.790390   -0.764320   -2.353310
  C     18.254800   -0.978080   -3.607960
  C     18.951740   -1.452070   -4.712140
  C     19.538370   -1.840540   -5.701200
  C     20.220020   -2.283740   -6.828960
  S     20.335620   -3.970260   -7.232600
  C     21.263070   -3.620710   -8.658720
  C     21.715890   -4.636650   -9.504250
  N     22.082270   -5.474830  -10.195690
  C     21.461760   -2.263950   -8.798970
  F     22.140680   -1.720140   -9.805660
  C     20.873460   -1.511540   -7.766210
  F     20.941550   -0.180490   -7.697880
  Se    16.435430   -0.522320   -3.699410
  C     14.248250    0.885820   -1.322650
  C     13.611890    0.913620   -2.627490
  O     14.061610    0.310730   -3.580330
  O     12.515000    1.661040   -2.775930
  Se    12.594030    2.984700    1.917490
  C      8.894150    6.113230    5.188870
  F     10.182120    6.292950    5.488000
  C      7.845450    6.784570    5.839600
  F      8.034980    7.664730    6.818460
  H      9.206230    2.095400    0.554950
  H     11.021090    0.888180   -0.777110
  H     18.157600   -0.036470   -0.403130
  H     19.820980   -0.973500   -2.121760
  H     12.264620    2.139370   -1.970480

 Total Charge           Charge          ....    0
 Multiplicity           Mult            ....    1
 Number of Electrons    NEL             ....  342
 Basis Dimension        Dim             ....  629

ORBITAL ENERGIES
----------------

  NO   OCC          E(Eh)            E(eV)
   0   2.0000    -453.957837    -12352.8207
   1   2.0000    -453.945015    -12352.4719
   2   2.0000     -89.005123     -2421.9525
   3   2.0000     -88.997810     -2421.7535
   4   2.0000     -58.172950     -1582.9664
   5   2.0000     -58.159028     -1582.5876
   6   2.0000     -52.242996     -1421.6042
   7   2.0000     -52.241972     -1421.5763
   8   2.0000     -52.241012     -1421.5502
   9   2.0000     -52.229165     -1421.2278
  10   2.0000     -52.227911     -1421.1937
  11   2.0000     -52.227092     -1421.1714
  12   2.0000     -24.822711      -675.4603
  13   2.0000     -24.818653      -675.3499
  14   2.0000     -24.817118      -675.3081
  15   2.0000     -24.811655      -675.1595
  16   2.0000     -19.340533      -526.2827
  17   2.0000     -19.281808      -524.6847
  18   2.0000     -19.224772      -523.1326
  19   2.0000     -14.482240      -394.0818
  20   2.0000     -14.424311      -392.5055
  21   2.0000     -14.419340      -392.3702
  22   2.0000     -10.433088      -283.8988
  23   2.0000     -10.406257      -283.1686
  24   2.0000     -10.400052      -282.9998
  25   2.0000     -10.398855      -282.9672
  26   2.0000     -10.392043      -282.7819
  27   2.0000     -10.389528      -282.7134
  28   2.0000     -10.359003      -281.8828
  29   2.0000     -10.357975      -281.8548
  30   2.0000     -10.353632      -281.7366
  31   2.0000     -10.351906      -281.6897
  32   2.0000     -10.351251      -281.6719
  33   2.0000     -10.342785      -281.4415
  34   2.0000     -10.340483      -281.3789
  35   2.0000     -10.327348      -281.0214
  36   2.0000     -10.325410      -280.9687
  37   2.0000     -10.323527      -280.9175
  38   2.0000     -10.322573      -280.8915
  39   2.0000     -10.316500      -280.7262
  40   2.0000     -10.315033      -280.6863
  41   2.0000     -10.313861      -280.6544
  42   2.0000     -10.311926      -280.6018
  43   2.0000     -10.309352      -280.5317
  44   2.0000     -10.303460      -280.3714
  45   2.0000     -10.299790      -280.2715
  46   2.0000     -10.298797      -280.2445
  47   2.0000     -10.294317      -280.1226
  48   2.0000      -8.100165      -220.4167
  49   2.0000      -8.092975      -220.2210
  50   2.0000      -7.946941      -216.2473
  51   2.0000      -7.933119      -215.8711
  52   2.0000      -6.069717      -165.1654
  53   2.0000      -6.065652      -165.0548
  54   2.0000      -6.062526      -164.9697
  55   2.0000      -6.061553      -164.9432
  56   2.0000      -6.058411      -164.8577
  57   2.0000      -6.054370      -164.7478
  58   2.0000      -5.896001      -160.4383
  59   2.0000      -5.891753      -160.3227
  60   2.0000      -5.886662      -160.1842
  61   2.0000      -5.882108      -160.0603
  62   2.0000      -5.877655      -159.9391
  63   2.0000      -5.872874      -159.8090
  64   2.0000      -2.250544       -61.2404
  65   2.0000      -2.250045       -61.2268
  66   2.0000      -2.245199       -61.0950
  67   2.0000      -2.241793       -61.0023
  68   2.0000      -2.241346       -60.9901
  69   2.0000      -2.236595       -60.8608
  70   2.0000      -2.235994       -60.8445
  71   2.0000      -2.231391       -60.7192
  72   2.0000      -2.227772       -60.6208
  73   2.0000      -2.227488       -60.6130
  74   2.0000      -1.341939       -36.5160
  75   2.0000      -1.335842       -36.3501
  76   2.0000      -1.329244       -36.1706
  77   2.0000      -1.322459       -35.9859
  78   2.0000      -1.279368       -34.8134
  79   2.0000      -1.207743       -32.8644
  80   2.0000      -1.120708       -30.4960
  81   2.0000      -1.036517       -28.2051
  82   2.0000      -1.030048       -28.0290
  83   2.0000      -1.016550       -27.6617
  84   2.0000      -1.002913       -27.2907
  85   2.0000      -0.997847       -27.1528
  86   2.0000      -0.987691       -26.8764
  87   2.0000      -0.974451       -26.5162
  88   2.0000      -0.935948       -25.4684
  89   2.0000      -0.916626       -24.9427
  90   2.0000      -0.905695       -24.6452
  91   2.0000      -0.884188       -24.0600
  92   2.0000      -0.872450       -23.7406
  93   2.0000      -0.871705       -23.7203
  94   2.0000      -0.864803       -23.5325
  95   2.0000      -0.848551       -23.0902
  96   2.0000      -0.835443       -22.7336
  97   2.0000      -0.833206       -22.6727
  98   2.0000      -0.822504       -22.3815
  99   2.0000      -0.784470       -21.3465
 100   2.0000      -0.774239       -21.0681
 101   2.0000      -0.760684       -20.6993
 102   2.0000      -0.745467       -20.2852
 103   2.0000      -0.735022       -20.0010
 104   2.0000      -0.724697       -19.7200
 105   2.0000      -0.716199       -19.4888
 106   2.0000      -0.708623       -19.2826
 107   2.0000      -0.695480       -18.9250
 108   2.0000      -0.687691       -18.7130
 109   2.0000      -0.685192       -18.6450
 110   2.0000      -0.674079       -18.3426
 111   2.0000      -0.653079       -17.7712
 112   2.0000      -0.641726       -17.4623
 113   2.0000      -0.636283       -17.3141
 114   2.0000      -0.634407       -17.2631
 115   2.0000      -0.627012       -17.0619
 116   2.0000      -0.624487       -16.9931
 117   2.0000      -0.616797       -16.7839
 118   2.0000      -0.611492       -16.6395
 119   2.0000      -0.607862       -16.5408
 120   2.0000      -0.605902       -16.4874
 121   2.0000      -0.601578       -16.3698
 122   2.0000      -0.582626       -15.8541
 123   2.0000      -0.575247       -15.6533
 124   2.0000      -0.568952       -15.4820
 125   2.0000      -0.562716       -15.3123
 126   2.0000      -0.561330       -15.2746
 127   2.0000      -0.555629       -15.1194
 128   2.0000      -0.546006       -14.8576
 129   2.0000      -0.537401       -14.6234
 130   2.0000      -0.529196       -14.4001
 131   2.0000      -0.528179       -14.3725
 132   2.0000      -0.522275       -14.2118
 133   2.0000      -0.520065       -14.1517
 134   2.0000      -0.509823       -13.8730
 135   2.0000      -0.507528       -13.8105
 136   2.0000      -0.506777       -13.7901
 137   2.0000      -0.502209       -13.6658
 138   2.0000      -0.500000       -13.6057
 139   2.0000      -0.499474       -13.5914
 140   2.0000      -0.489464       -13.3190
 141   2.0000      -0.485759       -13.2182
 142   2.0000      -0.479777       -13.0554
 143   2.0000      -0.477612       -12.9965
 144   2.0000      -0.472419       -12.8552
 145   2.0000      -0.467081       -12.7099
 146   2.0000      -0.463191       -12.6041
 147   2.0000      -0.453059       -12.3284
 148   2.0000      -0.451346       -12.2818
 149   2.0000      -0.446771       -12.1573
 150   2.0000      -0.446222       -12.1423
 151   2.0000      -0.435508       -11.8508
 152   2.0000      -0.426000       -11.5920
 153   2.0000      -0.425839       -11.5877
 154   2.0000      -0.421177       -11.4608
 155   2.0000      -0.420508       -11.4426
 156   2.0000      -0.411068       -11.1857
 157   2.0000      -0.410319       -11.1653
 158   2.0000      -0.399121       -10.8606
 159   2.0000      -0.391837       -10.6624
 160   2.0000      -0.376170       -10.2361
 161   2.0000      -0.369848       -10.0641
 162   2.0000      -0.366241        -9.9659
 163   2.0000      -0.349845        -9.5198
 164   2.0000      -0.348533        -9.4841
 165   2.0000      -0.341972        -9.3055
 166   2.0000      -0.337945        -9.1960
 167   2.0000      -0.324616        -8.8332
 168   2.0000      -0.305948        -8.3253
 169   2.0000      -0.293894        -7.9972
 170   2.0000      -0.286922        -7.8075
 171   0.0000      -0.082215        -2.2372
 172   0.0000      -0.069696        -1.8965
 173   0.0000      -0.055382        -1.5070
 174   0.0000      -0.034691        -0.9440
 175   0.0000      -0.001000        -0.0272

MULLIKEN ATOMIC CHARGES
-----------------------
   0 N :    0.150396
   1 C :   -0.136744
   2 C :   -0.340036
   3 S :    0.260616
   4 C :   -0.212943
   5 C :    0.034818
   6 C :    0.026954
   7 C :   -0.177650
   8 C :    0.031993
   9 C :   -0.032198
  10 C :   -0.175800
  11 C :    0.061710
  12 N :   -0.004884
  13 O :   -0.169988
  14 C :    0.235809
  15 C :   -0.180414
  16 C :    0.015016
  17 C :    0.056129
  18 C :   -0.210413
  19 C :    0.028024
  20 C :    0.033344
  21 C :   -0.223938
  22 S :    0.260837
  23 C :   -0.340311
  24 C :   -0.135759
  25 N :    0.144488
  26 C :    0.283521
  27 F :   -0.144286
  28 C :    0.232525
  29 F :   -0.152435
  30 Se:    0.359592
  31 C :   -0.164860
  32 C :    0.193345
  33 O :   -0.217694
  34 O :   -0.143214
  35 Se:    0.315860
  36 C :    0.223065
  37 F :   -0.152706
  38 C :    0.286717
  39 F :   -0.142107
  40 H :    0.007880
  41 H :    0.018332
  42 H :    0.012311
  43 H :    0.000981
  44 H :    0.184119
Sum of atomic charges:    0.0000000

LOEWDIN ATOMIC CHARGES
----------------------
   0 N :   -0.028385
   1 C :   -0.055122
   2 C :   -0.252390
   3 S :    0.511314
   4 C :   -0.205334
   5 C :   -0.051585
   6 C :   -0.014786
   7 C :   -0.164563
   8 C :   -0.028264
   9 C :   -0.059250
  10 C :   -0.171885
  11 C :   -0.042857
  12 N :   -0.046727
  13 O :    0.039486
  14 C :    0.088111
  15 C :   -0.190906
  16 C :   -0.019562
  17 C :   -0.029805
  18 C :   -0.177047
  19 C :   -0.012371
  20 C :   -0.061309
  21 C :   -0.206430
  22 S :    0.510925
  23 C :   -0.253288
  24 C :   -0.054156
  25 N :   -0.031250
  26 C :    0.055541
  27 F :   -0.027827
  28 C :    0.038772
  29 F :   -0.035595
  30 Se:    0.493276
  31 C :   -0.165917
  32 C :    0.092930
  33 O :   -0.174085
  34 O :   -0.012251
  35 Se:    0.472131
  36 C :    0.037736
  37 F :   -0.035630
  38 C :    0.056512
  39 F :   -0.026006
  40 H :    0.039707
  41 H :    0.037953
  42 H :    0.038128
  43 H :    0.036679
  44 H :    0.085382

  Mayer bond orders larger than 0.100000
B(  0-N ,  1-C ) :   3.0192 B(  1-C ,  2-C ) :   1.1887 B(  2-C ,  3-S ) :   1.1154
B(  2-C ,  4-C ) :   0.1451 B(  2-C , 38-C ) :   1.4664 B(  3-S ,  4-C ) :   1.1027
B(  4-C ,  5-C ) :   0.9699 B(  4-C , 36-C ) :   1.4532 B(  5-C ,  6-C ) :   2.3437
B(  6-C ,  7-C ) :   1.0083 B(  7-C ,  8-C ) :   1.5288 B(  7-C , 35-Se) :   1.0781
B(  8-C ,  9-C ) :   1.2478 B(  8-C , 40-H ) :   1.0020 B(  9-C , 10-C ) :   1.5229
B(  9-C , 41-H ) :   0.9961 B( 10-C , 11-C ) :   1.0317 B( 10-C , 35-Se) :   1.1198
B( 11-C , 12-N ) :   1.7222 B( 11-C , 31-C ) :   1.1481 B( 12-N , 13-O ) :   0.9847
B( 13-O , 14-C ) :   1.2104 B( 14-C , 15-C ) :   1.1504 B( 14-C , 31-C ) :   1.4278
B( 15-C , 16-C ) :   1.4556 B( 15-C , 30-Se) :   1.1117 B( 16-C , 17-C ) :   1.2813
B( 16-C , 42-H ) :   1.0042 B( 17-C , 18-C ) :   1.4865 B( 17-C , 43-H ) :   1.0026
B( 18-C , 19-C ) :   0.9940 B( 18-C , 30-Se) :   1.0635 B( 19-C , 20-C ) :   2.3488
B( 20-C , 21-C ) :   0.9493 B( 21-C , 22-S ) :   1.1063 B( 21-C , 23-C ) :   0.1472
B( 21-C , 28-C ) :   1.4691 B( 22-S , 23-C ) :   1.1171 B( 23-C , 24-C ) :   1.1883
B( 23-C , 26-C ) :   1.4677 B( 24-C , 25-N ) :   3.0187 B( 26-C , 27-F ) :   1.2128
B( 26-C , 28-C ) :   1.2063 B( 28-C , 29-F ) :   1.2032 B( 30-Se, 33-O ) :   0.1241
B( 31-C , 32-C ) :   0.9657 B( 32-C , 33-O ) :   2.0086 B( 32-C , 34-O ) :   1.2916
B( 34-O , 44-H ) :   0.9334 B( 36-C , 37-F ) :   1.2036 B( 36-C , 38-C ) :   1.2117
B( 38-C , 39-F ) :   1.2160

-----------------------------------------------------------------------------
         ABSORPTION SPECTRUM VIA TRANSITION ELECTRIC DIPOLE MOMENTS
-----------------------------------------------------------------------------
State   Energy  Wavelength   fosc         T2         TX        TY        TZ
        (cm-1)    (nm)                  (au**2)     (au)      (au)      (au)
-----------------------------------------------------------------------------
   0   28361.3    352.6   2.169674879  25.18510  -3.41789   2.40035   2.78234
   1   31329.3    319.2   0.351376803   3.69231   1.36768  -0.57493  -1.22116
   2   32261.6    310.0   0.002022370   0.02064   0.09375   0.08723  -0.06510
   3   32491.5    307.8   0.059017006   0.59797   0.42544  -0.30233  -0.57059
   4   32789.5    305.0   0.000043855   0.00044  -0.00321  -0.01580  -0.01343
   5   34583.7    289.2   0.015278057   0.14544  -0.35872   0.04434  -0.12162
   6   38918.4    256.9   0.304776258   2.57811  -0.11635   0.65505   1.46133
   7   39371.0    254.0   0.010456535   0.08744  -0.26880  -0.00855   0.12291
   8   40180.5    248.9   0.001702583   0.01395   0.09374   0.04538  -0.05571

FINAL SINGLE POINT ENERGY     -7379.609348744240

DIPOLE MOMENT
-------------
                                X             Y             Z
Electronic contribution:      7.33444       6.53175       6.34045
Nuclear contribution   :     -7.62273      -6.39712      -5.18425
                        -----------------------------------------
Total Dipole Moment    :     -0.28829       0.13463       1.15620
                        -----------------------------------------
Magnitude (a.u.)       :      1.19918
Magnitude (Debye)      :      3.04808

Rotational constants in cm-1:     0.011958     0.000417     0.000412
Rotational constants in MHz :   358.482404    12.492200    12.344831

                             ****ORCA TERMINATED NORMALLY****
TOTAL RUN TIME: 0 days 0 hours 2 minutes 41 seconds 96 msec
