                         Program Version 4.2.0 -  RELEASE  -
|  1> # ORCA input file
|  2> # SCF done       -181.018352449297          0.000483802556
|  3> ! CAM-B3LYP def2-SVP def2/J RIJCOSX Grid4 TightSCF
|  4> %maxcore 5000
|  5> %tddft
|  6>     Mode sTDDFT
|  7>     Ethresh 5.0
|  8>     maxcore 5000
|  9> end
| 10>
| 11> %pal
| 12>   nprocs 6
| 13>   end
| 14> * xyz 0 1
| 15>    C        6.59765        -4.92831        10.65428
| 16>    C        6.79980        -5.94915        11.58624
| 17>    N        6.97154        -6.78679        12.35036
| 18>    C        5.39184        -4.40961        10.22782
| 19>    F        4.21387        -4.83490        10.67238
| 20>    C        5.53819        -3.38689         9.27604
| 21>    F        4.51340        -2.73890         8.72220
| 22>    C        6.85772        -3.11336         8.96525
| 23>    S        7.93065        -4.14010         9.86859
| 24>    C        7.32636        -2.17435         8.06272
| 25>    C        7.70576        -1.34932         7.25622
| 26>    C        8.16275        -0.43403         6.32690
| 27>    C        7.40452         0.38937         5.51637
| 28>    C        8.20651         1.17060         4.68393
| 29>    C        9.58389         0.92801         4.86071
| 30>    S        9.89488        -0.25001         6.05191
| 31>    C       10.31179         1.73240         3.94378
| 32>    C        9.39050         2.52009         3.23046
| 33>    C        8.04116         2.11956         3.59682
| 34>    C        6.90069         2.39574         2.89464
| 35>    C        5.63662         1.86817         3.22903
| 36>    N        4.59749         1.44260         3.46390
| 37>    C        6.92688         3.12100         1.68531
| 38>    N        6.95051         3.64220         0.66255
| 39>    C       10.00156         3.34351         2.29081
| 40>    C       11.36753         3.11697         2.21596
| 41>    S       11.91399         1.92801         3.36875
| 42>    C       12.10607         3.50342         1.04709
| 43>    C       12.66142         2.48224         0.24003
| 44>    C       12.40396         2.49334        -1.18545
| 45>    N       12.69642         1.42315        -1.91503
| 46>    C       13.27476         0.38350        -1.34933
| 47>    C       13.55346         0.38370         0.05161
| 48>    N       13.22435         1.41031         0.80100
| 49>    C       14.18600        -0.73110         0.65826
| 50>    N       14.68528        -1.64881         1.12664
| 51>    C       13.61890        -0.73423        -2.14728
| 52>    N       13.90218        -1.65897        -2.76082
| 53>    C       11.65975         3.55326        -1.77796
| 54>    C       11.69343         4.77842        -1.05716
| 55>    C       11.83865         4.72106         0.38470
| 56>    N       11.58847         5.89737         0.94404
| 57>    S       11.25439         6.97740        -0.20112
| 58>    N       11.34850         5.98629        -1.46806
| 59>    C       10.52792         3.27633        -2.58220
| 60>    C        9.57833         4.20669        -3.00238
| 61>    C        8.30377         3.66282        -3.05147
| 62>    C        8.27554         2.29346        -2.70072
| 63>    S        9.83701         1.64901        -2.45160
| 64>    C        6.94931         1.94159        -2.37509
| 65>    C        6.12626         3.07590        -2.53692
| 66>    C        6.93641         4.16877        -3.04996
| 67>    C        6.52245         5.42320        -3.38109
| 68>    C        7.42274         6.42471        -3.80563
| 69>    N        8.14897         7.24637        -4.13889
| 70>    C        5.16427         5.80611        -3.32433
| 71>    N        4.06289         6.12011        -3.28636
| 72>    C        4.87271         2.92456        -1.94898
| 73>    C        4.74868         1.69736        -1.32132
| 74>    S        6.16850         0.67632        -1.53335
| 75>    C        3.76335         1.30646        -0.43599
| 76>    C        3.02055         1.00284         0.47667
| 77>    C        2.19926         0.72781         1.55482
| 78>    C        1.28658         1.58468         2.14326
| 79>    C        0.65721         1.03477         3.27067
| 80>    C        1.08192        -0.24783         3.55467
| 81>    S        2.27684        -0.77749         2.41537
| 82>    C        0.64712        -1.06939         4.59784
| 83>    N        0.28614        -1.74633         5.45020
| 84>    F       -0.25610         1.68120         3.98940
| 85>    F        1.03760         2.81047         1.68166
| 86>    H        6.33011         0.40517         5.54768
| 87>    H        9.49138         4.02690         1.63692
| 88>    H        9.82572         5.24283        -3.14803
| 89>    H        4.10236         3.67314        -1.91286
| 90> *
| 91>
| 92>                          ****END OF INPUT****

CARTESIAN COORDINATES (ANGSTROEM)
---------------------------------
  C      6.597650   -4.928310   10.654280
  C      6.799800   -5.949150   11.586240
  N      6.971540   -6.786790   12.350360
  C      5.391840   -4.409610   10.227820
  F      4.213870   -4.834900   10.672380
  C      5.538190   -3.386890    9.276040
  F      4.513400   -2.738900    8.722200
  C      6.857720   -3.113360    8.965250
  S      7.930650   -4.140100    9.868590
  C      7.326360   -2.174350    8.062720
  C      7.705760   -1.349320    7.256220
  C      8.162750   -0.434030    6.326900
  C      7.404520    0.389370    5.516370
  C      8.206510    1.170600    4.683930
  C      9.583890    0.928010    4.860710
  S      9.894880   -0.250010    6.051910
  C     10.311790    1.732400    3.943780
  C      9.390500    2.520090    3.230460
  C      8.041160    2.119560    3.596820
  C      6.900690    2.395740    2.894640
  C      5.636620    1.868170    3.229030
  N      4.597490    1.442600    3.463900
  C      6.926880    3.121000    1.685310
  N      6.950510    3.642200    0.662550
  C     10.001560    3.343510    2.290810
  C     11.367530    3.116970    2.215960
  S     11.913990    1.928010    3.368750
  C     12.106070    3.503420    1.047090
  C     12.661420    2.482240    0.240030
  C     12.403960    2.493340   -1.185450
  N     12.696420    1.423150   -1.915030
  C     13.274760    0.383500   -1.349330
  C     13.553460    0.383700    0.051610
  N     13.224350    1.410310    0.801000
  C     14.186000   -0.731100    0.658260
  N     14.685280   -1.648810    1.126640
  C     13.618900   -0.734230   -2.147280
  N     13.902180   -1.658970   -2.760820
  C     11.659750    3.553260   -1.777960
  C     11.693430    4.778420   -1.057160
  C     11.838650    4.721060    0.384700
  N     11.588470    5.897370    0.944040
  S     11.254390    6.977400   -0.201120
  N     11.348500    5.986290   -1.468060
  C     10.527920    3.276330   -2.582200
  C      9.578330    4.206690   -3.002380
  C      8.303770    3.662820   -3.051470
  C      8.275540    2.293460   -2.700720
  S      9.837010    1.649010   -2.451600
  C      6.949310    1.941590   -2.375090
  C      6.126260    3.075900   -2.536920
  C      6.936410    4.168770   -3.049960
  C      6.522450    5.423200   -3.381090
  C      7.422740    6.424710   -3.805630
  N      8.148970    7.246370   -4.138890
  C      5.164270    5.806110   -3.324330
  N      4.062890    6.120110   -3.286360
  C      4.872710    2.924560   -1.948980
  C      4.748680    1.697360   -1.321320
  S      6.168500    0.676320   -1.533350
  C      3.763350    1.306460   -0.435990
  C      3.020550    1.002840    0.476670
  C      2.199260    0.727810    1.554820
  C      1.286580    1.584680    2.143260
  C      0.657210    1.034770    3.270670
  C      1.081920   -0.247830    3.554670
  S      2.276840   -0.777490    2.415370
  C      0.647120   -1.069390    4.597840
  N      0.286140   -1.746330    5.450200
  F     -0.256100    1.681200    3.989400
  F      1.037600    2.810470    1.681660
  H      6.330110    0.405170    5.547680
  H      9.491380    4.026900    1.636920
  H      9.825720    5.242830   -3.148030
  H      4.102360    3.673140   -1.912860

 Total Charge           Charge          ....    0
 Multiplicity           Mult            ....    1
 Number of Electrons    NEL             ....  524
 Basis Dimension        Dim             .... 1042

ORBITAL ENERGIES
----------------

  NO   OCC          E(Eh)            E(eV)
   0   2.0000     -89.055209     -2423.3154
   1   2.0000     -89.008813     -2422.0529
   2   2.0000     -89.008396     -2422.0416
   3   2.0000     -89.008120     -2422.0341
   4   2.0000     -89.004662     -2421.9400
   5   2.0000     -89.003559     -2421.9100
   6   2.0000     -89.000040     -2421.8142
   7   2.0000     -24.819943      -675.3850
   8   2.0000     -24.818357      -675.3418
   9   2.0000     -24.815546      -675.2653
  10   2.0000     -24.815095      -675.2531
  11   2.0000     -14.479360      -394.0034
  12   2.0000     -14.475568      -393.9002
  13   2.0000     -14.468555      -393.7094
  14   2.0000     -14.468053      -393.6957
  15   2.0000     -14.453126      -393.2895
  16   2.0000     -14.450059      -393.2061
  17   2.0000     -14.443323      -393.0228
  18   2.0000     -14.443178      -393.0189
  19   2.0000     -14.442433      -392.9986
  20   2.0000     -14.437811      -392.8728
  21   2.0000     -14.421865      -392.4389
  22   2.0000     -14.420848      -392.4112
  23   2.0000     -10.404039      -283.1083
  24   2.0000     -10.401277      -283.0331
  25   2.0000     -10.398231      -282.9503
  26   2.0000     -10.396587      -282.9055
  27   2.0000     -10.394811      -282.8572
  28   2.0000     -10.391297      -282.7616
  29   2.0000     -10.382049      -282.5099
  30   2.0000     -10.380661      -282.4721
  31   2.0000     -10.372263      -282.2436
  32   2.0000     -10.367620      -282.1173
  33   2.0000     -10.367155      -282.1046
  34   2.0000     -10.366439      -282.0851
  35   2.0000     -10.359961      -281.9089
  36   2.0000     -10.359345      -281.8921
  37   2.0000     -10.358075      -281.8575
  38   2.0000     -10.357415      -281.8396
  39   2.0000     -10.356017      -281.8015
  40   2.0000     -10.355584      -281.7898
  41   2.0000     -10.354578      -281.7624
  42   2.0000     -10.353755      -281.7400
  43   2.0000     -10.353578      -281.7352
  44   2.0000     -10.352889      -281.7164
  45   2.0000     -10.351280      -281.6726
  46   2.0000     -10.350766      -281.6587
  47   2.0000     -10.350357      -281.6475
  48   2.0000     -10.350032      -281.6387
  49   2.0000     -10.346243      -281.5356
  50   2.0000     -10.344864      -281.4981
  51   2.0000     -10.344649      -281.4922
  52   2.0000     -10.342853      -281.4433
  53   2.0000     -10.341888      -281.4171
  54   2.0000     -10.336112      -281.2599
  55   2.0000     -10.331698      -281.1398
  56   2.0000     -10.329295      -281.0744
  57   2.0000     -10.326914      -281.0096
  58   2.0000     -10.325739      -280.9777
  59   2.0000     -10.324979      -280.9570
  60   2.0000     -10.324562      -280.9456
  61   2.0000     -10.323935      -280.9285
  62   2.0000     -10.322752      -280.8964
  63   2.0000     -10.322251      -280.8827
  64   2.0000     -10.320431      -280.8332
  65   2.0000     -10.318297      -280.7751
  66   2.0000     -10.317587      -280.7558
  67   2.0000     -10.317471      -280.7527
  68   2.0000     -10.316403      -280.7236
  69   2.0000     -10.315002      -280.6855
  70   2.0000     -10.313657      -280.6489
  71   2.0000      -8.146832      -221.6866
  72   2.0000      -8.103554      -220.5089
  73   2.0000      -8.102959      -220.4927
  74   2.0000      -8.102510      -220.4805
  75   2.0000      -8.098662      -220.3758
  76   2.0000      -8.098555      -220.3729
  77   2.0000      -8.095061      -220.2778
  78   2.0000      -6.118031      -166.4801
  79   2.0000      -6.110200      -166.2670
  80   2.0000      -6.109309      -166.2428
  81   2.0000      -6.072878      -165.2514
  82   2.0000      -6.072244      -165.2342
  83   2.0000      -6.071891      -165.2246
  84   2.0000      -6.068646      -165.1362
  85   2.0000      -6.068145      -165.1226
  86   2.0000      -6.067993      -165.1185
  87   2.0000      -6.067973      -165.1180
  88   2.0000      -6.067623      -165.1084
  89   2.0000      -6.065730      -165.0569
  90   2.0000      -6.065295      -165.0451
  91   2.0000      -6.064648      -165.0275
  92   2.0000      -6.064610      -165.0264
  93   2.0000      -6.064056      -165.0113
  94   2.0000      -6.063524      -164.9969
  95   2.0000      -6.061129      -164.9317
  96   2.0000      -6.060565      -164.9164
  97   2.0000      -6.059910      -164.8985
  98   2.0000      -6.056385      -164.8026
  99   2.0000      -1.339432       -36.4478
 100   2.0000      -1.337863       -36.4051
 101   2.0000      -1.326716       -36.1018
 102   2.0000      -1.325622       -36.0720
 103   2.0000      -1.156789       -31.4778
 104   2.0000      -1.137424       -30.9509
 105   2.0000      -1.066791       -29.0289
 106   2.0000      -1.063329       -28.9347
 107   2.0000      -1.060562       -28.8594
 108   2.0000      -1.042279       -28.3618
 109   2.0000      -1.035681       -28.1823
 110   2.0000      -1.034645       -28.1541
 111   2.0000      -1.032328       -28.0911
 112   2.0000      -1.028477       -27.9863
 113   2.0000      -1.028172       -27.9780
 114   2.0000      -1.022311       -27.8185
 115   2.0000      -1.019720       -27.7480
 116   2.0000      -1.017226       -27.6801
 117   2.0000      -1.013809       -27.5871
 118   2.0000      -1.007569       -27.4173
 119   2.0000      -1.000710       -27.2307
 120   2.0000      -0.999454       -27.1965
 121   2.0000      -0.994430       -27.0598
 122   2.0000      -0.976989       -26.5852
 123   2.0000      -0.971309       -26.4307
 124   2.0000      -0.939233       -25.5578
 125   2.0000      -0.932908       -25.3857
 126   2.0000      -0.923320       -25.1248
 127   2.0000      -0.915564       -24.9138
 128   2.0000      -0.911151       -24.7937
 129   2.0000      -0.900921       -24.5153
 130   2.0000      -0.889564       -24.2063
 131   2.0000      -0.886929       -24.1346
 132   2.0000      -0.874789       -23.8042
 133   2.0000      -0.872480       -23.7414
 134   2.0000      -0.871013       -23.7015
 135   2.0000      -0.869925       -23.6719
 136   2.0000      -0.866074       -23.5671
 137   2.0000      -0.859759       -23.3952
 138   2.0000      -0.851182       -23.1618
 139   2.0000      -0.825701       -22.4685
 140   2.0000      -0.823432       -22.4067
 141   2.0000      -0.803427       -21.8624
 142   2.0000      -0.797811       -21.7095
 143   2.0000      -0.794886       -21.6299
 144   2.0000      -0.783474       -21.3194
 145   2.0000      -0.766200       -20.8494
 146   2.0000      -0.758190       -20.6314
 147   2.0000      -0.747070       -20.3288
 148   2.0000      -0.736430       -20.0393
 149   2.0000      -0.726819       -19.7777
 150   2.0000      -0.723438       -19.6857
 151   2.0000      -0.716097       -19.4860
 152   2.0000      -0.714333       -19.4380
 153   2.0000      -0.711261       -19.3544
 154   2.0000      -0.707937       -19.2639
 155   2.0000      -0.700518       -19.0621
 156   2.0000      -0.696669       -18.9573
 157   2.0000      -0.691836       -18.8258
 158   2.0000      -0.689178       -18.7535
 159   2.0000      -0.684663       -18.6306
 160   2.0000      -0.672515       -18.3001
 161   2.0000      -0.668514       -18.1912
 162   2.0000      -0.651479       -17.7277
 163   2.0000      -0.645508       -17.5652
 164   2.0000      -0.642514       -17.4837
 165   2.0000      -0.640156       -17.4195
 166   2.0000      -0.639464       -17.4007
 167   2.0000      -0.638890       -17.3851
 168   2.0000      -0.634067       -17.2538
 169   2.0000      -0.633501       -17.2385
 170   2.0000      -0.624913       -17.0048
 171   2.0000      -0.623268       -16.9600
 172   2.0000      -0.617028       -16.7902
 173   2.0000      -0.608738       -16.5646
 174   2.0000      -0.605298       -16.4710
 175   2.0000      -0.603723       -16.4282
 176   2.0000      -0.603347       -16.4179
 177   2.0000      -0.590262       -16.0618
 178   2.0000      -0.583740       -15.8844
 179   2.0000      -0.579527       -15.7697
 180   2.0000      -0.576294       -15.6818
 181   2.0000      -0.573321       -15.6009
 182   2.0000      -0.566304       -15.4099
 183   2.0000      -0.566017       -15.4021
 184   2.0000      -0.564998       -15.3744
 185   2.0000      -0.564699       -15.3662
 186   2.0000      -0.560677       -15.2568
 187   2.0000      -0.555029       -15.1031
 188   2.0000      -0.547350       -14.8942
 189   2.0000      -0.540109       -14.6971
 190   2.0000      -0.525998       -14.3131
 191   2.0000      -0.525823       -14.3084
 192   2.0000      -0.524758       -14.2794
 193   2.0000      -0.523887       -14.2557
 194   2.0000      -0.520424       -14.1615
 195   2.0000      -0.517240       -14.0748
 196   2.0000      -0.516379       -14.0514
 197   2.0000      -0.513485       -13.9726
 198   2.0000      -0.509625       -13.8676
 199   2.0000      -0.508189       -13.8285
 200   2.0000      -0.505014       -13.7421
 201   2.0000      -0.504671       -13.7328
 202   2.0000      -0.503139       -13.6911
 203   2.0000      -0.502653       -13.6779
 204   2.0000      -0.500764       -13.6265
 205   2.0000      -0.497812       -13.5462
 206   2.0000      -0.493734       -13.4352
 207   2.0000      -0.490718       -13.3531
 208   2.0000      -0.484704       -13.1895
 209   2.0000      -0.483176       -13.1479
 210   2.0000      -0.478471       -13.0199
 211   2.0000      -0.476094       -12.9552
 212   2.0000      -0.473868       -12.8946
 213   2.0000      -0.472449       -12.8560
 214   2.0000      -0.471010       -12.8168
 215   2.0000      -0.470442       -12.8014
 216   2.0000      -0.469105       -12.7650
 217   2.0000      -0.467846       -12.7307
 218   2.0000      -0.466209       -12.6862
 219   2.0000      -0.464341       -12.6354
 220   2.0000      -0.463057       -12.6004
 221   2.0000      -0.462646       -12.5892
 222   2.0000      -0.461165       -12.5489
 223   2.0000      -0.459303       -12.4983
 224   2.0000      -0.457453       -12.4479
 225   2.0000      -0.455106       -12.3841
 226   2.0000      -0.452779       -12.3208
 227   2.0000      -0.452212       -12.3053
 228   2.0000      -0.450768       -12.2660
 229   2.0000      -0.449020       -12.2184
 230   2.0000      -0.448127       -12.1942
 231   2.0000      -0.447538       -12.1781
 232   2.0000      -0.442323       -12.0362
 233   2.0000      -0.440177       -11.9778
 234   2.0000      -0.438133       -11.9222
 235   2.0000      -0.432597       -11.7716
 236   2.0000      -0.429282       -11.6813
 237   2.0000      -0.425391       -11.5755
 238   2.0000      -0.423936       -11.5359
 239   2.0000      -0.423610       -11.5270
 240   2.0000      -0.422302       -11.4914
 241   2.0000      -0.416220       -11.3259
 242   2.0000      -0.414684       -11.2841
 243   2.0000      -0.413521       -11.2525
 244   2.0000      -0.398827       -10.8526
 245   2.0000      -0.386669       -10.5218
 246   2.0000      -0.383951       -10.4478
 247   2.0000      -0.382926       -10.4199
 248   2.0000      -0.380072       -10.3423
 249   2.0000      -0.375970       -10.2307
 250   2.0000      -0.366709        -9.9787
 251   2.0000      -0.362054        -9.8520
 252   2.0000      -0.357533        -9.7290
 253   2.0000      -0.346611        -9.4318
 254   2.0000      -0.345498        -9.4015
 255   2.0000      -0.343467        -9.3462
 256   2.0000      -0.338343        -9.2068
 257   2.0000      -0.337572        -9.1858
 258   2.0000      -0.328405        -8.9363
 259   2.0000      -0.300315        -8.1720
 260   2.0000      -0.279616        -7.6088
 261   2.0000      -0.249941        -6.8012
 262   0.0000      -0.147562        -4.0154
 263   0.0000      -0.122035        -3.3207
 264   0.0000      -0.115933        -3.1547
 265   0.0000      -0.073860        -2.0098
 266   0.0000      -0.072998        -1.9864

MULLIKEN ATOMIC CHARGES
-----------------------
   0 C :   -0.338296
   1 C :   -0.137787
   2 N :    0.146791
   3 C :    0.289885
   4 F :   -0.139163
   5 C :    0.218210
   6 F :   -0.148815
   7 C :   -0.213850
   8 S :    0.257316
   9 C :    0.021326
  10 C :    0.030441
  11 C :   -0.161080
  12 C :    0.015355
  13 C :   -0.009581
  14 C :   -0.095536
  15 S :    0.234211
  16 C :   -0.099996
  17 C :   -0.009591
  18 C :    0.304130
  19 C :   -0.315785
  20 C :   -0.167492
  21 N :    0.170875
  22 C :   -0.172788
  23 N :    0.149268
  24 C :   -0.008432
  25 C :   -0.108884
  26 S :    0.252044
  27 C :    0.073629
  28 C :   -0.011640
  29 C :   -0.113485
  30 N :    0.030778
  31 C :   -0.150641
  32 C :   -0.125146
  33 N :    0.028154
  34 C :   -0.206746
  35 N :    0.243942
  36 C :   -0.201906
  37 N :    0.237944
  38 C :    0.126162
  39 C :    0.015153
  40 C :   -0.072038
  41 N :   -0.264446
  42 S :    0.538984
  43 N :   -0.275008
  44 C :   -0.133675
  45 C :    0.036475
  46 C :    0.000111
  47 C :   -0.069023
  48 S :    0.202983
  49 C :   -0.089060
  50 C :    0.027920
  51 C :    0.277185
  52 C :   -0.273997
  53 C :   -0.191001
  54 N :    0.181133
  55 C :   -0.191354
  56 N :    0.185344
  57 C :    0.032270
  58 C :   -0.171980
  59 S :    0.218383
  60 C :   -0.003664
  61 C :    0.081232
  62 C :   -0.211748
  63 C :    0.226328
  64 C :    0.287587
  65 C :   -0.328788
  66 S :    0.263990
  67 C :   -0.140011
  68 N :    0.144935
  69 F :   -0.143062
  70 F :   -0.151107
  71 H :    0.021474
  72 H :    0.009441
  73 H :    0.039382
  74 H :    0.025828
Sum of atomic charges:    0.0000000

LOEWDIN ATOMIC CHARGES
----------------------
   0 C :   -0.253103
   1 C :   -0.055076
   2 N :   -0.029293
   3 C :    0.057202
   4 F :   -0.023796
   5 C :    0.037640
   6 F :   -0.032260
   7 C :   -0.206694
   8 S :    0.509235
   9 C :   -0.045905
  10 C :   -0.026496
  11 C :   -0.187264
  12 C :   -0.002683
  13 C :   -0.077461
  14 C :   -0.168549
  15 S :    0.502597
  16 C :   -0.188562
  17 C :   -0.072902
  18 C :    0.090086
  19 C :   -0.110677
  20 C :   -0.012006
  21 N :   -0.039946
  22 C :   -0.006238
  23 N :   -0.051621
  24 C :   -0.019499
  25 C :   -0.151922
  26 S :    0.521026
  27 C :   -0.066636
  28 C :   -0.000134
  29 C :   -0.023633
  30 N :   -0.009755
  31 C :   -0.040709
  32 C :   -0.016392
  33 N :   -0.024404
  34 C :   -0.036046
  35 N :    0.001227
  36 C :   -0.039125
  37 N :   -0.004637
  38 C :   -0.024390
  39 C :   -0.044689
  40 C :   -0.042008
  41 N :   -0.271348
  42 S :    0.673241
  43 N :   -0.273024
  44 C :   -0.145053
  45 C :    0.006352
  46 C :   -0.057932
  47 C :   -0.154655
  48 S :    0.489746
  49 C :   -0.179668
  50 C :   -0.047077
  51 C :    0.079930
  52 C :   -0.089976
  53 C :   -0.018997
  54 N :   -0.022425
  55 C :   -0.018520
  56 N :   -0.020852
  57 C :    0.002665
  58 C :   -0.168479
  59 S :    0.493580
  60 C :   -0.036269
  61 C :   -0.030450
  62 C :   -0.204861
  63 C :    0.043664
  64 C :    0.057822
  65 C :   -0.247588
  66 S :    0.519961
  67 C :   -0.054067
  68 N :   -0.030564
  69 F :   -0.026850
  70 F :   -0.033950
  71 H :    0.048288
  72 H :    0.037185
  73 H :    0.045574
  74 H :    0.050093

  Mayer bond orders larger than 0.100000
B(  0-C ,  1-C ) :   1.1906 B(  0-C ,  3-C ) :   1.4634 B(  0-C ,  7-C ) :   0.1453
B(  0-C ,  8-S ) :   1.1136 B(  1-C ,  2-N ) :   3.0173 B(  3-C ,  4-F ) :   1.2198
B(  3-C ,  5-C ) :   1.2126 B(  5-C ,  6-F ) :   1.2099 B(  5-C ,  7-C ) :   1.4503
B(  7-C ,  8-S ) :   1.1030 B(  7-C ,  9-C ) :   0.9665 B(  9-C , 10-C ) :   2.3428
B( 10-C , 11-C ) :   0.9892 B( 11-C , 12-C ) :   1.4661 B( 11-C , 15-S ) :   1.0764
B( 12-C , 13-C ) :   1.2878 B( 12-C , 71-H ) :   1.0024 B( 13-C , 14-C ) :   1.4252
B( 13-C , 18-C ) :   1.0003 B( 14-C , 15-S ) :   1.1458 B( 14-C , 16-C ) :   1.1991
B( 16-C , 17-C ) :   1.4232 B( 16-C , 26-S ) :   1.1159 B( 17-C , 18-C ) :   1.0096
B( 17-C , 24-C ) :   1.3006 B( 18-C , 19-C ) :   1.6863 B( 19-C , 20-C ) :   1.1409
B( 19-C , 22-C ) :   1.1454 B( 20-C , 21-N ) :   2.9797 B( 22-C , 23-N ) :   2.9717
B( 24-C , 25-C ) :   1.4543 B( 24-C , 72-H ) :   0.9926 B( 25-C , 26-S ) :   1.1515
B( 25-C , 27-C ) :   1.1041 B( 27-C , 28-C ) :   1.2860 B( 27-C , 40-C ) :   1.2003
B( 28-C , 29-C ) :   1.1557 B( 28-C , 33-N ) :   1.4142 B( 29-C , 30-N ) :   1.4650
B( 29-C , 38-C ) :   1.2005 B( 30-N , 31-C ) :   1.6636 B( 31-C , 32-C ) :   1.2347
B( 31-C , 36-C ) :   1.1666 B( 32-C , 33-N ) :   1.6978 B( 32-C , 34-C ) :   1.1592
B( 34-C , 35-N ) :   3.0508 B( 36-C , 37-N ) :   3.0444 B( 38-C , 39-C ) :   1.1816
B( 38-C , 44-C ) :   1.2809 B( 39-C , 40-C ) :   1.1157 B( 39-C , 43-N ) :   1.5458
B( 40-C , 41-N ) :   1.5464 B( 41-N , 42-S ) :   1.2674 B( 41-N , 43-N ) :   0.1361
B( 42-S , 43-N ) :   1.2522 B( 44-C , 45-C ) :   1.3644 B( 44-C , 48-S ) :   1.0857
B( 45-C , 46-C ) :   1.3455 B( 45-C , 73-H ) :   0.9869 B( 46-C , 47-C ) :   1.3553
B( 46-C , 51-C ) :   1.0194 B( 47-C , 48-S ) :   1.1522 B( 47-C , 49-C ) :   1.2207
B( 49-C , 50-C ) :   1.3978 B( 49-C , 59-S ) :   1.1285 B( 50-C , 51-C ) :   1.0111
B( 50-C , 57-C ) :   1.3121 B( 51-C , 52-C ) :   1.7240 B( 52-C , 53-C ) :   1.1292
B( 52-C , 55-C ) :   1.1314 B( 53-C , 54-N ) :   2.9988 B( 55-C , 56-N ) :   3.0025
B( 57-C , 58-C ) :   1.4498 B( 57-C , 74-H ) :   1.0004 B( 58-C , 59-S ) :   1.0918
B( 58-C , 60-C ) :   1.0203 B( 60-C , 61-C ) :   2.3143 B( 61-C , 62-C ) :   0.9646
B( 62-C , 63-C ) :   1.4483 B( 62-C , 65-C ) :   0.1451 B( 62-C , 66-S ) :   1.1016
B( 63-C , 64-C ) :   1.2184 B( 63-C , 70-F ) :   1.2087 B( 64-C , 65-C ) :   1.4623
B( 64-C , 69-F ) :   1.2150 B( 65-C , 66-S ) :   1.1221 B( 65-C , 67-C ) :   1.1877
B( 67-C , 68-N ) :   3.0171

-----------------------------------------------------------------------------
         ABSORPTION SPECTRUM VIA TRANSITION ELECTRIC DIPOLE MOMENTS
-----------------------------------------------------------------------------
State   Energy  Wavelength   fosc         T2         TX        TY        TZ
        (cm-1)    (nm)                  (au**2)     (au)      (au)      (au)
-----------------------------------------------------------------------------
   0    6264.7   1596.3   0.138150715   7.25990   1.52238  -0.35177   2.19511
   1   10537.5    949.0   0.074798050   2.33685   1.27018   0.52611  -0.66836
   2   11515.3    868.4   0.003586117   0.10252  -0.02675  -0.08670  -0.30707
   3   14482.9    690.5   0.368109774   8.36752  -2.42106  -0.97033   1.25078
   4   18075.2    553.2   0.080379304   1.46399   0.87019   0.17753  -0.82173
   5   19394.4    515.6   0.007834869   0.13299   0.29086  -0.12978  -0.17763
   6   20240.9    494.0   0.133422933   2.17008   1.46485   0.11948  -0.10004
   7   22152.2    451.4   0.114380795   1.69986  -1.24508   0.17595   0.34451
   8   23176.5    431.5   0.124204044   1.76427  -0.33633  -0.54280   1.16469
   9   23820.2    419.8   0.021431833   0.29620  -0.02920  -0.00666   0.54342
  10   24119.9    414.6   0.060336187   0.82353  -0.01381   0.04247  -0.90639
  11   24625.4    406.1   0.066568273   0.88994   0.71612   0.36058  -0.49709
  12   25085.2    398.6   0.227147742   2.98104   0.14613   1.29731  -1.12989
  13   25783.7    387.8   0.425179288   5.42877   1.52039   1.13495  -1.35244
  14   25940.1    385.5   0.773057056   9.81103   1.55072   1.39271  -2.33809
  15   26202.4    381.6   0.024998153   0.31408  -0.30680   0.46889  -0.00980
  16   26924.5    371.4   0.181266661   2.21639   0.22802  -1.28408   0.71800
  17   28143.9    355.3   0.013285682   0.15541   0.07474   0.36941   0.11558
  18   29225.8    342.2   0.317902240   3.58099   0.39650  -1.84297   0.16510
  19   29335.9    340.9   0.075181481   0.84370  -0.60465  -0.00032   0.69144
  20   29753.8    336.1   0.112099746   1.24033  -0.18293  -0.94794   0.55522
  21   30406.8    328.9   0.238757984   2.58501  -1.14047   0.53687   0.99806
  22   30788.0    324.8   0.082777152   0.88513  -0.83080  -0.42237  -0.12849
  23   30975.6    322.8   0.001828125   0.01943   0.08926   0.09673  -0.04589
  24   31149.4    321.0   0.012042309   0.12727  -0.24350  -0.12883  -0.22668
  25   31280.1    319.7   0.819631747   8.62632  -0.28655  -2.16026   1.96913
  26   31413.1    318.3   0.078075683   0.81824  -0.38295   0.12687  -0.80963
  27   31557.8    316.9   0.197558776   2.06094  -1.30089   0.21133  -0.56918
  28   31852.8    313.9   0.132192155   1.36626   0.45539  -1.00718  -0.38009
  29   32169.1    310.9   0.606920721   6.21109   1.84168  -1.59034   0.53862
  30   32612.0    306.6   0.035392620   0.35728   0.13176  -0.35663   0.46123
  31   32852.3    304.4   0.113762494   1.14001  -0.93658  -0.51258   0.00979
  32   33304.7    300.3   0.045109055   0.44590   0.44256  -0.33532  -0.37093
  33   33702.1    296.7   0.186512511   1.82191   0.82305  -0.84370   0.65777
  34   34115.5    293.1   0.133842046   1.29156   0.86036   0.56349  -0.48355
  35   34336.3    291.2   0.005345112   0.05125  -0.05830   0.12028  -0.18271
  36   34352.9    291.1   0.004381782   0.04199   0.18075  -0.08419   0.04727
  37   34585.8    289.1   0.017530046   0.16686  -0.21692  -0.09737  -0.33215
  38   34766.5    287.6   0.105405097   0.99810  -0.74198   0.58716  -0.32065
  39   34884.1    286.7   0.077863509   0.73482  -0.14914  -0.08584  -0.83977
  40   35502.2    281.7   0.134214458   1.24457   1.03499   0.18933  -0.37084
  41   35824.3    279.1   0.014038179   0.12901   0.20680   0.08554  -0.28093
  42   36009.9    277.7   0.055316160   0.50572   0.11978   0.65870  -0.23977
  43   36162.5    276.5   0.234847286   2.13797   0.40355   1.21732  -0.70233
  44   36232.4    276.0   0.032678026   0.29692  -0.03910  -0.52070   0.15576
  45   36359.6    275.0   0.042296091   0.38296   0.39221  -0.46511   0.11316
  46   36780.0    271.9   0.000837935   0.00750   0.08180  -0.01520  -0.02406
  47   36928.5    270.8   0.247357520   2.20516  -0.07277   1.43547  -0.37319
  48   37321.8    267.9   0.026700000   0.23552  -0.20446  -0.09646  -0.42943
  49   37450.6    267.0   0.010074788   0.08856   0.22235   0.02958   0.19557
  50   37546.2    266.3   0.023669985   0.20754   0.35773  -0.09400  -0.26597
  51   37982.2    263.3   0.001824771   0.01582  -0.11293   0.05426  -0.01091
  52   38038.7    262.9   0.056359580   0.48777   0.17371  -0.61017  -0.29204
  53   38199.5    261.8   0.002559317   0.02206  -0.05060  -0.03219   0.13587
  54   38263.1    261.3   0.068762698   0.59163   0.26180   0.70255   0.17179
  55   38442.4    260.1   0.114779402   0.98295  -0.26638   0.82300   0.48442
  56   38529.1    259.5   0.001743691   0.01490   0.09336   0.06411   0.04553
  57   38919.4    256.9   0.011094729   0.09385   0.01228  -0.30030  -0.05930
  58   38935.6    256.8   0.002851099   0.02411   0.12848  -0.05996   0.06329
  59   39339.8    254.2   0.056896030   0.47613  -0.26540   0.63133  -0.08437
  60   39412.3    253.7   0.010227693   0.08543   0.02784  -0.24301   0.16001
  61   39774.6    251.4   0.008709356   0.07209   0.01522   0.25407   0.08547
  62   39836.3    251.0   0.059354594   0.49051  -0.64724   0.24205   0.11406
  63   40062.1    249.6   0.045956614   0.37765   0.53455   0.30160  -0.03068

FINAL SINGLE POINT ENERGY     -5670.395391095767

DIPOLE MOMENT
-------------
                                X             Y             Z
Electronic contribution:    -17.27010     -13.30743      20.61551
Nuclear contribution   :     18.67741      15.42794     -21.48424
                        -----------------------------------------
Total Dipole Moment    :      1.40730       2.12050      -0.86874
                        -----------------------------------------
Magnitude (a.u.)       :      2.68919
Magnitude (Debye)      :      6.83538

Rotational constants in cm-1:     0.001032     0.000529     0.000396
Rotational constants in MHz :    30.926580    15.862765    11.877687

                             ****ORCA TERMINATED NORMALLY****
TOTAL RUN TIME: 0 days 0 hours 7 minutes 22 seconds 588 msec
