                         Program Version 4.2.0 -  RELEASE  -
|  1> # ORCA input file
|  2> # SCF done       -178.566283044577          0.000408046927
|  3> ! CAM-B3LYP def2-SVP def2/J RIJCOSX Grid4 TightSCF
|  4> %maxcore 5000
|  5> %tddft
|  6>     Mode sTDDFT
|  7>     Ethresh 5.0
|  8>     maxcore 5000
|  9> end
| 10>
| 11> %pal
| 12>   nprocs 6
| 13>   end
| 14> * xyz 0 1
| 15>    C       -0.67449         1.07334         8.33093
| 16>    C       -1.33923         0.93403         9.55137
| 17>    N       -1.88152         0.82272        10.55578
| 18>    C       -1.21779         0.98182         7.06555
| 19>    F       -2.50451         0.73593         6.83657
| 20>    C       -0.27344         1.17677         6.04454
| 21>    F       -0.57224         1.13571         4.74535
| 22>    C        1.00310         1.42013         6.51780
| 23>    S        1.02897         1.40407         8.25632
| 24>    C        2.14193         1.66618         5.77113
| 25>    C        3.12417         1.89548         5.09410
| 26>    C        4.24871         2.19255         4.34821
| 27>    C        4.34392         2.27473         2.97041
| 28>    C        5.62538         2.64723         2.56754
| 29>    C        6.50653         2.84368         3.64927
| 30>    S        5.76706         2.56622         5.16059
| 31>    C        7.76349         3.26134         3.14766
| 32>    C        7.67460         3.33387         1.74119
| 33>    C        6.33572         2.93530         1.33224
| 34>    C        5.85331         2.85447         0.05960
| 35>    C        4.53041         2.45058        -0.22087
| 36>    N        3.45640         2.12346        -0.45209
| 37>    C        6.65062         3.16791        -1.06204
| 38>    N        7.29962         3.42316        -1.97187
| 39>    C        8.84741         3.78729         1.15177
| 40>    C        9.82323         4.05798         2.10339
| 41>    S        9.29290         3.72993         3.74763
| 42>    C       11.10771         4.59208         1.91014
| 43>    C       12.02490         4.85375         2.93372
| 44>    C       13.22781         5.47838         2.46627
| 45>    N       14.20687         5.81245         3.30533
| 46>    C       14.01867         5.53496         4.57888
| 47>    C       15.11073         5.89907         5.51476
| 48>    O       16.12901         6.44769         5.14778
| 49>    C       14.86703         5.54563         6.92334
| 50>    C       13.74447         4.96402         7.35947
| 51>    C       12.61656         4.60448         6.48376
| 52>    O       11.60019         4.09428         6.90712
| 53>    C       12.81641         4.91119         5.04605
| 54>    N       11.84013         4.58417         4.22494
| 55>    C       13.23252         5.69618         1.08427
| 56>    S       11.75722         5.10206         0.37891
| 57>    C       14.25117         6.35963         0.38097
| 58>    C       14.32209         6.63696        -0.97885
| 59>    C       15.45380         7.38000        -1.28766
| 60>    C       16.24440         7.66701        -0.15452
| 61>    S       15.61007         7.00864         1.28888
| 62>    C       17.33672         8.46791        -0.56890
| 63>    C       17.24286         8.68475        -1.95795
| 64>    C       16.06354         7.99651        -2.45667
| 65>    C       15.61706         7.94148        -3.74374
| 66>    C       14.44688         7.23643        -4.09807
| 67>    N       13.49601         6.66344        -4.38369
| 68>    C       16.29348         8.58148        -4.80424
| 69>    N       16.84015         9.10151        -5.66720
| 70>    C       18.25879         9.50180        -2.45109
| 71>    C       19.11719         9.90798        -1.44488
| 72>    S       18.67360         9.26091         0.13279
| 73>    C       20.20340        10.75359        -1.56453
| 74>    C       21.14297        11.51915        -1.64759
| 75>    C       22.19607        12.40856        -1.76962
| 76>    C       22.62770        13.04135        -2.92122
| 77>    C       23.71540        13.90368        -2.70817
| 78>    C       24.12823        13.94010        -1.39173
| 79>    S       23.15804        12.89127        -0.40408
| 80>    C       25.17173        14.69496        -0.85129
| 81>    N       26.02729        15.31361        -0.40320
| 82>    F       24.28786        14.61427        -3.67557
| 83>    F       22.06050        12.84935        -4.11296
| 84>    H        3.51188         2.07882         2.31873
| 85>    H        9.00802         3.93181         0.09838
| 86>    H       15.67091         5.79584         7.60243
| 87>    H       13.60469         4.72528         8.40516
| 88>    H       13.57210         6.31168        -1.67740
| 89>    H       18.38168         9.80377        -3.47533
| 90> *
| 91>
| 92>                          ****END OF INPUT****

CARTESIAN COORDINATES (ANGSTROEM)
---------------------------------
  C     -0.674490    1.073340    8.330930
  C     -1.339230    0.934030    9.551370
  N     -1.881520    0.822720   10.555780
  C     -1.217790    0.981820    7.065550
  F     -2.504510    0.735930    6.836570
  C     -0.273440    1.176770    6.044540
  F     -0.572240    1.135710    4.745350
  C      1.003100    1.420130    6.517800
  S      1.028970    1.404070    8.256320
  C      2.141930    1.666180    5.771130
  C      3.124170    1.895480    5.094100
  C      4.248710    2.192550    4.348210
  C      4.343920    2.274730    2.970410
  C      5.625380    2.647230    2.567540
  C      6.506530    2.843680    3.649270
  S      5.767060    2.566220    5.160590
  C      7.763490    3.261340    3.147660
  C      7.674600    3.333870    1.741190
  C      6.335720    2.935300    1.332240
  C      5.853310    2.854470    0.059600
  C      4.530410    2.450580   -0.220870
  N      3.456400    2.123460   -0.452090
  C      6.650620    3.167910   -1.062040
  N      7.299620    3.423160   -1.971870
  C      8.847410    3.787290    1.151770
  C      9.823230    4.057980    2.103390
  S      9.292900    3.729930    3.747630
  C     11.107710    4.592080    1.910140
  C     12.024900    4.853750    2.933720
  C     13.227810    5.478380    2.466270
  N     14.206870    5.812450    3.305330
  C     14.018670    5.534960    4.578880
  C     15.110730    5.899070    5.514760
  O     16.129010    6.447690    5.147780
  C     14.867030    5.545630    6.923340
  C     13.744470    4.964020    7.359470
  C     12.616560    4.604480    6.483760
  O     11.600190    4.094280    6.907120
  C     12.816410    4.911190    5.046050
  N     11.840130    4.584170    4.224940
  C     13.232520    5.696180    1.084270
  S     11.757220    5.102060    0.378910
  C     14.251170    6.359630    0.380970
  C     14.322090    6.636960   -0.978850
  C     15.453800    7.380000   -1.287660
  C     16.244400    7.667010   -0.154520
  S     15.610070    7.008640    1.288880
  C     17.336720    8.467910   -0.568900
  C     17.242860    8.684750   -1.957950
  C     16.063540    7.996510   -2.456670
  C     15.617060    7.941480   -3.743740
  C     14.446880    7.236430   -4.098070
  N     13.496010    6.663440   -4.383690
  C     16.293480    8.581480   -4.804240
  N     16.840150    9.101510   -5.667200
  C     18.258790    9.501800   -2.451090
  C     19.117190    9.907980   -1.444880
  S     18.673600    9.260910    0.132790
  C     20.203400   10.753590   -1.564530
  C     21.142970   11.519150   -1.647590
  C     22.196070   12.408560   -1.769620
  C     22.627700   13.041350   -2.921220
  C     23.715400   13.903680   -2.708170
  C     24.128230   13.940100   -1.391730
  S     23.158040   12.891270   -0.404080
  C     25.171730   14.694960   -0.851290
  N     26.027290   15.313610   -0.403200
  F     24.287860   14.614270   -3.675570
  F     22.060500   12.849350   -4.112960
  H      3.511880    2.078820    2.318730
  H      9.008020    3.931810    0.098380
  H     15.670910    5.795840    7.602430
  H     13.604690    4.725280    8.405160
  H     13.572100    6.311680   -1.677400
  H     18.381680    9.803770   -3.475330

 Total Charge           Charge          ....    0
 Multiplicity           Mult            ....    1
 Number of Electrons    NEL             ....  514
 Basis Dimension        Dim             .... 1024

ORBITAL ENERGIES
----------------

  NO   OCC          E(Eh)            E(eV)
   0   2.0000     -89.014229     -2422.2003
   1   2.0000     -89.002629     -2421.8847
   2   2.0000     -89.002571     -2421.8831
   3   2.0000     -89.002207     -2421.8732
   4   2.0000     -89.002177     -2421.8724
   5   2.0000     -88.996854     -2421.7275
   6   2.0000     -88.996836     -2421.7270
   7   2.0000     -24.819840      -675.3822
   8   2.0000     -24.819757      -675.3799
   9   2.0000     -24.814905      -675.2479
  10   2.0000     -24.814813      -675.2454
  11   2.0000     -19.241442      -523.5862
  12   2.0000     -19.241417      -523.5856
  13   2.0000     -14.468776      -393.7154
  14   2.0000     -14.468644      -393.7118
  15   2.0000     -14.438146      -392.8819
  16   2.0000     -14.438139      -392.8817
  17   2.0000     -14.437208      -392.8564
  18   2.0000     -14.437135      -392.8544
  19   2.0000     -14.421332      -392.4244
  20   2.0000     -14.421332      -392.4244
  21   2.0000     -10.403355      -283.0897
  22   2.0000     -10.403339      -283.0893
  23   2.0000     -10.395271      -282.8697
  24   2.0000     -10.395257      -282.8693
  25   2.0000     -10.391193      -282.7587
  26   2.0000     -10.391093      -282.7560
  27   2.0000     -10.373484      -282.2768
  28   2.0000     -10.373475      -282.2766
  29   2.0000     -10.360822      -281.9323
  30   2.0000     -10.360812      -281.9320
  31   2.0000     -10.358953      -281.8814
  32   2.0000     -10.358700      -281.8746
  33   2.0000     -10.356403      -281.8120
  34   2.0000     -10.356402      -281.8120
  35   2.0000     -10.354518      -281.7608
  36   2.0000     -10.354509      -281.7605
  37   2.0000     -10.349875      -281.6344
  38   2.0000     -10.349766      -281.6314
  39   2.0000     -10.348054      -281.5849
  40   2.0000     -10.347769      -281.5771
  41   2.0000     -10.345487      -281.5150
  42   2.0000     -10.345483      -281.5149
  43   2.0000     -10.345222      -281.5078
  44   2.0000     -10.345139      -281.5056
  45   2.0000     -10.341434      -281.4047
  46   2.0000     -10.341351      -281.4025
  47   2.0000     -10.338229      -281.3175
  48   2.0000     -10.338224      -281.3174
  49   2.0000     -10.337833      -281.3067
  50   2.0000     -10.337668      -281.3022
  51   2.0000     -10.337067      -281.2859
  52   2.0000     -10.336994      -281.2839
  53   2.0000     -10.324615      -280.9471
  54   2.0000     -10.324603      -280.9467
  55   2.0000     -10.323157      -280.9074
  56   2.0000     -10.322456      -280.8883
  57   2.0000     -10.316684      -280.7312
  58   2.0000     -10.316669      -280.7308
  59   2.0000     -10.315751      -280.7059
  60   2.0000     -10.315662      -280.7034
  61   2.0000     -10.314641      -280.6757
  62   2.0000     -10.314609      -280.6748
  63   2.0000     -10.313984      -280.6578
  64   2.0000     -10.313932      -280.6564
  65   2.0000     -10.313651      -280.6487
  66   2.0000     -10.313519      -280.6451
  67   2.0000     -10.310418      -280.5607
  68   2.0000     -10.310266      -280.5566
  69   2.0000      -8.108115      -220.6330
  70   2.0000      -8.097262      -220.3377
  71   2.0000      -8.097258      -220.3376
  72   2.0000      -8.097211      -220.3363
  73   2.0000      -8.097151      -220.3347
  74   2.0000      -8.090108      -220.1430
  75   2.0000      -8.090072      -220.1420
  76   2.0000      -6.077252      -165.3704
  77   2.0000      -6.073140      -165.2586
  78   2.0000      -6.070741      -165.1933
  79   2.0000      -6.066856      -165.0876
  80   2.0000      -6.066839      -165.0871
  81   2.0000      -6.066492      -165.0776
  82   2.0000      -6.066437      -165.0761
  83   2.0000      -6.062770      -164.9764
  84   2.0000      -6.062770      -164.9764
  85   2.0000      -6.062246      -164.9621
  86   2.0000      -6.062191      -164.9606
  87   2.0000      -6.059521      -164.8880
  88   2.0000      -6.059516      -164.8878
  89   2.0000      -6.059513      -164.8877
  90   2.0000      -6.059457      -164.8862
  91   2.0000      -6.058587      -164.8625
  92   2.0000      -6.058585      -164.8625
  93   2.0000      -6.055041      -164.7660
  94   2.0000      -6.054968      -164.7641
  95   2.0000      -6.052404      -164.6943
  96   2.0000      -6.052394      -164.6940
  97   2.0000      -1.338907       -36.4335
  98   2.0000      -1.338852       -36.4320
  99   2.0000      -1.325865       -36.0786
 100   2.0000      -1.325818       -36.0773
 101   2.0000      -1.158971       -31.5372
 102   2.0000      -1.154075       -31.4040
 103   2.0000      -1.119038       -30.4506
 104   2.0000      -1.055280       -28.7156
 105   2.0000      -1.054592       -28.6969
 106   2.0000      -1.047260       -28.4974
 107   2.0000      -1.033530       -28.1238
 108   2.0000      -1.033481       -28.1224
 109   2.0000      -1.030694       -28.0466
 110   2.0000      -1.029619       -28.0174
 111   2.0000      -1.025525       -27.9060
 112   2.0000      -1.015352       -27.6291
 113   2.0000      -1.015142       -27.6234
 114   2.0000      -1.008492       -27.4425
 115   2.0000      -1.000872       -27.2351
 116   2.0000      -1.000065       -27.2131
 117   2.0000      -0.999842       -27.2071
 118   2.0000      -0.970372       -26.4052
 119   2.0000      -0.966067       -26.2880
 120   2.0000      -0.954252       -25.9665
 121   2.0000      -0.932161       -25.3654
 122   2.0000      -0.926154       -25.2019
 123   2.0000      -0.912141       -24.8206
 124   2.0000      -0.908453       -24.7203
 125   2.0000      -0.892028       -24.2733
 126   2.0000      -0.890006       -24.2183
 127   2.0000      -0.881623       -23.9902
 128   2.0000      -0.880490       -23.9593
 129   2.0000      -0.870720       -23.6935
 130   2.0000      -0.869990       -23.6736
 131   2.0000      -0.866280       -23.5727
 132   2.0000      -0.866086       -23.5674
 133   2.0000      -0.860634       -23.4190
 134   2.0000      -0.854082       -23.2408
 135   2.0000      -0.822929       -22.3930
 136   2.0000      -0.818523       -22.2731
 137   2.0000      -0.807270       -21.9669
 138   2.0000      -0.800431       -21.7808
 139   2.0000      -0.792621       -21.5683
 140   2.0000      -0.784765       -21.3545
 141   2.0000      -0.775882       -21.1128
 142   2.0000      -0.771274       -20.9874
 143   2.0000      -0.754617       -20.5342
 144   2.0000      -0.751459       -20.4482
 145   2.0000      -0.725392       -19.7389
 146   2.0000      -0.722737       -19.6667
 147   2.0000      -0.712474       -19.3874
 148   2.0000      -0.712186       -19.3796
 149   2.0000      -0.704001       -19.1569
 150   2.0000      -0.699941       -19.0464
 151   2.0000      -0.693145       -18.8614
 152   2.0000      -0.692934       -18.8557
 153   2.0000      -0.689952       -18.7746
 154   2.0000      -0.688476       -18.7344
 155   2.0000      -0.687010       -18.6945
 156   2.0000      -0.675768       -18.3886
 157   2.0000      -0.663903       -18.0657
 158   2.0000      -0.645074       -17.5533
 159   2.0000      -0.642683       -17.4883
 160   2.0000      -0.639415       -17.3994
 161   2.0000      -0.639375       -17.3983
 162   2.0000      -0.633111       -17.2278
 163   2.0000      -0.629235       -17.1224
 164   2.0000      -0.626645       -17.0519
 165   2.0000      -0.623175       -16.9575
 166   2.0000      -0.622885       -16.9496
 167   2.0000      -0.618762       -16.8374
 168   2.0000      -0.611197       -16.6315
 169   2.0000      -0.604704       -16.4548
 170   2.0000      -0.604702       -16.4548
 171   2.0000      -0.602687       -16.4000
 172   2.0000      -0.599725       -16.3193
 173   2.0000      -0.585936       -15.9441
 174   2.0000      -0.579839       -15.7782
 175   2.0000      -0.579291       -15.7633
 176   2.0000      -0.574757       -15.6399
 177   2.0000      -0.569415       -15.4946
 178   2.0000      -0.565722       -15.3941
 179   2.0000      -0.565711       -15.3938
 180   2.0000      -0.565286       -15.3822
 181   2.0000      -0.562250       -15.2996
 182   2.0000      -0.556970       -15.1559
 183   2.0000      -0.556922       -15.1546
 184   2.0000      -0.543859       -14.7991
 185   2.0000      -0.540867       -14.7177
 186   2.0000      -0.537121       -14.6158
 187   2.0000      -0.526162       -14.3176
 188   2.0000      -0.525423       -14.2975
 189   2.0000      -0.525121       -14.2893
 190   2.0000      -0.523711       -14.2509
 191   2.0000      -0.516720       -14.0607
 192   2.0000      -0.513785       -13.9808
 193   2.0000      -0.513471       -13.9722
 194   2.0000      -0.511053       -13.9064
 195   2.0000      -0.510162       -13.8822
 196   2.0000      -0.508222       -13.8294
 197   2.0000      -0.507120       -13.7994
 198   2.0000      -0.506530       -13.7834
 199   2.0000      -0.505957       -13.7678
 200   2.0000      -0.504869       -13.7382
 201   2.0000      -0.503724       -13.7070
 202   2.0000      -0.503640       -13.7048
 203   2.0000      -0.500562       -13.6210
 204   2.0000      -0.497353       -13.5337
 205   2.0000      -0.495806       -13.4916
 206   2.0000      -0.488311       -13.2876
 207   2.0000      -0.475314       -12.9339
 208   2.0000      -0.473090       -12.8734
 209   2.0000      -0.471218       -12.8225
 210   2.0000      -0.469913       -12.7870
 211   2.0000      -0.468348       -12.7444
 212   2.0000      -0.468288       -12.7428
 213   2.0000      -0.468247       -12.7417
 214   2.0000      -0.466793       -12.7021
 215   2.0000      -0.465625       -12.6703
 216   2.0000      -0.463638       -12.6162
 217   2.0000      -0.458788       -12.4843
 218   2.0000      -0.458199       -12.4682
 219   2.0000      -0.457523       -12.4498
 220   2.0000      -0.455011       -12.3815
 221   2.0000      -0.452382       -12.3099
 222   2.0000      -0.448665       -12.2088
 223   2.0000      -0.448649       -12.2084
 224   2.0000      -0.447629       -12.1806
 225   2.0000      -0.447559       -12.1787
 226   2.0000      -0.446773       -12.1573
 227   2.0000      -0.446077       -12.1384
 228   2.0000      -0.435070       -11.8389
 229   2.0000      -0.434286       -11.8175
 230   2.0000      -0.431562       -11.7434
 231   2.0000      -0.427189       -11.6244
 232   2.0000      -0.423042       -11.5115
 233   2.0000      -0.423027       -11.5111
 234   2.0000      -0.410593       -11.1728
 235   2.0000      -0.409600       -11.1458
 236   2.0000      -0.409462       -11.1420
 237   2.0000      -0.393673       -10.7124
 238   2.0000      -0.387194       -10.5361
 239   2.0000      -0.379864       -10.3366
 240   2.0000      -0.379797       -10.3348
 241   2.0000      -0.379243       -10.3197
 242   2.0000      -0.376217       -10.2374
 243   2.0000      -0.365802        -9.9540
 244   2.0000      -0.362143        -9.8544
 245   2.0000      -0.359439        -9.7808
 246   2.0000      -0.357838        -9.7373
 247   2.0000      -0.351301        -9.5594
 248   2.0000      -0.350005        -9.5241
 249   2.0000      -0.345795        -9.4096
 250   2.0000      -0.345756        -9.4085
 251   2.0000      -0.331799        -9.0287
 252   2.0000      -0.331570        -9.0225
 253   2.0000      -0.327108        -8.9011
 254   2.0000      -0.300194        -8.1687
 255   2.0000      -0.275958        -7.5092
 256   2.0000      -0.244484        -6.6528
 257   0.0000      -0.127923        -3.4810
 258   0.0000      -0.114850        -3.1252
 259   0.0000      -0.103287        -2.8106
 260   0.0000      -0.101013        -2.7487
 261   0.0000      -0.069986        -1.9044

MULLIKEN ATOMIC CHARGES
-----------------------
   0 C :   -0.340073
   1 C :   -0.137966
   2 N :    0.145674
   3 C :    0.289113
   4 F :   -0.141743
   5 C :    0.218636
   6 F :   -0.151769
   7 C :   -0.213529
   8 S :    0.256585
   9 C :    0.020253
  10 C :    0.030533
  11 C :   -0.159622
  12 C :    0.013569
  13 C :    0.001555
  14 C :   -0.098571
  15 S :    0.231466
  16 C :   -0.081945
  17 C :    0.033416
  18 C :    0.295818
  19 C :   -0.291860
  20 C :   -0.190486
  21 N :    0.183736
  22 C :   -0.190565
  23 N :    0.175434
  24 C :   -0.085148
  25 C :   -0.073191
  26 S :    0.240683
  27 C :   -0.119327
  28 C :    0.022944
  29 C :    0.026466
  30 N :    0.036231
  31 C :   -0.114642
  32 C :    0.139354
  33 O :   -0.106045
  34 C :   -0.017540
  35 C :   -0.018126
  36 C :    0.139239
  37 O :   -0.106662
  38 C :   -0.111130
  39 N :    0.037414
  40 C :   -0.120613
  41 S :    0.238766
  42 C :   -0.074736
  43 C :   -0.079955
  44 C :    0.030796
  45 C :   -0.082032
  46 S :    0.241028
  47 C :   -0.099457
  48 C :    0.000937
  49 C :    0.296606
  50 C :   -0.290126
  51 C :   -0.190591
  52 N :    0.175966
  53 C :   -0.192219
  54 N :    0.184016
  55 C :    0.013656
  56 C :   -0.158718
  57 S :    0.231637
  58 C :    0.030088
  59 C :    0.017468
  60 C :   -0.211608
  61 C :    0.218183
  62 C :    0.288180
  63 C :   -0.340243
  64 S :    0.257188
  65 C :   -0.137610
  66 N :    0.145963
  67 F :   -0.141810
  68 F :   -0.151057
  69 H :    0.022336
  70 H :    0.012442
  71 H :    0.021875
  72 H :    0.021679
  73 H :    0.011900
  74 H :    0.021883
Sum of atomic charges:   -0.0000000

LOEWDIN ATOMIC CHARGES
----------------------
   0 C :   -0.254466
   1 C :   -0.055280
   2 N :   -0.030978
   3 C :    0.057184
   4 F :   -0.025997
   5 C :    0.036179
   6 F :   -0.034596
   7 C :   -0.204420
   8 S :    0.508063
   9 C :   -0.050074
  10 C :   -0.022274
  11 C :   -0.187948
  12 C :   -0.000602
  13 C :   -0.070577
  14 C :   -0.172542
  15 S :    0.499717
  16 C :   -0.183950
  17 C :   -0.065579
  18 C :    0.079325
  19 C :   -0.098169
  20 C :   -0.018629
  21 N :   -0.025679
  22 C :   -0.016685
  23 N :   -0.029066
  24 C :   -0.027773
  25 C :   -0.180262
  26 S :    0.529843
  27 C :   -0.189665
  28 C :   -0.055667
  29 C :   -0.055392
  30 N :   -0.009002
  31 C :   -0.038704
  32 C :    0.055504
  33 O :   -0.102717
  34 C :   -0.011115
  35 C :   -0.010903
  36 C :    0.055500
  37 O :   -0.102795
  38 C :   -0.038607
  39 N :   -0.008969
  40 C :   -0.189748
  41 S :    0.523204
  42 C :   -0.180327
  43 C :   -0.027625
  44 C :   -0.065611
  45 C :   -0.183709
  46 S :    0.529599
  47 C :   -0.172507
  48 C :   -0.070627
  49 C :    0.079315
  50 C :   -0.098215
  51 C :   -0.016794
  52 N :   -0.029038
  53 C :   -0.018733
  54 N :   -0.025559
  55 C :   -0.000351
  56 C :   -0.188177
  57 S :    0.499668
  58 C :   -0.022122
  59 C :   -0.050021
  60 C :   -0.204540
  61 C :    0.035997
  62 C :    0.057136
  63 C :   -0.254535
  64 S :    0.508158
  65 C :   -0.055307
  66 N :   -0.030944
  67 F :   -0.025996
  68 F :   -0.034400
  69 H :    0.048964
  70 H :    0.038527
  71 H :    0.047422
  72 H :    0.047343
  73 H :    0.038430
  74 H :    0.048890

  Mayer bond orders larger than 0.100000
B(  0-C ,  1-C ) :   1.1902 B(  0-C ,  3-C ) :   1.4643 B(  0-C ,  7-C ) :   0.1458
B(  0-C ,  8-S ) :   1.1122 B(  1-C ,  2-N ) :   3.0170 B(  3-C ,  4-F ) :   1.2165
B(  3-C ,  5-C ) :   1.2135 B(  5-C ,  6-F ) :   1.2064 B(  5-C ,  7-C ) :   1.4508
B(  7-C ,  8-S ) :   1.1034 B(  7-C ,  9-C ) :   0.9674 B(  9-C , 10-C ) :   2.3403
B( 10-C , 11-C ) :   0.9904 B( 11-C , 12-C ) :   1.4535 B( 11-C , 15-S ) :   1.0777
B( 12-C , 13-C ) :   1.2951 B( 12-C , 69-H ) :   1.0022 B( 13-C , 14-C ) :   1.4223
B( 13-C , 18-C ) :   0.9913 B( 14-C , 15-S ) :   1.1366 B( 14-C , 16-C ) :   1.2017
B( 16-C , 17-C ) :   1.4089 B( 16-C , 26-S ) :   1.1000 B( 17-C , 18-C ) :   0.9921
B( 17-C , 24-C ) :   1.3234 B( 18-C , 19-C ) :   1.7221 B( 19-C , 20-C ) :   1.1315
B( 19-C , 22-C ) :   1.1337 B( 20-C , 21-N ) :   2.9975 B( 22-C , 23-N ) :   2.9923
B( 24-C , 25-C ) :   1.3881 B( 24-C , 70-H ) :   0.9957 B( 25-C , 26-S ) :   1.1157
B( 25-C , 27-C ) :   1.2377 B( 27-C , 28-C ) :   1.3203 B( 27-C , 40-C ) :   0.1170
B( 27-C , 41-S ) :   1.1556 B( 28-C , 29-C ) :   1.1863 B( 28-C , 39-N ) :   1.4194
B( 29-C , 30-N ) :   1.4171 B( 29-C , 40-C ) :   1.3191 B( 30-N , 31-C ) :   1.6999
B( 31-C , 32-C ) :   0.8978 B( 31-C , 38-C ) :   1.1066 B( 32-C , 33-O ) :   2.2469
B( 32-C , 34-C ) :   1.0220 B( 34-C , 35-C ) :   1.6767 B( 34-C , 71-H ) :   0.9985
B( 35-C , 36-C ) :   1.0225 B( 35-C , 72-H ) :   0.9990 B( 36-C , 37-O ) :   2.2461
B( 36-C , 38-C ) :   0.8971 B( 38-C , 39-N ) :   1.6976 B( 40-C , 41-S ) :   1.1560
B( 40-C , 42-C ) :   1.2386 B( 42-C , 43-C ) :   1.3894 B( 42-C , 46-S ) :   1.1154
B( 43-C , 44-C ) :   1.3261 B( 43-C , 73-H ) :   0.9938 B( 44-C , 45-C ) :   1.4098
B( 44-C , 49-C ) :   0.9937 B( 45-C , 46-S ) :   1.1005 B( 45-C , 47-C ) :   1.2017
B( 47-C , 48-C ) :   1.4220 B( 47-C , 57-S ) :   1.1362 B( 48-C , 49-C ) :   0.9895
B( 48-C , 55-C ) :   1.2962 B( 49-C , 50-C ) :   1.7219 B( 50-C , 51-C ) :   1.1330
B( 50-C , 53-C ) :   1.1312 B( 51-C , 52-N ) :   2.9928 B( 53-C , 54-N ) :   2.9977
B( 55-C , 56-C ) :   1.4542 B( 55-C , 74-H ) :   1.0019 B( 56-C , 57-S ) :   1.0777
B( 56-C , 58-C ) :   0.9920 B( 58-C , 59-C ) :   2.3566 B( 59-C , 60-C ) :   0.9712
B( 60-C , 61-C ) :   1.4513 B( 60-C , 63-C ) :   0.1457 B( 60-C , 64-S ) :   1.1034
B( 61-C , 62-C ) :   1.2127 B( 61-C , 68-F ) :   1.2072 B( 62-C , 63-C ) :   1.4657
B( 62-C , 67-F ) :   1.2164 B( 63-C , 64-S ) :   1.1120 B( 63-C , 65-C ) :   1.1896
B( 65-C , 66-N ) :   3.0171

-----------------------------------------------------------------------------
         ABSORPTION SPECTRUM VIA TRANSITION ELECTRIC DIPOLE MOMENTS
-----------------------------------------------------------------------------
State   Energy  Wavelength   fosc         T2         TX        TY        TZ
        (cm-1)    (nm)                  (au**2)     (au)      (au)      (au)
-----------------------------------------------------------------------------
   0    9854.8   1014.7   0.811734997  27.11712  -4.36722  -2.26788   1.70331
   1   12026.6    831.5   0.010403799   0.28479  -0.29564   0.30329  -0.32466
   2   13554.5    737.8   0.047200869   1.14642  -0.89621  -0.46875   0.35142
   3   16130.9    619.9   0.101167791   2.06471   0.56482  -0.10824   1.31680
   4   19000.8    526.3   0.017824378   0.30883   0.30507  -0.37850   0.26925
   5   21405.3    467.2   0.007730679   0.11890   0.28749   0.15253  -0.11393
   6   23735.6    421.3   0.013536337   0.18775   0.18680  -0.36799   0.13204
   7   23938.6    417.7   2.459496576  33.82382  -4.87796  -2.52806   1.90741
   8   24778.6    403.6   0.001936134   0.02572  -0.06807   0.13901   0.04203
   9   25507.5    392.0   0.014471602   0.18678  -0.36214  -0.18968   0.14020
  10   25663.2    389.7   0.000541186   0.00694   0.06921   0.04001  -0.02350
  11   26062.3    383.7   0.084198280   1.06357  -0.86473  -0.48581   0.28250
  12   26113.2    382.9   0.211256153   2.66333   0.00631  -0.90669  -1.35691
  13   26530.4    376.9   0.000733627   0.00910   0.04534  -0.08201   0.01797
  14   28209.6    354.5   0.023502497   0.27428  -0.07140  -0.21883  -0.47042
  15   28846.7    346.7   0.071034537   0.81068   0.38449  -0.08549   0.80965
  16   28904.7    346.0   0.002807440   0.03198  -0.08272  -0.07934   0.13725
  17   30039.3    332.9   0.000992020   0.01087   0.08843   0.03585  -0.04205
  18   30337.7    329.6   0.122648110   1.33092  -0.96586  -0.50382   0.37975
  19   30713.3    325.6   0.000224917   0.00241   0.00040  -0.00235  -0.04904
  20   30728.3    325.4   0.074274283   0.79575   0.23437   0.18102   0.84146
  21   31810.4    314.4   0.521732524   5.39952  -0.70817  -0.31816  -2.19016
  22   32218.5    310.4   0.344261528   3.51770   1.56560   0.80934  -0.64153
  23   32824.7    304.6   0.332579928   3.33557   0.45533   0.40995   1.72052
  24   33181.5    301.4   0.681917943   6.76568  -1.02383   0.20711  -2.38213
  25   33310.3    300.2   0.071680948   0.70844   0.72821   0.36352  -0.21449
  26   33448.9    299.0   0.090365570   0.88940  -0.29538  -0.08560  -0.89153
  27   33715.3    296.6   0.000134996   0.00132  -0.03108  -0.01733   0.00720
  28   34103.9    293.2   0.090059300   0.86936  -0.78434  -0.40224   0.30392
  29   34432.0    290.4   0.187437472   1.79213  -0.35261  -0.25594  -1.26582
  30   34738.0    287.9   0.317712190   3.01096  -1.45456  -0.75538   0.56976
  31   34796.5    287.4   0.000095393   0.00090   0.01475  -0.02617   0.00053
  32   35073.9    285.1   0.121057266   1.13627  -0.40187   0.05802  -0.98560
  33   35406.3    282.4   0.001102515   0.01025   0.08797   0.04455  -0.02299
  34   36185.8    276.4   0.003553114   0.03233   0.03539   0.04512   0.17040
  35   36577.4    273.4   0.186805093   1.68133  -0.50319   0.05785  -1.19364
  36   36633.6    273.0   0.008460087   0.07603  -0.21195  -0.12209   0.12728
  37   36928.8    270.8   0.007642639   0.06813  -0.02593   0.17181   0.19478
  38   36993.3    270.3   0.027842031   0.24777  -0.41780  -0.21990   0.15768
  39   37247.0    268.5   0.096583091   0.85366  -0.15615  -0.17754  -0.89317
  40   37268.6    268.3   0.057041501   0.50388   0.61658   0.32827  -0.12628
  41   37330.8    267.9   0.003443239   0.03037  -0.11632  -0.07629   0.10495
  42   37346.1    267.8   0.035212115   0.31040  -0.22712   0.02416  -0.50816
  43   37411.8    267.3   0.000186654   0.00164  -0.03292  -0.01455   0.01862
  44   37870.7    264.1   0.000316117   0.00275  -0.04199  -0.02348   0.02083
  45   38556.1    259.4   0.024544700   0.20958   0.12576   0.04967   0.43737
  46   38815.3    257.6   0.009502913   0.08060   0.09788   0.07301   0.25630
  47   38966.5    256.6   0.002167107   0.01831  -0.10716  -0.06444   0.05170
  48   39039.0    256.2   0.004672298   0.03940  -0.08619   0.04030  -0.17421
  49   39401.6    253.8   0.015176672   0.12681   0.08645   0.08322   0.33527
  50   39934.9    250.4   0.000354059   0.00292   0.03557   0.03183  -0.02531
  51   39960.7    250.2   0.002137267   0.01761   0.11553   0.05068  -0.04112
  52   40210.8    248.7   0.025207782   0.20638   0.38061   0.19130  -0.15786

FINAL SINGLE POINT ENERGY     -5603.258776845590

DIPOLE MOMENT
-------------
                                X             Y             Z
Electronic contribution:     -5.07029       7.48981      -3.06104
Nuclear contribution   :      6.28380      -8.14359       5.31613
                        -----------------------------------------
Total Dipole Moment    :      1.21351      -0.65378       2.25509
                        -----------------------------------------
Magnitude (a.u.)       :      2.64300
Magnitude (Debye)      :      6.71798

Rotational constants in cm-1:     0.002115     0.000198     0.000185
Rotational constants in MHz :    63.415466     5.940459     5.554863

                             ****ORCA TERMINATED NORMALLY****
TOTAL RUN TIME: 0 days 0 hours 7 minutes 2 seconds 706 msec
