                         Program Version 4.2.0 -  RELEASE  -
|  1> # ORCA input file
|  2> # SCF done       -189.873370657620          0.000402777598
|  3> ! CAM-B3LYP def2-SVP def2/J RIJCOSX Grid4 TightSCF
|  4> %maxcore 5000
|  5> %tddft
|  6>     Mode sTDDFT
|  7>     Ethresh 5.0
|  8>     maxcore 5000
|  9> end
| 10>
| 11> %pal
| 12>   nprocs 6
| 13>   end
| 14> * xyz 0 1
| 15>    C        2.06448         2.28701        -1.90930
| 16>    O        1.83888         1.89081        -0.57555
| 17>    C        2.82941         2.07783         0.33755
| 18>    C        4.09973         2.54160         0.03154
| 19>    C        5.07126         2.71098         1.01099
| 20>    C        6.38766         3.21015         0.63439
| 21>    S        6.48275         4.64425        -0.35735
| 22>    C        8.17715         4.59429        -0.35109
| 23>    C        8.65279         3.52985         0.37256
| 24>    N       10.05208         3.31410         0.50550
| 25>    O       10.78490         4.02978        -0.15081
| 26>    O       10.43874         2.44433         1.25839
| 27>    C        7.62521         2.71446         0.93997
| 28>    C        7.86531         1.45382         1.69115
| 29>    C        4.76079         2.43366         2.35429
| 30>    O        5.72984         2.68338         3.27245
| 31>    C        5.45745         2.43629         4.63113
| 32>    C        3.49221         1.96711         2.66026
| 33>    C        2.51973         1.79460         1.67937
| 34>    C        1.17523         1.34239         2.05178
| 35>    C        0.52056         1.81188         3.14236
| 36>    C       -0.73001         1.21545         3.62263
| 37>    C       -0.87428        -0.16924         3.64319
| 38>    C       -2.06352        -0.77159         4.01525
| 39>    O       -2.29163        -2.10881         3.97637
| 40>    C       -1.21582        -2.98077         3.71485
| 41>    C       -3.13812         0.04617         4.41278
| 42>    C       -4.40891        -0.53999         4.79882
| 43>    S       -5.89147         0.13920         4.23349
| 44>    C       -6.80804        -1.10639         4.98811
| 45>    C       -6.03817        -2.01957         5.63580
| 46>    C       -6.56548        -3.19609         6.37974
| 47>    C       -4.65625        -1.67998         5.53275
| 48>    N       -3.62813        -2.40115         6.20843
| 49>    O       -2.71119        -1.76002         6.67904
| 50>    O       -3.74667        -3.60405         6.29841
| 51>    C       -2.99301         1.42886         4.40075
| 52>    C       -1.80332         2.03137         4.02210
| 53>    O       -1.60234         3.37571         3.98146
| 54>    C       -2.69189         4.23080         4.24406
| 55>    C        1.01796         2.97407         3.89764
| 56>    C        1.35145         4.17404         3.26735
| 57>    F        1.25523         4.28342         1.94113
| 58>    C        1.76535         5.28611         3.98967
| 59>    F        2.07743         6.41938         3.35621
| 60>    C        1.85100         5.22244         5.37744
| 61>    F        2.24937         6.28588         6.07636
| 62>    C        1.51924         4.03886         6.02954
| 63>    F        1.60583         3.96447         7.35960
| 64>    C        1.10561         2.93740         5.29001
| 65>    F        0.82211         1.80300         5.93703
| 66>    C        0.56256         0.34592         1.15701
| 67>    C       -0.71805         0.51654         0.62808
| 68>    F       -1.43606         1.59489         0.94626
| 69>    C       -1.27144        -0.40389        -0.25276
| 70>    F       -2.50018        -0.21197        -0.73857
| 71>    C       -0.54357        -1.52693        -0.63552
| 72>    F       -1.07028        -2.41484        -1.47924
| 73>    C        0.73916        -1.71424        -0.13027
| 74>    F        1.44690        -2.78906        -0.48659
| 75>    C        1.27554        -0.78196         0.74910
| 76>    F        2.50148        -0.99991         1.24071
| 77>    H        2.85509         1.69160        -2.37626
| 78>    H        2.31526         3.34920        -1.97288
| 79>    H        1.12444         2.10702        -2.42818
| 80>    H        4.36844         2.77382        -0.98653
| 81>    H        8.76442         5.33316        -0.85981
| 82>    H        8.64080         0.86649         1.20428
| 83>    H        6.95146         0.87016         1.75444
| 84>    H        8.21310         1.67989         2.69767
| 85>    H        6.36662         2.70862         5.16418
| 86>    H        5.23510         1.38058         4.81291
| 87>    H        4.62782         3.05224         4.99481
| 88>    H        3.23981         1.70624         3.67470
| 89>    H       -0.02310        -0.77410         3.37830
| 90>    H       -0.40630        -2.83583         4.43477
| 91>    H       -0.83571        -2.85487         2.69545
| 92>    H       -1.62462        -3.98333         3.82918
| 93>    H       -7.87645        -1.09256         4.90745
| 94>    H       -7.65184        -3.18368         6.38297
| 95>    H       -6.20589        -3.19212         7.40749
| 96>    H       -6.21683        -4.11755         5.91720
| 97>    H       -3.83703         2.02450         4.70939
| 98>    H       -2.31209         5.23958         4.09059
| 99>    H       -3.04208         4.12902         5.27565
|100>    H       -3.51870         4.04636         3.55283
|101> *
|102>
|103>                          ****END OF INPUT****

CARTESIAN COORDINATES (ANGSTROEM)
---------------------------------
  C      2.064480    2.287010   -1.909300
  O      1.838880    1.890810   -0.575550
  C      2.829410    2.077830    0.337550
  C      4.099730    2.541600    0.031540
  C      5.071260    2.710980    1.010990
  C      6.387660    3.210150    0.634390
  S      6.482750    4.644250   -0.357350
  C      8.177150    4.594290   -0.351090
  C      8.652790    3.529850    0.372560
  N     10.052080    3.314100    0.505500
  O     10.784900    4.029780   -0.150810
  O     10.438740    2.444330    1.258390
  C      7.625210    2.714460    0.939970
  C      7.865310    1.453820    1.691150
  C      4.760790    2.433660    2.354290
  O      5.729840    2.683380    3.272450
  C      5.457450    2.436290    4.631130
  C      3.492210    1.967110    2.660260
  C      2.519730    1.794600    1.679370
  C      1.175230    1.342390    2.051780
  C      0.520560    1.811880    3.142360
  C     -0.730010    1.215450    3.622630
  C     -0.874280   -0.169240    3.643190
  C     -2.063520   -0.771590    4.015250
  O     -2.291630   -2.108810    3.976370
  C     -1.215820   -2.980770    3.714850
  C     -3.138120    0.046170    4.412780
  C     -4.408910   -0.539990    4.798820
  S     -5.891470    0.139200    4.233490
  C     -6.808040   -1.106390    4.988110
  C     -6.038170   -2.019570    5.635800
  C     -6.565480   -3.196090    6.379740
  C     -4.656250   -1.679980    5.532750
  N     -3.628130   -2.401150    6.208430
  O     -2.711190   -1.760020    6.679040
  O     -3.746670   -3.604050    6.298410
  C     -2.993010    1.428860    4.400750
  C     -1.803320    2.031370    4.022100
  O     -1.602340    3.375710    3.981460
  C     -2.691890    4.230800    4.244060
  C      1.017960    2.974070    3.897640
  C      1.351450    4.174040    3.267350
  F      1.255230    4.283420    1.941130
  C      1.765350    5.286110    3.989670
  F      2.077430    6.419380    3.356210
  C      1.851000    5.222440    5.377440
  F      2.249370    6.285880    6.076360
  C      1.519240    4.038860    6.029540
  F      1.605830    3.964470    7.359600
  C      1.105610    2.937400    5.290010
  F      0.822110    1.803000    5.937030
  C      0.562560    0.345920    1.157010
  C     -0.718050    0.516540    0.628080
  F     -1.436060    1.594890    0.946260
  C     -1.271440   -0.403890   -0.252760
  F     -2.500180   -0.211970   -0.738570
  C     -0.543570   -1.526930   -0.635520
  F     -1.070280   -2.414840   -1.479240
  C      0.739160   -1.714240   -0.130270
  F      1.446900   -2.789060   -0.486590
  C      1.275540   -0.781960    0.749100
  F      2.501480   -0.999910    1.240710
  H      2.855090    1.691600   -2.376260
  H      2.315260    3.349200   -1.972880
  H      1.124440    2.107020   -2.428180
  H      4.368440    2.773820   -0.986530
  H      8.764420    5.333160   -0.859810
  H      8.640800    0.866490    1.204280
  H      6.951460    0.870160    1.754440
  H      8.213100    1.679890    2.697670
  H      6.366620    2.708620    5.164180
  H      5.235100    1.380580    4.812910
  H      4.627820    3.052240    4.994810
  H      3.239810    1.706240    3.674700
  H     -0.023100   -0.774100    3.378300
  H     -0.406300   -2.835830    4.434770
  H     -0.835710   -2.854870    2.695450
  H     -1.624620   -3.983330    3.829180
  H     -7.876450   -1.092560    4.907450
  H     -7.651840   -3.183680    6.382970
  H     -6.205890   -3.192120    7.407490
  H     -6.216830   -4.117550    5.917200
  H     -3.837030    2.024500    4.709390
  H     -2.312090    5.239580    4.090590
  H     -3.042080    4.129020    5.275650
  H     -3.518700    4.046360    3.552830

 Total Charge           Charge          ....    0
 Multiplicity           Mult            ....    1
 Number of Electrons    NEL             ....  464
 Basis Dimension        Dim             ....  996

ORBITAL ENERGIES
----------------

  NO   OCC          E(Eh)            E(eV)
   0   2.0000     -88.970834     -2421.0195
   1   2.0000     -88.968952     -2420.9683
   2   2.0000     -24.808417      -675.0713
   3   2.0000     -24.808300      -675.0682
   4   2.0000     -24.804745      -674.9714
   5   2.0000     -24.804367      -674.9611
   6   2.0000     -24.803963      -674.9501
   7   2.0000     -24.803493      -674.9374
   8   2.0000     -24.803118      -674.9272
   9   2.0000     -24.802974      -674.9232
  10   2.0000     -24.802870      -674.9204
  11   2.0000     -24.802809      -674.9188
  12   2.0000     -19.255494      -523.9686
  13   2.0000     -19.254476      -523.9409
  14   2.0000     -19.250716      -523.8386
  15   2.0000     -19.249089      -523.7943
  16   2.0000     -19.234553      -523.3988
  17   2.0000     -19.232161      -523.3337
  18   2.0000     -19.231171      -523.3068
  19   2.0000     -19.228391      -523.2311
  20   2.0000     -14.639523      -398.3617
  21   2.0000     -14.639296      -398.3555
  22   2.0000     -10.389086      -282.7014
  23   2.0000     -10.388998      -282.6990
  24   2.0000     -10.383597      -282.5520
  25   2.0000     -10.383278      -282.5434
  26   2.0000     -10.382669      -282.5268
  27   2.0000     -10.382613      -282.5253
  28   2.0000     -10.382540      -282.5233
  29   2.0000     -10.382331      -282.5176
  30   2.0000     -10.382168      -282.5131
  31   2.0000     -10.382134      -282.5122
  32   2.0000     -10.338272      -281.3187
  33   2.0000     -10.337523      -281.2983
  34   2.0000     -10.337268      -281.2914
  35   2.0000     -10.336432      -281.2686
  36   2.0000     -10.331241      -281.1273
  37   2.0000     -10.330551      -281.1086
  38   2.0000     -10.327865      -281.0355
  39   2.0000     -10.323086      -280.9055
  40   2.0000     -10.321328      -280.8576
  41   2.0000     -10.318152      -280.7712
  42   2.0000     -10.316512      -280.7266
  43   2.0000     -10.314405      -280.6692
  44   2.0000     -10.314070      -280.6601
  45   2.0000     -10.312317      -280.6124
  46   2.0000     -10.308549      -280.5099
  47   2.0000     -10.307859      -280.4911
  48   2.0000     -10.304205      -280.3917
  49   2.0000     -10.296812      -280.1905
  50   2.0000     -10.294729      -280.1338
  51   2.0000     -10.293919      -280.1118
  52   2.0000     -10.293360      -280.0966
  53   2.0000     -10.291859      -280.0557
  54   2.0000     -10.290416      -280.0165
  55   2.0000     -10.289426      -279.9895
  56   2.0000     -10.281740      -279.7804
  57   2.0000     -10.281470      -279.7730
  58   2.0000     -10.280782      -279.7543
  59   2.0000     -10.278489      -279.6919
  60   2.0000     -10.266592      -279.3682
  61   2.0000     -10.256771      -279.1009
  62   2.0000      -8.066643      -219.5045
  63   2.0000      -8.064692      -219.4514
  64   2.0000      -6.035709      -164.2400
  65   2.0000      -6.033940      -164.1919
  66   2.0000      -6.031499      -164.1254
  67   2.0000      -6.029607      -164.0739
  68   2.0000      -6.029244      -164.0641
  69   2.0000      -6.027073      -164.0050
  70   2.0000      -1.334817       -36.3222
  71   2.0000      -1.334683       -36.3186
  72   2.0000      -1.327253       -36.1164
  73   2.0000      -1.327076       -36.1116
  74   2.0000      -1.321642       -35.9637
  75   2.0000      -1.321469       -35.9590
  76   2.0000      -1.313852       -35.7517
  77   2.0000      -1.311936       -35.6996
  78   2.0000      -1.311850       -35.6973
  79   2.0000      -1.311729       -35.6940
  80   2.0000      -1.308014       -35.5929
  81   2.0000      -1.307893       -35.5896
  82   2.0000      -1.159774       -31.5590
  83   2.0000      -1.158818       -31.5331
  84   2.0000      -1.156187       -31.4615
  85   2.0000      -1.154718       -31.4215
  86   2.0000      -1.131560       -30.7913
  87   2.0000      -1.129430       -30.7333
  88   2.0000      -1.004008       -27.3205
  89   2.0000      -1.003091       -27.2955
  90   2.0000      -0.999543       -27.1990
  91   2.0000      -0.991181       -26.9714
  92   2.0000      -0.968548       -26.3555
  93   2.0000      -0.960053       -26.1244
  94   2.0000      -0.935286       -25.4504
  95   2.0000      -0.902559       -24.5599
  96   2.0000      -0.892933       -24.2979
  97   2.0000      -0.891636       -24.2627
  98   2.0000      -0.882304       -24.0087
  99   2.0000      -0.875224       -23.8160
 100   2.0000      -0.860100       -23.4045
 101   2.0000      -0.859816       -23.3968
 102   2.0000      -0.852980       -23.2108
 103   2.0000      -0.852468       -23.1968
 104   2.0000      -0.850920       -23.1547
 105   2.0000      -0.848506       -23.0890
 106   2.0000      -0.825388       -22.4599
 107   2.0000      -0.813221       -22.1289
 108   2.0000      -0.811756       -22.0890
 109   2.0000      -0.786579       -21.4039
 110   2.0000      -0.779165       -21.2021
 111   2.0000      -0.776908       -21.1407
 112   2.0000      -0.760742       -20.7008
 113   2.0000      -0.754655       -20.5352
 114   2.0000      -0.752160       -20.4673
 115   2.0000      -0.749296       -20.3894
 116   2.0000      -0.745619       -20.2893
 117   2.0000      -0.743505       -20.2318
 118   2.0000      -0.737917       -20.0798
 119   2.0000      -0.727435       -19.7945
 120   2.0000      -0.714456       -19.4413
 121   2.0000      -0.687661       -18.7122
 122   2.0000      -0.683971       -18.6118
 123   2.0000      -0.683644       -18.6029
 124   2.0000      -0.679666       -18.4946
 125   2.0000      -0.677537       -18.4367
 126   2.0000      -0.673000       -18.3133
 127   2.0000      -0.666284       -18.1305
 128   2.0000      -0.661307       -17.9951
 129   2.0000      -0.655138       -17.8272
 130   2.0000      -0.651993       -17.7416
 131   2.0000      -0.645722       -17.5710
 132   2.0000      -0.637275       -17.3411
 133   2.0000      -0.631635       -17.1877
 134   2.0000      -0.627523       -17.0758
 135   2.0000      -0.625509       -17.0210
 136   2.0000      -0.625313       -17.0156
 137   2.0000      -0.623506       -16.9665
 138   2.0000      -0.622072       -16.9274
 139   2.0000      -0.621203       -16.9038
 140   2.0000      -0.616557       -16.7774
 141   2.0000      -0.612832       -16.6760
 142   2.0000      -0.611840       -16.6490
 143   2.0000      -0.610609       -16.6155
 144   2.0000      -0.608928       -16.5698
 145   2.0000      -0.605559       -16.4781
 146   2.0000      -0.603450       -16.4207
 147   2.0000      -0.600500       -16.3404
 148   2.0000      -0.598914       -16.2973
 149   2.0000      -0.597100       -16.2479
 150   2.0000      -0.593370       -16.1464
 151   2.0000      -0.582235       -15.8434
 152   2.0000      -0.580007       -15.7828
 153   2.0000      -0.577761       -15.7217
 154   2.0000      -0.574245       -15.6260
 155   2.0000      -0.572427       -15.5765
 156   2.0000      -0.567668       -15.4470
 157   2.0000      -0.566688       -15.4204
 158   2.0000      -0.564015       -15.3476
 159   2.0000      -0.560553       -15.2534
 160   2.0000      -0.559058       -15.2127
 161   2.0000      -0.553919       -15.0729
 162   2.0000      -0.549211       -14.9448
 163   2.0000      -0.548821       -14.9342
 164   2.0000      -0.547455       -14.8970
 165   2.0000      -0.546392       -14.8681
 166   2.0000      -0.543822       -14.7981
 167   2.0000      -0.542760       -14.7693
 168   2.0000      -0.537290       -14.6204
 169   2.0000      -0.535524       -14.5723
 170   2.0000      -0.534807       -14.5528
 171   2.0000      -0.533496       -14.5172
 172   2.0000      -0.526586       -14.3291
 173   2.0000      -0.524259       -14.2658
 174   2.0000      -0.523001       -14.2316
 175   2.0000      -0.519745       -14.1430
 176   2.0000      -0.518934       -14.1209
 177   2.0000      -0.518069       -14.0974
 178   2.0000      -0.509303       -13.8588
 179   2.0000      -0.504069       -13.7164
 180   2.0000      -0.500012       -13.6060
 181   2.0000      -0.498846       -13.5743
 182   2.0000      -0.496996       -13.5240
 183   2.0000      -0.495600       -13.4860
 184   2.0000      -0.494347       -13.4519
 185   2.0000      -0.492571       -13.4035
 186   2.0000      -0.491146       -13.3648
 187   2.0000      -0.488513       -13.2931
 188   2.0000      -0.485211       -13.2033
 189   2.0000      -0.484251       -13.1772
 190   2.0000      -0.477567       -12.9953
 191   2.0000      -0.471932       -12.8419
 192   2.0000      -0.464449       -12.6383
 193   2.0000      -0.463664       -12.6169
 194   2.0000      -0.462683       -12.5902
 195   2.0000      -0.459015       -12.4904
 196   2.0000      -0.456569       -12.4239
 197   2.0000      -0.456311       -12.4168
 198   2.0000      -0.454264       -12.3611
 199   2.0000      -0.451558       -12.2875
 200   2.0000      -0.450362       -12.2550
 201   2.0000      -0.442192       -12.0327
 202   2.0000      -0.440382       -11.9834
 203   2.0000      -0.432109       -11.7583
 204   2.0000      -0.430355       -11.7106
 205   2.0000      -0.427925       -11.6444
 206   2.0000      -0.427108       -11.6222
 207   2.0000      -0.419779       -11.4228
 208   2.0000      -0.418672       -11.3926
 209   2.0000      -0.408231       -11.1085
 210   2.0000      -0.403352       -10.9758
 211   2.0000      -0.391696       -10.6586
 212   2.0000      -0.381249       -10.3743
 213   2.0000      -0.377900       -10.2832
 214   2.0000      -0.374183       -10.1820
 215   2.0000      -0.371966       -10.1217
 216   2.0000      -0.369648       -10.0586
 217   2.0000      -0.368644       -10.0313
 218   2.0000      -0.367200        -9.9920
 219   2.0000      -0.357346        -9.7239
 220   2.0000      -0.352819        -9.6007
 221   2.0000      -0.344464        -9.3733
 222   2.0000      -0.330393        -8.9905
 223   2.0000      -0.328838        -8.9481
 224   2.0000      -0.324122        -8.8198
 225   2.0000      -0.323100        -8.7920
 226   2.0000      -0.322131        -8.7656
 227   2.0000      -0.310162        -8.4399
 228   2.0000      -0.302997        -8.2450
 229   2.0000      -0.290831        -7.9139
 230   2.0000      -0.274553        -7.4710
 231   2.0000      -0.259315        -7.0563
 232   0.0000      -0.052200        -1.4204
 233   0.0000      -0.036891        -1.0039
 234   0.0000      -0.032208        -0.8764
 235   0.0000      -0.006774        -0.1843
 236   0.0000       0.001611         0.0438

MULLIKEN ATOMIC CHARGES
-----------------------
   0 C :    0.181718
   1 O :   -0.320051
   2 C :    0.239107
   3 C :   -0.159755
   4 C :    0.031041
   5 C :   -0.203914
   6 S :    0.167532
   7 C :   -0.103901
   8 C :    0.101890
   9 N :    0.263996
  10 O :   -0.253279
  11 O :   -0.245149
  12 C :   -0.034311
  13 C :    0.176777
  14 C :    0.229504
  15 O :   -0.304986
  16 C :    0.182104
  17 C :   -0.135811
  18 C :   -0.006093
  19 C :    0.061131
  20 C :    0.058635
  21 C :   -0.004610
  22 C :   -0.130106
  23 C :    0.234308
  24 O :   -0.323712
  25 C :    0.182356
  26 C :    0.066402
  27 C :   -0.161825
  28 S :    0.150480
  29 C :   -0.144648
  30 C :   -0.067624
  31 C :    0.136097
  32 C :    0.167961
  33 N :    0.252535
  34 O :   -0.236955
  35 O :   -0.248562
  36 C :   -0.165715
  37 C :    0.238625
  38 O :   -0.323135
  39 C :    0.181459
  40 C :   -0.140428
  41 C :    0.230802
  42 F :   -0.154880
  43 C :    0.154443
  44 F :   -0.161500
  45 C :    0.120529
  46 F :   -0.156353
  47 C :    0.164029
  48 F :   -0.160330
  49 C :    0.185524
  50 F :   -0.159960
  51 C :   -0.143591
  52 C :    0.234675
  53 F :   -0.154599
  54 C :    0.157410
  55 F :   -0.160723
  56 C :    0.119191
  57 F :   -0.156621
  58 C :    0.166538
  59 F :   -0.161009
  60 C :    0.184842
  61 F :   -0.165298
  62 H :    0.028257
  63 H :    0.027451
  64 H :    0.039048
  65 H :   -0.036825
  66 H :    0.039608
  67 H :    0.023202
  68 H :    0.008823
  69 H :    0.024408
  70 H :    0.043693
  71 H :    0.027494
  72 H :    0.016333
  73 H :   -0.031999
  74 H :   -0.033301
  75 H :    0.035446
  76 H :    0.013757
  77 H :    0.046566
  78 H :    0.022503
  79 H :    0.002658
  80 H :    0.027917
  81 H :    0.045666
  82 H :   -0.036966
  83 H :    0.038138
  84 H :    0.028277
  85 H :    0.027640
Sum of atomic charges:    0.0000000

LOEWDIN ATOMIC CHARGES
----------------------
   0 C :    0.078842
   1 O :   -0.098691
   2 C :    0.049642
   3 C :   -0.058594
   4 C :   -0.056342
   5 C :   -0.170100
   6 S :    0.478328
   7 C :   -0.158969
   8 C :   -0.079273
   9 N :    0.286392
  10 O :   -0.216670
  11 O :   -0.201864
  12 C :   -0.033443
  13 C :   -0.046215
  14 C :    0.044448
  15 O :   -0.094753
  16 C :    0.077642
  17 C :   -0.048078
  18 C :   -0.042362
  19 C :    0.005113
  20 C :    0.006055
  21 C :   -0.040944
  22 C :   -0.045004
  23 C :    0.051130
  24 O :   -0.102429
  25 C :    0.079683
  26 C :   -0.052969
  27 C :   -0.140263
  28 S :    0.467157
  29 C :   -0.196926
  30 C :   -0.046409
  31 C :   -0.045192
  32 C :   -0.069118
  33 N :    0.289066
  34 O :   -0.202859
  35 O :   -0.203996
  36 C :   -0.055645
  37 C :    0.050239
  38 O :   -0.099552
  39 C :    0.078887
  40 C :   -0.068369
  41 C :    0.071299
  42 F :   -0.030134
  43 C :    0.023395
  44 F :   -0.041239
  45 C :    0.034376
  46 F :   -0.035164
  47 C :    0.020859
  48 F :   -0.040524
  49 C :    0.060006
  50 F :   -0.036128
  51 C :   -0.067358
  52 C :    0.071841
  53 F :   -0.029643
  54 C :    0.024380
  55 F :   -0.040891
  56 C :    0.034686
  57 F :   -0.034945
  58 C :    0.021067
  59 F :   -0.041253
  60 C :    0.059838
  61 F :   -0.040474
  62 H :    0.016804
  63 H :    0.018412
  64 H :    0.029993
  65 H :    0.026165
  66 H :    0.035985
  67 H :    0.033949
  68 H :    0.028847
  69 H :    0.040920
  70 H :    0.031822
  71 H :    0.017009
  72 H :    0.013257
  73 H :    0.031816
  74 H :    0.032180
  75 H :    0.020903
  76 H :    0.011592
  77 H :    0.033272
  78 H :    0.024607
  79 H :    0.029906
  80 H :    0.038221
  81 H :    0.042798
  82 H :    0.025076
  83 H :    0.029662
  84 H :    0.017007
  85 H :    0.018212

  Mayer bond orders larger than 0.100000
B(  0-C ,  1-O ) :   0.9573 B(  0-C , 62-H ) :   0.9691 B(  0-C , 63-H ) :   0.9686
B(  0-C , 64-H ) :   0.9782 B(  1-O ,  2-C ) :   1.1643 B(  2-C ,  3-C ) :   1.2795
B(  2-C , 18-C ) :   1.3728 B(  3-C ,  4-C ) :   1.3369 B(  3-C , 65-H ) :   1.0009
B(  4-C ,  5-C ) :   0.9586 B(  4-C , 14-C ) :   1.3867 B(  5-C ,  6-S ) :   1.1389
B(  5-C , 12-C ) :   1.5924 B(  6-S ,  7-C ) :   1.2085 B(  7-C ,  8-C ) :   1.5204
B(  7-C , 66-H ) :   0.9558 B(  8-C ,  9-N ) :   0.9223 B(  8-C , 12-C ) :   1.2291
B(  9-N , 10-O ) :   1.5420 B(  9-N , 11-O ) :   1.5254 B( 10-O , 11-O ) :   0.2639
B( 12-C , 13-C ) :   1.1362 B( 13-C , 67-H ) :   0.9297 B( 13-C , 68-H ) :   0.9287
B( 13-C , 69-H ) :   0.9275 B( 14-C , 15-O ) :   1.1752 B( 14-C , 17-C ) :   1.2712
B( 15-O , 16-C ) :   0.9610 B( 16-C , 70-H ) :   0.9769 B( 16-C , 71-H ) :   0.9673
B( 16-C , 72-H ) :   0.9679 B( 17-C , 18-C ) :   1.3425 B( 17-C , 73-H ) :   1.0003
B( 18-C , 19-C ) :   0.9993 B( 19-C , 20-C ) :   1.8224 B( 19-C , 51-C ) :   0.9553
B( 20-C , 21-C ) :   0.9998 B( 20-C , 40-C ) :   0.9533 B( 21-C , 22-C ) :   1.3373
B( 21-C , 37-C ) :   1.3761 B( 22-C , 23-C ) :   1.2835 B( 22-C , 74-H ) :   0.9981
B( 23-C , 24-O ) :   1.1640 B( 23-C , 26-C ) :   1.3735 B( 24-O , 25-C ) :   0.9497
B( 25-C , 75-H ) :   0.9677 B( 25-C , 76-H ) :   0.9688 B( 25-C , 77-H ) :   0.9766
B( 26-C , 27-C ) :   1.0058 B( 26-C , 36-C ) :   1.3270 B( 27-C , 28-S ) :   1.2011
B( 27-C , 32-C ) :   1.5256 B( 28-S , 29-C ) :   1.1273 B( 29-C , 30-C ) :   1.5924
B( 29-C , 78-H ) :   0.9655 B( 30-C , 31-C ) :   1.0952 B( 30-C , 32-C ) :   1.2608
B( 31-C , 79-H ) :   0.9415 B( 31-C , 80-H ) :   0.9458 B( 31-C , 81-H ) :   0.9405
B( 32-C , 33-N ) :   0.9044 B( 33-N , 34-O ) :   1.5404 B( 33-N , 35-O ) :   1.5185
B( 34-O , 35-O ) :   0.2639 B( 36-C , 37-C ) :   1.2799 B( 36-C , 82-H ) :   0.9984
B( 37-C , 38-O ) :   1.1600 B( 38-O , 39-C ) :   0.9580 B( 39-C , 83-H ) :   0.9783
B( 39-C , 84-H ) :   0.9695 B( 39-C , 85-H ) :   0.9683 B( 40-C , 41-C ) :   1.3243
B( 40-C , 45-C ) :   0.1116 B( 40-C , 49-C ) :   1.3309 B( 41-C , 42-F ) :   1.1710
B( 41-C , 43-C ) :   1.2968 B( 43-C , 44-F ) :   1.1710 B( 43-C , 45-C ) :   1.2725
B( 45-C , 46-F ) :   1.1745 B( 45-C , 47-C ) :   1.2731 B( 47-C , 48-F ) :   1.1716
B( 47-C , 49-C ) :   1.2820 B( 49-C , 50-F ) :   1.1759 B( 51-C , 52-C ) :   1.3235
B( 51-C , 56-C ) :   0.1112 B( 51-C , 60-C ) :   1.3318 B( 52-C , 53-F ) :   1.1700
B( 52-C , 54-C ) :   1.2996 B( 54-C , 55-F ) :   1.1718 B( 54-C , 56-C ) :   1.2707
B( 56-C , 57-F ) :   1.1745 B( 56-C , 58-C ) :   1.2745 B( 58-C , 59-F ) :   1.1707
B( 58-C , 60-C ) :   1.2830 B( 60-C , 61-F ) :   1.1684

-----------------------------------------------------------------------------
         ABSORPTION SPECTRUM VIA TRANSITION ELECTRIC DIPOLE MOMENTS
-----------------------------------------------------------------------------
State   Energy  Wavelength   fosc         T2         TX        TY        TZ
        (cm-1)    (nm)                  (au**2)     (au)      (au)      (au)
-----------------------------------------------------------------------------
   0   26175.6    382.0   0.501874786   6.31210   2.13202   0.24750  -1.30589
   1   28836.9    346.8   0.182615543   2.08480  -0.97320  -0.00248   1.06662
   2   30420.0    328.7   0.027222381   0.29461   0.02416  -0.51628   0.16575
   3   32613.4    306.6   0.131411765   1.32652  -0.73486  -0.01942   0.88664
   4   32742.6    305.4   0.021254583   0.21371   0.05713   0.42121  -0.18172
   5   34000.5    294.1   0.002236943   0.02166   0.12607  -0.06257   0.04301
   6   35569.6    281.1   0.095300565   0.88205   0.10707  -0.91178  -0.19808
   7   36255.0    275.8   0.361753458   3.28489  -1.65093  -0.73168   0.15480
   8   36899.4    271.0   0.036126875   0.32232  -0.34759   0.11561   0.43374
   9   37788.1    264.6   0.065459218   0.57028   0.75281   0.05014  -0.03234
  10   38392.8    260.5   0.022907434   0.19643   0.13064  -0.10970   0.40906
  11   38841.3    257.5   0.030421268   0.25784   0.26726   0.42832   0.05442
  12   39791.8    251.3   0.092686958   0.76683   0.66732   0.52810  -0.20646
  13   39964.6    250.2   0.093854988   0.77314   0.75349   0.05056  -0.45038
  14   40180.7    248.9   0.285976012   2.34308  -1.12690  -1.02873  -0.12201

FINAL SINGLE POINT ENERGY     -4040.499304655713

DIPOLE MOMENT
-------------
                                X             Y             Z
Electronic contribution:     -0.26704      16.56465     -10.69589
Nuclear contribution   :     -2.45721     -15.85379      10.11557
                        -----------------------------------------
Total Dipole Moment    :     -2.72424       0.71086      -0.58032
                        -----------------------------------------
Magnitude (a.u.)       :      2.87465
Magnitude (Debye)      :      7.30677

Rotational constants in cm-1:     0.002153     0.000734     0.000645
Rotational constants in MHz :    64.543627    22.015567    19.328163

                             ****ORCA TERMINATED NORMALLY****
TOTAL RUN TIME: 0 days 0 hours 8 minutes 13 seconds 978 msec
