                         Program Version 4.2.0 -  RELEASE  -
|  1> # ORCA input file
|  2> # SCF done       -173.983490147658          0.000375463227
|  3> ! CAM-B3LYP def2-SVP def2/J RIJCOSX Grid4 TightSCF
|  4> %maxcore 5000
|  5> %tddft
|  6>     Mode sTDDFT
|  7>     Ethresh 5.0
|  8>     maxcore 5000
|  9> end
| 10>
| 11> %pal
| 12>   nprocs 6
| 13>   end
| 14> * xyz 0 1
| 15>    C        1.78778        -0.80026        -4.06082
| 16>    C        3.09044        -0.44747        -3.80329
| 17>    N        3.67579         0.63480        -4.52814
| 18>    O        3.06934         1.02515        -5.50468
| 19>    O        4.72190         1.10812        -4.13707
| 20>    C        3.71511        -1.24468        -2.80089
| 21>    C        5.12513        -1.11515        -2.34417
| 22>    C        2.83693        -2.19608        -2.31821
| 23>    S        1.26983        -2.09118        -3.09539
| 24>    C        3.02387        -3.19220        -1.31643
| 25>    C        2.07677        -4.12218        -0.92115
| 26>    C        2.54515        -4.95340         0.09333
| 27>    C        3.86510        -4.65497         0.47884
| 28>    S        4.52067        -3.35628        -0.41254
| 29>    C        4.25292        -5.53704         1.51508
| 30>    C        3.16894        -6.39944         1.78583
| 31>    C        2.06481        -6.06331         0.90161
| 32>    C        0.83949        -6.65886         0.84292
| 33>    C       -0.15339        -6.23524        -0.06564
| 34>    N       -0.95814        -5.88851        -0.80513
| 35>    C        0.48361        -7.73456         1.68435
| 36>    N        0.18498        -8.60869         2.36337
| 37>    C        3.44231        -7.30339         2.80207
| 38>    C        4.72535        -7.13977         3.31216
| 39>    S        5.60687        -5.84589         2.51224
| 40>    C        5.32505        -7.87696         4.36338
| 41>    C        6.64286        -7.59631         4.78953
| 42>    C        7.27358        -8.30745         5.87151
| 43>    N        8.52390        -7.99289         6.22606
| 44>    C        9.16770        -7.04287         5.59160
| 45>    C        8.53893        -6.33275         4.51832
| 46>    N        7.31328        -6.62842         4.15663
| 47>    C        9.22931        -5.30427         3.83122
| 48>    N        9.80464        -4.47453         3.29064
| 49>    C       10.49407        -6.72540         5.97555
| 50>    N       11.56768        -6.44404         6.25759
| 51>    C        6.61646        -9.33545         6.58484
| 52>    C        5.30178        -9.63164         6.15033
| 53>    C        4.66962        -8.91814         5.06283
| 54>    N        3.43512        -9.36827         4.83693
| 55>    S        3.09859       -10.55096         5.86486
| 56>    N        4.49189       -10.56221         6.65612
| 57>    C        7.25149       -10.00075         7.66367
| 58>    C        6.71612       -11.01969         8.44463
| 59>    C        7.60011       -11.43640         9.42829
| 60>    C        8.82433       -10.73162         9.40160
| 61>    S        8.87965        -9.55958         8.15905
| 62>    C        9.65131       -11.22500        10.43849
| 63>    C        8.94543       -12.24014        11.12194
| 64>    C        7.63747       -12.40646        10.50929
| 65>    C        6.65581       -13.28111        10.87280
| 66>    C        5.41835       -13.34756        10.19814
| 67>    N        4.40953       -13.40853         9.65659
| 68>    C        6.81580       -14.17650        11.95110
| 69>    N        6.94826       -14.90239        12.82889
| 70>    C        9.67795       -12.78033        12.16506
| 71>    C       10.93411       -12.18848        12.29692
| 72>    S       11.20281       -10.94174        11.08656
| 73>    C       11.86387       -12.57915        13.29776
| 74>    C       13.07748       -12.04755        13.75212
| 75>    N       13.69678       -10.91761        13.20252
| 76>    O       13.29531       -10.51120        12.11427
| 77>    O       14.60388       -10.38403        13.80857
| 78>    C       13.64674       -12.76566        14.85425
| 79>    C       14.92906       -12.43859        15.53394
| 80>    C       12.87198       -13.82224        15.20513
| 81>    S       11.45000       -13.97231        14.25322
| 82>    H        1.13302        -0.33332        -4.77035
| 83>    H        5.64385        -0.34909        -2.91135
| 84>    H        5.65017        -2.06343        -2.45890
| 85>    H        5.15804        -0.84144        -1.28941
| 86>    H        1.09690        -4.17738        -1.36045
| 87>    H        2.77167        -8.05251         3.18082
| 88>    H        5.72910       -11.40855         8.27450
| 89>    H        9.33134       -13.56162        12.81794
| 90>    H       15.73805       -12.35387        14.81099
| 91>    H       15.17148       -13.21213        16.25781
| 92>    H       14.85489       -11.47954        16.04328
| 93>    H       13.05613       -14.53445        15.98424
| 94> *
| 95>
| 96>                          ****END OF INPUT****

CARTESIAN COORDINATES (ANGSTROEM)
---------------------------------
  C      1.787780   -0.800260   -4.060820
  C      3.090440   -0.447470   -3.803290
  N      3.675790    0.634800   -4.528140
  O      3.069340    1.025150   -5.504680
  O      4.721900    1.108120   -4.137070
  C      3.715110   -1.244680   -2.800890
  C      5.125130   -1.115150   -2.344170
  C      2.836930   -2.196080   -2.318210
  S      1.269830   -2.091180   -3.095390
  C      3.023870   -3.192200   -1.316430
  C      2.076770   -4.122180   -0.921150
  C      2.545150   -4.953400    0.093330
  C      3.865100   -4.654970    0.478840
  S      4.520670   -3.356280   -0.412540
  C      4.252920   -5.537040    1.515080
  C      3.168940   -6.399440    1.785830
  C      2.064810   -6.063310    0.901610
  C      0.839490   -6.658860    0.842920
  C     -0.153390   -6.235240   -0.065640
  N     -0.958140   -5.888510   -0.805130
  C      0.483610   -7.734560    1.684350
  N      0.184980   -8.608690    2.363370
  C      3.442310   -7.303390    2.802070
  C      4.725350   -7.139770    3.312160
  S      5.606870   -5.845890    2.512240
  C      5.325050   -7.876960    4.363380
  C      6.642860   -7.596310    4.789530
  C      7.273580   -8.307450    5.871510
  N      8.523900   -7.992890    6.226060
  C      9.167700   -7.042870    5.591600
  C      8.538930   -6.332750    4.518320
  N      7.313280   -6.628420    4.156630
  C      9.229310   -5.304270    3.831220
  N      9.804640   -4.474530    3.290640
  C     10.494070   -6.725400    5.975550
  N     11.567680   -6.444040    6.257590
  C      6.616460   -9.335450    6.584840
  C      5.301780   -9.631640    6.150330
  C      4.669620   -8.918140    5.062830
  N      3.435120   -9.368270    4.836930
  S      3.098590  -10.550960    5.864860
  N      4.491890  -10.562210    6.656120
  C      7.251490  -10.000750    7.663670
  C      6.716120  -11.019690    8.444630
  C      7.600110  -11.436400    9.428290
  C      8.824330  -10.731620    9.401600
  S      8.879650   -9.559580    8.159050
  C      9.651310  -11.225000   10.438490
  C      8.945430  -12.240140   11.121940
  C      7.637470  -12.406460   10.509290
  C      6.655810  -13.281110   10.872800
  C      5.418350  -13.347560   10.198140
  N      4.409530  -13.408530    9.656590
  C      6.815800  -14.176500   11.951100
  N      6.948260  -14.902390   12.828890
  C      9.677950  -12.780330   12.165060
  C     10.934110  -12.188480   12.296920
  S     11.202810  -10.941740   11.086560
  C     11.863870  -12.579150   13.297760
  C     13.077480  -12.047550   13.752120
  N     13.696780  -10.917610   13.202520
  O     13.295310  -10.511200   12.114270
  O     14.603880  -10.384030   13.808570
  C     13.646740  -12.765660   14.854250
  C     14.929060  -12.438590   15.533940
  C     12.871980  -13.822240   15.205130
  S     11.450000  -13.972310   14.253220
  H      1.133020   -0.333320   -4.770350
  H      5.643850   -0.349090   -2.911350
  H      5.650170   -2.063430   -2.458900
  H      5.158040   -0.841440   -1.289410
  H      1.096900   -4.177380   -1.360450
  H      2.771670   -8.052510    3.180820
  H      5.729100  -11.408550    8.274500
  H      9.331340  -13.561620   12.817940
  H     15.738050  -12.353870   14.810990
  H     15.171480  -13.212130   16.257810
  H     14.854890  -11.479540   16.043280
  H     13.056130  -14.534450   15.984240

 Total Charge           Charge          ....    0
 Multiplicity           Mult            ....    1
 Number of Electrons    NEL             ....  504
 Basis Dimension        Dim             .... 1026

ORBITAL ENERGIES
----------------

  NO   OCC          E(Eh)            E(eV)
   0   2.0000     -89.056473     -2423.3498
   1   2.0000     -88.999346     -2421.7953
   2   2.0000     -88.992083     -2421.5977
   3   2.0000     -88.989940     -2421.5394
   4   2.0000     -88.989560     -2421.5290
   5   2.0000     -88.988193     -2421.4918
   6   2.0000     -88.983744     -2421.3708
   7   2.0000     -19.250032      -523.8200
   8   2.0000     -19.249925      -523.8171
   9   2.0000     -19.247841      -523.7604
  10   2.0000     -19.244659      -523.6738
  11   2.0000     -14.658130      -398.8680
  12   2.0000     -14.655829      -398.8054
  13   2.0000     -14.481608      -394.0646
  14   2.0000     -14.480954      -394.0468
  15   2.0000     -14.465158      -393.6170
  16   2.0000     -14.464747      -393.6058
  17   2.0000     -14.442914      -393.0117
  18   2.0000     -14.441865      -392.9831
  19   2.0000     -14.434913      -392.7940
  20   2.0000     -14.433824      -392.7643
  21   2.0000     -14.431790      -392.7090
  22   2.0000     -14.430707      -392.6795
  23   2.0000     -10.398551      -282.9590
  24   2.0000     -10.398319      -282.9526
  25   2.0000     -10.368859      -282.1510
  26   2.0000     -10.364572      -282.0343
  27   2.0000     -10.361568      -281.9526
  28   2.0000     -10.361273      -281.9446
  29   2.0000     -10.357148      -281.8323
  30   2.0000     -10.356883      -281.8251
  31   2.0000     -10.356293      -281.8091
  32   2.0000     -10.353196      -281.7248
  33   2.0000     -10.352920      -281.7173
  34   2.0000     -10.340245      -281.3724
  35   2.0000     -10.339156      -281.3427
  36   2.0000     -10.337634      -281.3013
  37   2.0000     -10.336357      -281.2666
  38   2.0000     -10.335606      -281.2461
  39   2.0000     -10.335313      -281.2382
  40   2.0000     -10.334936      -281.2279
  41   2.0000     -10.334858      -281.2258
  42   2.0000     -10.334052      -281.2039
  43   2.0000     -10.333982      -281.2020
  44   2.0000     -10.333086      -281.1776
  45   2.0000     -10.332447      -281.1602
  46   2.0000     -10.332194      -281.1533
  47   2.0000     -10.331827      -281.1433
  48   2.0000     -10.331235      -281.1272
  49   2.0000     -10.330878      -281.1175
  50   2.0000     -10.329188      -281.0715
  51   2.0000     -10.329146      -281.0704
  52   2.0000     -10.328744      -281.0594
  53   2.0000     -10.326362      -280.9946
  54   2.0000     -10.316839      -280.7355
  55   2.0000     -10.312230      -280.6101
  56   2.0000     -10.310405      -280.5604
  57   2.0000     -10.308720      -280.5145
  58   2.0000     -10.308633      -280.5122
  59   2.0000     -10.308017      -280.4954
  60   2.0000     -10.306141      -280.4444
  61   2.0000     -10.304011      -280.3864
  62   2.0000     -10.303445      -280.3710
  63   2.0000     -10.302821      -280.3540
  64   2.0000     -10.301454      -280.3168
  65   2.0000     -10.279098      -279.7085
  66   2.0000     -10.273969      -279.5689
  67   2.0000      -8.147553      -221.7062
  68   2.0000      -8.093234      -220.2281
  69   2.0000      -8.085280      -220.0117
  70   2.0000      -8.084091      -219.9793
  71   2.0000      -8.082577      -219.9381
  72   2.0000      -8.080743      -219.8882
  73   2.0000      -8.079422      -219.8522
  74   2.0000      -6.118646      -166.4968
  75   2.0000      -6.110654      -166.2794
  76   2.0000      -6.110465      -166.2742
  77   2.0000      -6.062578      -164.9711
  78   2.0000      -6.058171      -164.8512
  79   2.0000      -6.055655      -164.7828
  80   2.0000      -6.054440      -164.7497
  81   2.0000      -6.053588      -164.7265
  82   2.0000      -6.052152      -164.6874
  83   2.0000      -6.050250      -164.6357
  84   2.0000      -6.050221      -164.6349
  85   2.0000      -6.048872      -164.5982
  86   2.0000      -6.048805      -164.5963
  87   2.0000      -6.047617      -164.5640
  88   2.0000      -6.047320      -164.5560
  89   2.0000      -6.046618      -164.5368
  90   2.0000      -6.045476      -164.5058
  91   2.0000      -6.044975      -164.4921
  92   2.0000      -6.044302      -164.4738
  93   2.0000      -6.043281      -164.4460
  94   2.0000      -6.041552      -164.3990
  95   2.0000      -1.329761       -36.1846
  96   2.0000      -1.328793       -36.1583
  97   2.0000      -1.154649       -31.4196
  98   2.0000      -1.146520       -31.1984
  99   2.0000      -1.146257       -31.1912
 100   2.0000      -1.140154       -31.0252
 101   2.0000      -1.068953       -29.0877
 102   2.0000      -1.049246       -28.5514
 103   2.0000      -1.045128       -28.4394
 104   2.0000      -1.028113       -27.9764
 105   2.0000      -1.027556       -27.9612
 106   2.0000      -1.024416       -27.8758
 107   2.0000      -1.022590       -27.8261
 108   2.0000      -1.020370       -27.7657
 109   2.0000      -1.017082       -27.6762
 110   2.0000      -1.011932       -27.5361
 111   2.0000      -1.010131       -27.4871
 112   2.0000      -1.008858       -27.4524
 113   2.0000      -1.003828       -27.3155
 114   2.0000      -0.993908       -27.0456
 115   2.0000      -0.984390       -26.7866
 116   2.0000      -0.962541       -26.1921
 117   2.0000      -0.957211       -26.0470
 118   2.0000      -0.927642       -25.2424
 119   2.0000      -0.924035       -25.1443
 120   2.0000      -0.919784       -25.0286
 121   2.0000      -0.916078       -24.9278
 122   2.0000      -0.909766       -24.7560
 123   2.0000      -0.899103       -24.4658
 124   2.0000      -0.886279       -24.1169
 125   2.0000      -0.882482       -24.0136
 126   2.0000      -0.873206       -23.7611
 127   2.0000      -0.865080       -23.5400
 128   2.0000      -0.858372       -23.3575
 129   2.0000      -0.856950       -23.3188
 130   2.0000      -0.850022       -23.1303
 131   2.0000      -0.830691       -22.6042
 132   2.0000      -0.827908       -22.5285
 133   2.0000      -0.811164       -22.0729
 134   2.0000      -0.798325       -21.7235
 135   2.0000      -0.782567       -21.2947
 136   2.0000      -0.780601       -21.2412
 137   2.0000      -0.774551       -21.0766
 138   2.0000      -0.766760       -20.8646
 139   2.0000      -0.761726       -20.7276
 140   2.0000      -0.753546       -20.5050
 141   2.0000      -0.741124       -20.1670
 142   2.0000      -0.724288       -19.7089
 143   2.0000      -0.720246       -19.5989
 144   2.0000      -0.716839       -19.5062
 145   2.0000      -0.705015       -19.1844
 146   2.0000      -0.703174       -19.1343
 147   2.0000      -0.692772       -18.8513
 148   2.0000      -0.684417       -18.6239
 149   2.0000      -0.684158       -18.6169
 150   2.0000      -0.674520       -18.3546
 151   2.0000      -0.670145       -18.2356
 152   2.0000      -0.660772       -17.9805
 153   2.0000      -0.655262       -17.8306
 154   2.0000      -0.650370       -17.6975
 155   2.0000      -0.640765       -17.4361
 156   2.0000      -0.639640       -17.4055
 157   2.0000      -0.638933       -17.3863
 158   2.0000      -0.634680       -17.2705
 159   2.0000      -0.633538       -17.2394
 160   2.0000      -0.627963       -17.0877
 161   2.0000      -0.624443       -16.9920
 162   2.0000      -0.621070       -16.9002
 163   2.0000      -0.619400       -16.8547
 164   2.0000      -0.615672       -16.7533
 165   2.0000      -0.603353       -16.4181
 166   2.0000      -0.596792       -16.2395
 167   2.0000      -0.596204       -16.2235
 168   2.0000      -0.588438       -16.0122
 169   2.0000      -0.587725       -15.9928
 170   2.0000      -0.576617       -15.6906
 171   2.0000      -0.570669       -15.5287
 172   2.0000      -0.562113       -15.2959
 173   2.0000      -0.559544       -15.2260
 174   2.0000      -0.553060       -15.0495
 175   2.0000      -0.550049       -14.9676
 176   2.0000      -0.548180       -14.9167
 177   2.0000      -0.547875       -14.9084
 178   2.0000      -0.538920       -14.6648
 179   2.0000      -0.533928       -14.5289
 180   2.0000      -0.533346       -14.5131
 181   2.0000      -0.525501       -14.2996
 182   2.0000      -0.519432       -14.1345
 183   2.0000      -0.515202       -14.0193
 184   2.0000      -0.514185       -13.9917
 185   2.0000      -0.512603       -13.9486
 186   2.0000      -0.508184       -13.8284
 187   2.0000      -0.503852       -13.7105
 188   2.0000      -0.502090       -13.6626
 189   2.0000      -0.501400       -13.6438
 190   2.0000      -0.500965       -13.6320
 191   2.0000      -0.498623       -13.5682
 192   2.0000      -0.497668       -13.5422
 193   2.0000      -0.495844       -13.4926
 194   2.0000      -0.493796       -13.4369
 195   2.0000      -0.489006       -13.3065
 196   2.0000      -0.486251       -13.2316
 197   2.0000      -0.484527       -13.1847
 198   2.0000      -0.479618       -13.0511
 199   2.0000      -0.477336       -12.9890
 200   2.0000      -0.475684       -12.9440
 201   2.0000      -0.473284       -12.8787
 202   2.0000      -0.470190       -12.7945
 203   2.0000      -0.468004       -12.7350
 204   2.0000      -0.466595       -12.6967
 205   2.0000      -0.465656       -12.6712
 206   2.0000      -0.465374       -12.6635
 207   2.0000      -0.463404       -12.6099
 208   2.0000      -0.462751       -12.5921
 209   2.0000      -0.460738       -12.5373
 210   2.0000      -0.458102       -12.4656
 211   2.0000      -0.456278       -12.4160
 212   2.0000      -0.452478       -12.3126
 213   2.0000      -0.451499       -12.2859
 214   2.0000      -0.444504       -12.0956
 215   2.0000      -0.443712       -12.0740
 216   2.0000      -0.443030       -12.0555
 217   2.0000      -0.441738       -12.0203
 218   2.0000      -0.441391       -12.0109
 219   2.0000      -0.439758       -11.9664
 220   2.0000      -0.435522       -11.8511
 221   2.0000      -0.435095       -11.8395
 222   2.0000      -0.434469       -11.8225
 223   2.0000      -0.430357       -11.7106
 224   2.0000      -0.429417       -11.6850
 225   2.0000      -0.428169       -11.6511
 226   2.0000      -0.420270       -11.4361
 227   2.0000      -0.415171       -11.2974
 228   2.0000      -0.411936       -11.2093
 229   2.0000      -0.399627       -10.8744
 230   2.0000      -0.395821       -10.7708
 231   2.0000      -0.393702       -10.7132
 232   2.0000      -0.390352       -10.6220
 233   2.0000      -0.389818       -10.6075
 234   2.0000      -0.389267       -10.5925
 235   2.0000      -0.385720       -10.4960
 236   2.0000      -0.385009       -10.4766
 237   2.0000      -0.372519       -10.1368
 238   2.0000      -0.368853       -10.0370
 239   2.0000      -0.363063        -9.8795
 240   2.0000      -0.362603        -9.8669
 241   2.0000      -0.359087        -9.7713
 242   2.0000      -0.352345        -9.5878
 243   2.0000      -0.347837        -9.4651
 244   2.0000      -0.347325        -9.4512
 245   2.0000      -0.345974        -9.4144
 246   2.0000      -0.335608        -9.1324
 247   2.0000      -0.326436        -8.8828
 248   2.0000      -0.322261        -8.7692
 249   2.0000      -0.304154        -8.2764
 250   2.0000      -0.274275        -7.4634
 251   2.0000      -0.241725        -6.5777
 252   0.0000      -0.141203        -3.8423
 253   0.0000      -0.106855        -2.9077
 254   0.0000      -0.101648        -2.7660
 255   0.0000      -0.072754        -1.9797
 256   0.0000      -0.065031        -1.7696

MULLIKEN ATOMIC CHARGES
-----------------------
   0 C :   -0.077943
   1 C :    0.113533
   2 N :    0.262155
   3 O :   -0.241949
   4 O :   -0.235104
   5 C :   -0.101880
   6 C :    0.112038
   7 C :   -0.134344
   8 S :    0.174025
   9 C :   -0.052542
  10 C :   -0.072549
  11 C :    0.029279
  12 C :   -0.101061
  13 S :    0.170414
  14 C :   -0.052222
  15 C :    0.028648
  16 C :    0.307035
  17 C :   -0.296660
  18 C :   -0.190389
  19 N :    0.170679
  20 C :   -0.186078
  21 N :    0.173440
  22 C :   -0.060288
  23 C :   -0.178819
  24 S :    0.203541
  25 C :    0.192338
  26 C :   -0.059771
  27 C :   -0.063308
  28 N :   -0.000313
  29 C :   -0.099112
  30 C :   -0.101740
  31 N :   -0.005685
  32 C :   -0.242521
  33 N :    0.252874
  34 C :   -0.243978
  35 N :    0.255363
  36 C :    0.191935
  37 C :   -0.006527
  38 C :   -0.017291
  39 N :   -0.281916
  40 S :    0.586291
  41 N :   -0.285568
  42 C :   -0.178074
  43 C :   -0.064863
  44 C :    0.035343
  45 C :   -0.062559
  46 S :    0.209352
  47 C :   -0.086372
  48 C :    0.040474
  49 C :    0.309852
  50 C :   -0.301625
  51 C :   -0.185863
  52 N :    0.170071
  53 C :   -0.193105
  54 N :    0.169118
  55 C :   -0.087002
  56 C :   -0.061456
  57 S :    0.254282
  58 C :   -0.148436
  59 C :    0.133026
  60 N :    0.286652
  61 O :   -0.285748
  62 O :   -0.236750
  63 C :   -0.102791
  64 C :    0.161703
  65 C :   -0.115062
  66 S :    0.151887
  67 H :    0.049223
  68 H :    0.048735
  69 H :    0.033848
  70 H :    0.037030
  71 H :    0.016531
  72 H :    0.020648
  73 H :    0.020153
  74 H :    0.023753
  75 H :    0.030882
  76 H :    0.002822
  77 H :    0.040135
  78 H :    0.030154
Sum of atomic charges:   -0.0000000

LOEWDIN ATOMIC CHARGES
----------------------
   0 C :   -0.147061
   1 C :   -0.076983
   2 N :    0.287503
   3 O :   -0.204570
   4 O :   -0.196807
   5 C :   -0.042399
   6 C :   -0.065336
   7 C :   -0.188776
   8 S :    0.495673
   9 C :   -0.171777
  10 C :   -0.042249
  11 C :   -0.057407
  12 C :   -0.191017
  13 S :    0.506470
  14 C :   -0.171450
  15 C :   -0.078391
  16 C :    0.081438
  17 C :   -0.101662
  18 C :   -0.016584
  19 N :   -0.033489
  20 C :   -0.016632
  21 N :   -0.031088
  22 C :   -0.005010
  23 C :   -0.170024
  24 S :    0.508437
  25 C :   -0.037504
  26 C :   -0.016447
  27 C :   -0.015469
  28 N :   -0.016144
  29 C :   -0.021617
  30 C :   -0.022998
  31 N :   -0.016910
  32 C :   -0.039700
  33 N :    0.000799
  34 C :   -0.040356
  35 N :    0.004208
  36 C :   -0.039407
  37 C :   -0.036188
  38 C :   -0.037692
  39 N :   -0.270978
  40 S :    0.704523
  41 N :   -0.270802
  42 C :   -0.167628
  43 C :   -0.007367
  44 C :   -0.073862
  45 C :   -0.172702
  46 S :    0.512441
  47 C :   -0.188456
  48 C :   -0.066000
  49 C :    0.081703
  50 C :   -0.106658
  51 C :   -0.016724
  52 N :   -0.034811
  53 C :   -0.016679
  54 N :   -0.036728
  55 C :   -0.026763
  56 C :   -0.196958
  57 S :    0.549544
  58 C :   -0.142757
  59 C :   -0.087025
  60 N :    0.292135
  61 O :   -0.243759
  62 O :   -0.188295
  63 C :   -0.042906
  64 C :   -0.043762
  65 C :   -0.188340
  66 S :    0.483280
  67 H :    0.040734
  68 H :    0.039547
  69 H :    0.031067
  70 H :    0.036234
  71 H :    0.034209
  72 H :    0.038416
  73 H :    0.037957
  74 H :    0.032075
  75 H :    0.039427
  76 H :    0.029107
  77 H :    0.042946
  78 H :    0.029228

  Mayer bond orders larger than 0.100000
B(  0-C ,  1-C ) :   1.5266 B(  0-C ,  8-S ) :   1.2048 B(  0-C , 67-H ) :   0.9541
B(  1-C ,  2-N ) :   0.9142 B(  1-C ,  5-C ) :   1.2508 B(  2-N ,  3-O ) :   1.5525
B(  2-N ,  4-O ) :   1.5264 B(  3-O ,  4-O ) :   0.2654 B(  5-C ,  6-C ) :   1.1194
B(  5-C ,  7-C ) :   1.5222 B(  6-C , 68-H ) :   0.9170 B(  6-C , 69-H ) :   0.9304
B(  6-C , 70-H ) :   0.9285 B(  7-C ,  8-S ) :   1.1331 B(  7-C ,  9-C ) :   1.1527
B(  9-C , 10-C ) :   1.4451 B(  9-C , 13-S ) :   1.1138 B( 10-C , 11-C ) :   1.3166
B( 10-C , 71-H ) :   0.9842 B( 11-C , 12-C ) :   1.4242 B( 11-C , 16-C ) :   0.9894
B( 12-C , 13-S ) :   1.1100 B( 12-C , 14-C ) :   1.1946 B( 14-C , 15-C ) :   1.3964
B( 14-C , 24-S ) :   1.0912 B( 15-C , 16-C ) :   0.9933 B( 15-C , 22-C ) :   1.2804
B( 16-C , 17-C ) :   1.7111 B( 17-C , 18-C ) :   1.1338 B( 17-C , 20-C ) :   1.1359
B( 18-C , 19-N ) :   2.9882 B( 20-C , 21-N ) :   2.9869 B( 22-C , 23-C ) :   1.4069
B( 22-C , 72-H ) :   0.9829 B( 23-C , 24-S ) :   1.0776 B( 23-C , 25-C ) :   1.2190
B( 25-C , 26-C ) :   1.2485 B( 25-C , 36-C ) :   0.1210 B( 25-C , 38-C ) :   1.1935
B( 26-C , 27-C ) :   1.1041 B( 26-C , 31-N ) :   1.4042 B( 27-C , 28-N ) :   1.4087
B( 27-C , 36-C ) :   1.2537 B( 28-N , 29-C ) :   1.6940 B( 29-C , 30-C ) :   1.2201
B( 29-C , 34-C ) :   1.1692 B( 30-C , 31-N ) :   1.6908 B( 30-C , 32-C ) :   1.1653
B( 32-C , 33-N ) :   3.0409 B( 34-C , 35-N ) :   3.0383 B( 36-C , 37-C ) :   1.1898
B( 36-C , 42-C ) :   1.2151 B( 37-C , 38-C ) :   1.0980 B( 37-C , 41-N ) :   1.5168
B( 38-C , 39-N ) :   1.5216 B( 39-N , 40-S ) :   1.2838 B( 39-N , 41-N ) :   0.1457
B( 40-S , 41-N ) :   1.2839 B( 42-C , 43-C ) :   1.4072 B( 42-C , 46-S ) :   1.0834
B( 43-C , 44-C ) :   1.2820 B( 43-C , 73-H ) :   0.9813 B( 44-C , 45-C ) :   1.3939
B( 44-C , 49-C ) :   0.9922 B( 45-C , 46-S ) :   1.0940 B( 45-C , 47-C ) :   1.1992
B( 47-C , 48-C ) :   1.3856 B( 47-C , 57-S ) :   1.1055 B( 48-C , 49-C ) :   0.9861
B( 48-C , 55-C ) :   1.3517 B( 49-C , 50-C ) :   1.7076 B( 50-C , 51-C ) :   1.1370
B( 50-C , 53-C ) :   1.1346 B( 51-C , 52-N ) :   2.9860 B( 53-C , 54-N ) :   2.9879
B( 55-C , 56-C ) :   1.3800 B( 55-C , 74-H ) :   0.9804 B( 56-C , 57-S ) :   1.1106
B( 56-C , 58-C ) :   1.2041 B( 58-C , 59-C ) :   1.4096 B( 58-C , 66-S ) :   1.2131
B( 59-C , 60-N ) :   0.9887 B( 59-C , 63-C ) :   1.2192 B( 60-N , 61-O ) :   1.4168
B( 60-N , 62-O ) :   1.5305 B( 61-O , 62-O ) :   0.2401 B( 63-C , 64-C ) :   1.1009
B( 63-C , 65-C ) :   1.6239 B( 64-C , 75-H ) :   0.9384 B( 64-C , 76-H ) :   0.9397
B( 64-C , 77-H ) :   0.9362 B( 65-C , 66-S ) :   1.1060 B( 65-C , 78-H ) :   0.9656

-----------------------------------------------------------------------------
         ABSORPTION SPECTRUM VIA TRANSITION ELECTRIC DIPOLE MOMENTS
-----------------------------------------------------------------------------
State   Energy  Wavelength   fosc         T2         TX        TY        TZ
        (cm-1)    (nm)                  (au**2)     (au)      (au)      (au)
-----------------------------------------------------------------------------
   0    6860.3   1457.7   0.558147072  26.78454   2.29224  -2.52845   3.89064
   1   12570.4    795.5   0.004805916   0.12586   0.09583   0.30835  -0.14697
   2   13477.3    742.0   0.020276686   0.49530   0.38478  -0.24691   0.53505
   3   15637.2    639.5   0.002154065   0.04535   0.10079   0.17625   0.06426
   4   21308.2    469.3   0.433234313   6.69346   1.12313  -1.21643   1.98805
   5   21545.1    464.1   0.063402316   0.96880  -0.41952   0.38344  -0.80360
   6   22420.5    446.0   0.594460008   8.72876   1.93153  -0.91280   2.04077
   7   23354.6    428.2   0.053658417   0.75638  -0.74710  -0.01810  -0.44486
   8   23552.5    424.6   0.014915020   0.20848  -0.33878   0.10002  -0.28932
   9   24186.6    413.5   0.077440201   1.05406   0.91779   0.42462   0.17723
  10   24429.6    409.3   0.004288818   0.05780   0.14064  -0.03259   0.19223
  11   24702.4    404.8   0.014920951   0.19885  -0.37110  -0.24723   0.00418
  12   25214.4    396.6   0.001112660   0.01453   0.04215  -0.07939  -0.08030
  13   28001.6    357.1   0.510757168   6.00492   0.88008  -1.42131   1.79172
  14   28692.8    348.5   0.214199332   2.45766  -0.73484  -1.18814   0.71133
  15   29223.2    342.2   0.079200913   0.89223   0.80736  -0.02559   0.48963
  16   29725.9    336.4   0.458327782   5.07595  -0.52471   1.41081  -1.67638
  17   29833.8    335.2   0.030872902   0.34068   0.23658  -0.28987   0.44798
  18   30410.0    328.8   0.120975497   1.30965  -0.93853  -0.63875   0.14429
  19   30545.6    327.4   0.281200512   3.03070   0.01786   1.23845  -1.22337
  20   30981.6    322.8   0.000159775   0.00170   0.03329   0.02428   0.00059
  21   31104.3    321.5   0.014496679   0.15343  -0.27924   0.05304  -0.26953
  22   31401.3    318.5   0.042236606   0.44281   0.29216   0.48167  -0.35418
  23   31896.4    313.5   0.173553471   1.79129  -1.23843  -0.44555  -0.24302
  24   32073.7    311.8   0.181719338   1.86521  -1.16714   0.05185  -0.70732
  25   32332.6    309.3   0.009688681   0.09865  -0.10317   0.17058  -0.24271
  26   32405.1    308.6   1.227997769  12.47555  -2.90229  -1.95739   0.47000
  27   33021.8    302.8   0.015160363   0.15114  -0.29407  -0.23940   0.08574
  28   33425.9    299.2   0.083870654   0.82604   0.65227   0.60279  -0.19297
  29   33749.2    296.3   0.215415629   2.10131   1.28296   0.65660   0.15556
  30   33875.4    295.2   0.018929007   0.18396   0.24150  -0.13937   0.32590
  31   34061.7    293.6   0.248670286   2.40344  -0.35131   0.92303  -1.19501
  32   34215.1    292.3   0.007700917   0.07410   0.25859   0.00315   0.08495
  33   34367.0    291.0   0.009454807   0.09057   0.11272   0.24950  -0.12496
  34   34502.2    289.8   0.014437953   0.13776   0.20736   0.29397  -0.09136
  35   36264.6    275.8   0.186480291   1.69288  -0.50465  -0.97556   0.69749
  36   36663.1    272.8   0.158575951   1.42391  -0.70844   0.44010  -0.85343
  37   36727.3    272.3   0.140561915   1.25995  -1.00066  -0.49608  -0.11198
  38   37121.2    269.4   0.045718052   0.40545   0.07049   0.50579  -0.38034
  39   37446.3    267.0   0.053216133   0.46785   0.54006  -0.10836   0.40552
  40   37798.2    264.6   0.005643544   0.04915  -0.03522  -0.15821   0.15127
  41   37835.0    264.3   0.015414091   0.13412  -0.15116  -0.31366   0.11353
  42   38395.2    260.4   0.111391244   0.95510   0.78476   0.57350  -0.10168
  43   38445.9    260.1   0.181307063   1.55253  -0.94717  -0.74819   0.30923
  44   38602.1    259.1   0.004429173   0.03777   0.17641   0.08117   0.00800
  45   38634.9    258.8   0.009402311   0.08012   0.21066   0.16942  -0.08390
  46   38762.2    258.0   0.076600426   0.65058   0.59809   0.52519  -0.13057
  47   39112.4    255.7   0.034262573   0.28839  -0.46400  -0.27017   0.01002
  48   39429.3    253.6   0.024345924   0.20327   0.37122   0.22523   0.12141
  49   39644.0    252.2   0.013445149   0.11165   0.32374  -0.03233  -0.07614
  50   39767.1    251.5   0.095248538   0.78852   0.79605   0.37406   0.12209
  51   40191.0    248.8   0.003071025   0.02516   0.00442   0.11482  -0.10933

FINAL SINGLE POINT ENERGY     -5424.660614154248

DIPOLE MOMENT
-------------
                                X             Y             Z
Electronic contribution:    -15.37493      -4.29461      -7.48762
Nuclear contribution   :     15.45905       2.95972       8.73311
                        -----------------------------------------
Total Dipole Moment    :      0.08412      -1.33489       1.24550
                        -----------------------------------------
Magnitude (a.u.)       :      1.82764
Magnitude (Debye)      :      4.64550

Rotational constants in cm-1:     0.002312     0.000281     0.000251
Rotational constants in MHz :    69.309375     8.433169     7.528782

                             ****ORCA TERMINATED NORMALLY****
TOTAL RUN TIME: 0 days 0 hours 7 minutes 6 seconds 724 msec
