                         Program Version 4.2.0 -  RELEASE  -
|  1> # ORCA input file
|  2> # SCF done       -170.552054413721          0.000605806013
|  3> ! CAM-B3LYP def2-SVP def2/J RIJCOSX Grid4 TightSCF
|  4> %maxcore 5000
|  5> %tddft
|  6>     Mode sTDDFT
|  7>     Ethresh 5.0
|  8>     maxcore 5000
|  9> end
| 10>
| 11> %pal
| 12>   nprocs 6
| 13>   end
| 14> * xyz 0 1
| 15>    C        5.77783        -0.48554       -10.79412
| 16>    N        6.74547        -0.78177        -9.75165
| 17>    C        7.11068        -2.11185        -9.62882
| 18>    O        6.63237        -2.94705       -10.36976
| 19>    C        8.08489        -2.43475        -8.57407
| 20>    C        8.50224        -3.73865        -8.40893
| 21>    C        9.44588        -4.05331        -7.42963
| 22>    C        9.94403        -3.07872        -6.60344
| 23>    C        9.51131        -1.74190        -6.71181
| 24>    C        9.98929        -0.70114        -5.86737
| 25>    C       10.84387        -0.99380        -4.71558
| 26>    C       10.43768        -1.88224        -3.72459
| 27>    C       11.22824        -2.11143        -2.52829
| 28>    C       12.43712        -1.46184        -2.29680
| 29>    C       13.15322        -1.69408        -1.05848
| 30>    C       14.49048        -1.86529        -0.82605
| 31>    O       14.72310        -2.11158         0.47320
| 32>    C       13.53639        -2.11205         1.09904
| 33>    C       12.52393        -1.86747         0.21986
| 34>    C       11.07612        -1.69123         0.47665
| 35>    O       10.48231        -0.68228         0.14277
| 36>    C       10.41284        -2.80285         1.13321
| 37>    C       10.88892        -4.04091         1.50393
| 38>    C        9.89795        -4.88153         2.00355
| 39>    C        8.64173        -4.30189         2.02936
| 40>    C        7.40863        -4.93260         2.39876
| 41>    C        7.27495        -6.32818         2.33964
| 42>    C        5.99581        -6.99439         2.52701
| 43>    C        4.81735        -6.29096         2.77269
| 44>    C        3.52091        -6.96077         2.77629
| 45>    C        2.41443        -6.36989         2.13970
| 46>    C        1.19427        -6.99864         2.09992
| 47>    C        1.03116        -8.25175         2.69729
| 48>    N       -0.16837        -8.90124         2.67576
| 49>    C       -0.44009       -10.14630         3.21633
| 50>    O       -1.55141       -10.62000         3.13221
| 51>    C        0.72286       -10.77008         3.86165
| 52>    C        0.54660       -12.04704         4.43951
| 53>    N        0.43469       -13.08338         4.91527
| 54>    C        1.93354       -10.15272         3.90734
| 55>    C        2.13337        -8.86821         3.32698
| 56>    C        3.36594        -8.21010         3.35366
| 57>    C        4.96447        -4.89878         2.97242
| 58>    C        3.98342        -4.02067         3.39856
| 59>    S        4.56952        -2.43760         3.58002
| 60>    C        6.13430        -2.87911         3.08704
| 61>    C        6.23878        -4.22409         2.79056
| 62>    N        6.10541        -8.32425         2.36201
| 63>    S        7.62184        -8.68549         2.02075
| 64>    N        8.24149        -7.21278         2.04825
| 65>    S        8.70919        -2.67654         1.41485
| 66>    C       12.86648        -0.56652        -3.30051
| 67>    C       14.01529         0.20451        -3.30086
| 68>    S       14.15268         1.15368        -4.70269
| 69>    C       12.68890         0.57414        -5.33974
| 70>    C       12.07338        -0.33342        -4.49508
| 71>    N       10.63714        -3.00578        -1.71500
| 72>    S        9.24491        -3.45032        -2.35746
| 73>    N        9.29540        -2.59498        -3.70181
| 74>    C        9.59663         0.60287        -6.10444
| 75>    C        8.70674         0.91553        -7.12759
| 76>    C        8.18924        -0.07855        -7.93431
| 77>    C        8.59017        -1.41592        -7.73992
| 78>    C        7.22650         0.27113        -8.98919
| 79>    O        6.86136         1.41161        -9.19521
| 80>    H        4.87129        -1.06623       -10.62473
| 81>    H        6.18834        -0.75879       -11.76628
| 82>    H        5.56091         0.57913       -10.76066
| 83>    H        8.09763        -4.49973        -9.05903
| 84>    H        9.78706        -5.07280        -7.32983
| 85>    H       10.68827        -3.33031        -5.86405
| 86>    H       15.33379        -1.87533        -1.48741
| 87>    H       13.53590        -2.25966         2.16100
| 88>    H       11.91965        -4.32598         1.39925
| 89>    H       10.07203        -5.88613         2.34017
| 90>    H        2.53966        -5.42099         1.64104
| 91>    H        0.35686        -6.53642         1.59798
| 92>    H       -0.95430        -8.45035         2.22037
| 93>    H        2.77097       -10.63929         4.38831
| 94>    H        4.20414        -8.68728         3.83512
| 95>    H        2.97068        -4.24863         3.66091
| 96>    H        6.90406        -2.13637         3.08455
| 97>    H       14.76355         0.26389        -2.53833
| 98>    H       12.34867         0.91037        -6.29783
| 99>    H        9.95567         1.38799        -5.45558
|100>    H        8.39254         1.93500        -7.29390
|101> *
|102>
|103>                          ****END OF INPUT****

CARTESIAN COORDINATES (ANGSTROEM)
---------------------------------
  C      5.777830   -0.485540  -10.794120
  N      6.745470   -0.781770   -9.751650
  C      7.110680   -2.111850   -9.628820
  O      6.632370   -2.947050  -10.369760
  C      8.084890   -2.434750   -8.574070
  C      8.502240   -3.738650   -8.408930
  C      9.445880   -4.053310   -7.429630
  C      9.944030   -3.078720   -6.603440
  C      9.511310   -1.741900   -6.711810
  C      9.989290   -0.701140   -5.867370
  C     10.843870   -0.993800   -4.715580
  C     10.437680   -1.882240   -3.724590
  C     11.228240   -2.111430   -2.528290
  C     12.437120   -1.461840   -2.296800
  C     13.153220   -1.694080   -1.058480
  C     14.490480   -1.865290   -0.826050
  O     14.723100   -2.111580    0.473200
  C     13.536390   -2.112050    1.099040
  C     12.523930   -1.867470    0.219860
  C     11.076120   -1.691230    0.476650
  O     10.482310   -0.682280    0.142770
  C     10.412840   -2.802850    1.133210
  C     10.888920   -4.040910    1.503930
  C      9.897950   -4.881530    2.003550
  C      8.641730   -4.301890    2.029360
  C      7.408630   -4.932600    2.398760
  C      7.274950   -6.328180    2.339640
  C      5.995810   -6.994390    2.527010
  C      4.817350   -6.290960    2.772690
  C      3.520910   -6.960770    2.776290
  C      2.414430   -6.369890    2.139700
  C      1.194270   -6.998640    2.099920
  C      1.031160   -8.251750    2.697290
  N     -0.168370   -8.901240    2.675760
  C     -0.440090  -10.146300    3.216330
  O     -1.551410  -10.620000    3.132210
  C      0.722860  -10.770080    3.861650
  C      0.546600  -12.047040    4.439510
  N      0.434690  -13.083380    4.915270
  C      1.933540  -10.152720    3.907340
  C      2.133370   -8.868210    3.326980
  C      3.365940   -8.210100    3.353660
  C      4.964470   -4.898780    2.972420
  C      3.983420   -4.020670    3.398560
  S      4.569520   -2.437600    3.580020
  C      6.134300   -2.879110    3.087040
  C      6.238780   -4.224090    2.790560
  N      6.105410   -8.324250    2.362010
  S      7.621840   -8.685490    2.020750
  N      8.241490   -7.212780    2.048250
  S      8.709190   -2.676540    1.414850
  C     12.866480   -0.566520   -3.300510
  C     14.015290    0.204510   -3.300860
  S     14.152680    1.153680   -4.702690
  C     12.688900    0.574140   -5.339740
  C     12.073380   -0.333420   -4.495080
  N     10.637140   -3.005780   -1.715000
  S      9.244910   -3.450320   -2.357460
  N      9.295400   -2.594980   -3.701810
  C      9.596630    0.602870   -6.104440
  C      8.706740    0.915530   -7.127590
  C      8.189240   -0.078550   -7.934310
  C      8.590170   -1.415920   -7.739920
  C      7.226500    0.271130   -8.989190
  O      6.861360    1.411610   -9.195210
  H      4.871290   -1.066230  -10.624730
  H      6.188340   -0.758790  -11.766280
  H      5.560910    0.579130  -10.760660
  H      8.097630   -4.499730   -9.059030
  H      9.787060   -5.072800   -7.329830
  H     10.688270   -3.330310   -5.864050
  H     15.333790   -1.875330   -1.487410
  H     13.535900   -2.259660    2.161000
  H     11.919650   -4.325980    1.399250
  H     10.072030   -5.886130    2.340170
  H      2.539660   -5.420990    1.641040
  H      0.356860   -6.536420    1.597980
  H     -0.954300   -8.450350    2.220370
  H      2.770970  -10.639290    4.388310
  H      4.204140   -8.687280    3.835120
  H      2.970680   -4.248630    3.660910
  H      6.904060   -2.136370    3.084550
  H     14.763550    0.263890   -2.538330
  H     12.348670    0.910370   -6.297830
  H      9.955670    1.387990   -5.455580
  H      8.392540    1.935000   -7.293900

 Total Charge           Charge          ....    0
 Multiplicity           Mult            ....    1
 Number of Electrons    NEL             ....  478
 Basis Dimension        Dim             .... 1035

ORBITAL ENERGIES
----------------

  NO   OCC          E(Eh)            E(eV)
   0   2.0000     -89.040079     -2422.9037
   1   2.0000     -89.033533     -2422.7256
   2   2.0000     -88.989182     -2421.5187
   3   2.0000     -88.984652     -2421.3955
   4   2.0000     -88.960025     -2420.7254
   5   2.0000     -19.300549      -525.1947
   6   2.0000     -19.199309      -522.4398
   7   2.0000     -19.189842      -522.1821
   8   2.0000     -19.188432      -522.1438
   9   2.0000     -19.187257      -522.1118
  10   2.0000     -14.473516      -393.8444
  11   2.0000     -14.448807      -393.1720
  12   2.0000     -14.442804      -393.0087
  13   2.0000     -14.441330      -392.9686
  14   2.0000     -14.433372      -392.7520
  15   2.0000     -14.432879      -392.7386
  16   2.0000     -14.399010      -391.8170
  17   2.0000     -10.391031      -282.7543
  18   2.0000     -10.378045      -282.4009
  19   2.0000     -10.375244      -282.3247
  20   2.0000     -10.364159      -282.0231
  21   2.0000     -10.348299      -281.5915
  22   2.0000     -10.333718      -281.1947
  23   2.0000     -10.332173      -281.1527
  24   2.0000     -10.329595      -281.0826
  25   2.0000     -10.328543      -281.0539
  26   2.0000     -10.323561      -280.9184
  27   2.0000     -10.319889      -280.8185
  28   2.0000     -10.319853      -280.8175
  29   2.0000     -10.318816      -280.7893
  30   2.0000     -10.311930      -280.6019
  31   2.0000     -10.306486      -280.4538
  32   2.0000     -10.306068      -280.4424
  33   2.0000     -10.303807      -280.3808
  34   2.0000     -10.303684      -280.3775
  35   2.0000     -10.303234      -280.3652
  36   2.0000     -10.302982      -280.3584
  37   2.0000     -10.302232      -280.3380
  38   2.0000     -10.300593      -280.2934
  39   2.0000     -10.299689      -280.2688
  40   2.0000     -10.299547      -280.2649
  41   2.0000     -10.299282      -280.2577
  42   2.0000     -10.299036      -280.2510
  43   2.0000     -10.298026      -280.2235
  44   2.0000     -10.297949      -280.2214
  45   2.0000     -10.296547      -280.1833
  46   2.0000     -10.296473      -280.1813
  47   2.0000     -10.296361      -280.1782
  48   2.0000     -10.296041      -280.1695
  49   2.0000     -10.294996      -280.1411
  50   2.0000     -10.293950      -280.1126
  51   2.0000     -10.290718      -280.0247
  52   2.0000     -10.289080      -279.9801
  53   2.0000     -10.288043      -279.9519
  54   2.0000     -10.284133      -279.8455
  55   2.0000     -10.283222      -279.8207
  56   2.0000     -10.283097      -279.8173
  57   2.0000     -10.282692      -279.8063
  58   2.0000     -10.282522      -279.8016
  59   2.0000     -10.281855      -279.7835
  60   2.0000     -10.280596      -279.7492
  61   2.0000     -10.279943      -279.7315
  62   2.0000     -10.279881      -279.7298
  63   2.0000     -10.276770      -279.6451
  64   2.0000     -10.272452      -279.5276
  65   2.0000      -8.131107      -221.2587
  66   2.0000      -8.124137      -221.0690
  67   2.0000      -8.084356      -219.9865
  68   2.0000      -8.079710      -219.8601
  69   2.0000      -8.054988      -219.1874
  70   2.0000      -6.101970      -166.0430
  71   2.0000      -6.094879      -165.8501
  72   2.0000      -6.094452      -165.8385
  73   2.0000      -6.094185      -165.8312
  74   2.0000      -6.087712      -165.6551
  75   2.0000      -6.087205      -165.6413
  76   2.0000      -6.052857      -164.7066
  77   2.0000      -6.048583      -164.5903
  78   2.0000      -6.048391      -164.5851
  79   2.0000      -6.048213      -164.5802
  80   2.0000      -6.043915      -164.4633
  81   2.0000      -6.043807      -164.4603
  82   2.0000      -6.024222      -163.9274
  83   2.0000      -6.019896      -163.8097
  84   2.0000      -6.017426      -163.7425
  85   2.0000      -1.219748       -33.1910
  86   2.0000      -1.139608       -31.0103
  87   2.0000      -1.138523       -30.9808
  88   2.0000      -1.131722       -30.7957
  89   2.0000      -1.124573       -30.6012
  90   2.0000      -1.116917       -30.3929
  91   2.0000      -1.115529       -30.3551
  92   2.0000      -1.060223       -28.8501
  93   2.0000      -1.017410       -27.6851
  94   2.0000      -1.012670       -27.5562
  95   2.0000      -1.005830       -27.3700
  96   2.0000      -0.992907       -27.0184
  97   2.0000      -0.986491       -26.8438
  98   2.0000      -0.985283       -26.8109
  99   2.0000      -0.980559       -26.6824
 100   2.0000      -0.974939       -26.5294
 101   2.0000      -0.969431       -26.3796
 102   2.0000      -0.946363       -25.7518
 103   2.0000      -0.944019       -25.6881
 104   2.0000      -0.932035       -25.3620
 105   2.0000      -0.928801       -25.2740
 106   2.0000      -0.915259       -24.9055
 107   2.0000      -0.899174       -24.4678
 108   2.0000      -0.893509       -24.3136
 109   2.0000      -0.871438       -23.7130
 110   2.0000      -0.863802       -23.5053
 111   2.0000      -0.858592       -23.3635
 112   2.0000      -0.853711       -23.2307
 113   2.0000      -0.851915       -23.1818
 114   2.0000      -0.845376       -23.0039
 115   2.0000      -0.839908       -22.8551
 116   2.0000      -0.835074       -22.7235
 117   2.0000      -0.825523       -22.4636
 118   2.0000      -0.825368       -22.4594
 119   2.0000      -0.801387       -21.8068
 120   2.0000      -0.798838       -21.7375
 121   2.0000      -0.790069       -21.4989
 122   2.0000      -0.772305       -21.0155
 123   2.0000      -0.765972       -20.8432
 124   2.0000      -0.762791       -20.7566
 125   2.0000      -0.750864       -20.4321
 126   2.0000      -0.747357       -20.3366
 127   2.0000      -0.743336       -20.2272
 128   2.0000      -0.730140       -19.8681
 129   2.0000      -0.721119       -19.6226
 130   2.0000      -0.710907       -19.3448
 131   2.0000      -0.707184       -19.2435
 132   2.0000      -0.698813       -19.0157
 133   2.0000      -0.694048       -18.8860
 134   2.0000      -0.686093       -18.6695
 135   2.0000      -0.682332       -18.5672
 136   2.0000      -0.671309       -18.2673
 137   2.0000      -0.670632       -18.2488
 138   2.0000      -0.663526       -18.0555
 139   2.0000      -0.655163       -17.8279
 140   2.0000      -0.650695       -17.7063
 141   2.0000      -0.647280       -17.6134
 142   2.0000      -0.642925       -17.4949
 143   2.0000      -0.633380       -17.2352
 144   2.0000      -0.628302       -17.0970
 145   2.0000      -0.615748       -16.7553
 146   2.0000      -0.611490       -16.6395
 147   2.0000      -0.611101       -16.6289
 148   2.0000      -0.603944       -16.4342
 149   2.0000      -0.601982       -16.3808
 150   2.0000      -0.598750       -16.2928
 151   2.0000      -0.597136       -16.2489
 152   2.0000      -0.593276       -16.1439
 153   2.0000      -0.587284       -15.9808
 154   2.0000      -0.579673       -15.7737
 155   2.0000      -0.579600       -15.7717
 156   2.0000      -0.567652       -15.4466
 157   2.0000      -0.561118       -15.2688
 158   2.0000      -0.559109       -15.2141
 159   2.0000      -0.557916       -15.1817
 160   2.0000      -0.555091       -15.1048
 161   2.0000      -0.552394       -15.0314
 162   2.0000      -0.549834       -14.9617
 163   2.0000      -0.548432       -14.9236
 164   2.0000      -0.547232       -14.8909
 165   2.0000      -0.536460       -14.5978
 166   2.0000      -0.533127       -14.5071
 167   2.0000      -0.526531       -14.3276
 168   2.0000      -0.525489       -14.2993
 169   2.0000      -0.523838       -14.2543
 170   2.0000      -0.517817       -14.0905
 171   2.0000      -0.514685       -14.0053
 172   2.0000      -0.514087       -13.9890
 173   2.0000      -0.512900       -13.9567
 174   2.0000      -0.509668       -13.8688
 175   2.0000      -0.503392       -13.6980
 176   2.0000      -0.502785       -13.6815
 177   2.0000      -0.500541       -13.6204
 178   2.0000      -0.496176       -13.5016
 179   2.0000      -0.495514       -13.4836
 180   2.0000      -0.492935       -13.4134
 181   2.0000      -0.492510       -13.4019
 182   2.0000      -0.491345       -13.3702
 183   2.0000      -0.490067       -13.3354
 184   2.0000      -0.484915       -13.1952
 185   2.0000      -0.483723       -13.1628
 186   2.0000      -0.480553       -13.0765
 187   2.0000      -0.478261       -13.0141
 188   2.0000      -0.477545       -12.9947
 189   2.0000      -0.475560       -12.9407
 190   2.0000      -0.473962       -12.8972
 191   2.0000      -0.473050       -12.8723
 192   2.0000      -0.469438       -12.7741
 193   2.0000      -0.465828       -12.6758
 194   2.0000      -0.463989       -12.6258
 195   2.0000      -0.456229       -12.4146
 196   2.0000      -0.455014       -12.3816
 197   2.0000      -0.453912       -12.3516
 198   2.0000      -0.453559       -12.3420
 199   2.0000      -0.449302       -12.2261
 200   2.0000      -0.445334       -12.1181
 201   2.0000      -0.440807       -11.9950
 202   2.0000      -0.436534       -11.8787
 203   2.0000      -0.433767       -11.8034
 204   2.0000      -0.428517       -11.6605
 205   2.0000      -0.426773       -11.6131
 206   2.0000      -0.423039       -11.5115
 207   2.0000      -0.420128       -11.4323
 208   2.0000      -0.417323       -11.3559
 209   2.0000      -0.413523       -11.2525
 210   2.0000      -0.412835       -11.2338
 211   2.0000      -0.405328       -11.0295
 212   2.0000      -0.401249       -10.9185
 213   2.0000      -0.400727       -10.9043
 214   2.0000      -0.398973       -10.8566
 215   2.0000      -0.396307       -10.7841
 216   2.0000      -0.390690       -10.6312
 217   2.0000      -0.374880       -10.2010
 218   2.0000      -0.373220       -10.1558
 219   2.0000      -0.366428        -9.9710
 220   2.0000      -0.359956        -9.7949
 221   2.0000      -0.352952        -9.6043
 222   2.0000      -0.348775        -9.4907
 223   2.0000      -0.346476        -9.4281
 224   2.0000      -0.342373        -9.3165
 225   2.0000      -0.333829        -9.0839
 226   2.0000      -0.332267        -9.0415
 227   2.0000      -0.331617        -9.0238
 228   2.0000      -0.329387        -8.9631
 229   2.0000      -0.327901        -8.9226
 230   2.0000      -0.323510        -8.8032
 231   2.0000      -0.323179        -8.7941
 232   2.0000      -0.319576        -8.6961
 233   2.0000      -0.312631        -8.5071
 234   2.0000      -0.311153        -8.4669
 235   2.0000      -0.299791        -8.1577
 236   2.0000      -0.289815        -7.8863
 237   2.0000      -0.242367        -6.5951
 238   2.0000      -0.238217        -6.4822
 239   0.0000      -0.103291        -2.8107
 240   0.0000      -0.091454        -2.4886
 241   0.0000      -0.052455        -1.4274
 242   0.0000      -0.052001        -1.4150
 243   0.0000      -0.030621        -0.8332

MULLIKEN ATOMIC CHARGES
-----------------------
   0 C :    0.143844
   1 N :   -0.273456
   2 C :    0.144365
   3 O :   -0.203642
   4 C :   -0.069672
   5 C :   -0.007213
   6 C :    0.036219
   7 C :   -0.000871
   8 C :    0.094248
   9 C :   -0.002685
  10 C :    0.010877
  11 C :    0.002371
  12 C :    0.004540
  13 C :    0.108786
  14 C :   -0.005690
  15 C :    0.043979
  16 O :   -0.172639
  17 C :    0.059725
  18 C :   -0.025387
  19 C :    0.172355
  20 O :   -0.179441
  21 C :   -0.128906
  22 C :    0.050235
  23 C :    0.030923
  24 C :   -0.188290
  25 C :    0.180803
  26 C :   -0.009394
  27 C :   -0.005379
  28 C :    0.096732
  29 C :    0.003247
  30 C :   -0.002873
  31 C :   -0.031336
  32 C :    0.102195
  33 N :   -0.032133
  34 C :    0.130427
  35 O :   -0.168716
  36 C :   -0.235536
  37 C :   -0.135462
  38 N :    0.122898
  39 C :    0.095805
  40 C :    0.027202
  41 C :   -0.032110
  42 C :    0.049621
  43 C :   -0.186380
  44 S :    0.205882
  45 C :   -0.183309
  46 C :    0.039486
  47 N :   -0.301617
  48 S :    0.541441
  49 N :   -0.310271
  50 S :    0.139373
  51 C :    0.075238
  52 C :   -0.184097
  53 S :    0.200345
  54 C :   -0.176711
  55 C :    0.063820
  56 N :   -0.303986
  57 S :    0.552081
  58 N :   -0.279807
  59 C :   -0.019432
  60 C :   -0.020007
  61 C :   -0.049148
  62 C :    0.139460
  63 C :    0.147501
  64 O :   -0.197285
  65 H :    0.032784
  66 H :    0.032630
  67 H :    0.050610
  68 H :    0.002188
  69 H :   -0.013064
  70 H :   -0.010039
  71 H :    0.009038
  72 H :    0.013977
  73 H :   -0.012809
  74 H :   -0.006704
  75 H :   -0.000822
  76 H :   -0.030133
  77 H :    0.134118
  78 H :    0.009153
  79 H :   -0.014538
  80 H :    0.030932
  81 H :    0.038160
  82 H :    0.017749
  83 H :    0.030140
  84 H :   -0.009457
  85 H :    0.002941
Sum of atomic charges:    0.0000000

LOEWDIN ATOMIC CHARGES
----------------------
   0 C :    0.037128
   1 N :   -0.030919
   2 C :    0.087572
   3 O :   -0.185974
   4 C :   -0.070594
   5 C :    0.032961
   6 C :   -0.028554
   7 C :    0.020955
   8 C :   -0.009065
   9 C :    0.017478
  10 C :   -0.032047
  11 C :   -0.051401
  12 C :   -0.045509
  13 C :   -0.015646
  14 C :   -0.046736
  15 C :    0.035314
  16 O :    0.029415
  17 C :    0.041246
  18 C :   -0.081055
  19 C :    0.056837
  20 O :   -0.166399
  21 C :   -0.215248
  22 C :   -0.028589
  23 C :   -0.048909
  24 C :   -0.155941
  25 C :   -0.045482
  26 C :   -0.043945
  27 C :   -0.051390
  28 C :   -0.020521
  29 C :   -0.036101
  30 C :    0.014078
  31 C :   -0.053201
  32 C :    0.053848
  33 N :    0.047528
  34 C :    0.071035
  35 O :   -0.192419
  36 C :   -0.114377
  37 C :   -0.024381
  38 N :   -0.045359
  39 C :    0.070958
  40 C :   -0.063865
  41 C :    0.030241
  42 C :   -0.042233
  43 C :   -0.219296
  44 S :    0.545534
  45 C :   -0.223910
  46 C :   -0.045050
  47 N :   -0.301913
  48 S :    0.678651
  49 N :   -0.297555
  50 S :    0.473930
  51 C :   -0.036783
  52 C :   -0.220354
  53 S :    0.542350
  54 C :   -0.218773
  55 C :   -0.037066
  56 N :   -0.291190
  57 S :    0.692978
  58 N :   -0.301057
  59 C :   -0.019639
  60 C :    0.029346
  61 C :   -0.068356
  62 C :    0.005433
  63 C :    0.088921
  64 O :   -0.186893
  65 H :    0.029698
  66 H :    0.029530
  67 H :    0.031696
  68 H :    0.038954
  69 H :    0.031180
  70 H :    0.031475
  71 H :    0.023529
  72 H :    0.025937
  73 H :    0.031796
  74 H :    0.028917
  75 H :    0.036429
  76 H :    0.031471
  77 H :    0.099446
  78 H :    0.047878
  79 H :    0.033873
  80 H :    0.024404
  81 H :    0.013074
  82 H :    0.021345
  83 H :    0.025320
  84 H :    0.034108
  85 H :    0.039895

  Mayer bond orders larger than 0.100000
B(  0-C ,  1-N ) :   0.9387 B(  0-C , 65-H ) :   0.9740 B(  0-C , 66-H ) :   0.9759
B(  0-C , 67-H ) :   0.9543 B(  1-N ,  2-C ) :   1.0808 B(  1-N , 63-C ) :   1.0808
B(  2-C ,  3-O ) :   2.1605 B(  2-C ,  4-C ) :   0.9353 B(  4-C ,  5-C ) :   1.4975
B(  4-C , 62-C ) :   1.2216 B(  5-C ,  6-C ) :   1.2388 B(  5-C , 68-H ) :   0.9922
B(  6-C ,  7-C ) :   1.4702 B(  6-C , 69-H ) :   0.9890 B(  7-C ,  8-C ) :   1.2525
B(  7-C , 70-H ) :   0.9801 B(  8-C ,  9-C ) :   1.2534 B(  8-C , 62-C ) :   1.2571
B(  9-C , 10-C ) :   0.9394 B(  9-C , 59-C ) :   1.4821 B( 10-C , 11-C ) :   1.3681
B( 10-C , 13-C ) :   0.1462 B( 10-C , 55-C ) :   1.2772 B( 11-C , 12-C ) :   1.0903
B( 11-C , 58-N ) :   1.4431 B( 12-C , 13-C ) :   1.3585 B( 12-C , 56-N ) :   1.4202
B( 13-C , 14-C ) :   0.9708 B( 13-C , 51-C ) :   1.2844 B( 14-C , 15-C ) :   1.5180
B( 14-C , 18-C ) :   1.3076 B( 15-C , 16-O ) :   1.1588 B( 15-C , 71-H ) :   1.0093
B( 16-O , 17-C ) :   1.1581 B( 17-C , 18-C ) :   1.5448 B( 17-C , 72-H ) :   1.0101
B( 18-C , 19-C ) :   0.8971 B( 19-C , 20-O ) :   2.2408 B( 19-C , 21-C ) :   0.9842
B( 21-C , 22-C ) :   1.5016 B( 21-C , 24-C ) :   0.1135 B( 21-C , 50-S ) :   1.1158
B( 22-C , 23-C ) :   1.2619 B( 22-C , 73-H ) :   0.9842 B( 23-C , 24-C ) :   1.4979
B( 23-C , 74-H ) :   0.9878 B( 24-C , 25-C ) :   1.0849 B( 24-C , 50-S ) :   1.1326
B( 25-C , 26-C ) :   1.3258 B( 25-C , 28-C ) :   0.1343 B( 25-C , 46-C ) :   1.2149
B( 26-C , 27-C ) :   1.1005 B( 26-C , 49-N ) :   1.4360 B( 27-C , 28-C ) :   1.3500
B( 27-C , 47-N ) :   1.4315 B( 28-C , 29-C ) :   0.9734 B( 28-C , 42-C ) :   1.2579
B( 29-C , 30-C ) :   1.3078 B( 29-C , 41-C ) :   1.4008 B( 30-C , 31-C ) :   1.4225
B( 30-C , 75-H ) :   0.9899 B( 31-C , 32-C ) :   1.2926 B( 31-C , 76-H ) :   0.9954
B( 32-C , 33-N ) :   1.2001 B( 32-C , 40-C ) :   1.2908 B( 33-N , 34-C ) :   1.0850
B( 33-N , 77-H ) :   0.9026 B( 34-C , 35-O ) :   2.2419 B( 34-C , 36-C ) :   0.9503
B( 36-C , 37-C ) :   1.1111 B( 36-C , 39-C ) :   1.6414 B( 37-C , 38-N ) :   3.0431
B( 39-C , 40-C ) :   1.1289 B( 39-C , 78-H ) :   0.9861 B( 40-C , 41-C ) :   1.2696
B( 41-C , 79-H ) :   1.0000 B( 42-C , 43-C ) :   1.3723 B( 42-C , 46-C ) :   1.1365
B( 43-C , 44-S ) :   1.2543 B( 43-C , 45-C ) :   0.1226 B( 43-C , 80-H ) :   0.9557
B( 44-S , 45-C ) :   1.2527 B( 45-C , 46-C ) :   1.3933 B( 45-C , 81-H ) :   0.9440
B( 47-N , 48-S ) :   1.3087 B( 47-N , 49-N ) :   0.1741 B( 48-S , 49-N ) :   1.3003
B( 51-C , 52-C ) :   1.3763 B( 51-C , 55-C ) :   1.1180 B( 52-C , 53-S ) :   1.2512
B( 52-C , 54-C ) :   0.1322 B( 52-C , 82-H ) :   0.9505 B( 53-S , 54-C ) :   1.2519
B( 54-C , 55-C ) :   1.3793 B( 54-C , 83-H ) :   0.9506 B( 56-N , 57-S ) :   1.3102
B( 56-N , 58-N ) :   0.1771 B( 57-S , 58-N ) :   1.3209 B( 59-C , 60-C ) :   1.2371
B( 59-C , 84-H ) :   0.9981 B( 60-C , 61-C ) :   1.4719 B( 60-C , 85-H ) :   0.9947
B( 61-C , 62-C ) :   1.2247 B( 61-C , 63-C ) :   0.9350 B( 63-C , 64-O ) :   2.1633

-----------------------------------------------------------------------------
         ABSORPTION SPECTRUM VIA TRANSITION ELECTRIC DIPOLE MOMENTS
-----------------------------------------------------------------------------
State   Energy  Wavelength   fosc         T2         TX        TY        TZ
        (cm-1)    (nm)                  (au**2)     (au)      (au)      (au)
-----------------------------------------------------------------------------
   0   12966.8    771.2   0.362935304   9.21447  -2.37649  -1.62524   0.96195
   1   15680.0    637.8   0.243523512   5.11294   1.46758  -0.10698   1.71689
   2   18483.1    541.0   0.003750568   0.06680   0.12819   0.09499  -0.20334
   3   18556.2    538.9   0.006492087   0.11518  -0.15878   0.11367  -0.27757
   4   23556.2    424.5   0.059090515   0.82583   0.57191  -0.08490   0.70109
   5   24578.0    406.9   0.039611404   0.53058   0.13832   0.64055  -0.31802
   6   25456.8    392.8   0.024542249   0.31738   0.31617  -0.11729   0.45129
   7   25671.4    389.5   0.006649417   0.08527  -0.22892  -0.16436   0.07653
   8   26700.1    374.5   0.092317678   1.13828  -0.89308  -0.58347  -0.01572
   9   28092.3    356.0   0.477573871   5.59666  -1.76900  -1.31084   0.86544
  10   28650.4    349.0   0.025368811   0.29150  -0.47221  -0.07937  -0.24944
  11   29257.2    341.8   0.019105728   0.21498   0.15238   0.29857  -0.32034
  12   29606.7    337.8   0.035553722   0.39534  -0.50461  -0.30664   0.21605
  13   30053.4    332.7   0.010573475   0.11582  -0.02079  -0.25170   0.22812
  14   30231.2    330.8   0.001785249   0.01944   0.11502   0.04785  -0.06263
  15   30498.5    327.9   0.004258454   0.04597  -0.04774  -0.11060   0.17736
  16   31044.0    322.1   0.018770011   0.19905   0.36601   0.25222   0.03839
  17   31205.9    320.5   0.002393005   0.02525   0.04535  -0.00638   0.15215
  18   31662.6    315.8   0.024675003   0.25656   0.28917   0.40587   0.09058
  19   31879.3    313.7   0.001582740   0.01634  -0.08341   0.06373  -0.07298
  20   32585.7    306.9   0.354490635   3.58140  -0.83171   1.57290   0.64471
  21   32850.8    304.4   0.099745338   0.99959   0.13299   0.98874  -0.06551
  22   32970.7    303.3   0.139920082   1.39710   1.15716   0.19649  -0.13958
  23   33078.9    302.3   0.018473857   0.18386  -0.04655  -0.15336   0.39771
  24   33341.9    299.9   0.061164019   0.60392  -0.37825   0.63490  -0.24032
  25   33845.0    295.5   0.083364024   0.81089  -0.20838   0.17516  -0.85836
  26   33886.7    295.1   0.109102521   1.05994   0.20372   0.96143  -0.30674
  27   34078.4    293.4   0.265275825   2.56268   0.50006   1.39369  -0.60847
  28   34131.2    293.0   0.049752465   0.47989   0.59267   0.17558  -0.31273
  29   34169.3    292.7   0.029691795   0.28607  -0.41097  -0.27595   0.20255
  30   34463.3    290.2   0.271739321   2.59580  -1.07354   0.40540  -1.13091
  31   34599.5    289.0   0.198954246   1.89304   1.04851   0.84878  -0.27063
  32   35221.8    283.9   0.110190085   1.02993  -0.90323  -0.43482  -0.15820
  33   35496.2    281.7   0.014144520   0.13118  -0.28809  -0.14017  -0.16894
  34   35910.8    278.5   0.009294187   0.08520  -0.03272  -0.06301  -0.28313
  35   36636.3    273.0   0.005279231   0.04744  -0.09257  -0.15689   0.11939
  36   37143.9    269.2   0.000319508   0.00283   0.02043   0.04394  -0.02199
  37   37807.1    264.5   0.004494789   0.03914  -0.08535  -0.17136  -0.04992
  38   37921.8    263.7   0.001181869   0.01026   0.02279  -0.06832  -0.07123
  39   38140.7    262.2   0.022040040   0.19024   0.18111  -0.36585   0.15358
  40   38311.4    261.0   0.033444317   0.28739   0.39847   0.35465   0.05320
  41   38587.3    259.2   0.004816710   0.04109   0.02362   0.19896   0.03084
  42   38787.1    257.8   0.050906949   0.43208  -0.09544  -0.62266  -0.18780
  43   39330.0    254.3   0.050331151   0.42130  -0.33143  -0.06647  -0.55411
  44   39685.6    252.0   0.000563359   0.00467  -0.03371   0.03369  -0.04901
  45   39742.7    251.6   0.026137830   0.21651  -0.38515  -0.05744  -0.25470
  46   39952.3    250.3   0.092170809   0.75950   0.59976  -0.17790   0.60675
  47   40208.0    248.7   0.002577242   0.02110   0.05433   0.00732  -0.13452

FINAL SINGLE POINT ENERGY     -4588.256841815081

DIPOLE MOMENT
-------------
                                X             Y             Z
Electronic contribution:      5.73620      -7.98565      24.72742
Nuclear contribution   :     -2.67004       9.73232     -23.88875
                        -----------------------------------------
Total Dipole Moment    :      3.06616       1.74668       0.83867
                        -----------------------------------------
Magnitude (a.u.)       :      3.62706
Magnitude (Debye)      :      9.21926

Rotational constants in cm-1:     0.001360     0.000458     0.000376
Rotational constants in MHz :    40.781848    13.719081    11.284832

                             ****ORCA TERMINATED NORMALLY****
TOTAL RUN TIME: 0 days 0 hours 11 minutes 11 seconds 820 msec
