                         Program Version 4.2.0 -  RELEASE  -
|  1> # ORCA input file
|  2> # SCF done       -186.421853497566          0.000422744307
|  3> ! CAM-B3LYP def2-SVP def2/J RIJCOSX Grid4 TightSCF
|  4> %maxcore 5000
|  5> %tddft
|  6>     Mode sTDDFT
|  7>     Ethresh 5.0
|  8>     maxcore 5000
|  9> end
| 10>
| 11> %pal
| 12>   nprocs 6
| 13>   end
| 14> * xyz 0 1
| 15>    C        8.94886       -10.81790        -1.42390
| 16>    C        8.49031       -12.09566        -1.44964
| 17>    O        7.60824       -12.30643        -0.45615
| 18>    C        7.50623       -11.17031         0.23152
| 19>    C        8.29911       -10.19405        -0.31756
| 20>    C        8.45800        -8.83362         0.21623
| 21>    O        8.28731        -8.57757         1.39419
| 22>    C        8.83688        -7.79804        -0.74203
| 23>    C        8.67965        -7.74740        -2.10937
| 24>    C        9.11057        -6.54397        -2.66492
| 25>    C        9.60387        -5.66074        -1.72293
| 26>    S        9.50447        -6.32379        -0.12241
| 27>    C       10.15062        -4.36994        -1.95368
| 28>    C       10.66929        -3.49227        -1.01950
| 29>    C       11.14385        -2.32180        -1.61001
| 30>    C       10.98047        -2.30819        -3.00871
| 31>    S       10.24378        -3.73442        -3.59008
| 32>    C       11.50325        -1.09948        -3.52292
| 33>    C       12.00352        -0.34233        -2.44224
| 34>    C       11.78966        -1.08253        -1.20817
| 35>    C       12.12974        -0.69638         0.05465
| 36>    C       11.87489        -1.50478         1.18287
| 37>    N       11.67465        -2.15965         2.10233
| 38>    C       12.76128         0.53747         0.32033
| 39>    N       13.27486         1.53693         0.54846
| 40>    C       12.56250         0.86218        -2.84292
| 41>    C       12.49396         1.03459        -4.22117
| 42>    S       11.71408        -0.31745        -5.02936
| 43>    C       12.99272         2.13002        -4.96930
| 44>    C       12.85349         2.17564        -6.37410
| 45>    C       13.38463         3.25438        -7.16862
| 46>    N       13.22011         3.23905        -8.49442
| 47>    C       12.58059         2.24632        -9.06681
| 48>    C       12.05737         1.17176        -8.27812
| 49>    N       12.20823         1.17070        -6.97485
| 50>    C       11.36993         0.09781        -8.89426
| 51>    N       10.81844        -0.75791        -9.41939
| 52>    C       12.41272         2.25173       -10.47284
| 53>    N       12.26104         2.23054       -11.60810
| 54>    C       14.08999         4.33825        -6.59763
| 55>    C       14.20962         4.30897        -5.18669
| 56>    C       13.67101         3.22943        -4.38959
| 57>    N       13.90893         3.41660        -3.09161
| 58>    S       14.71362         4.78822        -2.88551
| 59>    N       14.80971         5.22366        -4.42525
| 60>    C       14.64564         5.35755        -7.40862
| 61>    C       15.39019         6.45322        -6.98340
| 62>    C       15.81000         7.23913        -8.04545
| 63>    C       15.37955         6.74541        -9.29614
| 64>    S       14.45985         5.31227        -9.15715
| 65>    C       15.87575         7.60714       -10.30492
| 66>    C       16.61503         8.63728        -9.69869
| 67>    C       16.59421         8.44633        -8.26011
| 68>    C       17.18584         9.23364        -7.31620
| 69>    C       17.10510         8.94605        -5.93726
| 70>    N       17.04335         8.72125        -4.81455
| 71>    C       17.90619        10.39814        -7.65803
| 72>    N       18.47886        11.35416        -7.92891
| 73>    C       17.16897         9.52647       -10.62307
| 74>    C       16.85832         9.17932       -11.91726
| 75>    S       15.85668         7.74585       -12.00853
| 76>    C       17.27268         9.85402       -13.11480
| 77>    C       16.63355         9.91099       -14.32620
| 78>    O       17.31891        10.67032       -15.19093
| 79>    C       18.40753        11.12173       -14.55488
| 80>    C       18.45039        10.66323       -13.26891
| 81>    C       19.55273        10.79818       -12.28768
| 82>    O       19.99335         9.83103       -11.69545
| 83>    C       20.06748        12.13986       -12.08638
| 84>    C       19.59647        13.35155       -12.53778
| 85>    C       20.36121        14.43247       -12.07870
| 86>    C       21.39746        14.03507       -11.28261
| 87>    S       21.45879        12.34360       -11.06859
| 88>    H        9.67893       -10.38248        -2.07392
| 89>    H        8.70654       -12.92037        -2.09930
| 90>    H        6.83972       -11.13803         1.07029
| 91>    H        8.24133        -8.54402        -2.68251
| 92>    H        9.07123        -6.31432        -3.71533
| 93>    H       10.69471        -3.71501         0.03205
| 94>    H       13.00900         1.59840        -2.20032
| 95>    H       15.59813         6.62999        -5.94416
| 96>    H       17.76329        10.38352       -10.36746
| 97>    H       15.71563         9.47009       -14.66127
| 98>    H       19.09721        11.72198       -15.11488
| 99>    H       18.72695        13.45401       -13.16123
|100>    H       20.15589        15.45947       -12.32173
|101>    H       22.12942        14.65651       -10.80506
|102> *
|103>
|104>                          ****END OF INPUT****

CARTESIAN COORDINATES (ANGSTROEM)
---------------------------------
  C      8.948860  -10.817900   -1.423900
  C      8.490310  -12.095660   -1.449640
  O      7.608240  -12.306430   -0.456150
  C      7.506230  -11.170310    0.231520
  C      8.299110  -10.194050   -0.317560
  C      8.458000   -8.833620    0.216230
  O      8.287310   -8.577570    1.394190
  C      8.836880   -7.798040   -0.742030
  C      8.679650   -7.747400   -2.109370
  C      9.110570   -6.543970   -2.664920
  C      9.603870   -5.660740   -1.722930
  S      9.504470   -6.323790   -0.122410
  C     10.150620   -4.369940   -1.953680
  C     10.669290   -3.492270   -1.019500
  C     11.143850   -2.321800   -1.610010
  C     10.980470   -2.308190   -3.008710
  S     10.243780   -3.734420   -3.590080
  C     11.503250   -1.099480   -3.522920
  C     12.003520   -0.342330   -2.442240
  C     11.789660   -1.082530   -1.208170
  C     12.129740   -0.696380    0.054650
  C     11.874890   -1.504780    1.182870
  N     11.674650   -2.159650    2.102330
  C     12.761280    0.537470    0.320330
  N     13.274860    1.536930    0.548460
  C     12.562500    0.862180   -2.842920
  C     12.493960    1.034590   -4.221170
  S     11.714080   -0.317450   -5.029360
  C     12.992720    2.130020   -4.969300
  C     12.853490    2.175640   -6.374100
  C     13.384630    3.254380   -7.168620
  N     13.220110    3.239050   -8.494420
  C     12.580590    2.246320   -9.066810
  C     12.057370    1.171760   -8.278120
  N     12.208230    1.170700   -6.974850
  C     11.369930    0.097810   -8.894260
  N     10.818440   -0.757910   -9.419390
  C     12.412720    2.251730  -10.472840
  N     12.261040    2.230540  -11.608100
  C     14.089990    4.338250   -6.597630
  C     14.209620    4.308970   -5.186690
  C     13.671010    3.229430   -4.389590
  N     13.908930    3.416600   -3.091610
  S     14.713620    4.788220   -2.885510
  N     14.809710    5.223660   -4.425250
  C     14.645640    5.357550   -7.408620
  C     15.390190    6.453220   -6.983400
  C     15.810000    7.239130   -8.045450
  C     15.379550    6.745410   -9.296140
  S     14.459850    5.312270   -9.157150
  C     15.875750    7.607140  -10.304920
  C     16.615030    8.637280   -9.698690
  C     16.594210    8.446330   -8.260110
  C     17.185840    9.233640   -7.316200
  C     17.105100    8.946050   -5.937260
  N     17.043350    8.721250   -4.814550
  C     17.906190   10.398140   -7.658030
  N     18.478860   11.354160   -7.928910
  C     17.168970    9.526470  -10.623070
  C     16.858320    9.179320  -11.917260
  S     15.856680    7.745850  -12.008530
  C     17.272680    9.854020  -13.114800
  C     16.633550    9.910990  -14.326200
  O     17.318910   10.670320  -15.190930
  C     18.407530   11.121730  -14.554880
  C     18.450390   10.663230  -13.268910
  C     19.552730   10.798180  -12.287680
  O     19.993350    9.831030  -11.695450
  C     20.067480   12.139860  -12.086380
  C     19.596470   13.351550  -12.537780
  C     20.361210   14.432470  -12.078700
  C     21.397460   14.035070  -11.282610
  S     21.458790   12.343600  -11.068590
  H      9.678930  -10.382480   -2.073920
  H      8.706540  -12.920370   -2.099300
  H      6.839720  -11.138030    1.070290
  H      8.241330   -8.544020   -2.682510
  H      9.071230   -6.314320   -3.715330
  H     10.694710   -3.715010    0.032050
  H     13.009000    1.598400   -2.200320
  H     15.598130    6.629990   -5.944160
  H     17.763290   10.383520  -10.367460
  H     15.715630    9.470090  -14.661270
  H     19.097210   11.721980  -15.114880
  H     18.726950   13.454010  -13.161230
  H     20.155890   15.459470  -12.321730
  H     22.129420   14.656510  -10.805060

 Total Charge           Charge          ....    0
 Multiplicity           Mult            ....    1
 Number of Electrons    NEL             ....  540
 Basis Dimension        Dim             .... 1120

ORBITAL ENERGIES
----------------

  NO   OCC          E(Eh)            E(eV)
   0   2.0000     -89.051674     -2423.2192
   1   2.0000     -88.990713     -2421.5604
   2   2.0000     -88.986882     -2421.4562
   3   2.0000     -88.984569     -2421.3932
   4   2.0000     -88.983994     -2421.3776
   5   2.0000     -88.966820     -2420.9102
   6   2.0000     -88.962273     -2420.7865
   7   2.0000     -19.310316      -525.4604
   8   2.0000     -19.299406      -525.1635
   9   2.0000     -19.206917      -522.6468
  10   2.0000     -19.198774      -522.4252
  11   2.0000     -14.477462      -393.9518
  12   2.0000     -14.477093      -393.9417
  13   2.0000     -14.460928      -393.5019
  14   2.0000     -14.460158      -393.4809
  15   2.0000     -14.440313      -392.9409
  16   2.0000     -14.439292      -392.9131
  17   2.0000     -14.428223      -392.6119
  18   2.0000     -14.427939      -392.6042
  19   2.0000     -14.426489      -392.5647
  20   2.0000     -14.425794      -392.5458
  21   2.0000     -10.394873      -282.8589
  22   2.0000     -10.393673      -282.8262
  23   2.0000     -10.370909      -282.2068
  24   2.0000     -10.362860      -281.9877
  25   2.0000     -10.362819      -281.9866
  26   2.0000     -10.360244      -281.9166
  27   2.0000     -10.356942      -281.8267
  28   2.0000     -10.356688      -281.8198
  29   2.0000     -10.352476      -281.7052
  30   2.0000     -10.352224      -281.6983
  31   2.0000     -10.350047      -281.6391
  32   2.0000     -10.347495      -281.5697
  33   2.0000     -10.344456      -281.4870
  34   2.0000     -10.340312      -281.3742
  35   2.0000     -10.333797      -281.1969
  36   2.0000     -10.332925      -281.1732
  37   2.0000     -10.331944      -281.1465
  38   2.0000     -10.331079      -281.1230
  39   2.0000     -10.330007      -281.0938
  40   2.0000     -10.329703      -281.0855
  41   2.0000     -10.328525      -281.0535
  42   2.0000     -10.328096      -281.0418
  43   2.0000     -10.327391      -281.0226
  44   2.0000     -10.326945      -281.0105
  45   2.0000     -10.326760      -281.0054
  46   2.0000     -10.326551      -280.9997
  47   2.0000     -10.326197      -280.9901
  48   2.0000     -10.325451      -280.9698
  49   2.0000     -10.325404      -280.9685
  50   2.0000     -10.324251      -280.9372
  51   2.0000     -10.324213      -280.9361
  52   2.0000     -10.323093      -280.9057
  53   2.0000     -10.322699      -280.8949
  54   2.0000     -10.305412      -280.4245
  55   2.0000     -10.305056      -280.4148
  56   2.0000     -10.302524      -280.3459
  57   2.0000     -10.302421      -280.3431
  58   2.0000     -10.301087      -280.3068
  59   2.0000     -10.300847      -280.3003
  60   2.0000     -10.299815      -280.2722
  61   2.0000     -10.298695      -280.2417
  62   2.0000     -10.298318      -280.2315
  63   2.0000     -10.297457      -280.2081
  64   2.0000     -10.296906      -280.1931
  65   2.0000     -10.294159      -280.1183
  66   2.0000     -10.291559      -280.0476
  67   2.0000     -10.290448      -280.0173
  68   2.0000     -10.290382      -280.0155
  69   2.0000     -10.287318      -279.9322
  70   2.0000     -10.280306      -279.7414
  71   2.0000     -10.276441      -279.6362
  72   2.0000     -10.275143      -279.6009
  73   2.0000      -8.142739      -221.5752
  74   2.0000      -8.085300      -220.0122
  75   2.0000      -8.081577      -219.9109
  76   2.0000      -8.077217      -219.7922
  77   2.0000      -8.076689      -219.7779
  78   2.0000      -8.061946      -219.3767
  79   2.0000      -8.057917      -219.2671
  80   2.0000      -6.113835      -166.3659
  81   2.0000      -6.105892      -166.1498
  82   2.0000      -6.105607      -166.1420
  83   2.0000      -6.054559      -164.7529
  84   2.0000      -6.050794      -164.6505
  85   2.0000      -6.050374      -164.6390
  86   2.0000      -6.047637      -164.5646
  87   2.0000      -6.046797      -164.5417
  88   2.0000      -6.046603      -164.5364
  89   2.0000      -6.046260      -164.5271
  90   2.0000      -6.044029      -164.4664
  91   2.0000      -6.041965      -164.4102
  92   2.0000      -6.041435      -164.3958
  93   2.0000      -6.039620      -164.3464
  94   2.0000      -6.039103      -164.3323
  95   2.0000      -6.031267      -164.1191
  96   2.0000      -6.027046      -164.0043
  97   2.0000      -6.026920      -164.0008
  98   2.0000      -6.024200      -163.9268
  99   2.0000      -6.022621      -163.8839
 100   2.0000      -6.020583      -163.8284
 101   2.0000      -1.230647       -33.4876
 102   2.0000      -1.219410       -33.1818
 103   2.0000      -1.149889       -31.2901
 104   2.0000      -1.135869       -30.9086
 105   2.0000      -1.126070       -30.6419
 106   2.0000      -1.117471       -30.4079
 107   2.0000      -1.064869       -28.9766
 108   2.0000      -1.042836       -28.3770
 109   2.0000      -1.040125       -28.3032
 110   2.0000      -1.024948       -27.8902
 111   2.0000      -1.020040       -27.7567
 112   2.0000      -1.017777       -27.6951
 113   2.0000      -1.014878       -27.6162
 114   2.0000      -1.007508       -27.4157
 115   2.0000      -1.005419       -27.3588
 116   2.0000      -1.004083       -27.3225
 117   2.0000      -1.002969       -27.2922
 118   2.0000      -0.996516       -27.1166
 119   2.0000      -0.987451       -26.8699
 120   2.0000      -0.986954       -26.8564
 121   2.0000      -0.978863       -26.6362
 122   2.0000      -0.957071       -26.0432
 123   2.0000      -0.952992       -25.9322
 124   2.0000      -0.929140       -25.2832
 125   2.0000      -0.919910       -25.0320
 126   2.0000      -0.918480       -24.9931
 127   2.0000      -0.908347       -24.7174
 128   2.0000      -0.903918       -24.5969
 129   2.0000      -0.888940       -24.1893
 130   2.0000      -0.871212       -23.7069
 131   2.0000      -0.870138       -23.6776
 132   2.0000      -0.862277       -23.4637
 133   2.0000      -0.855948       -23.2915
 134   2.0000      -0.852500       -23.1977
 135   2.0000      -0.849800       -23.1242
 136   2.0000      -0.845793       -23.0152
 137   2.0000      -0.843769       -22.9601
 138   2.0000      -0.839804       -22.8522
 139   2.0000      -0.836334       -22.7578
 140   2.0000      -0.835775       -22.7426
 141   2.0000      -0.817669       -22.2499
 142   2.0000      -0.811641       -22.0859
 143   2.0000      -0.784685       -21.3524
 144   2.0000      -0.779952       -21.2236
 145   2.0000      -0.775306       -21.0972
 146   2.0000      -0.763500       -20.7759
 147   2.0000      -0.748645       -20.3717
 148   2.0000      -0.745898       -20.2969
 149   2.0000      -0.735782       -20.0217
 150   2.0000      -0.718926       -19.5630
 151   2.0000      -0.714613       -19.4456
 152   2.0000      -0.710270       -19.3274
 153   2.0000      -0.700137       -19.0517
 154   2.0000      -0.698139       -18.9973
 155   2.0000      -0.690944       -18.8016
 156   2.0000      -0.688000       -18.7214
 157   2.0000      -0.680212       -18.5095
 158   2.0000      -0.678666       -18.4674
 159   2.0000      -0.674535       -18.3550
 160   2.0000      -0.667600       -18.1663
 161   2.0000      -0.663056       -18.0427
 162   2.0000      -0.658490       -17.9184
 163   2.0000      -0.656218       -17.8566
 164   2.0000      -0.650565       -17.7028
 165   2.0000      -0.645767       -17.5722
 166   2.0000      -0.636463       -17.3190
 167   2.0000      -0.634607       -17.2685
 168   2.0000      -0.627461       -17.0741
 169   2.0000      -0.626035       -17.0353
 170   2.0000      -0.625118       -17.0103
 171   2.0000      -0.618726       -16.8364
 172   2.0000      -0.617600       -16.8058
 173   2.0000      -0.615871       -16.7587
 174   2.0000      -0.608520       -16.5587
 175   2.0000      -0.601253       -16.3609
 176   2.0000      -0.593058       -16.1379
 177   2.0000      -0.592625       -16.1261
 178   2.0000      -0.579715       -15.7748
 179   2.0000      -0.568701       -15.4751
 180   2.0000      -0.566726       -15.4214
 181   2.0000      -0.566306       -15.4100
 182   2.0000      -0.561012       -15.2659
 183   2.0000      -0.557188       -15.1618
 184   2.0000      -0.552849       -15.0438
 185   2.0000      -0.550234       -14.9726
 186   2.0000      -0.545887       -14.8543
 187   2.0000      -0.542745       -14.7688
 188   2.0000      -0.541032       -14.7222
 189   2.0000      -0.535460       -14.5706
 190   2.0000      -0.530601       -14.4384
 191   2.0000      -0.526144       -14.3171
 192   2.0000      -0.523128       -14.2350
 193   2.0000      -0.519486       -14.1359
 194   2.0000      -0.516833       -14.0637
 195   2.0000      -0.516710       -14.0604
 196   2.0000      -0.510474       -13.8907
 197   2.0000      -0.510059       -13.8794
 198   2.0000      -0.509131       -13.8542
 199   2.0000      -0.506247       -13.7757
 200   2.0000      -0.505120       -13.7450
 201   2.0000      -0.502999       -13.6873
 202   2.0000      -0.497630       -13.5412
 203   2.0000      -0.496454       -13.5092
 204   2.0000      -0.495594       -13.4858
 205   2.0000      -0.493624       -13.4322
 206   2.0000      -0.491830       -13.3834
 207   2.0000      -0.490221       -13.3396
 208   2.0000      -0.487830       -13.2745
 209   2.0000      -0.486842       -13.2477
 210   2.0000      -0.484246       -13.1770
 211   2.0000      -0.482357       -13.1256
 212   2.0000      -0.479922       -13.0593
 213   2.0000      -0.477093       -12.9824
 214   2.0000      -0.475123       -12.9288
 215   2.0000      -0.472083       -12.8460
 216   2.0000      -0.469662       -12.7802
 217   2.0000      -0.467359       -12.7175
 218   2.0000      -0.465958       -12.6794
 219   2.0000      -0.463434       -12.6107
 220   2.0000      -0.463055       -12.6004
 221   2.0000      -0.460512       -12.5312
 222   2.0000      -0.459285       -12.4978
 223   2.0000      -0.458734       -12.4828
 224   2.0000      -0.457780       -12.4568
 225   2.0000      -0.454427       -12.3656
 226   2.0000      -0.453464       -12.3394
 227   2.0000      -0.452989       -12.3265
 228   2.0000      -0.450274       -12.2526
 229   2.0000      -0.447523       -12.1777
 230   2.0000      -0.445515       -12.1231
 231   2.0000      -0.440124       -11.9764
 232   2.0000      -0.438795       -11.9402
 233   2.0000      -0.437963       -11.9176
 234   2.0000      -0.437367       -11.9014
 235   2.0000      -0.436834       -11.8869
 236   2.0000      -0.436137       -11.8679
 237   2.0000      -0.434152       -11.8139
 238   2.0000      -0.429926       -11.6989
 239   2.0000      -0.427426       -11.6309
 240   2.0000      -0.426633       -11.6093
 241   2.0000      -0.425783       -11.5861
 242   2.0000      -0.423217       -11.5163
 243   2.0000      -0.422589       -11.4992
 244   2.0000      -0.415619       -11.3096
 245   2.0000      -0.409816       -11.1517
 246   2.0000      -0.407339       -11.0843
 247   2.0000      -0.394102       -10.7241
 248   2.0000      -0.391193       -10.6449
 249   2.0000      -0.385665       -10.4945
 250   2.0000      -0.382302       -10.4030
 251   2.0000      -0.361803        -9.8452
 252   2.0000      -0.360089        -9.7985
 253   2.0000      -0.359700        -9.7879
 254   2.0000      -0.358621        -9.7586
 255   2.0000      -0.347762        -9.4631
 256   2.0000      -0.344113        -9.3638
 257   2.0000      -0.339414        -9.2359
 258   2.0000      -0.337984        -9.1970
 259   2.0000      -0.336610        -9.1596
 260   2.0000      -0.330141        -8.9836
 261   2.0000      -0.329684        -8.9711
 262   2.0000      -0.325421        -8.8552
 263   2.0000      -0.320353        -8.7172
 264   2.0000      -0.317759        -8.6467
 265   2.0000      -0.314615        -8.5611
 266   2.0000      -0.306163        -8.3311
 267   2.0000      -0.299474        -8.1491
 268   2.0000      -0.269484        -7.3330
 269   2.0000      -0.236153        -6.4261
 270   0.0000      -0.136416        -3.7121
 271   0.0000      -0.101747        -2.7687
 272   0.0000      -0.096971        -2.6387
 273   0.0000      -0.063295        -1.7223
 274   0.0000      -0.053326        -1.4511

MULLIKEN ATOMIC CHARGES
-----------------------
   0 C :   -0.044147
   1 C :    0.130468
   2 O :   -0.167386
   3 C :    0.110518
   4 C :   -0.054920
   5 C :    0.185937
   6 O :   -0.178909
   7 C :   -0.166277
   8 C :    0.040948
   9 C :   -0.035035
  10 C :   -0.053472
  11 S :    0.192538
  12 C :   -0.026048
  13 C :   -0.066268
  14 C :    0.019843
  15 C :   -0.107331
  16 S :    0.192922
  17 C :   -0.058621
  18 C :    0.034122
  19 C :    0.306246
  20 C :   -0.302108
  21 C :   -0.192697
  22 N :    0.177069
  23 C :   -0.186879
  24 N :    0.173589
  25 C :   -0.064011
  26 C :   -0.180632
  27 S :    0.200531
  28 C :    0.189356
  29 C :   -0.062118
  30 C :   -0.068078
  31 N :    0.001159
  32 C :   -0.100957
  33 C :   -0.102284
  34 N :   -0.003116
  35 C :   -0.241538
  36 N :    0.249738
  37 C :   -0.243236
  38 N :    0.245818
  39 C :    0.199436
  40 C :   -0.013752
  41 C :   -0.013038
  42 N :   -0.283794
  43 S :    0.583729
  44 N :   -0.281537
  45 C :   -0.186799
  46 C :   -0.063168
  47 C :    0.033995
  48 C :   -0.056006
  49 S :    0.199783
  50 C :   -0.108139
  51 C :    0.001131
  52 C :    0.310391
  53 C :   -0.299720
  54 C :   -0.189277
  55 N :    0.168811
  56 C :   -0.182906
  57 N :    0.168809
  58 C :   -0.012856
  59 C :   -0.092216
  60 S :    0.197106
  61 C :    0.089720
  62 C :    0.052865
  63 O :   -0.164618
  64 C :    0.086096
  65 C :   -0.062922
  66 C :    0.164469
  67 O :   -0.172356
  68 C :   -0.208466
  69 C :    0.045076
  70 C :    0.032213
  71 C :   -0.051634
  72 S :    0.190437
  73 H :   -0.002744
  74 H :    0.015635
  75 H :    0.024332
  76 H :    0.001141
  77 H :   -0.006607
  78 H :    0.018705
  79 H :    0.022188
  80 H :    0.021243
  81 H :    0.015137
  82 H :    0.013275
  83 H :    0.020258
  84 H :   -0.002001
  85 H :   -0.004279
  86 H :    0.038119
Sum of atomic charges:   -0.0000000

LOEWDIN ATOMIC CHARGES
----------------------
   0 C :   -0.067601
   1 C :    0.030749
   2 O :    0.037629
   3 C :    0.073591
   4 C :   -0.115961
   5 C :    0.056119
   6 O :   -0.163256
   7 C :   -0.212321
   8 C :   -0.031354
   9 C :   -0.070353
  10 C :   -0.176593
  11 S :    0.491257
  12 C :   -0.172884
  13 C :   -0.031387
  14 C :   -0.061979
  15 C :   -0.180447
  16 S :    0.482694
  17 C :   -0.176558
  18 C :   -0.075688
  19 C :    0.080704
  20 C :   -0.101127
  21 C :   -0.018462
  22 N :   -0.029762
  23 C :   -0.016106
  24 N :   -0.032734
  25 C :   -0.008153
  26 C :   -0.168315
  27 S :    0.505964
  28 C :   -0.043414
  29 C :   -0.015774
  30 C :   -0.018073
  31 N :   -0.015250
  32 C :   -0.026572
  33 C :   -0.023070
  34 N :   -0.017751
  35 C :   -0.038850
  36 N :   -0.001690
  37 C :   -0.039292
  38 N :   -0.002881
  39 C :   -0.034956
  40 C :   -0.038307
  41 C :   -0.036280
  42 N :   -0.271970
  43 S :    0.701759
  44 N :   -0.269560
  45 C :   -0.173040
  46 C :   -0.002858
  47 C :   -0.078785
  48 C :   -0.166864
  49 S :    0.506014
  50 C :   -0.188431
  51 C :   -0.057457
  52 C :    0.082270
  53 C :   -0.102281
  54 C :   -0.016128
  55 N :   -0.035442
  56 C :   -0.015380
  57 N :   -0.033526
  58 C :   -0.021401
  59 C :   -0.149244
  60 S :    0.480353
  61 C :   -0.074806
  62 C :    0.034721
  63 O :    0.037745
  64 C :    0.052728
  65 C :   -0.090910
  66 C :    0.055210
  67 O :   -0.155137
  68 C :   -0.228758
  69 C :   -0.030870
  70 C :   -0.070561
  71 C :   -0.159383
  72 S :    0.495241
  73 H :    0.031751
  74 H :    0.024389
  75 H :    0.031463
  76 H :    0.036190
  77 H :    0.026266
  78 H :    0.039336
  79 H :    0.038263
  80 H :    0.038373
  81 H :    0.040620
  82 H :    0.024669
  83 H :    0.028548
  84 H :    0.031788
  85 H :    0.031751
  86 H :    0.027840

  Mayer bond orders larger than 0.100000
B(  0-C ,  1-C ) :   1.5782 B(  0-C ,  4-C ) :   1.2232 B(  0-C , 73-H ) :   1.0089
B(  1-C ,  2-O ) :   1.1398 B(  1-C , 74-H ) :   1.0010 B(  2-O ,  3-C ) :   1.1956
B(  3-C ,  4-C ) :   1.5257 B(  3-C , 75-H ) :   1.0075 B(  4-C ,  5-C ) :   0.9624
B(  5-C ,  6-O ) :   2.2427 B(  5-C ,  7-C ) :   0.9637 B(  7-C ,  8-C ) :   1.5197
B(  7-C , 10-C ) :   0.1100 B(  7-C , 11-S ) :   1.1276 B(  8-C ,  9-C ) :   1.2805
B(  8-C , 76-H ) :   0.9923 B(  9-C , 10-C ) :   1.4794 B(  9-C , 77-H ) :   0.9947
B( 10-C , 11-S ) :   1.1585 B( 10-C , 12-C ) :   1.1547 B( 12-C , 13-C ) :   1.4555
B( 12-C , 16-S ) :   1.1091 B( 13-C , 14-C ) :   1.2981 B( 13-C , 78-H ) :   0.9923
B( 14-C , 15-C ) :   1.4273 B( 14-C , 19-C ) :   0.9918 B( 15-C , 16-S ) :   1.1201
B( 15-C , 17-C ) :   1.2049 B( 17-C , 18-C ) :   1.3993 B( 17-C , 27-S ) :   1.0872
B( 18-C , 19-C ) :   0.9905 B( 18-C , 25-C ) :   1.2797 B( 19-C , 20-C ) :   1.7120
B( 20-C , 21-C ) :   1.1317 B( 20-C , 23-C ) :   1.1397 B( 21-C , 22-N ) :   2.9955
B( 23-C , 24-N ) :   2.9864 B( 25-C , 26-C ) :   1.4095 B( 25-C , 79-H ) :   0.9826
B( 26-C , 27-S ) :   1.0837 B( 26-C , 28-C ) :   1.2116 B( 28-C , 29-C ) :   1.2574
B( 28-C , 39-C ) :   0.1206 B( 28-C , 41-C ) :   1.1895 B( 29-C , 30-C ) :   1.1019
B( 29-C , 34-N ) :   1.4031 B( 30-C , 31-N ) :   1.4125 B( 30-C , 39-C ) :   1.2448
B( 31-N , 32-C ) :   1.6868 B( 32-C , 33-C ) :   1.2210 B( 32-C , 37-C ) :   1.1665
B( 33-C , 34-N ) :   1.6916 B( 33-C , 35-C ) :   1.1669 B( 35-C , 36-N ) :   3.0398
B( 37-C , 38-N ) :   3.0388 B( 39-C , 40-C ) :   1.1884 B( 39-C , 45-C ) :   1.2255
B( 40-C , 41-C ) :   1.0984 B( 40-C , 44-N ) :   1.5214 B( 41-C , 42-N ) :   1.5225
B( 42-N , 43-S ) :   1.2796 B( 42-N , 44-N ) :   0.1456 B( 43-S , 44-N ) :   1.2836
B( 45-C , 46-C ) :   1.3994 B( 45-C , 49-S ) :   1.0756 B( 46-C , 47-C ) :   1.2873
B( 46-C , 80-H ) :   0.9830 B( 47-C , 48-C ) :   1.3946 B( 47-C , 52-C ) :   0.9861
B( 48-C , 49-S ) :   1.0952 B( 48-C , 50-C ) :   1.2014 B( 50-C , 51-C ) :   1.4324
B( 50-C , 60-S ) :   1.1109 B( 51-C , 52-C ) :   0.9962 B( 51-C , 58-C ) :   1.2906
B( 52-C , 53-C ) :   1.7101 B( 53-C , 54-C ) :   1.1398 B( 53-C , 56-C ) :   1.1326
B( 54-C , 55-N ) :   2.9867 B( 56-C , 57-N ) :   2.9837 B( 58-C , 59-C ) :   1.4973
B( 58-C , 81-H ) :   0.9828 B( 59-C , 60-S ) :   1.1221 B( 59-C , 61-C ) :   1.0434
B( 61-C , 62-C ) :   1.5109 B( 61-C , 65-C ) :   1.2715 B( 62-C , 63-O ) :   1.1567
B( 62-C , 82-H ) :   1.0078 B( 63-O , 64-C ) :   1.1707 B( 64-C , 65-C ) :   1.5465
B( 64-C , 83-H ) :   1.0065 B( 65-C , 66-C ) :   0.9030 B( 66-C , 67-O ) :   2.2256
B( 66-C , 68-C ) :   1.0059 B( 68-C , 69-C ) :   1.5088 B( 68-C , 72-S ) :   1.1481
B( 69-C , 70-C ) :   1.2837 B( 69-C , 84-H ) :   0.9851 B( 70-C , 71-C ) :   1.5412
B( 70-C , 85-H ) :   0.9946 B( 71-C , 72-S ) :   1.2171 B( 71-C , 86-H ) :   0.9725

-----------------------------------------------------------------------------
         ABSORPTION SPECTRUM VIA TRANSITION ELECTRIC DIPOLE MOMENTS
-----------------------------------------------------------------------------
State   Energy  Wavelength   fosc         T2         TX        TY        TZ
        (cm-1)    (nm)                  (au**2)     (au)      (au)      (au)
-----------------------------------------------------------------------------
   0    6562.6   1523.8   0.490559565  24.60885  -1.83173  -3.76628   2.65872
   1   12353.3    809.5   0.009339244   0.24889   0.10120   0.46915  -0.13617
   2   13300.3    751.9   0.016615980   0.41128  -0.26018  -0.43554   0.39229
   3   15535.3    643.7   0.001998602   0.04235  -0.12049   0.16667   0.00754
   4   21262.8    470.3   0.130218950   2.01618   0.62747   1.16490  -0.51525
   5   21621.0    462.5   0.145087214   2.20917  -0.11537  -0.67512   1.31912
   6   22657.2    441.4   0.362058085   5.26074   0.92742   1.84137  -1.00499
   7   23324.8    428.7   0.098106976   1.38470   0.41646   0.91210  -0.61590
   8   23534.0    424.9   0.018085963   0.25300   0.26505   0.42748  -0.00191
   9   24236.4    412.6   0.019903787   0.27036   0.03082  -0.05488   0.51614
  10   24625.4    406.1   0.038609460   0.51616   0.31035   0.64426  -0.06911
  11   25249.8    396.0   0.001737896   0.02266  -0.12707  -0.01715   0.07885
  12   26657.8    375.1   1.164198067  14.37735   1.42347   3.22291  -1.40141
  13   28346.9    352.8   0.076937931   0.89353  -0.42933  -0.73942  -0.40306
  14   29046.1    344.3   0.021736679   0.24637   0.09977   0.08119   0.47940
  15   29179.9    342.7   0.010528743   0.11879  -0.13975  -0.31004  -0.05598
  16   29521.5    338.7   0.105429972   1.17571   0.35774   0.82760  -0.60234
  17   29725.0    336.4   0.008025323   0.08888   0.19117   0.22249   0.05323
  18   30143.3    331.7   0.222369808   2.42863  -0.18434  -0.28498   1.52100
  19   30289.0    330.2   0.111265694   1.20935   0.52945   0.90030  -0.34422
  20   30413.7    328.8   0.135679905   1.46866   0.51191   0.78376   0.76964
  21   30710.1    325.6   0.115129723   1.23419   0.43361   0.83902  -0.58500
  22   31082.8    321.7   0.033086093   0.35043  -0.19048  -0.30974   0.46712
  23   31132.6    321.2   0.101074327   1.06881   0.32923   0.51839  -0.83168
  24   31501.5    317.4   0.173153789   1.80957  -0.04624   0.08705  -1.34159
  25   31625.7    316.2   0.037490239   0.39026   0.33207   0.52857  -0.02458
  26   31950.5    313.0   0.165277525   1.70299   0.29359   0.23449   1.24972
  27   32165.7    310.9   0.198338059   2.02997   0.40657   0.49848   1.27129
  28   32481.6    307.9   0.646726394   6.55479  -0.97071  -1.23641  -2.02084
  29   32599.8    306.8   0.175590128   1.77321  -0.47072  -0.38608  -1.18431
  30   33180.0    301.4   0.188560507   1.87090  -0.62902  -0.98724  -0.70752
  31   33249.9    300.8   0.011471889   0.11358   0.10243   0.14236   0.28779
  32   33283.1    300.5   0.001800008   0.01780   0.05131   0.09465   0.07882
  33   33397.7    299.4   0.069114158   0.68128   0.10672   0.15437  -0.80378
  34   33698.0    296.8   0.287294061   2.80671   0.75712   1.24093   0.83282
  35   33769.0    296.1   0.001770798   0.01726   0.02412   0.05985  -0.11445
  36   34034.0    293.8   0.125771393   1.21659  -0.40725  -0.79151   0.65135
  37   34215.8    292.3   0.057647658   0.55466   0.12152   0.54472  -0.49313
  38   34773.0    287.6   0.000931760   0.00882   0.01215   0.03336   0.08695
  39   35534.3    281.4   0.046811498   0.43369   0.28490   0.59325   0.02414
  40   35699.1    280.1   0.227261346   2.09577   0.51648   1.08818  -0.80305
  41   35913.9    278.4   0.007570232   0.06939  -0.09520  -0.04655  -0.24117
  42   36303.6    275.5   0.008237761   0.07470   0.14334   0.23270  -0.00262
  43   36827.2    271.5   0.011614552   0.10383   0.18110   0.11651  -0.23970
  44   37196.3    268.8   0.084002697   0.74348  -0.03755   0.18423   0.84150
  45   37413.8    267.3   0.032876937   0.28929   0.13510   0.26491   0.44818
  46   37461.5    266.9   0.000747378   0.00657   0.02054   0.06552   0.04305
  47   37544.9    266.3   0.074669549   0.65474  -0.18078   0.05069  -0.78708
  48   37813.6    264.5   0.002928401   0.02550   0.02894   0.13123   0.08623
  49   38182.9    261.9   0.304373380   2.62430  -0.43006  -0.41667  -1.50523
  50   38562.2    259.3   0.171149322   1.46113  -0.37264  -0.53933  -1.01557
  51   38664.1    258.6   0.011892356   0.10126   0.13795   0.10407   0.26720
  52   38819.1    257.6   0.145523513   1.23414  -0.26724  -0.31856  -1.03017
  53   39106.4    255.7   0.041295275   0.34764   0.16712   0.11340   0.55394
  54   39244.5    254.8   0.015923176   0.13358   0.03280   0.09307  -0.35191
  55   39541.5    252.9   0.019944529   0.16605  -0.12146  -0.14009   0.36287
  56   39841.6    251.0   0.005313476   0.04391  -0.14778   0.12107   0.08607
  57   40209.9    248.7   0.001182111   0.00968  -0.03579  -0.07700   0.04968
  58   40259.2    248.4   0.003223101   0.02636  -0.09260  -0.09341   0.09516

FINAL SINGLE POINT ENERGY     -5621.102458148543

DIPOLE MOMENT
-------------
                                X             Y             Z
Electronic contribution:     -2.04547       6.49945       4.77901
Nuclear contribution   :      2.15493      -5.41442      -7.87251
                        -----------------------------------------
Total Dipole Moment    :      0.10946       1.08503      -3.09349
                        -----------------------------------------
Magnitude (a.u.)       :      3.28009
Magnitude (Debye)      :      8.33732

Rotational constants in cm-1:     0.002415     0.000205     0.000192
Rotational constants in MHz :    72.397778     6.141304     5.745511

                             ****ORCA TERMINATED NORMALLY****
TOTAL RUN TIME: 0 days 0 hours 9 minutes 13 seconds 750 msec
