                         Program Version 4.2.0 -  RELEASE  -
|  1> # ORCA input file
|  2> # SCF done       -213.012753670798          0.000386242084
|  3> ! CAM-B3LYP def2-SVP def2/J RIJCOSX Grid4 TightSCF
|  4> %maxcore 5000
|  5> %tddft
|  6>     Mode sTDDFT
|  7>     Ethresh 5.0
|  8>     maxcore 5000
|  9> end
| 10>
| 11> %pal
| 12>   nprocs 6
| 13>   end
| 14> * xyz 0 1
| 15>    C       -9.86206         2.64960        -4.03603
| 16>    C      -11.20406         2.90274        -3.79695
| 17>    C      -11.95840         2.06555        -2.98613
| 18>    C      -11.39036         0.95236        -2.38614
| 19>    C      -10.05026         0.68761        -2.61849
| 20>    C       -9.28130         1.53604        -3.44845
| 21>    C       -7.92361         1.01683        -3.52701
| 22>    C       -6.84968         1.64412        -4.09382
| 23>    C       -6.91184         2.91012        -4.71579
| 24>    N       -6.89585         3.93247        -5.23655
| 25>    C       -5.52738         1.14927        -4.09466
| 26>    N       -4.42989         0.81350        -4.12054
| 27>    C       -7.93879        -0.29281        -2.87277
| 28>    C       -9.18923        -0.37068        -2.11732
| 29>    C       -9.40854        -1.11964        -0.99497
| 30>    C       -8.42986        -1.92981        -0.38123
| 31>    N       -7.65938        -2.54471         0.20609
| 32>    C      -10.61487        -1.10170        -0.26379
| 33>    N      -11.58114        -1.13757         0.35414
| 34>    C       -7.01290        -1.26447        -3.07342
| 35>    C       -7.12632        -2.66970        -2.77651
| 36>    C       -5.96476        -3.38093        -2.43747
| 37>    C       -6.05498        -4.72034        -2.15506
| 38>    C       -7.28882        -5.38946        -2.25260
| 39>    C       -8.43342        -4.70526        -2.63952
| 40>    C       -8.34608        -3.35261        -2.88983
| 41>    C       -7.08222        -6.78303        -1.92751
| 42>    C       -5.72301        -6.97293        -1.62706
| 43>    C       -4.96196        -5.67443        -1.73971
| 44>    C       -3.85235        -5.76525        -2.80475
| 45>    C       -4.37878        -6.15679        -4.18029
| 46>    C       -4.34495        -5.26647        -0.38786
| 47>    C       -5.37491        -5.15843         0.72966
| 48>    C       -5.23995        -8.21371        -1.29150
| 49>    C       -6.11795        -9.30744        -1.26138
| 50>    C       -7.47329        -9.10239        -1.55660
| 51>    C       -7.96237        -7.85565        -1.88509
| 52>    C       -5.64192       -10.63802        -0.95869
| 53>    S       -6.74311       -11.98089        -0.96209
| 54>    C       -5.47823       -13.11138        -0.59198
| 55>    C       -5.69192       -14.55710        -0.43829
| 56>    O       -4.78370       -15.31443        -0.22375
| 57>    O       -6.95626       -14.99671        -0.55240
| 58>    C       -4.27456       -12.47345        -0.46165
| 59>    C       -4.35989       -11.08207        -0.66566
| 60>    O       -3.31483       -10.22568        -0.50753
| 61>    C       -2.06508       -10.56856        -0.96129
| 62>    C       -0.99605        -9.93401        -0.32764
| 63>    C        0.27648       -10.16595        -0.79245
| 64>    C        0.49246       -11.02897        -1.87943
| 65>    C       -0.57388       -11.65958        -2.50099
| 66>    C       -1.85596       -11.42361        -2.03975
| 67>    C        1.90891       -11.04465        -2.17249
| 68>    C        2.56655       -10.19650        -1.26210
| 69>    C        1.58652        -9.62855        -0.26237
| 70>    C        1.61343        -8.09335        -0.22606
| 71>    C        1.26721        -7.47230        -1.57448
| 72>    C        1.78657       -10.23972         1.14610
| 73>    C        3.14010        -9.98248         1.79442
| 74>    C        3.91589        -9.97278        -1.37854
| 75>    C        4.63057       -10.58445        -2.42068
| 76>    C        3.97215       -11.47169        -3.28359
| 77>    C        2.61948       -11.70690        -3.16442
| 78>    C        6.04320       -10.32593        -2.53299
| 79>    C        6.79023       -10.28085        -3.66546
| 80>    C        8.24914       -10.38968        -3.70568
| 81>    C        9.12304       -10.16038        -2.67972
| 82>    C        8.76227        -9.71546        -1.38944
| 83>    N        8.54112        -9.34460        -0.32566
| 84>    C       10.52441       -10.29041        -2.79109
| 85>    N       11.66831       -10.37825        -2.81434
| 86>    C        8.59965       -10.78136        -5.06325
| 87>    C        7.43958       -10.72962        -5.87034
| 88>    C        7.49721       -11.06930        -7.21242
| 89>    C        8.71616       -11.46104        -7.74392
| 90>    C        9.85737       -11.50735        -6.95473
| 91>    C        9.81310       -11.16878        -5.61101
| 92>    C        6.33086       -10.26356        -5.05428
| 93>    C        5.18356        -9.68283        -5.51836
| 94>    C        4.82464        -9.63429        -6.88180
| 95>    N        4.47611        -9.58470        -7.97402
| 96>    C        4.26566        -8.98086        -4.70875
| 97>    N        3.52366        -8.32958        -4.12395
| 98>    H       -9.29312         3.30705        -4.67263
| 99>    H      -11.66791         3.76397        -4.25281
|100>    H      -13.00276         2.28122        -2.82039
|101>    H      -11.98712         0.30491        -1.76414
|102>    H       -6.09135        -0.98279        -3.56634
|103>    H       -5.02461        -2.85438        -2.36756
|104>    H       -9.37622        -5.22018        -2.74580
|105>    H       -9.22340        -2.81427        -3.22022
|106>    H       -3.11521        -6.50120        -2.47722
|107>    H       -3.35068        -4.79807        -2.87089
|108>    H       -4.87340        -7.12509        -4.14288
|109>    H       -3.55703        -6.21812        -4.88966
|110>    H       -5.09286        -5.42130        -4.54434
|111>    H       -3.84249        -4.30524        -0.51151
|112>    H       -3.58879        -6.00740        -0.11878
|113>    H       -6.11997        -4.40152         0.49985
|114>    H       -4.88314        -4.88192         1.65922
|115>    H       -5.88183        -6.10938         0.88006
|116>    H       -4.19876        -8.34791        -1.05481
|117>    H       -8.14801        -9.94640        -1.52723
|118>    H       -9.01023        -7.72266        -2.10691
|119>    H       -7.59114       -14.28709        -0.72048
|120>    H       -3.36623       -12.99325        -0.21453
|121>    H       -1.19762        -9.27153         0.49964
|122>    H       -0.41673       -12.31786        -3.34131
|123>    H       -2.69999       -11.88887        -2.52716
|124>    H        2.60823        -7.76164         0.07226
|125>    H        0.90385        -7.74982         0.53008
|126>    H        1.97247        -7.78865        -2.33815
|127>    H        1.30199        -6.38774        -1.50329
|128>    H        0.26724        -7.76397        -1.88873
|129>    H        1.63481       -11.31972         1.06816
|130>    H        1.00021        -9.84282         1.79167
|131>    H        3.93851       -10.45819         1.23182
|132>    H        3.14137       -10.40116         2.79849
|133>    H        3.34747        -8.91900         1.87389
|134>    H        4.43364        -9.28873        -0.72407
|135>    H        4.54235       -11.99826        -4.03619
|136>    H        2.12236       -12.38810        -3.83823
|137>    H        6.55816       -10.20929        -1.58820
|138>    H        6.61569       -11.04372        -7.83247
|139>    H        8.77576       -11.73506        -8.78605
|140>    H       10.79552       -11.81460        -7.39083
|141>    H       10.70776       -11.21567        -5.01219
|142> *
|143>
|144>                          ****END OF INPUT****

CARTESIAN COORDINATES (ANGSTROEM)
---------------------------------
  C     -9.862060    2.649600   -4.036030
  C    -11.204060    2.902740   -3.796950
  C    -11.958400    2.065550   -2.986130
  C    -11.390360    0.952360   -2.386140
  C    -10.050260    0.687610   -2.618490
  C     -9.281300    1.536040   -3.448450
  C     -7.923610    1.016830   -3.527010
  C     -6.849680    1.644120   -4.093820
  C     -6.911840    2.910120   -4.715790
  N     -6.895850    3.932470   -5.236550
  C     -5.527380    1.149270   -4.094660
  N     -4.429890    0.813500   -4.120540
  C     -7.938790   -0.292810   -2.872770
  C     -9.189230   -0.370680   -2.117320
  C     -9.408540   -1.119640   -0.994970
  C     -8.429860   -1.929810   -0.381230
  N     -7.659380   -2.544710    0.206090
  C    -10.614870   -1.101700   -0.263790
  N    -11.581140   -1.137570    0.354140
  C     -7.012900   -1.264470   -3.073420
  C     -7.126320   -2.669700   -2.776510
  C     -5.964760   -3.380930   -2.437470
  C     -6.054980   -4.720340   -2.155060
  C     -7.288820   -5.389460   -2.252600
  C     -8.433420   -4.705260   -2.639520
  C     -8.346080   -3.352610   -2.889830
  C     -7.082220   -6.783030   -1.927510
  C     -5.723010   -6.972930   -1.627060
  C     -4.961960   -5.674430   -1.739710
  C     -3.852350   -5.765250   -2.804750
  C     -4.378780   -6.156790   -4.180290
  C     -4.344950   -5.266470   -0.387860
  C     -5.374910   -5.158430    0.729660
  C     -5.239950   -8.213710   -1.291500
  C     -6.117950   -9.307440   -1.261380
  C     -7.473290   -9.102390   -1.556600
  C     -7.962370   -7.855650   -1.885090
  C     -5.641920  -10.638020   -0.958690
  S     -6.743110  -11.980890   -0.962090
  C     -5.478230  -13.111380   -0.591980
  C     -5.691920  -14.557100   -0.438290
  O     -4.783700  -15.314430   -0.223750
  O     -6.956260  -14.996710   -0.552400
  C     -4.274560  -12.473450   -0.461650
  C     -4.359890  -11.082070   -0.665660
  O     -3.314830  -10.225680   -0.507530
  C     -2.065080  -10.568560   -0.961290
  C     -0.996050   -9.934010   -0.327640
  C      0.276480  -10.165950   -0.792450
  C      0.492460  -11.028970   -1.879430
  C     -0.573880  -11.659580   -2.500990
  C     -1.855960  -11.423610   -2.039750
  C      1.908910  -11.044650   -2.172490
  C      2.566550  -10.196500   -1.262100
  C      1.586520   -9.628550   -0.262370
  C      1.613430   -8.093350   -0.226060
  C      1.267210   -7.472300   -1.574480
  C      1.786570  -10.239720    1.146100
  C      3.140100   -9.982480    1.794420
  C      3.915890   -9.972780   -1.378540
  C      4.630570  -10.584450   -2.420680
  C      3.972150  -11.471690   -3.283590
  C      2.619480  -11.706900   -3.164420
  C      6.043200  -10.325930   -2.532990
  C      6.790230  -10.280850   -3.665460
  C      8.249140  -10.389680   -3.705680
  C      9.123040  -10.160380   -2.679720
  C      8.762270   -9.715460   -1.389440
  N      8.541120   -9.344600   -0.325660
  C     10.524410  -10.290410   -2.791090
  N     11.668310  -10.378250   -2.814340
  C      8.599650  -10.781360   -5.063250
  C      7.439580  -10.729620   -5.870340
  C      7.497210  -11.069300   -7.212420
  C      8.716160  -11.461040   -7.743920
  C      9.857370  -11.507350   -6.954730
  C      9.813100  -11.168780   -5.611010
  C      6.330860  -10.263560   -5.054280
  C      5.183560   -9.682830   -5.518360
  C      4.824640   -9.634290   -6.881800
  N      4.476110   -9.584700   -7.974020
  C      4.265660   -8.980860   -4.708750
  N      3.523660   -8.329580   -4.123950
  H     -9.293120    3.307050   -4.672630
  H    -11.667910    3.763970   -4.252810
  H    -13.002760    2.281220   -2.820390
  H    -11.987120    0.304910   -1.764140
  H     -6.091350   -0.982790   -3.566340
  H     -5.024610   -2.854380   -2.367560
  H     -9.376220   -5.220180   -2.745800
  H     -9.223400   -2.814270   -3.220220
  H     -3.115210   -6.501200   -2.477220
  H     -3.350680   -4.798070   -2.870890
  H     -4.873400   -7.125090   -4.142880
  H     -3.557030   -6.218120   -4.889660
  H     -5.092860   -5.421300   -4.544340
  H     -3.842490   -4.305240   -0.511510
  H     -3.588790   -6.007400   -0.118780
  H     -6.119970   -4.401520    0.499850
  H     -4.883140   -4.881920    1.659220
  H     -5.881830   -6.109380    0.880060
  H     -4.198760   -8.347910   -1.054810
  H     -8.148010   -9.946400   -1.527230
  H     -9.010230   -7.722660   -2.106910
  H     -7.591140  -14.287090   -0.720480
  H     -3.366230  -12.993250   -0.214530
  H     -1.197620   -9.271530    0.499640
  H     -0.416730  -12.317860   -3.341310
  H     -2.699990  -11.888870   -2.527160
  H      2.608230   -7.761640    0.072260
  H      0.903850   -7.749820    0.530080
  H      1.972470   -7.788650   -2.338150
  H      1.301990   -6.387740   -1.503290
  H      0.267240   -7.763970   -1.888730
  H      1.634810  -11.319720    1.068160
  H      1.000210   -9.842820    1.791670
  H      3.938510  -10.458190    1.231820
  H      3.141370  -10.401160    2.798490
  H      3.347470   -8.919000    1.873890
  H      4.433640   -9.288730   -0.724070
  H      4.542350  -11.998260   -4.036190
  H      2.122360  -12.388100   -3.838230
  H      6.558160  -10.209290   -1.588200
  H      6.615690  -11.043720   -7.832470
  H      8.775760  -11.735060   -8.786050
  H     10.795520  -11.814600   -7.390830
  H     10.707760  -11.215670   -5.012190

 Total Charge           Charge          ....    0
 Multiplicity           Mult            ....    1
 Number of Electrons    NEL             ....  566
 Basis Dimension        Dim             .... 1386

ORBITAL ENERGIES
----------------

  NO   OCC          E(Eh)            E(eV)
   0   2.0000     -88.979325     -2421.2505
   1   2.0000     -19.280210      -524.6412
   2   2.0000     -19.264398      -524.2109
   3   2.0000     -19.198486      -522.4174
   4   2.0000     -14.427149      -392.5827
   5   2.0000     -14.426886      -392.5755
   6   2.0000     -14.426764      -392.5722
   7   2.0000     -14.426229      -392.5576
   8   2.0000     -14.424852      -392.5202
   9   2.0000     -14.424715      -392.5165
  10   2.0000     -14.424220      -392.5030
  11   2.0000     -14.424131      -392.5005
  12   2.0000     -10.409601      -283.2596
  13   2.0000     -10.357029      -281.8291
  14   2.0000     -10.356281      -281.8087
  15   2.0000     -10.356222      -281.8071
  16   2.0000     -10.355462      -281.7864
  17   2.0000     -10.354223      -281.7527
  18   2.0000     -10.353961      -281.7456
  19   2.0000     -10.353347      -281.7289
  20   2.0000     -10.353178      -281.7243
  21   2.0000     -10.352531      -281.7067
  22   2.0000     -10.349497      -281.6241
  23   2.0000     -10.329038      -281.0674
  24   2.0000     -10.328837      -281.0619
  25   2.0000     -10.328699      -281.0582
  26   2.0000     -10.328175      -281.0439
  27   2.0000     -10.327427      -281.0236
  28   2.0000     -10.327172      -281.0166
  29   2.0000     -10.326842      -281.0077
  30   2.0000     -10.326792      -281.0063
  31   2.0000     -10.326586      -281.0007
  32   2.0000     -10.326442      -280.9968
  33   2.0000     -10.323239      -280.9096
  34   2.0000     -10.323078      -280.9052
  35   2.0000     -10.322204      -280.8815
  36   2.0000     -10.319557      -280.8094
  37   2.0000     -10.319244      -280.8009
  38   2.0000     -10.318926      -280.7923
  39   2.0000     -10.318595      -280.7833
  40   2.0000     -10.317182      -280.7448
  41   2.0000     -10.307343      -280.4771
  42   2.0000     -10.306894      -280.4648
  43   2.0000     -10.306656      -280.4584
  44   2.0000     -10.306288      -280.4484
  45   2.0000     -10.306078      -280.4426
  46   2.0000     -10.305461      -280.4258
  47   2.0000     -10.305235      -280.4197
  48   2.0000     -10.304679      -280.4046
  49   2.0000     -10.300280      -280.2849
  50   2.0000     -10.298988      -280.2497
  51   2.0000     -10.297252      -280.2025
  52   2.0000     -10.297058      -280.1972
  53   2.0000     -10.291367      -280.0423
  54   2.0000     -10.290685      -280.0238
  55   2.0000     -10.289337      -279.9871
  56   2.0000     -10.289196      -279.9833
  57   2.0000     -10.288221      -279.9567
  58   2.0000     -10.287993      -279.9505
  59   2.0000     -10.287525      -279.9378
  60   2.0000     -10.286902      -279.9208
  61   2.0000     -10.286707      -279.9155
  62   2.0000     -10.285366      -279.8790
  63   2.0000     -10.284596      -279.8581
  64   2.0000     -10.283946      -279.8404
  65   2.0000     -10.283071      -279.8166
  66   2.0000     -10.283013      -279.8150
  67   2.0000     -10.282324      -279.7963
  68   2.0000     -10.281509      -279.7741
  69   2.0000     -10.281185      -279.7653
  70   2.0000     -10.281046      -279.7615
  71   2.0000     -10.279533      -279.7203
  72   2.0000     -10.278566      -279.6940
  73   2.0000     -10.277311      -279.6599
  74   2.0000     -10.275786      -279.6184
  75   2.0000     -10.269836      -279.4565
  76   2.0000     -10.266656      -279.3699
  77   2.0000     -10.264447      -279.3098
  78   2.0000     -10.262321      -279.2519
  79   2.0000     -10.255572      -279.0683
  80   2.0000     -10.250126      -278.9201
  81   2.0000     -10.239057      -278.6189
  82   2.0000     -10.236388      -278.5463
  83   2.0000      -8.074746      -219.7250
  84   2.0000      -6.044025      -164.4663
  85   2.0000      -6.040058      -164.3583
  86   2.0000      -6.036808      -164.2699
  87   2.0000      -1.189061       -32.3560
  88   2.0000      -1.186161       -32.2771
  89   2.0000      -1.098976       -29.9047
  90   2.0000      -1.041923       -28.3522
  91   2.0000      -1.041299       -28.3352
  92   2.0000      -1.023137       -27.8410
  93   2.0000      -1.022632       -27.8272
  94   2.0000      -1.012676       -27.5563
  95   2.0000      -1.012169       -27.5425
  96   2.0000      -1.006501       -27.3883
  97   2.0000      -1.004661       -27.3382
  98   2.0000      -1.004175       -27.3250
  99   2.0000      -1.004000       -27.3202
 100   2.0000      -1.003531       -27.3075
 101   2.0000      -0.998906       -27.1816
 102   2.0000      -0.996786       -27.1239
 103   2.0000      -0.968664       -26.3587
 104   2.0000      -0.968184       -26.3456
 105   2.0000      -0.956250       -26.0209
 106   2.0000      -0.955327       -25.9958
 107   2.0000      -0.946056       -25.7435
 108   2.0000      -0.945391       -25.7254
 109   2.0000      -0.930181       -25.3115
 110   2.0000      -0.927051       -25.2263
 111   2.0000      -0.903738       -24.5920
 112   2.0000      -0.903577       -24.5876
 113   2.0000      -0.898290       -24.4437
 114   2.0000      -0.897675       -24.4270
 115   2.0000      -0.883577       -24.0434
 116   2.0000      -0.875237       -23.8164
 117   2.0000      -0.872510       -23.7422
 118   2.0000      -0.871850       -23.7242
 119   2.0000      -0.856534       -23.3075
 120   2.0000      -0.852943       -23.2098
 121   2.0000      -0.847722       -23.0677
 122   2.0000      -0.846826       -23.0433
 123   2.0000      -0.843211       -22.9449
 124   2.0000      -0.838838       -22.8260
 125   2.0000      -0.835863       -22.7450
 126   2.0000      -0.835057       -22.7231
 127   2.0000      -0.821891       -22.3648
 128   2.0000      -0.815651       -22.1950
 129   2.0000      -0.797154       -21.6917
 130   2.0000      -0.796607       -21.6768
 131   2.0000      -0.786781       -21.4094
 132   2.0000      -0.783747       -21.3268
 133   2.0000      -0.773607       -21.0509
 134   2.0000      -0.766704       -20.8631
 135   2.0000      -0.747199       -20.3323
 136   2.0000      -0.744126       -20.2487
 137   2.0000      -0.731053       -19.8930
 138   2.0000      -0.725622       -19.7452
 139   2.0000      -0.723967       -19.7001
 140   2.0000      -0.720947       -19.6180
 141   2.0000      -0.718838       -19.5606
 142   2.0000      -0.718084       -19.5401
 143   2.0000      -0.715288       -19.4640
 144   2.0000      -0.710873       -19.3438
 145   2.0000      -0.702782       -19.1237
 146   2.0000      -0.692095       -18.8329
 147   2.0000      -0.689250       -18.7555
 148   2.0000      -0.684787       -18.6340
 149   2.0000      -0.679552       -18.4916
 150   2.0000      -0.678682       -18.4679
 151   2.0000      -0.673885       -18.3373
 152   2.0000      -0.672725       -18.3058
 153   2.0000      -0.671425       -18.2704
 154   2.0000      -0.670969       -18.2580
 155   2.0000      -0.668890       -18.2014
 156   2.0000      -0.667362       -18.1599
 157   2.0000      -0.658130       -17.9086
 158   2.0000      -0.647704       -17.6249
 159   2.0000      -0.641559       -17.4577
 160   2.0000      -0.636660       -17.3244
 161   2.0000      -0.622235       -16.9319
 162   2.0000      -0.618715       -16.8361
 163   2.0000      -0.609259       -16.5788
 164   2.0000      -0.605867       -16.4865
 165   2.0000      -0.603270       -16.4158
 166   2.0000      -0.596819       -16.2403
 167   2.0000      -0.594348       -16.1730
 168   2.0000      -0.592695       -16.1280
 169   2.0000      -0.592207       -16.1148
 170   2.0000      -0.583681       -15.8828
 171   2.0000      -0.577673       -15.7193
 172   2.0000      -0.573978       -15.6187
 173   2.0000      -0.568497       -15.4696
 174   2.0000      -0.556697       -15.1485
 175   2.0000      -0.552774       -15.0417
 176   2.0000      -0.552408       -15.0318
 177   2.0000      -0.551363       -15.0034
 178   2.0000      -0.549913       -14.9639
 179   2.0000      -0.546835       -14.8801
 180   2.0000      -0.546190       -14.8626
 181   2.0000      -0.544436       -14.8149
 182   2.0000      -0.544254       -14.8099
 183   2.0000      -0.543272       -14.7832
 184   2.0000      -0.541832       -14.7440
 185   2.0000      -0.539079       -14.6691
 186   2.0000      -0.537667       -14.6306
 187   2.0000      -0.535672       -14.5764
 188   2.0000      -0.533085       -14.5060
 189   2.0000      -0.532494       -14.4899
 190   2.0000      -0.531521       -14.4634
 191   2.0000      -0.530480       -14.4351
 192   2.0000      -0.525588       -14.3020
 193   2.0000      -0.521289       -14.1850
 194   2.0000      -0.519753       -14.1432
 195   2.0000      -0.518681       -14.1140
 196   2.0000      -0.514848       -14.0097
 197   2.0000      -0.513707       -13.9787
 198   2.0000      -0.513612       -13.9761
 199   2.0000      -0.511353       -13.9146
 200   2.0000      -0.509525       -13.8649
 201   2.0000      -0.507644       -13.8137
 202   2.0000      -0.500371       -13.6158
 203   2.0000      -0.497206       -13.5297
 204   2.0000      -0.494789       -13.4639
 205   2.0000      -0.492478       -13.4010
 206   2.0000      -0.491483       -13.3739
 207   2.0000      -0.489999       -13.3335
 208   2.0000      -0.489327       -13.3153
 209   2.0000      -0.485725       -13.2172
 210   2.0000      -0.479056       -13.0358
 211   2.0000      -0.477440       -12.9918
 212   2.0000      -0.476516       -12.9667
 213   2.0000      -0.471048       -12.8179
 214   2.0000      -0.470401       -12.8003
 215   2.0000      -0.469037       -12.7631
 216   2.0000      -0.467073       -12.7097
 217   2.0000      -0.466237       -12.6870
 218   2.0000      -0.464381       -12.6365
 219   2.0000      -0.462642       -12.5891
 220   2.0000      -0.462303       -12.5799
 221   2.0000      -0.461355       -12.5541
 222   2.0000      -0.459503       -12.5037
 223   2.0000      -0.458040       -12.4639
 224   2.0000      -0.457968       -12.4619
 225   2.0000      -0.456587       -12.4244
 226   2.0000      -0.454985       -12.3808
 227   2.0000      -0.454552       -12.3690
 228   2.0000      -0.452976       -12.3261
 229   2.0000      -0.452262       -12.3067
 230   2.0000      -0.451770       -12.2933
 231   2.0000      -0.448725       -12.2104
 232   2.0000      -0.447866       -12.1871
 233   2.0000      -0.447245       -12.1702
 234   2.0000      -0.443693       -12.0735
 235   2.0000      -0.442274       -12.0349
 236   2.0000      -0.440446       -11.9851
 237   2.0000      -0.439383       -11.9562
 238   2.0000      -0.437489       -11.9047
 239   2.0000      -0.437048       -11.8927
 240   2.0000      -0.435267       -11.8442
 241   2.0000      -0.435098       -11.8396
 242   2.0000      -0.434765       -11.8306
 243   2.0000      -0.432327       -11.7642
 244   2.0000      -0.431075       -11.7301
 245   2.0000      -0.430255       -11.7078
 246   2.0000      -0.429617       -11.6905
 247   2.0000      -0.426913       -11.6169
 248   2.0000      -0.424569       -11.5531
 249   2.0000      -0.421273       -11.4634
 250   2.0000      -0.420009       -11.4290
 251   2.0000      -0.419937       -11.4271
 252   2.0000      -0.417247       -11.3539
 253   2.0000      -0.417101       -11.3499
 254   2.0000      -0.414387       -11.2760
 255   2.0000      -0.408789       -11.1237
 256   2.0000      -0.404811       -11.0155
 257   2.0000      -0.398463       -10.8427
 258   2.0000      -0.397913       -10.8278
 259   2.0000      -0.394430       -10.7330
 260   2.0000      -0.393126       -10.6975
 261   2.0000      -0.392783       -10.6882
 262   2.0000      -0.390774       -10.6335
 263   2.0000      -0.390210       -10.6182
 264   2.0000      -0.386984       -10.5304
 265   2.0000      -0.386211       -10.5093
 266   2.0000      -0.384045       -10.4504
 267   2.0000      -0.375999       -10.2315
 268   2.0000      -0.359871        -9.7926
 269   2.0000      -0.355168        -9.6646
 270   2.0000      -0.346723        -9.4348
 271   2.0000      -0.340663        -9.2699
 272   2.0000      -0.340194        -9.2571
 273   2.0000      -0.334238        -9.0951
 274   2.0000      -0.333473        -9.0743
 275   2.0000      -0.331030        -9.0078
 276   2.0000      -0.327113        -8.9012
 277   2.0000      -0.326205        -8.8765
 278   2.0000      -0.322441        -8.7741
 279   2.0000      -0.310706        -8.4547
 280   2.0000      -0.303739        -8.2652
 281   2.0000      -0.276209        -7.5160
 282   2.0000      -0.264749        -7.2042
 283   0.0000      -0.097525        -2.6538
 284   0.0000      -0.095858        -2.6084
 285   0.0000      -0.092572        -2.5190
 286   0.0000      -0.092051        -2.5048
 287   0.0000      -0.049871        -1.3570

MULLIKEN ATOMIC CHARGES
-----------------------
   0 C :   -0.032588
   1 C :    0.048056
   2 C :    0.048103
   3 C :   -0.032811
   4 C :    0.006376
   5 C :    0.014738
   6 C :    0.288703
   7 C :   -0.337867
   8 C :   -0.188859
   9 N :    0.163802
  10 C :   -0.184030
  11 N :    0.160223
  12 C :   -0.048478
  13 C :    0.213151
  14 C :   -0.324291
  15 C :   -0.181386
  16 N :    0.207504
  17 C :   -0.191217
  18 N :    0.167515
  19 C :    0.028510
  20 C :    0.026068
  21 C :   -0.069437
  22 C :    0.031811
  23 C :    0.125845
  24 C :   -0.054469
  25 C :    0.027435
  26 C :    0.108818
  27 C :    0.015191
  28 C :   -0.145143
  29 C :    0.062467
  30 C :    0.025043
  31 C :    0.068686
  32 C :    0.020137
  33 C :   -0.106059
  34 C :    0.140858
  35 C :   -0.051118
  36 C :   -0.042838
  37 C :   -0.111509
  38 S :    0.082495
  39 C :   -0.143977
  40 C :    0.179984
  41 O :   -0.168721
  42 O :   -0.157720
  43 C :   -0.028890
  44 C :    0.204046
  45 O :   -0.271407
  46 C :    0.229080
  47 C :   -0.078183
  48 C :    0.002553
  49 C :    0.117287
  50 C :   -0.051906
  51 C :   -0.041115
  52 C :    0.121267
  53 C :    0.035756
  54 C :   -0.139547
  55 C :    0.048142
  56 C :    0.019131
  57 C :    0.076144
  58 C :    0.029639
  59 C :   -0.073346
  60 C :    0.026274
  61 C :    0.027086
  62 C :   -0.058631
  63 C :    0.030899
  64 C :   -0.053692
  65 C :    0.286702
  66 C :   -0.336592
  67 C :   -0.181594
  68 N :    0.161033
  69 C :   -0.189473
  70 N :    0.159879
  71 C :    0.015342
  72 C :    0.009704
  73 C :   -0.035334
  74 C :    0.049294
  75 C :    0.048424
  76 C :   -0.032430
  77 C :    0.215106
  78 C :   -0.329439
  79 C :   -0.191926
  80 N :    0.167310
  81 C :   -0.177649
  82 N :    0.208088
  83 H :    0.008588
  84 H :    0.006466
  85 H :    0.007351
  86 H :    0.008214
  87 H :    0.027181
  88 H :   -0.020595
  89 H :   -0.029801
  90 H :   -0.010446
  91 H :    0.005461
  92 H :    0.003423
  93 H :    0.018065
  94 H :    0.016711
  95 H :    0.016973
  96 H :   -0.000292
  97 H :   -0.003038
  98 H :    0.032628
  99 H :    0.005362
 100 H :    0.011361
 101 H :   -0.020756
 102 H :   -0.014508
 103 H :   -0.031592
 104 H :    0.180432
 105 H :    0.020156
 106 H :   -0.029048
 107 H :   -0.024861
 108 H :    0.002852
 109 H :    0.009745
 110 H :   -0.003458
 111 H :    0.031756
 112 H :    0.008384
 113 H :    0.008883
 114 H :    0.006001
 115 H :    0.000426
 116 H :    0.018794
 117 H :    0.016961
 118 H :    0.009661
 119 H :   -0.017497
 120 H :   -0.009839
 121 H :   -0.028225
 122 H :    0.027092
 123 H :    0.008479
 124 H :    0.007273
 125 H :    0.005799
 126 H :    0.007444
Sum of atomic charges:   -0.0000000

LOEWDIN ATOMIC CHARGES
----------------------
   0 C :    0.006200
   1 C :    0.003954
   2 C :    0.005761
   3 C :    0.002239
   4 C :   -0.010996
   5 C :   -0.012922
   6 C :    0.079635
   7 C :   -0.129767
   8 C :   -0.019288
   9 N :   -0.042915
  10 C :   -0.021747
  11 N :   -0.041556
  12 C :   -0.055367
  13 C :    0.068368
  14 C :   -0.124594
  15 C :   -0.008828
  16 N :   -0.028364
  17 C :   -0.020068
  18 N :   -0.042661
  19 C :    0.077044
  20 C :   -0.046563
  21 C :    0.009867
  22 C :    0.012448
  23 C :    0.008092
  24 C :   -0.015343
  25 C :   -0.003625
  26 C :   -0.019986
  27 C :    0.012865
  28 C :   -0.035906
  29 C :   -0.010870
  30 C :   -0.058181
  31 C :   -0.009865
  32 C :   -0.062706
  33 C :   -0.013618
  34 C :   -0.032524
  35 C :   -0.028987
  36 C :   -0.010775
  37 C :   -0.169561
  38 S :    0.433631
  39 C :   -0.234982
  40 C :    0.063157
  41 O :   -0.158571
  42 O :   -0.032269
  43 C :   -0.028319
  44 C :    0.012504
  45 O :   -0.046456
  46 C :    0.061862
  47 C :   -0.042401
  48 C :    0.022399
  49 C :   -0.034319
  50 C :   -0.000192
  51 C :   -0.057234
  52 C :    0.012598
  53 C :    0.008794
  54 C :   -0.034510
  55 C :   -0.014640
  56 C :   -0.061811
  57 C :   -0.008652
  58 C :   -0.058098
  59 C :    0.009315
  60 C :   -0.050558
  61 C :   -0.002227
  62 C :   -0.018176
  63 C :    0.077912
  64 C :   -0.056321
  65 C :    0.079765
  66 C :   -0.130293
  67 C :   -0.021443
  68 N :   -0.042449
  69 C :   -0.019100
  70 N :   -0.043571
  71 C :   -0.013005
  72 C :   -0.010840
  73 C :    0.002131
  74 C :    0.005976
  75 C :    0.003922
  76 C :    0.006310
  77 C :    0.068830
  78 C :   -0.124752
  79 C :   -0.019935
  80 N :   -0.043161
  81 C :   -0.007850
  82 N :   -0.029995
  83 H :    0.042266
  84 H :    0.038653
  85 H :    0.038684
  86 H :    0.041475
  87 H :    0.048469
  88 H :    0.032946
  89 H :    0.030051
  90 H :    0.028853
  91 H :    0.022963
  92 H :    0.022142
  93 H :    0.024256
  94 H :    0.027079
  95 H :    0.023283
  96 H :    0.021023
  97 H :    0.019227
  98 H :    0.024189
  99 H :    0.024508
 100 H :    0.021757
 101 H :    0.027282
 102 H :    0.017856
 103 H :    0.029147
 104 H :    0.079575
 105 H :    0.046915
 106 H :    0.032822
 107 H :    0.031429
 108 H :    0.036277
 109 H :    0.021277
 110 H :    0.019027
 111 H :    0.025146
 112 H :    0.024757
 113 H :    0.020091
 114 H :    0.026358
 115 H :    0.021591
 116 H :    0.023654
 117 H :    0.029944
 118 H :    0.022390
 119 H :    0.032341
 120 H :    0.029150
 121 H :    0.030352
 122 H :    0.048060
 123 H :    0.041529
 124 H :    0.038694
 125 H :    0.038496
 126 H :    0.042152

  Mayer bond orders larger than 0.100000
B(  0-C ,  1-C ) :   1.3736 B(  0-C ,  5-C ) :   1.3772 B(  0-C , 83-H ) :   0.9850
B(  1-C ,  2-C ) :   1.3721 B(  1-C , 84-H ) :   0.9867 B(  2-C ,  3-C ) :   1.3694
B(  2-C , 85-H ) :   0.9865 B(  3-C ,  4-C ) :   1.3774 B(  3-C , 86-H ) :   0.9878
B(  4-C ,  5-C ) :   1.3092 B(  4-C , 13-C ) :   1.0158 B(  5-C ,  6-C ) :   1.0044
B(  6-C ,  7-C ) :   1.6562 B(  6-C , 12-C ) :   1.0294 B(  7-C ,  8-C ) :   1.1426
B(  7-C , 10-C ) :   1.1349 B(  8-C ,  9-N ) :   2.9811 B( 10-C , 11-N ) :   2.9836
B( 12-C , 13-C ) :   0.9956 B( 12-C , 19-C ) :   1.6720 B( 13-C , 14-C ) :   1.6757
B( 14-C , 15-C ) :   1.1398 B( 14-C , 17-C ) :   1.1428 B( 15-C , 16-N ) :   3.0019
B( 17-C , 18-N ) :   2.9953 B( 19-C , 20-C ) :   1.0549 B( 19-C , 87-H ) :   0.9359
B( 20-C , 21-C ) :   1.2838 B( 20-C , 25-C ) :   1.3383 B( 21-C , 22-C ) :   1.3841
B( 21-C , 88-H ) :   1.0148 B( 22-C , 23-C ) :   1.3586 B( 22-C , 28-C ) :   0.9126
B( 23-C , 24-C ) :   1.3316 B( 23-C , 26-C ) :   1.0000 B( 24-C , 25-C ) :   1.4002
B( 24-C , 89-H ) :   0.9928 B( 25-C , 90-H ) :   0.9814 B( 26-C , 27-C ) :   1.3641
B( 26-C , 36-C ) :   1.3301 B( 27-C , 28-C ) :   0.9163 B( 27-C , 33-C ) :   1.3831
B( 28-C , 29-C ) :   1.0392 B( 28-C , 31-C ) :   1.0355 B( 29-C , 30-C ) :   1.1010
B( 29-C , 91-H ) :   0.9394 B( 29-C , 92-H ) :   0.9390 B( 30-C , 93-H ) :   0.9646
B( 30-C , 94-H ) :   0.9639 B( 30-C , 95-H ) :   0.9636 B( 31-C , 32-C ) :   1.0995
B( 31-C , 96-H ) :   0.9387 B( 31-C , 97-H ) :   0.9388 B( 32-C , 98-H ) :   0.9529
B( 32-C , 99-H ) :   0.9586 B( 32-C ,100-H ) :   0.9600 B( 33-C , 34-C ) :   1.3211
B( 33-C ,101-H ) :   1.0046 B( 34-C , 35-C ) :   1.3132 B( 34-C , 37-C ) :   1.0852
B( 35-C , 36-C ) :   1.4130 B( 35-C ,102-H ) :   0.9779 B( 36-C ,103-H ) :   0.9903
B( 37-C , 38-S ) :   1.1374 B( 37-C , 39-C ) :   0.1008 B( 37-C , 44-C ) :   1.4981
B( 38-S , 39-C ) :   1.0865 B( 39-C , 40-C ) :   0.9336 B( 39-C , 43-C ) :   1.5283
B( 40-C , 41-O ) :   2.2060 B( 40-C , 42-O ) :   1.2383 B( 42-O ,104-H ) :   0.9506
B( 43-C , 44-C ) :   1.2063 B( 43-C ,105-H ) :   1.0096 B( 44-C , 45-O ) :   1.0737
B( 45-O , 46-C ) :   0.9979 B( 46-C , 47-C ) :   1.3410 B( 46-C , 51-C ) :   1.3498
B( 47-C , 48-C ) :   1.3604 B( 47-C ,106-H ) :   1.0156 B( 48-C , 49-C ) :   1.3731
B( 48-C , 54-C ) :   0.9322 B( 49-C , 50-C ) :   1.3382 B( 49-C , 52-C ) :   1.0062
B( 50-C , 51-C ) :   1.3650 B( 50-C ,107-H ) :   0.9927 B( 51-C ,108-H ) :   0.9848
B( 52-C , 53-C ) :   1.3728 B( 52-C , 62-C ) :   1.3310 B( 53-C , 54-C ) :   0.9203
B( 53-C , 59-C ) :   1.3958 B( 54-C , 55-C ) :   1.0336 B( 54-C , 57-C ) :   1.0106
B( 55-C , 56-C ) :   1.1034 B( 55-C ,109-H ) :   0.9381 B( 55-C ,110-H ) :   0.9380
B( 56-C ,111-H ) :   0.9535 B( 56-C ,112-H ) :   0.9596 B( 56-C ,113-H ) :   0.9579
B( 57-C , 58-C ) :   1.1159 B( 57-C ,114-H ) :   0.9387 B( 57-C ,115-H ) :   0.9367
B( 58-C ,116-H ) :   0.9605 B( 58-C ,117-H ) :   0.9593 B( 58-C ,118-H ) :   0.9637
B( 59-C , 60-C ) :   1.2811 B( 59-C ,119-H ) :   1.0058 B( 60-C , 61-C ) :   1.3411
B( 60-C , 63-C ) :   1.0533 B( 61-C , 62-C ) :   1.3957 B( 61-C ,120-H ) :   0.9834
B( 62-C ,121-H ) :   0.9937 B( 63-C , 64-C ) :   1.6680 B( 63-C ,122-H ) :   0.9377
B( 64-C , 65-C ) :   1.0309 B( 64-C , 77-C ) :   0.9981 B( 65-C , 66-C ) :   1.6573
B( 65-C , 71-C ) :   1.0038 B( 66-C , 67-C ) :   1.1337 B( 66-C , 69-C ) :   1.1422
B( 67-C , 68-N ) :   2.9836 B( 69-C , 70-N ) :   2.9811 B( 71-C , 72-C ) :   1.3107
B( 71-C , 76-C ) :   1.3780 B( 72-C , 73-C ) :   1.3755 B( 72-C , 77-C ) :   1.0149
B( 73-C , 74-C ) :   1.3698 B( 73-C ,123-H ) :   0.9880 B( 74-C , 75-C ) :   1.3728
B( 74-C ,124-H ) :   0.9864 B( 75-C , 76-C ) :   1.3734 B( 75-C ,125-H ) :   0.9863
B( 76-C ,126-H ) :   0.9853 B( 77-C , 78-C ) :   1.6749 B( 78-C , 79-C ) :   1.1454
B( 78-C , 81-C ) :   1.1385 B( 79-C , 80-N ) :   2.9950 B( 81-C , 82-N ) :   3.0024

-----------------------------------------------------------------------------
         ABSORPTION SPECTRUM VIA TRANSITION ELECTRIC DIPOLE MOMENTS
-----------------------------------------------------------------------------
State   Energy  Wavelength   fosc         T2         TX        TY        TZ
        (cm-1)    (nm)                  (au**2)     (au)      (au)      (au)
-----------------------------------------------------------------------------
   0   20808.0    480.6   0.721361989  11.41297   2.00762  -2.67912  -0.45253
   1   21394.8    467.4   0.383351102   5.89880   1.54081   1.54084  -1.07262
   2   23615.1    423.5   0.353136594   4.92299   0.21087  -1.99359   0.95085
   3   23951.6    417.5   0.379687512   5.21877   2.20318   0.60273   0.03874
   4   28037.5    356.7   0.200952713   2.35956  -0.99363   1.06727  -0.48290
   5   28278.1    353.6   0.023819719   0.27731  -0.39780  -0.03533   0.34324
   6   29258.4    341.8   0.084698132   0.95301   0.80746  -0.03240  -0.54769
   7   29559.3    338.3   0.011504035   0.12812  -0.14201  -0.31089   0.10632
   8   30534.2    327.5   0.112868217   1.21691  -0.90636  -0.08211  -0.62345
   9   30723.4    325.5   0.248893969   2.66698  -1.02655  -0.74860   1.02605
  10   31061.2    321.9   0.046947534   0.49759   0.46464   0.41476  -0.33116
  11   31340.4    319.1   0.079576007   0.83590   0.63801  -0.63999  -0.13877
  12   31401.7    318.5   0.835113030   8.75524  -1.15019   2.58036  -0.87980
  13   31744.0    315.0   0.237371969   2.46175  -1.14511  -0.06519  -1.07062
  14   32389.8    308.7   0.079928813   0.81240   0.66813   0.19129  -0.57395
  15   33245.4    300.8   0.005547931   0.05494  -0.08996  -0.18241  -0.11649
  16   34468.7    290.1   0.072500589   0.69246   0.62475   0.05737  -0.54667
  17   34513.3    289.7   0.084093813   0.80215   0.86419   0.07913  -0.22149
  18   34576.9    289.2   0.128294120   1.22151  -0.25355   0.96666  -0.47202
  19   34763.0    287.7   0.196865673   1.86435  -0.03195  -0.54518   1.25145
  20   34773.3    287.6   0.255731093   2.42110   1.44724   0.32200   0.47215
  21   35023.6    285.5   0.081296289   0.76416   0.81182  -0.09963   0.30851
  22   35050.9    285.3   0.208005312   1.95367   0.17346   0.96527  -0.99591
  23   35238.4    283.8   0.176897230   1.65265   0.46846   1.19680   0.02927
  24   35928.1    278.3   0.280196695   2.56746  -1.26647   0.65512   0.73098
  25   36007.1    277.7   0.390971944   3.57465  -1.43692   1.16880  -0.37922
  26   36066.0    277.3   0.011169084   0.10195  -0.29486   0.00678  -0.12232
  27   36819.4    271.6   0.181870481   1.62615  -0.27554   0.36832   1.18936
  28   38381.3    260.5   0.183356523   1.57272  -0.80586   0.20254   0.93930
  29   38647.4    258.7   0.104597475   0.89100  -0.88170   0.31781   0.11225
  30   38811.8    257.7   0.008486435   0.07198   0.21218  -0.05069  -0.15619
  31   39259.9    254.7   0.550314463   4.61463   2.02730  -0.11175  -0.70158
  32   39591.3    252.6   0.023164705   0.19262   0.04854   0.41948  -0.11959
  33   39686.2    252.0   0.060648407   0.50310   0.49984   0.35711  -0.35459
  34   40300.8    248.1   0.053834529   0.43977  -0.62725   0.02231   0.21407

FINAL SINGLE POINT ENERGY     -3789.336139769840

DIPOLE MOMENT
-------------
                                X             Y             Z
Electronic contribution:     -5.38117       7.02305     -18.92626
Nuclear contribution   :      3.36463      -7.84471      17.15507
                        -----------------------------------------
Total Dipole Moment    :     -2.01654      -0.82167      -1.77119
                        -----------------------------------------
Magnitude (a.u.)       :      2.80690
Magnitude (Debye)      :      7.13457

Rotational constants in cm-1:     0.000959     0.000266     0.000224
Rotational constants in MHz :    28.762425     7.965216     6.714748

                             ****ORCA TERMINATED NORMALLY****
TOTAL RUN TIME: 0 days 0 hours 14 minutes 38 seconds 257 msec
