                         Program Version 4.2.0 -  RELEASE  -
|  1> # ORCA input file
|  2> # SCF done       -215.837731637511          0.000351014249
|  3> ! CAM-B3LYP def2-SVP def2/J RIJCOSX Grid4 TightSCF
|  4> %maxcore 5000
|  5> %tddft
|  6>     Mode sTDDFT
|  7>     Ethresh 5.0
|  8>     maxcore 5000
|  9> end
| 10>
| 11> %pal
| 12>   nprocs 6
| 13>   end
| 14> * xyz 0 1
| 15>    C       -6.17704        -2.66409         7.84481
| 16>    C       -6.13022        -1.46460         7.14972
| 17>    C       -5.58138        -1.39385         5.87731
| 18>    C       -5.05441        -2.52133         5.26539
| 19>    C       -5.09643        -3.72403         5.94988
| 20>    C       -5.66369        -3.80167         7.24211
| 21>    C       -5.59040        -5.18135         7.70907
| 22>    C       -5.94112        -5.62587         8.95664
| 23>    C       -6.42663        -4.79260         9.98648
| 24>    N       -6.82649        -4.17584        10.86819
| 25>    C       -5.83624        -6.95751         9.40929
| 26>    N       -5.77693        -8.01765         9.84749
| 27>    C       -5.09447        -5.97474         6.59236
| 28>    C       -4.59229        -5.04064         5.59439
| 29>    C       -3.59335        -5.29347         4.69158
| 30>    C       -2.88949        -6.51482         4.63408
| 31>    N       -2.25696        -7.47205         4.60024
| 32>    C       -3.08710        -4.33702         3.78947
| 33>    N       -2.65409        -3.60569         3.01779
| 34>    C       -5.20291        -7.33628         6.49471
| 35>    C       -5.17809        -8.14362         5.33958
| 36>    S       -5.51039        -7.56744         3.72094
| 37>    C       -5.36343        -9.16910         3.07016
| 38>    C       -5.08347       -10.08789         4.06841
| 39>    C       -5.00629        -9.52099         5.33026
| 40>    C       -5.51603        -9.41279         1.68568
| 41>    C       -5.83733        -8.51523         0.68496
| 42>    C       -5.88761        -9.08988        -0.58040
| 43>    C       -5.59827       -10.44297        -0.58112
| 44>    S       -5.27266       -11.00753         1.02943
| 45>    C       -5.52756       -11.32245        -1.69333
| 46>    S       -4.99315       -12.96496        -1.50864
| 47>    C       -5.15559       -13.26811        -3.21485
| 48>    C       -5.61391       -12.13661        -3.86485
| 49>    C       -5.81946       -11.05175        -3.01813
| 50>    C       -4.79790       -14.54352        -3.72534
| 51>    C       -4.85707       -14.91984        -5.02493
| 52>    C       -4.43917       -16.19656        -5.48675
| 53>    O       -3.93371       -17.10795        -4.58670
| 54>    C       -3.60077       -18.18940        -5.30962
| 55>    C       -3.03771       -19.47760        -5.16902
| 56>    C       -2.59523       -20.07510        -3.89529
| 57>    O       -2.10236       -21.17827        -3.76735
| 58>    N       -2.79265       -19.25863        -2.83398
| 59>    C       -3.02471       -19.97636        -6.48132
| 60>    O       -3.54189       -19.07278        -7.36990
| 61>    C       -3.88840       -17.98845        -6.65752
| 62>    C       -4.43080       -16.70399        -6.77966
| 63>    C       -2.58024       -21.19942        -7.04849
| 64>    S       -2.75994       -21.42237        -8.76767
| 65>    C       -2.03302       -22.99796        -8.67540
| 66>    C       -1.68280       -23.30439        -7.37213
| 67>    C       -1.98957       -22.29987        -6.46092
| 68>    C       -1.85494       -23.80929        -9.82757
| 69>    C       -1.24751       -25.05043        -9.89695
| 70>    C       -1.23630       -25.59049       -11.17800
| 71>    C       -1.83592       -24.77967       -12.12286
| 72>    S       -2.42089       -23.30965       -11.39284
| 73>    C       -2.00269       -25.03415       -13.50518
| 74>    S       -1.40901       -26.49359       -14.22777
| 75>    C       -2.00772       -26.01956       -15.79881
| 76>    C       -2.63355       -24.78148       -15.72256
| 77>    C       -2.62922       -24.23424       -14.44995
| 78>    C       -1.83083       -26.88187       -16.89661
| 79>    C       -2.25282       -26.63335       -18.17211
| 80>    C       -2.04573       -27.56089       -19.20552
| 81>    C       -2.52063       -27.48468       -20.49263
| 82>    C       -1.97142       -28.22697       -21.61737
| 83>    C       -1.17565       -29.34207       -21.57014
| 84>    C       -0.77465       -30.01398       -20.39670
| 85>    N       -0.41182       -30.61841       -19.48978
| 86>    C       -0.67402       -30.00572       -22.70933
| 87>    N       -0.23029       -30.59424       -23.58963
| 88>    C       -2.42885       -27.55678       -22.82847
| 89>    C       -3.33333       -26.53244       -22.46849
| 90>    C       -3.90296       -25.72287       -23.43678
| 91>    C       -3.56715       -25.94087       -24.76484
| 92>    C       -2.68661       -26.95173       -25.12087
| 93>    C       -2.10988       -27.76925       -24.16003
| 94>    C       -3.51449       -26.56731       -21.02369
| 95>    C       -4.57191       -26.01743       -20.34485
| 96>    C       -5.51842       -25.15230       -20.93171
| 97>    N       -6.30377       -24.42098       -21.33999
| 98>    C       -4.92743       -26.32985       -19.01563
| 99>    N       -5.30626       -26.57855       -17.96069
|100>    H       -6.60956        -2.69871         8.83105
|101>    H       -6.53064        -0.57359         7.60870
|102>    H       -5.56292        -0.44975         5.35461
|103>    H       -4.63409        -2.45848         4.27460
|104>    H       -5.41002        -7.88673         7.40376
|105>    H       -4.94942       -11.13481         3.86212
|106>    H       -4.79880       -10.07443         6.22861
|107>    H       -6.02359        -7.47438         0.88367
|108>    H       -6.11534        -8.54026        -1.47505
|109>    H       -5.78807       -12.10085        -4.92468
|110>    H       -6.17172       -10.09319        -3.35325
|111>    H       -4.43500       -15.25695        -2.99813
|112>    H       -5.21980       -14.24694        -5.78608
|113>    H       -3.19307       -18.34191        -2.92118
|114>    H       -2.51492       -19.58894        -1.92534
|115>    H       -4.76923       -16.19977        -7.65989
|116>    H       -1.22081       -24.23332        -7.09324
|117>    H       -1.79848       -22.34852        -5.40463
|118>    H       -0.82533       -25.54253        -9.04053
|119>    H       -0.80933       -26.54567       -11.42795
|120>    H       -3.09067       -24.30611       -16.57083
|121>    H       -3.06880       -23.28626       -14.19425
|122>    H       -1.34853       -27.82931       -16.69102
|123>    H       -2.72934       -25.69104       -18.39479
|124>    H       -1.37956       -28.37996       -18.97085
|125>    H       -4.58454       -24.93048       -23.17342
|126>    H       -3.99844       -25.31294       -25.52943
|127>    H       -2.44144       -27.10550       -26.16066
|128>    H       -1.42507       -28.54704       -24.45500
|129> *
|130>
|131>                          ****END OF INPUT****

CARTESIAN COORDINATES (ANGSTROEM)
---------------------------------
  C     -6.177040   -2.664090    7.844810
  C     -6.130220   -1.464600    7.149720
  C     -5.581380   -1.393850    5.877310
  C     -5.054410   -2.521330    5.265390
  C     -5.096430   -3.724030    5.949880
  C     -5.663690   -3.801670    7.242110
  C     -5.590400   -5.181350    7.709070
  C     -5.941120   -5.625870    8.956640
  C     -6.426630   -4.792600    9.986480
  N     -6.826490   -4.175840   10.868190
  C     -5.836240   -6.957510    9.409290
  N     -5.776930   -8.017650    9.847490
  C     -5.094470   -5.974740    6.592360
  C     -4.592290   -5.040640    5.594390
  C     -3.593350   -5.293470    4.691580
  C     -2.889490   -6.514820    4.634080
  N     -2.256960   -7.472050    4.600240
  C     -3.087100   -4.337020    3.789470
  N     -2.654090   -3.605690    3.017790
  C     -5.202910   -7.336280    6.494710
  C     -5.178090   -8.143620    5.339580
  S     -5.510390   -7.567440    3.720940
  C     -5.363430   -9.169100    3.070160
  C     -5.083470  -10.087890    4.068410
  C     -5.006290   -9.520990    5.330260
  C     -5.516030   -9.412790    1.685680
  C     -5.837330   -8.515230    0.684960
  C     -5.887610   -9.089880   -0.580400
  C     -5.598270  -10.442970   -0.581120
  S     -5.272660  -11.007530    1.029430
  C     -5.527560  -11.322450   -1.693330
  S     -4.993150  -12.964960   -1.508640
  C     -5.155590  -13.268110   -3.214850
  C     -5.613910  -12.136610   -3.864850
  C     -5.819460  -11.051750   -3.018130
  C     -4.797900  -14.543520   -3.725340
  C     -4.857070  -14.919840   -5.024930
  C     -4.439170  -16.196560   -5.486750
  O     -3.933710  -17.107950   -4.586700
  C     -3.600770  -18.189400   -5.309620
  C     -3.037710  -19.477600   -5.169020
  C     -2.595230  -20.075100   -3.895290
  O     -2.102360  -21.178270   -3.767350
  N     -2.792650  -19.258630   -2.833980
  C     -3.024710  -19.976360   -6.481320
  O     -3.541890  -19.072780   -7.369900
  C     -3.888400  -17.988450   -6.657520
  C     -4.430800  -16.703990   -6.779660
  C     -2.580240  -21.199420   -7.048490
  S     -2.759940  -21.422370   -8.767670
  C     -2.033020  -22.997960   -8.675400
  C     -1.682800  -23.304390   -7.372130
  C     -1.989570  -22.299870   -6.460920
  C     -1.854940  -23.809290   -9.827570
  C     -1.247510  -25.050430   -9.896950
  C     -1.236300  -25.590490  -11.178000
  C     -1.835920  -24.779670  -12.122860
  S     -2.420890  -23.309650  -11.392840
  C     -2.002690  -25.034150  -13.505180
  S     -1.409010  -26.493590  -14.227770
  C     -2.007720  -26.019560  -15.798810
  C     -2.633550  -24.781480  -15.722560
  C     -2.629220  -24.234240  -14.449950
  C     -1.830830  -26.881870  -16.896610
  C     -2.252820  -26.633350  -18.172110
  C     -2.045730  -27.560890  -19.205520
  C     -2.520630  -27.484680  -20.492630
  C     -1.971420  -28.226970  -21.617370
  C     -1.175650  -29.342070  -21.570140
  C     -0.774650  -30.013980  -20.396700
  N     -0.411820  -30.618410  -19.489780
  C     -0.674020  -30.005720  -22.709330
  N     -0.230290  -30.594240  -23.589630
  C     -2.428850  -27.556780  -22.828470
  C     -3.333330  -26.532440  -22.468490
  C     -3.902960  -25.722870  -23.436780
  C     -3.567150  -25.940870  -24.764840
  C     -2.686610  -26.951730  -25.120870
  C     -2.109880  -27.769250  -24.160030
  C     -3.514490  -26.567310  -21.023690
  C     -4.571910  -26.017430  -20.344850
  C     -5.518420  -25.152300  -20.931710
  N     -6.303770  -24.420980  -21.339990
  C     -4.927430  -26.329850  -19.015630
  N     -5.306260  -26.578550  -17.960690
  H     -6.609560   -2.698710    8.831050
  H     -6.530640   -0.573590    7.608700
  H     -5.562920   -0.449750    5.354610
  H     -4.634090   -2.458480    4.274600
  H     -5.410020   -7.886730    7.403760
  H     -4.949420  -11.134810    3.862120
  H     -4.798800  -10.074430    6.228610
  H     -6.023590   -7.474380    0.883670
  H     -6.115340   -8.540260   -1.475050
  H     -5.788070  -12.100850   -4.924680
  H     -6.171720  -10.093190   -3.353250
  H     -4.435000  -15.256950   -2.998130
  H     -5.219800  -14.246940   -5.786080
  H     -3.193070  -18.341910   -2.921180
  H     -2.514920  -19.588940   -1.925340
  H     -4.769230  -16.199770   -7.659890
  H     -1.220810  -24.233320   -7.093240
  H     -1.798480  -22.348520   -5.404630
  H     -0.825330  -25.542530   -9.040530
  H     -0.809330  -26.545670  -11.427950
  H     -3.090670  -24.306110  -16.570830
  H     -3.068800  -23.286260  -14.194250
  H     -1.348530  -27.829310  -16.691020
  H     -2.729340  -25.691040  -18.394790
  H     -1.379560  -28.379960  -18.970850
  H     -4.584540  -24.930480  -23.173420
  H     -3.998440  -25.312940  -25.529430
  H     -2.441440  -27.105500  -26.160660
  H     -1.425070  -28.547040  -24.455000

 Total Charge           Charge          ....    0
 Multiplicity           Mult            ....    1
 Number of Electrons    NEL             ....  614
 Basis Dimension        Dim             .... 1359

ORBITAL ENERGIES
----------------

  NO   OCC          E(Eh)            E(eV)
   0   2.0000     -88.977720     -2421.2069
   1   2.0000     -88.976262     -2421.1672
   2   2.0000     -88.974381     -2421.1160
   3   2.0000     -88.971892     -2421.0483
   4   2.0000     -88.970825     -2421.0192
   5   2.0000     -88.964831     -2420.8561
   6   2.0000     -19.316969      -525.6415
   7   2.0000     -19.314000      -525.5607
   8   2.0000     -19.184909      -522.0479
   9   2.0000     -14.432862      -392.7381
  10   2.0000     -14.422000      -392.4426
  11   2.0000     -14.421329      -392.4243
  12   2.0000     -14.418601      -392.3501
  13   2.0000     -14.418205      -392.3393
  14   2.0000     -14.418034      -392.3346
  15   2.0000     -14.417264      -392.3137
  16   2.0000     -14.416421      -392.2908
  17   2.0000     -14.415135      -392.2558
  18   2.0000     -10.385993      -282.6173
  19   2.0000     -10.367421      -282.1119
  20   2.0000     -10.352626      -281.7093
  21   2.0000     -10.350203      -281.6434
  22   2.0000     -10.347981      -281.5829
  23   2.0000     -10.347445      -281.5683
  24   2.0000     -10.347344      -281.5655
  25   2.0000     -10.345754      -281.5223
  26   2.0000     -10.344468      -281.4873
  27   2.0000     -10.343354      -281.4570
  28   2.0000     -10.343105      -281.4502
  29   2.0000     -10.342722      -281.4398
  30   2.0000     -10.340229      -281.3719
  31   2.0000     -10.337893      -281.3084
  32   2.0000     -10.331376      -281.1310
  33   2.0000     -10.329311      -281.0748
  34   2.0000     -10.329072      -281.0683
  35   2.0000     -10.324302      -280.9386
  36   2.0000     -10.323758      -280.9237
  37   2.0000     -10.323534      -280.9176
  38   2.0000     -10.322666      -280.8940
  39   2.0000     -10.322624      -280.8929
  40   2.0000     -10.321227      -280.8549
  41   2.0000     -10.321144      -280.8526
  42   2.0000     -10.320972      -280.8479
  43   2.0000     -10.320821      -280.8438
  44   2.0000     -10.319828      -280.8168
  45   2.0000     -10.319570      -280.8098
  46   2.0000     -10.319301      -280.8024
  47   2.0000     -10.319101      -280.7970
  48   2.0000     -10.318550      -280.7820
  49   2.0000     -10.318188      -280.7722
  50   2.0000     -10.317365      -280.7498
  51   2.0000     -10.317292      -280.7478
  52   2.0000     -10.316170      -280.7173
  53   2.0000     -10.315476      -280.6984
  54   2.0000     -10.312720      -280.6234
  55   2.0000     -10.312263      -280.6109
  56   2.0000     -10.311943      -280.6022
  57   2.0000     -10.309430      -280.5338
  58   2.0000     -10.308775      -280.5160
  59   2.0000     -10.308414      -280.5062
  60   2.0000     -10.305956      -280.4393
  61   2.0000     -10.302833      -280.3543
  62   2.0000     -10.301315      -280.3130
  63   2.0000     -10.300609      -280.2938
  64   2.0000     -10.300264      -280.2844
  65   2.0000     -10.300180      -280.2822
  66   2.0000     -10.299750      -280.2704
  67   2.0000     -10.298667      -280.2410
  68   2.0000     -10.298599      -280.2391
  69   2.0000     -10.298338      -280.2320
  70   2.0000     -10.298174      -280.2276
  71   2.0000     -10.297369      -280.2056
  72   2.0000     -10.296988      -280.1953
  73   2.0000     -10.296438      -280.1803
  74   2.0000     -10.295642      -280.1587
  75   2.0000     -10.294621      -280.1309
  76   2.0000     -10.294155      -280.1182
  77   2.0000     -10.292523      -280.0738
  78   2.0000     -10.292131      -280.0631
  79   2.0000     -10.292024      -280.0602
  80   2.0000     -10.291889      -280.0565
  81   2.0000     -10.288136      -279.9544
  82   2.0000     -10.287744      -279.9437
  83   2.0000     -10.280392      -279.7437
  84   2.0000     -10.274469      -279.5825
  85   2.0000      -8.072769      -219.6712
  86   2.0000      -8.071901      -219.6476
  87   2.0000      -8.070045      -219.5971
  88   2.0000      -8.067388      -219.5248
  89   2.0000      -8.066825      -219.5095
  90   2.0000      -8.060418      -219.3351
  91   2.0000      -6.042190      -164.4163
  92   2.0000      -6.041254      -164.3909
  93   2.0000      -6.039275      -164.3370
  94   2.0000      -6.038067      -164.3042
  95   2.0000      -6.037135      -164.2788
  96   2.0000      -6.036720      -164.2675
  97   2.0000      -6.036008      -164.2481
  98   2.0000      -6.035259      -164.2278
  99   2.0000      -6.034603      -164.2099
 100   2.0000      -6.033853      -164.1895
 101   2.0000      -6.032631      -164.1562
 102   2.0000      -6.032142      -164.1429
 103   2.0000      -6.032002      -164.1391
 104   2.0000      -6.029793      -164.0790
 105   2.0000      -6.029398      -164.0683
 106   2.0000      -6.028958      -164.0563
 107   2.0000      -6.025580      -163.9644
 108   2.0000      -6.022377      -163.8772
 109   2.0000      -1.237864       -33.6840
 110   2.0000      -1.220129       -33.2014
 111   2.0000      -1.125480       -30.6259
 112   2.0000      -1.036202       -28.1965
 113   2.0000      -1.031500       -28.0686
 114   2.0000      -1.019236       -27.7348
 115   2.0000      -1.016516       -27.6608
 116   2.0000      -1.014601       -27.6087
 117   2.0000      -1.013719       -27.5847
 118   2.0000      -1.006553       -27.3897
 119   2.0000      -1.005034       -27.3484
 120   2.0000      -1.003935       -27.3185
 121   2.0000      -0.999185       -27.1892
 122   2.0000      -0.998148       -27.1610
 123   2.0000      -0.996717       -27.1220
 124   2.0000      -0.995744       -27.0956
 125   2.0000      -0.995083       -27.0776
 126   2.0000      -0.994649       -27.0658
 127   2.0000      -0.986443       -26.8425
 128   2.0000      -0.981042       -26.6955
 129   2.0000      -0.958226       -26.0747
 130   2.0000      -0.956838       -26.0369
 131   2.0000      -0.939192       -25.5567
 132   2.0000      -0.935838       -25.4654
 133   2.0000      -0.931682       -25.3523
 134   2.0000      -0.928531       -25.2666
 135   2.0000      -0.921572       -25.0772
 136   2.0000      -0.914184       -24.8762
 137   2.0000      -0.907789       -24.7022
 138   2.0000      -0.893701       -24.3188
 139   2.0000      -0.892403       -24.2835
 140   2.0000      -0.889234       -24.1973
 141   2.0000      -0.881053       -23.9747
 142   2.0000      -0.870914       -23.6988
 143   2.0000      -0.865864       -23.5614
 144   2.0000      -0.862598       -23.4725
 145   2.0000      -0.860437       -23.4137
 146   2.0000      -0.859292       -23.3825
 147   2.0000      -0.852988       -23.2110
 148   2.0000      -0.850450       -23.1419
 149   2.0000      -0.846970       -23.0472
 150   2.0000      -0.842651       -22.9297
 151   2.0000      -0.833532       -22.6816
 152   2.0000      -0.827461       -22.5164
 153   2.0000      -0.821741       -22.3607
 154   2.0000      -0.807486       -21.9728
 155   2.0000      -0.792202       -21.5569
 156   2.0000      -0.790298       -21.5051
 157   2.0000      -0.787812       -21.4375
 158   2.0000      -0.780041       -21.2260
 159   2.0000      -0.767918       -20.8961
 160   2.0000      -0.755681       -20.5631
 161   2.0000      -0.742096       -20.1935
 162   2.0000      -0.729415       -19.8484
 163   2.0000      -0.728474       -19.8228
 164   2.0000      -0.720159       -19.5965
 165   2.0000      -0.715486       -19.4694
 166   2.0000      -0.713926       -19.4269
 167   2.0000      -0.712832       -19.3971
 168   2.0000      -0.709806       -19.3148
 169   2.0000      -0.707817       -19.2607
 170   2.0000      -0.701729       -19.0950
 171   2.0000      -0.684764       -18.6334
 172   2.0000      -0.682439       -18.5701
 173   2.0000      -0.680504       -18.5175
 174   2.0000      -0.675538       -18.3823
 175   2.0000      -0.668879       -18.2011
 176   2.0000      -0.666927       -18.1480
 177   2.0000      -0.664277       -18.0759
 178   2.0000      -0.662647       -18.0316
 179   2.0000      -0.658682       -17.9237
 180   2.0000      -0.651699       -17.7336
 181   2.0000      -0.645624       -17.5683
 182   2.0000      -0.642064       -17.4714
 183   2.0000      -0.635931       -17.3046
 184   2.0000      -0.632394       -17.2083
 185   2.0000      -0.631395       -17.1811
 186   2.0000      -0.630940       -17.1688
 187   2.0000      -0.630399       -17.1540
 188   2.0000      -0.626570       -17.0498
 189   2.0000      -0.623791       -16.9742
 190   2.0000      -0.619947       -16.8696
 191   2.0000      -0.616279       -16.7698
 192   2.0000      -0.612385       -16.6638
 193   2.0000      -0.597479       -16.2582
 194   2.0000      -0.594138       -16.1673
 195   2.0000      -0.592766       -16.1300
 196   2.0000      -0.590766       -16.0756
 197   2.0000      -0.585432       -15.9304
 198   2.0000      -0.582105       -15.8399
 199   2.0000      -0.581017       -15.8103
 200   2.0000      -0.575621       -15.6634
 201   2.0000      -0.570184       -15.5155
 202   2.0000      -0.567083       -15.4311
 203   2.0000      -0.565108       -15.3774
 204   2.0000      -0.550670       -14.9845
 205   2.0000      -0.548559       -14.9270
 206   2.0000      -0.547426       -14.8962
 207   2.0000      -0.543007       -14.7760
 208   2.0000      -0.541212       -14.7271
 209   2.0000      -0.540515       -14.7082
 210   2.0000      -0.539324       -14.6758
 211   2.0000      -0.537929       -14.6378
 212   2.0000      -0.535332       -14.5671
 213   2.0000      -0.534801       -14.5527
 214   2.0000      -0.530846       -14.4450
 215   2.0000      -0.524261       -14.2659
 216   2.0000      -0.523095       -14.2341
 217   2.0000      -0.521297       -14.1852
 218   2.0000      -0.516778       -14.0622
 219   2.0000      -0.516075       -14.0431
 220   2.0000      -0.514044       -13.9878
 221   2.0000      -0.511099       -13.9077
 222   2.0000      -0.510210       -13.8835
 223   2.0000      -0.509303       -13.8588
 224   2.0000      -0.508184       -13.8284
 225   2.0000      -0.507105       -13.7990
 226   2.0000      -0.506005       -13.7691
 227   2.0000      -0.504878       -13.7384
 228   2.0000      -0.500770       -13.6267
 229   2.0000      -0.499996       -13.6056
 230   2.0000      -0.496059       -13.4984
 231   2.0000      -0.494182       -13.4474
 232   2.0000      -0.493525       -13.4295
 233   2.0000      -0.492744       -13.4082
 234   2.0000      -0.488752       -13.2996
 235   2.0000      -0.488461       -13.2917
 236   2.0000      -0.484262       -13.1774
 237   2.0000      -0.483377       -13.1533
 238   2.0000      -0.481302       -13.0969
 239   2.0000      -0.476421       -12.9641
 240   2.0000      -0.473609       -12.8875
 241   2.0000      -0.472527       -12.8581
 242   2.0000      -0.469209       -12.7678
 243   2.0000      -0.468503       -12.7486
 244   2.0000      -0.465328       -12.6622
 245   2.0000      -0.463131       -12.6024
 246   2.0000      -0.461788       -12.5659
 247   2.0000      -0.460450       -12.5295
 248   2.0000      -0.456185       -12.4134
 249   2.0000      -0.454837       -12.3768
 250   2.0000      -0.453376       -12.3370
 251   2.0000      -0.452409       -12.3107
 252   2.0000      -0.451565       -12.2877
 253   2.0000      -0.451290       -12.2802
 254   2.0000      -0.449571       -12.2334
 255   2.0000      -0.448948       -12.2165
 256   2.0000      -0.447852       -12.1867
 257   2.0000      -0.446995       -12.1633
 258   2.0000      -0.445647       -12.1267
 259   2.0000      -0.444646       -12.0994
 260   2.0000      -0.443817       -12.0769
 261   2.0000      -0.443103       -12.0574
 262   2.0000      -0.441049       -12.0016
 263   2.0000      -0.440565       -11.9884
 264   2.0000      -0.436787       -11.8856
 265   2.0000      -0.431499       -11.7417
 266   2.0000      -0.430773       -11.7219
 267   2.0000      -0.430381       -11.7113
 268   2.0000      -0.429427       -11.6853
 269   2.0000      -0.429153       -11.6778
 270   2.0000      -0.428484       -11.6597
 271   2.0000      -0.426761       -11.6128
 272   2.0000      -0.425097       -11.5675
 273   2.0000      -0.422781       -11.5044
 274   2.0000      -0.421715       -11.4754
 275   2.0000      -0.419001       -11.4016
 276   2.0000      -0.414673       -11.2838
 277   2.0000      -0.414343       -11.2749
 278   2.0000      -0.412105       -11.2139
 279   2.0000      -0.411066       -11.1857
 280   2.0000      -0.409277       -11.1370
 281   2.0000      -0.406841       -11.0707
 282   2.0000      -0.395424       -10.7600
 283   2.0000      -0.386002       -10.5036
 284   2.0000      -0.384127       -10.4526
 285   2.0000      -0.381890       -10.3918
 286   2.0000      -0.371685       -10.1141
 287   2.0000      -0.359262        -9.7760
 288   2.0000      -0.356507        -9.7010
 289   2.0000      -0.349685        -9.5154
 290   2.0000      -0.348624        -9.4865
 291   2.0000      -0.346170        -9.4198
 292   2.0000      -0.343209        -9.3392
 293   2.0000      -0.340045        -9.2531
 294   2.0000      -0.339876        -9.2485
 295   2.0000      -0.338873        -9.2212
 296   2.0000      -0.335691        -9.1346
 297   2.0000      -0.333493        -9.0748
 298   2.0000      -0.330931        -9.0051
 299   2.0000      -0.327926        -8.9233
 300   2.0000      -0.323055        -8.7908
 301   2.0000      -0.313190        -8.5223
 302   2.0000      -0.302444        -8.2299
 303   2.0000      -0.288817        -7.8591
 304   2.0000      -0.269145        -7.3238
 305   2.0000      -0.251278        -6.8376
 306   2.0000      -0.230297        -6.2667
 307   0.0000      -0.105286        -2.8650
 308   0.0000      -0.102973        -2.8020
 309   0.0000      -0.086814        -2.3623
 310   0.0000      -0.084380        -2.2961
 311   0.0000      -0.070264        -1.9120

MULLIKEN ATOMIC CHARGES
-----------------------
   0 C :   -0.031024
   1 C :    0.046497
   2 C :    0.046539
   3 C :   -0.031429
   4 C :    0.006242
   5 C :    0.009776
   6 C :    0.305889
   7 C :   -0.351912
   8 C :   -0.187747
   9 N :    0.157657
  10 C :   -0.177778
  11 N :    0.148110
  12 C :   -0.077507
  13 C :    0.214354
  14 C :   -0.322506
  15 C :   -0.202519
  16 N :    0.181531
  17 C :   -0.178950
  18 N :    0.157394
  19 C :    0.056791
  20 C :   -0.123647
  21 S :    0.145034
  22 C :   -0.013256
  23 C :   -0.005529
  24 C :    0.083339
  25 C :   -0.049067
  26 C :    0.005950
  27 C :   -0.001141
  28 C :   -0.020994
  29 S :    0.136748
  30 C :   -0.051775
  31 S :    0.130058
  32 C :   -0.073504
  33 C :    0.012359
  34 C :    0.006966
  35 C :    0.068750
  36 C :   -0.013865
  37 C :    0.178209
  38 O :   -0.240834
  39 C :    0.097940
  40 C :   -0.087923
  41 C :    0.074000
  42 O :   -0.207519
  43 N :   -0.085942
  44 C :    0.181580
  45 O :   -0.203986
  46 C :    0.223687
  47 C :   -0.140801
  48 C :   -0.136095
  49 S :    0.152184
  50 C :   -0.026900
  51 C :   -0.006562
  52 C :    0.020620
  53 C :   -0.036875
  54 C :    0.004827
  55 C :    0.000296
  56 C :   -0.041120
  57 S :    0.138132
  58 C :   -0.033237
  59 S :    0.147949
  60 C :   -0.089553
  61 C :    0.056224
  62 C :   -0.013004
  63 C :    0.088752
  64 C :   -0.013729
  65 C :    0.026605
  66 C :   -0.061335
  67 C :    0.304483
  68 C :   -0.348088
  69 C :   -0.185285
  70 N :    0.149004
  71 C :   -0.190624
  72 N :    0.157069
  73 C :    0.009580
  74 C :    0.006607
  75 C :   -0.036350
  76 C :    0.047762
  77 C :    0.046823
  78 C :   -0.033401
  79 C :    0.245834
  80 C :   -0.336916
  81 C :   -0.183619
  82 N :    0.151911
  83 C :   -0.221099
  84 N :    0.179636
  85 H :    0.005193
  86 H :    0.002891
  87 H :    0.003680
  88 H :    0.004489
  89 H :    0.020475
  90 H :    0.000048
  91 H :    0.009995
  92 H :   -0.000839
  93 H :   -0.013203
  94 H :   -0.015636
  95 H :   -0.016041
  96 H :   -0.013329
  97 H :   -0.006407
  98 H :    0.123796
  99 H :    0.130728
 100 H :   -0.003121
 101 H :   -0.017345
 102 H :    0.015867
 103 H :   -0.012262
 104 H :   -0.004271
 105 H :   -0.001960
 106 H :   -0.001963
 107 H :    0.011964
 108 H :    0.017043
 109 H :    0.010513
 110 H :    0.004798
 111 H :    0.002942
 112 H :    0.002513
 113 H :    0.004695
Sum of atomic charges:   -0.0000000

LOEWDIN ATOMIC CHARGES
----------------------
   0 C :    0.005054
   1 C :    0.000393
   2 C :    0.003459
   3 C :   -0.000212
   4 C :   -0.009773
   5 C :   -0.013543
   6 C :    0.079927
   7 C :   -0.137865
   8 C :   -0.019313
   9 N :   -0.049393
  10 C :   -0.020436
  11 N :   -0.049022
  12 C :   -0.072368
  13 C :    0.059179
  14 C :   -0.138024
  15 C :   -0.036048
  16 N :   -0.042709
  17 C :   -0.019660
  18 N :   -0.047918
  19 C :    0.047172
  20 C :   -0.187991
  21 S :    0.464523
  22 C :   -0.139618
  23 C :   -0.065497
  24 C :    0.011355
  25 C :   -0.194921
  26 C :   -0.036979
  27 C :   -0.053816
  28 C :   -0.167224
  29 S :    0.442124
  30 C :   -0.193080
  31 S :    0.434198
  32 C :   -0.163902
  33 C :   -0.053797
  34 C :   -0.042470
  35 C :   -0.042549
  36 C :   -0.032630
  37 C :    0.042404
  38 O :   -0.006114
  39 C :    0.001545
  40 C :   -0.122944
  41 C :    0.071868
  42 O :   -0.211596
  43 N :   -0.001208
  44 C :    0.068192
  45 O :    0.006055
  46 C :   -0.003356
  47 C :   -0.063689
  48 C :   -0.189932
  49 S :    0.440047
  50 C :   -0.183259
  51 C :   -0.049289
  52 C :   -0.025341
  53 C :   -0.172421
  54 C :   -0.049753
  55 C :   -0.044093
  56 C :   -0.192782
  57 S :    0.439768
  58 C :   -0.157330
  59 S :    0.454196
  60 C :   -0.184584
  61 C :   -0.009025
  62 C :   -0.060815
  63 C :    0.031173
  64 C :   -0.039241
  65 C :    0.061316
  66 C :   -0.072110
  67 C :    0.078927
  68 C :   -0.138767
  69 C :   -0.021090
  70 N :   -0.051738
  71 C :   -0.019346
  72 N :   -0.051220
  73 C :   -0.013111
  74 C :   -0.010777
  75 C :   -0.000017
  76 C :    0.002290
  77 C :    0.000235
  78 C :    0.004093
  79 C :    0.072191
  80 C :   -0.139158
  81 C :   -0.020064
  82 N :   -0.050642
  83 C :   -0.026996
  84 N :   -0.046602
  85 H :    0.041486
  86 H :    0.037221
  87 H :    0.037201
  88 H :    0.040382
  89 H :    0.052300
  90 H :    0.031454
  91 H :    0.043123
  92 H :    0.031901
  93 H :    0.032576
  94 H :    0.030056
  95 H :    0.031327
  96 H :    0.027561
  97 H :    0.037991
  98 H :    0.069753
  99 H :    0.083168
 100 H :    0.038669
 101 H :    0.030920
 102 H :    0.036344
 103 H :    0.032966
 104 H :    0.030312
 105 H :    0.037062
 106 H :    0.031083
 107 H :    0.040395
 108 H :    0.031310
 109 H :    0.045395
 110 H :    0.040432
 111 H :    0.036950
 112 H :    0.036923
 113 H :    0.041225

  Mayer bond orders larger than 0.100000
B(  0-C ,  1-C ) :   1.3708 B(  0-C ,  5-C ) :   1.3845 B(  0-C , 85-H ) :   0.9826
B(  1-C ,  2-C ) :   1.3787 B(  1-C , 86-H ) :   0.9860 B(  2-C ,  3-C ) :   1.3631
B(  2-C , 87-H ) :   0.9866 B(  3-C ,  4-C ) :   1.3846 B(  3-C , 88-H ) :   0.9865
B(  4-C ,  5-C ) :   1.3141 B(  4-C , 13-C ) :   1.0130 B(  5-C ,  6-C ) :   0.9978
B(  6-C ,  7-C ) :   1.6290 B(  6-C , 12-C ) :   1.0690 B(  7-C ,  8-C ) :   1.1485
B(  7-C , 10-C ) :   1.1384 B(  8-C ,  9-N ) :   2.9752 B( 10-C , 11-N ) :   2.9631
B( 12-C , 13-C ) :   1.0261 B( 12-C , 19-C ) :   1.5537 B( 13-C , 14-C ) :   1.6451
B( 14-C , 15-C ) :   1.1452 B( 14-C , 17-C ) :   1.1446 B( 15-C , 16-N ) :   3.0291
B( 17-C , 18-N ) :   2.9925 B( 19-C , 20-C ) :   1.2077 B( 19-C , 89-H ) :   0.9332
B( 20-C , 21-S ) :   1.0873 B( 20-C , 24-C ) :   1.4004 B( 21-S , 22-C ) :   1.1530
B( 22-C , 23-C ) :   1.4350 B( 22-C , 25-C ) :   1.1812 B( 23-C , 24-C ) :   1.3173
B( 23-C , 90-H ) :   0.9921 B( 24-C , 91-H ) :   0.9984 B( 25-C , 26-C ) :   1.4702
B( 25-C , 28-C ) :   0.1046 B( 25-C , 29-S ) :   1.1109 B( 26-C , 27-C ) :   1.2929
B( 26-C , 92-H ) :   0.9916 B( 27-C , 28-C ) :   1.4977 B( 27-C , 93-H ) :   0.9962
B( 28-C , 29-S ) :   1.1342 B( 28-C , 30-C ) :   1.1207 B( 30-C , 31-S ) :   1.1233
B( 30-C , 32-C ) :   0.1052 B( 30-C , 34-C ) :   1.4976 B( 31-S , 32-C ) :   1.1211
B( 32-C , 33-C ) :   1.4856 B( 32-C , 35-C ) :   1.1150 B( 33-C , 34-C ) :   1.2933
B( 33-C , 94-H ) :   0.9912 B( 34-C , 95-H ) :   0.9950 B( 35-C , 36-C ) :   1.6729
B( 35-C , 96-H ) :   0.9624 B( 36-C , 37-C ) :   1.1794 B( 36-C , 97-H ) :   0.9564
B( 37-C , 38-O ) :   1.0860 B( 37-C , 47-C ) :   1.4237 B( 38-O , 39-C ) :   1.1084
B( 39-C , 40-C ) :   1.1806 B( 39-C , 46-C ) :   1.3968 B( 40-C , 41-C ) :   0.8898
B( 40-C , 44-C ) :   1.4539 B( 41-C , 42-O ) :   2.1067 B( 41-C , 43-N ) :   1.3111
B( 43-N , 98-H ) :   0.9342 B( 43-N , 99-H ) :   0.9326 B( 44-C , 45-O ) :   1.1590
B( 44-C , 48-C ) :   1.1475 B( 45-O , 46-C ) :   1.1184 B( 46-C , 47-C ) :   1.1990
B( 47-C ,100-H ) :   1.0335 B( 48-C , 49-S ) :   1.0994 B( 48-C , 50-C ) :   0.1182
B( 48-C , 52-C ) :   1.5125 B( 49-S , 50-C ) :   1.1189 B( 50-C , 51-C ) :   1.4927
B( 50-C , 53-C ) :   1.1158 B( 51-C , 52-C ) :   1.2654 B( 51-C ,101-H ) :   0.9977
B( 52-C ,102-H ) :   0.9702 B( 53-C , 54-C ) :   1.5029 B( 53-C , 56-C ) :   0.1057
B( 53-C , 57-S ) :   1.1286 B( 54-C , 55-C ) :   1.2896 B( 54-C ,103-H ) :   0.9961
B( 55-C , 56-C ) :   1.4752 B( 55-C ,104-H ) :   0.9917 B( 56-C , 57-S ) :   1.1162
B( 56-C , 58-C ) :   1.1718 B( 58-C , 59-S ) :   1.1630 B( 58-C , 62-C ) :   1.4337
B( 59-S , 60-C ) :   1.0907 B( 60-C , 61-C ) :   1.4329 B( 60-C , 63-C ) :   1.1676
B( 61-C , 62-C ) :   1.3356 B( 61-C ,105-H ) :   0.9896 B( 62-C ,106-H ) :   0.9922
B( 63-C , 64-C ) :   1.5825 B( 63-C ,107-H ) :   0.9699 B( 64-C , 65-C ) :   1.2229
B( 64-C ,108-H ) :   0.9640 B( 65-C , 66-C ) :   1.4968 B( 65-C ,109-H ) :   0.9468
B( 66-C , 67-C ) :   1.0676 B( 66-C , 79-C ) :   1.0426 B( 67-C , 68-C ) :   1.6227
B( 67-C , 73-C ) :   0.9952 B( 68-C , 69-C ) :   1.1403 B( 68-C , 71-C ) :   1.1478
B( 69-C , 70-N ) :   2.9710 B( 71-C , 72-N ) :   2.9758 B( 73-C , 74-C ) :   1.3142
B( 73-C , 78-C ) :   1.3858 B( 74-C , 75-C ) :   1.3839 B( 74-C , 79-C ) :   1.0104
B( 75-C , 76-C ) :   1.3632 B( 75-C ,110-H ) :   0.9857 B( 76-C , 77-C ) :   1.3806
B( 76-C ,111-H ) :   0.9863 B( 77-C , 78-C ) :   1.3656 B( 77-C ,112-H ) :   0.9865
B( 78-C ,113-H ) :   0.9844 B( 79-C , 80-C ) :   1.6227 B( 80-C , 81-C ) :   1.1380
B( 80-C , 83-C ) :   1.1532 B( 81-C , 82-N ) :   2.9864 B( 83-C , 84-N ) :   3.0217

-----------------------------------------------------------------------------
         ABSORPTION SPECTRUM VIA TRANSITION ELECTRIC DIPOLE MOMENTS
-----------------------------------------------------------------------------
State   Energy  Wavelength   fosc         T2         TX        TY        TZ
        (cm-1)    (nm)                  (au**2)     (au)      (au)      (au)
-----------------------------------------------------------------------------
   0   14860.9    672.9   3.553586906  78.72199   0.15812  -5.15055  -7.22280
   1   16073.9    622.1   0.078751992   1.61293   0.05649  -0.98030   0.80545
   2   20553.6    486.5   0.424562079   6.80031   1.69743  -1.69974  -1.01485
   3   20840.2    479.8   0.046527213   0.73499  -0.40982   0.67786  -0.32794
   4   21284.9    469.8   0.122622227   1.89659  -0.42676   0.62088  -1.15281
   5   21741.7    459.9   0.043577059   0.65984   0.25375  -0.66017   0.39954
   6   23022.9    434.4   0.617609332   8.83141   0.37469  -2.27072  -1.88012
   7   25570.6    391.1   0.066165114   0.85185   0.24191  -0.42756  -0.78136
   8   26248.3    381.0   0.038534779   0.48331  -0.23492   0.05738   0.65179
   9   26463.9    377.9   0.092919743   1.15593   0.40306   0.13864  -0.98704
  10   26558.4    376.5   0.017860507   0.22139   0.13616  -0.18133  -0.41228
  11   27027.1    370.0   0.072470154   0.88275  -0.64767   0.64907   0.20488
  12   28138.7    355.4   0.083262989   0.97415   0.05139  -0.58965  -0.78982
  13   28395.4    352.2   0.058484342   0.67806  -0.10003   0.17743  -0.79785
  14   29011.9    344.7   0.023673839   0.26864   0.09957  -0.35696   0.36236
  15   30255.0    330.5   0.209302852   2.27747   0.51158   0.38431  -1.36677
  16   30695.5    325.8   0.077012420   0.82596  -0.41378   0.50780  -0.62999
  17   31083.6    321.7   0.305499267   3.23560   1.26573  -1.26045  -0.21166
  18   31423.4    318.2   0.098588740   1.03288  -0.01797  -0.01021  -1.01610
  19   31799.4    314.5   0.065926430   0.68252   0.12532  -0.15307   0.80211
  20   32422.7    308.4   0.009766341   0.09916  -0.12881   0.16726   0.23366
  21   32590.7    306.8   0.014073028   0.14216  -0.01204   0.30463  -0.22184
  22   32968.4    303.3   0.003499683   0.03495  -0.17475   0.06428  -0.01666
  23   33093.9    302.2   0.081073560   0.80650   0.44340  -0.59060  -0.51097
  24   33628.7    297.4   0.125040286   1.22410  -0.61141   0.88426  -0.26143
  25   33654.5    297.1   0.360669278   3.52810  -1.34015   1.08110   0.75055
  26   33703.9    296.7   0.553001694   5.40159  -1.30330   0.27678   1.90431
  27   34661.8    288.5   0.281279907   2.67155  -0.15802   0.35055  -1.58861
  28   34751.2    287.8   0.263117549   2.49262  -0.20321   1.48697  -0.49013
  29   35121.3    284.7   0.079540589   0.74558  -0.05952   0.66524   0.54726
  30   35158.7    284.4   0.118553405   1.11009  -0.07016   0.69425  -0.78942
  31   35961.9    278.1   0.002392819   0.02190  -0.08273  -0.09321  -0.07983
  32   36004.0    277.7   0.045548605   0.41649  -0.42695   0.18751   0.44614
  33   36349.0    275.1   0.133821885   1.21202   0.05791  -1.09387   0.11010
  34   36579.7    273.4   0.001105083   0.00995   0.00235  -0.04940  -0.08660
  35   36813.7    271.6   0.004709432   0.04211   0.05067   0.00115  -0.19886
  36   37065.0    269.8   0.053739961   0.47732   0.39484  -0.50728   0.25314
  37   37147.9    269.2   0.129934938   1.15151   0.12576  -0.65041   0.84419
  38   38022.4    263.0   0.083730088   0.72497   0.10431  -0.17975  -0.82570
  39   38569.6    259.3   0.010616122   0.09061  -0.13253   0.25803  -0.08044
  40   38671.8    258.6   0.086873366   0.73955   0.45036  -0.68214   0.26724
  41   38782.0    257.9   0.006815147   0.05785  -0.19809  -0.08784  -0.10440
  42   38911.1    257.0   0.015518976   0.13130  -0.00166   0.02000  -0.36180
  43   39184.0    255.2   0.006789571   0.05704  -0.18444   0.11898  -0.09418
  44   39395.0    253.8   0.018311332   0.15302  -0.11078   0.31807   0.19895
  45   39681.5    252.0   0.176179649   1.46165  -0.33942   0.96125  -0.64995
  46   39845.0    251.0   0.058152715   0.48048  -0.12803   0.55579  -0.39394
  47   40298.0    248.2   0.026318907   0.21501   0.12259   0.43705  -0.09471

FINAL SINGLE POINT ENERGY     -5673.037800278773

DIPOLE MOMENT
-------------
                                X             Y             Z
Electronic contribution:      1.39953      -0.44309      16.42558
Nuclear contribution   :     -2.29636       3.26695     -17.35044
                        -----------------------------------------
Total Dipole Moment    :     -0.89683       2.82386      -0.92485
                        -----------------------------------------
Magnitude (a.u.)       :      3.10384
Magnitude (Debye)      :      7.88934

Rotational constants in cm-1:     0.002091     0.000076     0.000074
Rotational constants in MHz :    62.688415     2.264993     2.210490

                             ****ORCA TERMINATED NORMALLY****
TOTAL RUN TIME: 0 days 0 hours 14 minutes 35 seconds 357 msec
