                         Program Version 4.2.0 -  RELEASE  -
|  1> # ORCA input file
|  2> # SCF done       -204.702104439866          0.000917428219
|  3> ! CAM-B3LYP def2-SVP def2/J RIJCOSX Grid4 TightSCF
|  4> %maxcore 5000
|  5> %tddft
|  6>     Mode sTDDFT
|  7>     Ethresh 5.0
|  8>     maxcore 5000
|  9> end
| 10>
| 11> %pal
| 12>   nprocs 6
| 13>   end
| 14> * xyz 0 1
| 15>    C      -11.53314        -1.76840        -4.28563
| 16>    C      -12.90106        -1.61560        -4.11946
| 17>    C      -13.42737        -1.13399        -2.92937
| 18>    C      -12.59846        -0.78490        -1.87420
| 19>    C      -11.22979        -0.93486        -2.02755
| 20>    C      -10.69230        -1.43247        -3.23593
| 21>    C       -9.24449        -1.50963        -3.11000
| 22>    C       -8.36999        -1.81515        -4.11619
| 23>    C       -8.76225        -2.10308        -5.44104
| 24>    N       -9.00457        -2.35901        -6.53401
| 25>    C       -6.96459        -1.89304        -4.02069
| 26>    N       -5.82083        -1.99888        -4.05621
| 27>    C       -8.92324        -1.16531        -1.72472
| 28>    C      -10.13008        -0.62465        -1.12678
| 29>    C      -10.21401         0.19007        -0.02706
| 30>    C       -9.11063         0.75615         0.63863
| 31>    N       -8.26131         1.27490         1.21194
| 32>    C      -11.42546         0.62742         0.54378
| 33>    N      -12.37056         0.98159         1.09224
| 34>    C       -7.71178        -1.42880        -1.15653
| 35>    C       -7.28311        -1.41133         0.20319
| 36>    C       -8.04169        -1.70861         1.31837
| 37>    O       -9.34928        -1.99758         1.30756
| 38>    C       -9.95824        -2.28630         2.54649
| 39>    S       -7.09088        -1.77651         2.76353
| 40>    C       -5.64452        -1.33515         1.86857
| 41>    O       -4.45570        -1.21248         2.47839
| 42>    C       -4.47556        -0.90328         3.85460
| 43>    C       -5.89483        -1.18769         0.53832
| 44>    C       -4.92865        -0.76394        -0.46989
| 45>    C       -5.33736         0.06748        -1.48160
| 46>    C       -4.47171         0.34086        -2.55907
| 47>    C       -4.69870         1.00379        -3.75409
| 48>    C       -5.99314         1.61502        -4.17102
| 49>    C       -5.89869         3.15355        -4.17593
| 50>    N       -7.21252         3.74596        -4.36212
| 51>    C       -6.50954         1.06464        -5.51434
| 52>    N       -7.93019         0.77016        -5.39458
| 53>    C       -3.47301         0.91981        -4.51296
| 54>    C       -3.14270         1.35548        -5.74294
| 55>    C       -1.80071         1.09843        -6.33648
| 56>    C       -0.85423         0.36047        -5.44322
| 57>    C       -1.19636        -0.06837        -4.21383
| 58>    C       -2.49351         0.17154        -3.70858
| 59>    C       -3.11828        -0.18675        -2.52771
| 60>    C       -2.69837        -0.95422        -1.41864
| 61>    C       -3.58495        -1.24566        -0.42940
| 62>    C       -1.15928         2.39836        -6.76040
| 63>    C       -0.64829         2.60191        -7.96787
| 64>    C        0.00891         3.82965        -8.41701
| 65>    C        1.22616         3.78467        -9.02072
| 66>    O        1.96536         2.67878        -9.18591
| 67>    C        3.11686         2.78969        -9.99088
| 68>    S        1.79645         5.37245        -9.50094
| 69>    C        0.31768         6.08523        -8.96318
| 70>    O        0.08844         7.39467        -9.05031
| 71>    C        1.08149         8.19305        -9.65771
| 72>    C       -0.55338         5.16028        -8.39563
| 73>    C       -1.81631         5.44321        -7.82821
| 74>    C       -2.66089         6.51800        -7.97272
| 75>    C       -3.68717         6.84025        -6.98954
| 76>    C       -3.93737         6.18523        -5.80420
| 77>    C       -3.14110         5.17650        -5.23053
| 78>    N       -2.51927         4.39639        -4.65719
| 79>    C       -5.04643         6.45373        -4.98163
| 80>    N       -5.95846         6.57003        -4.29083
| 81>    C       -4.33241         8.06708        -7.41916
| 82>    C       -3.72472         8.50010        -8.62016
| 83>    C       -4.11025         9.69236        -9.21094
| 84>    C       -5.10603        10.44402        -8.60611
| 85>    C       -5.71290        10.01337        -7.43449
| 86>    C       -5.33216         8.82667        -6.82898
| 87>    C       -2.76664         7.48964        -9.04068
| 88>    C       -2.26964         7.37574       -10.31864
| 89>    C       -2.37203         8.37952       -11.30111
| 90>    N       -2.36954         9.16445       -12.14014
| 91>    C       -1.66229         6.22577       -10.84873
| 92>    N       -1.17259         5.31230       -11.34547
| 93>    H      -11.14169        -2.14795        -5.21484
| 94>    H      -13.56503        -1.87924        -4.92884
| 95>    H      -14.49625        -1.02895        -2.82080
| 96>    H      -13.02058        -0.41532        -0.95380
| 97>    H       -6.93098        -1.75282        -1.83342
| 98>    H      -11.00584        -2.48506         2.32991
| 99>    H       -9.87624        -1.43490         3.22905
|100>    H       -9.49845        -3.16368         3.01194
|101>    H       -5.02986         0.02035         4.04404
|102>    H       -3.43621        -0.77801         4.15041
|103>    H       -4.92766        -1.71876         4.43008
|104>    H       -6.32150         0.51194        -1.45818
|105>    H       -6.74591         1.35058        -3.42282
|106>    H       -5.16680         3.46532        -4.93881
|107>    H       -5.51661         3.47499        -3.20435
|108>    H       -7.47483         3.72866        -5.34281
|109>    H       -7.20178         4.71858        -4.07089
|110>    H       -5.99948         0.12643        -5.75242
|111>    H       -6.28664         1.77903        -6.32548
|112>    H       -8.42288         1.60145        -5.08121
|113>    H       -8.31304         0.49112        -6.29255
|114>    H       -3.83990         1.90164        -6.36304
|115>    H       -1.95397         0.49479        -7.24503
|116>    H        0.13297         0.19295        -5.84672
|117>    H       -0.48657        -0.60579        -3.60135
|118>    H       -1.68548        -1.32749        -1.37924
|119>    H       -3.29481        -1.85984         0.40846
|120>    H       -1.10732         3.14349        -5.97944
|121>    H       -0.64900         1.80354        -8.70056
|122>    H        3.55379         1.79421       -10.03063
|123>    H        3.83523         3.49052        -9.55181
|124>    H        2.86254         3.12398       -11.00148
|125>    H        1.25565         7.87674       -10.69067
|126>    H        2.02177         8.13447        -9.10132
|127>    H        0.70216         9.21273        -9.64302
|128>    H       -2.13703         4.68848        -7.12372
|129>    H       -3.64394        10.04406       -10.11669
|130>    H       -5.41146        11.37698        -9.05478
|131>    H       -6.48997        10.61175        -6.98371
|132>    H       -5.81125         8.50953        -5.91724
|133> *
|134>
|135>                          ****END OF INPUT****

CARTESIAN COORDINATES (ANGSTROEM)
---------------------------------
  C    -11.533140   -1.768400   -4.285630
  C    -12.901060   -1.615600   -4.119460
  C    -13.427370   -1.133990   -2.929370
  C    -12.598460   -0.784900   -1.874200
  C    -11.229790   -0.934860   -2.027550
  C    -10.692300   -1.432470   -3.235930
  C     -9.244490   -1.509630   -3.110000
  C     -8.369990   -1.815150   -4.116190
  C     -8.762250   -2.103080   -5.441040
  N     -9.004570   -2.359010   -6.534010
  C     -6.964590   -1.893040   -4.020690
  N     -5.820830   -1.998880   -4.056210
  C     -8.923240   -1.165310   -1.724720
  C    -10.130080   -0.624650   -1.126780
  C    -10.214010    0.190070   -0.027060
  C     -9.110630    0.756150    0.638630
  N     -8.261310    1.274900    1.211940
  C    -11.425460    0.627420    0.543780
  N    -12.370560    0.981590    1.092240
  C     -7.711780   -1.428800   -1.156530
  C     -7.283110   -1.411330    0.203190
  C     -8.041690   -1.708610    1.318370
  O     -9.349280   -1.997580    1.307560
  C     -9.958240   -2.286300    2.546490
  S     -7.090880   -1.776510    2.763530
  C     -5.644520   -1.335150    1.868570
  O     -4.455700   -1.212480    2.478390
  C     -4.475560   -0.903280    3.854600
  C     -5.894830   -1.187690    0.538320
  C     -4.928650   -0.763940   -0.469890
  C     -5.337360    0.067480   -1.481600
  C     -4.471710    0.340860   -2.559070
  C     -4.698700    1.003790   -3.754090
  C     -5.993140    1.615020   -4.171020
  C     -5.898690    3.153550   -4.175930
  N     -7.212520    3.745960   -4.362120
  C     -6.509540    1.064640   -5.514340
  N     -7.930190    0.770160   -5.394580
  C     -3.473010    0.919810   -4.512960
  C     -3.142700    1.355480   -5.742940
  C     -1.800710    1.098430   -6.336480
  C     -0.854230    0.360470   -5.443220
  C     -1.196360   -0.068370   -4.213830
  C     -2.493510    0.171540   -3.708580
  C     -3.118280   -0.186750   -2.527710
  C     -2.698370   -0.954220   -1.418640
  C     -3.584950   -1.245660   -0.429400
  C     -1.159280    2.398360   -6.760400
  C     -0.648290    2.601910   -7.967870
  C      0.008910    3.829650   -8.417010
  C      1.226160    3.784670   -9.020720
  O      1.965360    2.678780   -9.185910
  C      3.116860    2.789690   -9.990880
  S      1.796450    5.372450   -9.500940
  C      0.317680    6.085230   -8.963180
  O      0.088440    7.394670   -9.050310
  C      1.081490    8.193050   -9.657710
  C     -0.553380    5.160280   -8.395630
  C     -1.816310    5.443210   -7.828210
  C     -2.660890    6.518000   -7.972720
  C     -3.687170    6.840250   -6.989540
  C     -3.937370    6.185230   -5.804200
  C     -3.141100    5.176500   -5.230530
  N     -2.519270    4.396390   -4.657190
  C     -5.046430    6.453730   -4.981630
  N     -5.958460    6.570030   -4.290830
  C     -4.332410    8.067080   -7.419160
  C     -3.724720    8.500100   -8.620160
  C     -4.110250    9.692360   -9.210940
  C     -5.106030   10.444020   -8.606110
  C     -5.712900   10.013370   -7.434490
  C     -5.332160    8.826670   -6.828980
  C     -2.766640    7.489640   -9.040680
  C     -2.269640    7.375740  -10.318640
  C     -2.372030    8.379520  -11.301110
  N     -2.369540    9.164450  -12.140140
  C     -1.662290    6.225770  -10.848730
  N     -1.172590    5.312300  -11.345470
  H    -11.141690   -2.147950   -5.214840
  H    -13.565030   -1.879240   -4.928840
  H    -14.496250   -1.028950   -2.820800
  H    -13.020580   -0.415320   -0.953800
  H     -6.930980   -1.752820   -1.833420
  H    -11.005840   -2.485060    2.329910
  H     -9.876240   -1.434900    3.229050
  H     -9.498450   -3.163680    3.011940
  H     -5.029860    0.020350    4.044040
  H     -3.436210   -0.778010    4.150410
  H     -4.927660   -1.718760    4.430080
  H     -6.321500    0.511940   -1.458180
  H     -6.745910    1.350580   -3.422820
  H     -5.166800    3.465320   -4.938810
  H     -5.516610    3.474990   -3.204350
  H     -7.474830    3.728660   -5.342810
  H     -7.201780    4.718580   -4.070890
  H     -5.999480    0.126430   -5.752420
  H     -6.286640    1.779030   -6.325480
  H     -8.422880    1.601450   -5.081210
  H     -8.313040    0.491120   -6.292550
  H     -3.839900    1.901640   -6.363040
  H     -1.953970    0.494790   -7.245030
  H      0.132970    0.192950   -5.846720
  H     -0.486570   -0.605790   -3.601350
  H     -1.685480   -1.327490   -1.379240
  H     -3.294810   -1.859840    0.408460
  H     -1.107320    3.143490   -5.979440
  H     -0.649000    1.803540   -8.700560
  H      3.553790    1.794210  -10.030630
  H      3.835230    3.490520   -9.551810
  H      2.862540    3.123980  -11.001480
  H      1.255650    7.876740  -10.690670
  H      2.021770    8.134470   -9.101320
  H      0.702160    9.212730   -9.643020
  H     -2.137030    4.688480   -7.123720
  H     -3.643940   10.044060  -10.116690
  H     -5.411460   11.376980   -9.054780
  H     -6.489970   10.611750   -6.983710
  H     -5.811250    8.509530   -5.917240

 Total Charge           Charge          ....    0
 Multiplicity           Mult            ....    1
 Number of Electrons    NEL             ....  546
 Basis Dimension        Dim             .... 1300

ORBITAL ENERGIES
----------------

  NO   OCC          E(Eh)            E(eV)
   0   2.0000     -88.985785     -2421.4263
   1   2.0000     -88.963740     -2420.8264
   2   2.0000     -19.302370      -525.2442
   3   2.0000     -19.276476      -524.5396
   4   2.0000     -19.271429      -524.4022
   5   2.0000     -19.253543      -523.9155
   6   2.0000     -14.423545      -392.4846
   7   2.0000     -14.421367      -392.4254
   8   2.0000     -14.419457      -392.3734
   9   2.0000     -14.419381      -392.3713
  10   2.0000     -14.403908      -391.9503
  11   2.0000     -14.401000      -391.8711
  12   2.0000     -14.400795      -391.8655
  13   2.0000     -14.400084      -391.8462
  14   2.0000     -14.366039      -390.9198
  15   2.0000     -14.360023      -390.7561
  16   2.0000     -10.391111      -282.7565
  17   2.0000     -10.363501      -282.0052
  18   2.0000     -10.363093      -281.9941
  19   2.0000     -10.355972      -281.8003
  20   2.0000     -10.347481      -281.5693
  21   2.0000     -10.346183      -281.5340
  22   2.0000     -10.344137      -281.4783
  23   2.0000     -10.343926      -281.4725
  24   2.0000     -10.341923      -281.4180
  25   2.0000     -10.338701      -281.3304
  26   2.0000     -10.336951      -281.2827
  27   2.0000     -10.327538      -281.0266
  28   2.0000     -10.327103      -281.0148
  29   2.0000     -10.326541      -280.9995
  30   2.0000     -10.326270      -280.9921
  31   2.0000     -10.324918      -280.9553
  32   2.0000     -10.322693      -280.8948
  33   2.0000     -10.321830      -280.8713
  34   2.0000     -10.321127      -280.8521
  35   2.0000     -10.320689      -280.8402
  36   2.0000     -10.318355      -280.7767
  37   2.0000     -10.310368      -280.5594
  38   2.0000     -10.309054      -280.5236
  39   2.0000     -10.308091      -280.4974
  40   2.0000     -10.307445      -280.4798
  41   2.0000     -10.304846      -280.4091
  42   2.0000     -10.302789      -280.3531
  43   2.0000     -10.301212      -280.3102
  44   2.0000     -10.301107      -280.3074
  45   2.0000     -10.299935      -280.2755
  46   2.0000     -10.299066      -280.2518
  47   2.0000     -10.297936      -280.2211
  48   2.0000     -10.297221      -280.2016
  49   2.0000     -10.295845      -280.1642
  50   2.0000     -10.291338      -280.0415
  51   2.0000     -10.290818      -280.0274
  52   2.0000     -10.290524      -280.0194
  53   2.0000     -10.283271      -279.8220
  54   2.0000     -10.281822      -279.7826
  55   2.0000     -10.281432      -279.7720
  56   2.0000     -10.281149      -279.7643
  57   2.0000     -10.280660      -279.7510
  58   2.0000     -10.278835      -279.7013
  59   2.0000     -10.278252      -279.6855
  60   2.0000     -10.275046      -279.5982
  61   2.0000     -10.270694      -279.4798
  62   2.0000     -10.269205      -279.4393
  63   2.0000     -10.266662      -279.3701
  64   2.0000     -10.264536      -279.3122
  65   2.0000     -10.261967      -279.2423
  66   2.0000     -10.260123      -279.1921
  67   2.0000     -10.251419      -278.9553
  68   2.0000     -10.250291      -278.9246
  69   2.0000     -10.249028      -278.8902
  70   2.0000     -10.246755      -278.8284
  71   2.0000     -10.244656      -278.7713
  72   2.0000     -10.243249      -278.7330
  73   2.0000     -10.240633      -278.6618
  74   2.0000     -10.238863      -278.6136
  75   2.0000     -10.237229      -278.5692
  76   2.0000     -10.237028      -278.5637
  77   2.0000     -10.234029      -278.4821
  78   2.0000      -8.082127      -219.9259
  79   2.0000      -8.060068      -219.3256
  80   2.0000      -6.051490      -164.6694
  81   2.0000      -6.047549      -164.5622
  82   2.0000      -6.043671      -164.4566
  83   2.0000      -6.029423      -164.0689
  84   2.0000      -6.025500      -163.9622
  85   2.0000      -6.021643      -163.8572
  86   2.0000      -1.209460       -32.9111
  87   2.0000      -1.182852       -32.1870
  88   2.0000      -1.179756       -32.1028
  89   2.0000      -1.161486       -31.6056
  90   2.0000      -1.033032       -28.1102
  91   2.0000      -1.018599       -27.7175
  92   2.0000      -1.013086       -27.5675
  93   2.0000      -1.006736       -27.3947
  94   2.0000      -1.001462       -27.2512
  95   2.0000      -1.000294       -27.2194
  96   2.0000      -0.998837       -27.1797
  97   2.0000      -0.993594       -27.0371
  98   2.0000      -0.987719       -26.8772
  99   2.0000      -0.982936       -26.7470
 100   2.0000      -0.979038       -26.6410
 101   2.0000      -0.975001       -26.5311
 102   2.0000      -0.960691       -26.1417
 103   2.0000      -0.955517       -26.0009
 104   2.0000      -0.950479       -25.8638
 105   2.0000      -0.937668       -25.5153
 106   2.0000      -0.937250       -25.5039
 107   2.0000      -0.930465       -25.3192
 108   2.0000      -0.924268       -25.1506
 109   2.0000      -0.916857       -24.9489
 110   2.0000      -0.906614       -24.6702
 111   2.0000      -0.897556       -24.4237
 112   2.0000      -0.891839       -24.2682
 113   2.0000      -0.884109       -24.0578
 114   2.0000      -0.878547       -23.9065
 115   2.0000      -0.871808       -23.7231
 116   2.0000      -0.863845       -23.5064
 117   2.0000      -0.856242       -23.2995
 118   2.0000      -0.853331       -23.2203
 119   2.0000      -0.846591       -23.0369
 120   2.0000      -0.845762       -23.0144
 121   2.0000      -0.834538       -22.7089
 122   2.0000      -0.830457       -22.5979
 123   2.0000      -0.821047       -22.3418
 124   2.0000      -0.816258       -22.2115
 125   2.0000      -0.812858       -22.1190
 126   2.0000      -0.803796       -21.8724
 127   2.0000      -0.792913       -21.5762
 128   2.0000      -0.789975       -21.4963
 129   2.0000      -0.778865       -21.1940
 130   2.0000      -0.770244       -20.9594
 131   2.0000      -0.765790       -20.8382
 132   2.0000      -0.753620       -20.5070
 133   2.0000      -0.739382       -20.1196
 134   2.0000      -0.732104       -19.9216
 135   2.0000      -0.715639       -19.4735
 136   2.0000      -0.712847       -19.3976
 137   2.0000      -0.709207       -19.2985
 138   2.0000      -0.707675       -19.2568
 139   2.0000      -0.705179       -19.1889
 140   2.0000      -0.697302       -18.9746
 141   2.0000      -0.692675       -18.8487
 142   2.0000      -0.684742       -18.6328
 143   2.0000      -0.678923       -18.4744
 144   2.0000      -0.669702       -18.2235
 145   2.0000      -0.663851       -18.0643
 146   2.0000      -0.663752       -18.0616
 147   2.0000      -0.659670       -17.9505
 148   2.0000      -0.657781       -17.8991
 149   2.0000      -0.651433       -17.7264
 150   2.0000      -0.645983       -17.5781
 151   2.0000      -0.644389       -17.5347
 152   2.0000      -0.642935       -17.4952
 153   2.0000      -0.639133       -17.3917
 154   2.0000      -0.637668       -17.3518
 155   2.0000      -0.628928       -17.1140
 156   2.0000      -0.622055       -16.9270
 157   2.0000      -0.612850       -16.6765
 158   2.0000      -0.607012       -16.5176
 159   2.0000      -0.605397       -16.4737
 160   2.0000      -0.600621       -16.3437
 161   2.0000      -0.587993       -16.0001
 162   2.0000      -0.586803       -15.9677
 163   2.0000      -0.582612       -15.8537
 164   2.0000      -0.579557       -15.7706
 165   2.0000      -0.578091       -15.7306
 166   2.0000      -0.575683       -15.6651
 167   2.0000      -0.575280       -15.6542
 168   2.0000      -0.572610       -15.5815
 169   2.0000      -0.568819       -15.4783
 170   2.0000      -0.564872       -15.3710
 171   2.0000      -0.564129       -15.3507
 172   2.0000      -0.559073       -15.2131
 173   2.0000      -0.558465       -15.1966
 174   2.0000      -0.555837       -15.1251
 175   2.0000      -0.549006       -14.9392
 176   2.0000      -0.545934       -14.8556
 177   2.0000      -0.541942       -14.7470
 178   2.0000      -0.537478       -14.6255
 179   2.0000      -0.536286       -14.5931
 180   2.0000      -0.531654       -14.4670
 181   2.0000      -0.529623       -14.4118
 182   2.0000      -0.527181       -14.3453
 183   2.0000      -0.523490       -14.2449
 184   2.0000      -0.522146       -14.2083
 185   2.0000      -0.519323       -14.1315
 186   2.0000      -0.517963       -14.0945
 187   2.0000      -0.516946       -14.0668
 188   2.0000      -0.512712       -13.9516
 189   2.0000      -0.506955       -13.7949
 190   2.0000      -0.504528       -13.7289
 191   2.0000      -0.503145       -13.6913
 192   2.0000      -0.501524       -13.6472
 193   2.0000      -0.499177       -13.5833
 194   2.0000      -0.496840       -13.5197
 195   2.0000      -0.495823       -13.4920
 196   2.0000      -0.493587       -13.4312
 197   2.0000      -0.492067       -13.3898
 198   2.0000      -0.489426       -13.3180
 199   2.0000      -0.485568       -13.2130
 200   2.0000      -0.482492       -13.1293
 201   2.0000      -0.480991       -13.0884
 202   2.0000      -0.479427       -13.0459
 203   2.0000      -0.475380       -12.9357
 204   2.0000      -0.473878       -12.8949
 205   2.0000      -0.470292       -12.7973
 206   2.0000      -0.465889       -12.6775
 207   2.0000      -0.465085       -12.6556
 208   2.0000      -0.463154       -12.6031
 209   2.0000      -0.459804       -12.5119
 210   2.0000      -0.459415       -12.5013
 211   2.0000      -0.457877       -12.4595
 212   2.0000      -0.456399       -12.4193
 213   2.0000      -0.455219       -12.3871
 214   2.0000      -0.451502       -12.2860
 215   2.0000      -0.450604       -12.2616
 216   2.0000      -0.448111       -12.1937
 217   2.0000      -0.447091       -12.1660
 218   2.0000      -0.446200       -12.1417
 219   2.0000      -0.445778       -12.1302
 220   2.0000      -0.441457       -12.0127
 221   2.0000      -0.440479       -11.9860
 222   2.0000      -0.438605       -11.9351
 223   2.0000      -0.435425       -11.8485
 224   2.0000      -0.434615       -11.8265
 225   2.0000      -0.434158       -11.8140
 226   2.0000      -0.431721       -11.7477
 227   2.0000      -0.430462       -11.7135
 228   2.0000      -0.429015       -11.6741
 229   2.0000      -0.428482       -11.6596
 230   2.0000      -0.427493       -11.6327
 231   2.0000      -0.425999       -11.5920
 232   2.0000      -0.424621       -11.5545
 233   2.0000      -0.423658       -11.5283
 234   2.0000      -0.422310       -11.4916
 235   2.0000      -0.418473       -11.3872
 236   2.0000      -0.417479       -11.3602
 237   2.0000      -0.413706       -11.2575
 238   2.0000      -0.412676       -11.2295
 239   2.0000      -0.411887       -11.2080
 240   2.0000      -0.409907       -11.1541
 241   2.0000      -0.408264       -11.1094
 242   2.0000      -0.407883       -11.0991
 243   2.0000      -0.405051       -11.0220
 244   2.0000      -0.399394       -10.8681
 245   2.0000      -0.397703       -10.8220
 246   2.0000      -0.395274       -10.7560
 247   2.0000      -0.393518       -10.7082
 248   2.0000      -0.390493       -10.6258
 249   2.0000      -0.385970       -10.5028
 250   2.0000      -0.381802       -10.3894
 251   2.0000      -0.380020       -10.3409
 252   2.0000      -0.377019       -10.2592
 253   2.0000      -0.375784       -10.2256
 254   2.0000      -0.373397       -10.1607
 255   2.0000      -0.367040        -9.9877
 256   2.0000      -0.363193        -9.8830
 257   2.0000      -0.351660        -9.5692
 258   2.0000      -0.350138        -9.5277
 259   2.0000      -0.339937        -9.2502
 260   2.0000      -0.330484        -8.9929
 261   2.0000      -0.319115        -8.6836
 262   2.0000      -0.316636        -8.6161
 263   2.0000      -0.314630        -8.5615
 264   2.0000      -0.304301        -8.2804
 265   2.0000      -0.294130        -8.0037
 266   2.0000      -0.289862        -7.8875
 267   2.0000      -0.288864        -7.8604
 268   2.0000      -0.278600        -7.5811
 269   2.0000      -0.267624        -7.2824
 270   2.0000      -0.265648        -7.2286
 271   2.0000      -0.248731        -6.7683
 272   2.0000      -0.197782        -5.3819
 273   0.0000      -0.091789        -2.4977
 274   0.0000      -0.083616        -2.2753
 275   0.0000      -0.064251        -1.7484
 276   0.0000      -0.061856        -1.6832
 277   0.0000      -0.044084        -1.1996

MULLIKEN ATOMIC CHARGES
-----------------------
   0 C :   -0.038963
   1 C :    0.043611
   2 C :    0.041835
   3 C :   -0.040456
   4 C :    0.006077
   5 C :    0.006421
   6 C :    0.295315
   7 C :   -0.312623
   8 C :   -0.202698
   9 N :    0.147631
  10 C :   -0.184462
  11 N :    0.168299
  12 C :   -0.026083
  13 C :    0.271239
  14 C :   -0.334263
  15 C :   -0.209978
  16 N :    0.174688
  17 C :   -0.200784
  18 N :    0.142402
  19 C :   -0.081937
  20 C :    0.087232
  21 C :   -0.015984
  22 O :   -0.274568
  23 C :    0.171374
  24 S :    0.031189
  25 C :   -0.017732
  26 O :   -0.284530
  27 C :    0.171737
  28 C :    0.108750
  29 C :    0.054526
  30 C :   -0.143538
  31 C :    0.072159
  32 C :   -0.030640
  33 C :   -0.015795
  34 C :    0.118528
  35 N :   -0.220995
  36 C :    0.117307
  37 N :   -0.227607
  38 C :    0.125950
  39 C :   -0.142418
  40 C :    0.144881
  41 C :   -0.037337
  42 C :    0.019662
  43 C :    0.017209
  44 C :    0.049114
  45 C :   -0.003435
  46 C :    0.005427
  47 C :   -0.040426
  48 C :   -0.043955
  49 C :    0.060795
  50 C :    0.013132
  51 O :   -0.272962
  52 C :    0.165481
  53 S :    0.052324
  54 C :   -0.027945
  55 O :   -0.263373
  56 C :    0.167057
  57 C :    0.118416
  58 C :   -0.028027
  59 C :   -0.024046
  60 C :    0.296540
  61 C :   -0.361626
  62 C :   -0.182220
  63 N :    0.167311
  64 C :   -0.147847
  65 N :    0.122588
  66 C :    0.000147
  67 C :    0.001973
  68 C :   -0.038615
  69 C :    0.050814
  70 C :    0.041384
  71 C :   -0.028957
  72 C :    0.291575
  73 C :   -0.351438
  74 C :   -0.191772
  75 N :    0.148343
  76 C :   -0.217537
  77 N :    0.175954
  78 H :   -0.001840
  79 H :   -0.004322
  80 H :   -0.003239
  81 H :   -0.003270
  82 H :    0.053859
  83 H :    0.057564
  84 H :    0.045684
  85 H :    0.035689
  86 H :    0.039806
  87 H :    0.047049
  88 H :    0.027953
  89 H :   -0.003915
  90 H :   -0.025241
  91 H :   -0.025335
  92 H :    0.007982
  93 H :    0.082038
  94 H :    0.099133
  95 H :    0.013898
  96 H :   -0.027091
  97 H :    0.089897
  98 H :    0.098458
  99 H :   -0.021922
 100 H :    0.028839
 101 H :   -0.021830
 102 H :   -0.041297
 103 H :   -0.046481
 104 H :   -0.027717
 105 H :    0.030113
 106 H :    0.008702
 107 H :    0.054848
 108 H :    0.031992
 109 H :    0.039141
 110 H :    0.051215
 111 H :    0.043922
 112 H :    0.063619
 113 H :   -0.004784
 114 H :    0.001052
 115 H :    0.001944
 116 H :    0.002546
 117 H :    0.002517
Sum of atomic charges:   -0.0000000

LOEWDIN ATOMIC CHARGES
----------------------
   0 C :   -0.000574
   1 C :   -0.006292
   2 C :   -0.004669
   3 C :   -0.005180
   4 C :   -0.009715
   5 C :   -0.010484
   6 C :    0.072780
   7 C :   -0.115166
   8 C :   -0.008671
   9 N :   -0.070231
  10 C :   -0.015931
  11 N :   -0.039350
  12 C :   -0.064274
  13 C :    0.070818
  14 C :   -0.140615
  15 C :   -0.019842
  16 N :   -0.053428
  17 C :   -0.019255
  18 N :   -0.066201
  19 C :    0.066620
  20 C :   -0.097432
  21 C :   -0.085402
  22 O :   -0.067206
  23 C :    0.071622
  24 S :    0.399506
  25 C :   -0.103776
  26 O :   -0.095120
  27 C :    0.071986
  28 C :   -0.067981
  29 C :   -0.020075
  30 C :   -0.011626
  31 C :   -0.013726
  32 C :   -0.030014
  33 C :   -0.037586
  34 C :    0.025303
  35 N :   -0.120147
  36 C :    0.022960
  37 N :   -0.103181
  38 C :   -0.007040
  39 C :    0.059818
  40 C :   -0.026433
  41 C :   -0.037799
  42 C :   -0.013806
  43 C :   -0.029058
  44 C :   -0.025389
  45 C :   -0.007358
  46 C :   -0.026588
  47 C :    0.003339
  48 C :   -0.037581
  49 C :   -0.082534
  50 C :   -0.094917
  51 O :   -0.090215
  52 C :    0.070385
  53 S :    0.415148
  54 C :   -0.069025
  55 O :   -0.050815
  56 C :    0.074083
  57 C :   -0.094269
  58 C :    0.074925
  59 C :   -0.070937
  60 C :    0.086441
  61 C :   -0.142990
  62 C :   -0.020746
  63 N :   -0.039980
  64 C :   -0.002409
  65 N :   -0.057776
  66 C :   -0.020037
  67 C :   -0.006169
  68 C :   -0.004517
  69 C :    0.004429
  70 C :   -0.004296
  71 C :    0.005221
  72 C :    0.064889
  73 C :   -0.140764
  74 C :   -0.021869
  75 N :   -0.059210
  76 C :   -0.020483
  77 N :   -0.053397
  78 H :    0.038612
  79 H :    0.033923
  80 H :    0.033982
  81 H :    0.037887
  82 H :    0.052163
  83 H :    0.036689
  84 H :    0.022067
  85 H :    0.017193
  86 H :    0.021352
  87 H :    0.032686
  88 H :    0.010432
  89 H :    0.028631
  90 H :    0.026399
  91 H :   -0.007167
  92 H :    0.024575
  93 H :    0.044297
  94 H :    0.047661
  95 H :    0.018509
  96 H :   -0.009021
  97 H :    0.047711
  98 H :    0.053913
  99 H :    0.022256
 100 H :    0.056006
 101 H :    0.021411
 102 H :    0.027743
 103 H :    0.023887
 104 H :    0.024179
 105 H :    0.027407
 106 H :    0.031126
 107 H :    0.036338
 108 H :    0.013742
 109 H :    0.019470
 110 H :    0.024677
 111 H :    0.021474
 112 H :    0.039503
 113 H :    0.046559
 114 H :    0.039355
 115 H :    0.036688
 116 H :    0.036766
 117 H :    0.040198

  Mayer bond orders larger than 0.100000
B(  0-C ,  1-C ) :   1.3696 B(  0-C ,  5-C ) :   1.3822 B(  0-C , 78-H ) :   0.9833
B(  1-C ,  2-C ) :   1.3757 B(  1-C , 79-H ) :   0.9860 B(  2-C ,  3-C ) :   1.3677
B(  2-C , 80-H ) :   0.9868 B(  3-C ,  4-C ) :   1.3776 B(  3-C , 81-H ) :   0.9843
B(  4-C ,  5-C ) :   1.3124 B(  4-C , 13-C ) :   1.0151 B(  5-C ,  6-C ) :   0.9933
B(  6-C ,  7-C ) :   1.6642 B(  6-C , 12-C ) :   1.0376 B(  7-C ,  8-C ) :   1.1526
B(  7-C , 10-C ) :   1.1495 B(  8-C ,  9-N ) :   2.9546 B( 10-C , 11-N ) :   2.9103
B( 12-C , 13-C ) :   1.0467 B( 12-C , 19-C ) :   1.6086 B( 13-C , 14-C ) :   1.6064
B( 14-C , 15-C ) :   1.1798 B( 14-C , 17-C ) :   1.1454 B( 15-C , 16-N ) :   2.9821
B( 17-C , 18-N ) :   2.9806 B( 19-C , 20-C ) :   1.1189 B( 19-C , 82-H ) :   0.9115
B( 20-C , 21-C ) :   1.4260 B( 20-C , 28-C ) :   1.1897 B( 21-C , 22-O ) :   1.1811
B( 21-C , 24-S ) :   1.1081 B( 22-O , 23-C ) :   0.9274 B( 23-C , 83-H ) :   0.9797
B( 23-C , 84-H ) :   0.9662 B( 23-C , 85-H ) :   0.9650 B( 24-S , 25-C ) :   1.0209
B( 25-C , 26-O ) :   1.1575 B( 25-C , 28-C ) :   1.5790 B( 26-O , 27-C ) :   0.9437
B( 27-C , 86-H ) :   0.9688 B( 27-C , 87-H ) :   0.9819 B( 27-C , 88-H ) :   0.9646
B( 28-C , 29-C ) :   0.9844 B( 29-C , 30-C ) :   1.5442 B( 29-C , 46-C ) :   1.1537
B( 30-C , 31-C ) :   1.1248 B( 30-C , 89-H ) :   0.9772 B( 31-C , 32-C ) :   1.5173
B( 31-C , 44-C ) :   1.1264 B( 32-C , 33-C ) :   1.0417 B( 32-C , 38-C ) :   1.0804
B( 33-C , 34-C ) :   1.0468 B( 33-C , 36-C ) :   1.0120 B( 33-C , 90-H ) :   0.8737
B( 34-C , 35-N ) :   1.1104 B( 34-C , 91-H ) :   0.9336 B( 34-C , 92-H ) :   0.9431
B( 35-N , 93-H ) :   0.9619 B( 35-N , 94-H ) :   0.9639 B( 36-C , 37-N ) :   1.0915
B( 36-C , 95-H ) :   0.9425 B( 36-C , 96-H ) :   0.9242 B( 37-N , 97-H ) :   0.9553
B( 37-N , 98-H ) :   0.9500 B( 38-C , 39-C ) :   1.6487 B( 38-C , 43-C ) :   1.0533
B( 39-C , 40-C ) :   0.9530 B( 39-C , 99-H ) :   0.9721 B( 40-C , 41-C ) :   0.9914
B( 40-C , 47-C ) :   0.9706 B( 40-C ,100-H ) :   0.8657 B( 41-C , 42-C ) :   1.7007
B( 41-C ,101-H ) :   0.9737 B( 42-C , 43-C ) :   1.1359 B( 42-C ,102-H ) :   0.9867
B( 43-C , 44-C ) :   1.4279 B( 44-C , 45-C ) :   1.1452 B( 45-C , 46-C ) :   1.5901
B( 45-C ,103-H ) :   0.9894 B( 46-C ,104-H ) :   0.9848 B( 47-C , 48-C ) :   1.8469
B( 47-C ,105-H ) :   0.9520 B( 48-C , 49-C ) :   0.9930 B( 48-C ,106-H ) :   0.9663
B( 49-C , 50-C ) :   1.6047 B( 49-C , 57-C ) :   1.1765 B( 50-C , 51-O ) :   1.1868
B( 50-C , 53-S ) :   1.0159 B( 51-O , 52-C ) :   0.9423 B( 52-C ,107-H ) :   0.9818
B( 52-C ,108-H ) :   0.9652 B( 52-C ,109-H ) :   0.9681 B( 53-S , 54-C ) :   1.1283
B( 54-C , 55-O ) :   1.2050 B( 54-C , 57-C ) :   1.3481 B( 55-O , 56-C ) :   0.9155
B( 56-C ,110-H ) :   0.9657 B( 56-C ,111-H ) :   0.9661 B( 56-C ,112-H ) :   0.9792
B( 57-C , 58-C ) :   1.2407 B( 58-C , 59-C ) :   1.4924 B( 58-C ,113-H ) :   0.9145
B( 59-C , 60-C ) :   1.0890 B( 59-C , 72-C ) :   1.0729 B( 60-C , 61-C ) :   1.5895
B( 60-C , 66-C ) :   1.0026 B( 61-C , 62-C ) :   1.1593 B( 61-C , 64-C ) :   1.1647
B( 62-C , 63-N ) :   2.8968 B( 64-C , 65-N ) :   2.8795 B( 66-C , 67-C ) :   1.3140
B( 66-C , 71-C ) :   1.3760 B( 67-C , 68-C ) :   1.3833 B( 67-C , 72-C ) :   1.0051
B( 68-C , 69-C ) :   1.3631 B( 68-C ,114-H ) :   0.9848 B( 69-C , 70-C ) :   1.3788
B( 69-C ,115-H ) :   0.9861 B( 70-C , 71-C ) :   1.3715 B( 70-C ,116-H ) :   0.9863
B( 71-C ,117-H ) :   0.9839 B( 72-C , 73-C ) :   1.5835 B( 73-C , 74-C ) :   1.1479
B( 73-C , 76-C ) :   1.1825 B( 74-C , 75-N ) :   2.9784 B( 76-C , 77-N ) :   2.9977

-----------------------------------------------------------------------------
         ABSORPTION SPECTRUM VIA TRANSITION ELECTRIC DIPOLE MOMENTS
-----------------------------------------------------------------------------
State   Energy  Wavelength   fosc         T2         TX        TY        TZ
        (cm-1)    (nm)                  (au**2)     (au)      (au)      (au)
-----------------------------------------------------------------------------
   0    9465.6   1056.5   0.000801062   0.02786  -0.03270   0.13818  -0.08774
   1   13012.7    768.5   0.064710643   1.63713  -1.23364  -0.26389   0.21363
   2   13346.9    749.2   0.002424938   0.05981  -0.04278  -0.21067   0.11662
   3   14272.4    700.7   0.018813225   0.43395   0.57471  -0.13925  -0.29030
   4   14646.5    682.8   0.021145805   0.47530  -0.49821   0.44317  -0.17516
   5   20477.4    488.3   0.095447880   1.53450  -0.93610  -0.13122   0.80062
   6   21136.4    473.1   0.100711612   1.56865   1.03099  -0.58768   0.40043
   7   21837.4    457.9   0.109839958   1.65590  -1.16252   0.41088  -0.36829
   8   22983.5    435.1   0.051900170   0.74341   0.12089  -0.11028  -0.84654
   9   23393.9    427.5   0.077375110   1.08887  -0.75772  -0.22583   0.68097
  10   24398.6    409.9   0.013130717   0.17717  -0.39274  -0.00502   0.15133
  11   25167.6    397.3   0.182810126   2.39130   1.35312  -0.69650  -0.27433
  12   26071.4    383.6   0.066539257   0.84021   0.64159  -0.39689   0.52063
  13   26471.4    377.8   0.080662294   1.00316   0.32102  -0.79044   0.52470
  14   26519.2    377.1   0.352317368   4.37371  -0.82923   0.13986   1.91482
  15   26848.4    372.5   0.005589697   0.06854   0.20083  -0.09939  -0.13538
  16   27205.6    367.6   0.062771981   0.75960   0.13696   0.24053  -0.82643
  17   27494.5    363.7   0.122789666   1.47025   0.00641   0.45383  -1.12439
  18   28335.1    352.9   0.034700976   0.40317   0.36210  -0.45833   0.24898
  19   29126.7    343.3   0.031880854   0.36034   0.47289   0.36958   0.01097
  20   29654.0    337.2   0.165813935   1.84083  -1.30473  -0.13745  -0.34586
  21   29803.8    335.5   0.043871534   0.48460  -0.45259   0.52852   0.02064
  22   30064.1    332.6   0.014753806   0.16156   0.15100   0.11697  -0.35366
  23   30174.1    331.4   0.075498970   0.82372   0.23260   0.19636  -0.85502
  24   30540.3    327.4   0.066113411   0.71267  -0.41762  -0.26118   0.68561
  25   31176.8    320.8   0.087167049   0.92044   0.27648   0.55546   0.73175
  26   31372.8    318.7   0.089824451   0.94258   0.54047   0.10681  -0.79941
  27   31625.7    316.2   0.050869804   0.52954   0.46868  -0.18677  -0.52439
  28   31710.3    315.4   0.436371884   4.53035  -0.85415  -0.37292   1.91356
  29   32108.9    311.4   0.044603253   0.45732  -0.55286   0.06416   0.38411
  30   32338.4    309.2   0.004824740   0.04912  -0.09748   0.06145   0.18931
  31   32616.5    306.6   0.048782164   0.49238   0.53890   0.39799  -0.20872
  32   32998.9    303.0   0.009319608   0.09298   0.09549   0.00951   0.28943
  33   33292.8    300.4   0.274869711   2.71802   0.26326   0.96572  -1.31000
  34   33388.8    299.5   0.016743108   0.16509   0.10814  -0.37568   0.11071
  35   33568.9    297.9   0.310994161   3.04994  -0.46663   0.38270   1.63882
  36   33678.1    296.9   0.014929252   0.14594  -0.37919  -0.02744  -0.03739
  37   33706.8    296.7   0.146491789   1.43077   0.02507   1.02738  -0.61208
  38   33775.2    296.1   0.199184852   1.94148  -0.81310   1.05854  -0.39979
  39   34373.2    290.9   0.016042620   0.15365   0.22890   0.21480   0.23477
  40   34572.2    289.2   0.084008309   0.79996  -0.26578  -0.04087   0.85303
  41   34821.1    287.2   0.024321694   0.22995   0.08873  -0.45925   0.10566
  42   35058.7    285.2   0.258646941   2.42878   0.93853  -0.55264  -1.11469
  43   35261.2    283.6   0.023835680   0.22254  -0.27641   0.32282   0.20474
  44   35605.8    280.9   0.080453955   0.74388   0.00634   0.65751   0.55814
  45   35932.2    278.3   0.008887784   0.08143  -0.25437  -0.12489  -0.03360
  46   36196.1    276.3   0.142007710   1.29159  -0.73511  -0.61572  -0.60999
  47   36307.0    275.4   0.293092637   2.65760   1.17866   0.54961  -0.98300
  48   36599.1    273.2   0.312686704   2.81265  -0.31519   0.02489  -1.64702
  49   36763.5    272.0   0.048996948   0.43876   0.24337   0.27564  -0.55096
  50   36996.6    270.3   0.063582457   0.56578   0.26497  -0.18875  -0.67820
  51   37551.2    266.3   0.137866407   1.20868   0.59988  -0.92093  -0.02680
  52   37784.4    264.7   0.027762080   0.24189   0.44841  -0.16712   0.11352
  53   37890.3    263.9   0.198811108   1.72738  -1.28314   0.27511  -0.07247
  54   38034.2    262.9   0.092495530   0.80061   0.87460  -0.18823   0.01597
  55   38376.5    260.6   0.019791135   0.16978  -0.10865  -0.28157   0.28052
  56   38621.4    258.9   0.072806647   0.62061   0.63740   0.31437  -0.33986
  57   38772.1    257.9   0.064939704   0.55140   0.05545  -0.14502   0.72615
  58   38838.6    257.5   0.141881659   1.20265  -0.05469  -0.29578   1.05460
  59   39180.5    255.2   0.046710111   0.39248  -0.36111   0.14155   0.49197
  60   39225.8    254.9   0.005057597   0.04245  -0.00816  -0.09166   0.18433
  61   39623.0    252.4   0.006897160   0.05731  -0.20651   0.01856   0.11964
  62   39914.4    250.5   0.102663195   0.84676  -0.00272   0.59268  -0.70391
  63   39996.4    250.0   0.240779673   1.98187  -0.86273  -0.03794   1.11181
  64   40072.6    249.5   0.077934020   0.64026   0.44717   0.14959  -0.64647

FINAL SINGLE POINT ENERGY     -4026.776337468386

DIPOLE MOMENT
-------------
                                X             Y             Z
Electronic contribution:     -4.38546       4.15370      -1.02400
Nuclear contribution   :      6.74348      -2.80181       0.73117
                        -----------------------------------------
Total Dipole Moment    :      2.35802       1.35189      -0.29283
                        -----------------------------------------
Magnitude (a.u.)       :      2.73379
Magnitude (Debye)      :      6.94875

Rotational constants in cm-1:     0.001462     0.000408     0.000373
Rotational constants in MHz :    43.840293    12.216558    11.168139

                             ****ORCA TERMINATED NORMALLY****
TOTAL RUN TIME: 0 days 0 hours 30 minutes 43 seconds 950 msec
