                         Program Version 4.2.0 -  RELEASE  -
|  1> # ORCA input file
|  2> # SCF done       -183.885886668304          0.000983711657
|  3> ! CAM-B3LYP def2-SVP def2/J RIJCOSX Grid4 TightSCF
|  4> %maxcore 5000
|  5> %tddft
|  6>     Mode sTDDFT
|  7>     Ethresh 5.0
|  8>     maxcore 5000
|  9> end
| 10>
| 11> %pal
| 12>   nprocs 6
| 13>   end
| 14> * xyz 0 1
| 15>    C        1.61284       -14.97590         1.20794
| 16>    C        1.30947       -16.04445         0.37575
| 17>    C        0.27456       -15.96546        -0.54412
| 18>    C       -0.48552       -14.81063        -0.66527
| 19>    C       -0.19471       -13.74155         0.16306
| 20>    C        0.85418       -13.82156         1.10736
| 21>    C        0.92126       -12.56307         1.84236
| 22>    C        1.90325       -12.19746         2.72798
| 23>    C        2.99077       -13.02040         3.08651
| 24>    N        3.89572       -13.63861         3.42829
| 25>    C        1.99924       -10.93980         3.35641
| 26>    N        2.14291        -9.92921         3.88504
| 27>    C       -0.23860       -11.78363         1.43858
| 28>    C       -0.78154       -12.41298         0.24929
| 29>    C       -1.46072       -11.76529        -0.75214
| 30>    C       -1.67335       -10.37154        -0.74355
| 31>    N       -1.80006        -9.23045        -0.77466
| 32>    C       -1.90921       -12.39257        -1.92983
| 33>    N       -2.31042       -12.86519        -2.89615
| 34>    C       -0.73921       -10.72637         2.15860
| 35>    C       -2.03493       -10.16836         2.17496
| 36>    C       -2.23644        -8.95453         2.81343
| 37>    C       -3.44784        -8.29738         2.92913
| 38>    C       -4.69515        -8.93574         2.48777
| 39>    C       -4.75293       -10.13713         1.87389
| 40>    S       -3.38132       -11.09435         1.50752
| 41>    C       -5.73545        -8.05046         2.88056
| 42>    C       -5.18659        -6.93774         3.52522
| 43>    C       -6.17828        -6.01933         3.93874
| 44>    C       -7.42272        -6.45030         3.60959
| 45>    S       -7.44628        -7.97655         2.78586
| 46>    C       -3.75692        -7.05525         3.54013
| 47>    C       -2.90065        -6.07193         4.08268
| 48>    C       -1.57525        -5.90966         3.81334
| 49>    C       -0.76326        -4.93631         4.43487
| 50>    O       -1.25636        -4.13384         5.41162
| 51>    C       -0.25009        -3.33069         5.83023
| 52>    C        0.90356        -3.61289         5.11240
| 53>    C        0.58649        -4.63729         4.21787
| 54>    C        1.50310        -5.27889         3.24241
| 55>    C       -0.52811        -2.38824         6.85811
| 56>    C        0.43772        -1.58946         7.43302
| 57>    C        0.18484        -0.65019         8.42528
| 58>    C       -1.17264        -0.41053         8.91439
| 59>    C       -2.26356        -1.09526         8.50041
| 60>    S       -2.21599        -2.33826         7.32280
| 61>    C       -1.05458         0.65295         9.85099
| 62>    C        0.27437         1.07161         9.94276
| 63>    C        0.42454         2.11480        10.88384
| 64>    C       -0.76164         2.45385        11.45467
| 65>    S       -2.10629         1.52869        10.88723
| 66>    C        1.07474         0.25533         9.06006
| 67>    C        2.45241         0.30248         8.81312
| 68>    C        3.31343         1.29417         9.21453
| 69>    C        4.69905         1.34489         9.01502
| 70>    C        5.53879         0.58024         8.22367
| 71>    C        6.95869         0.42558         8.49930
| 72>    C        7.74768         1.19076         9.32092
| 73>    C        7.34092         2.32558        10.05247
| 74>    N        7.10690         3.26043        10.67904
| 75>    C        9.12661         0.97187         9.52057
| 76>    N       10.24975         0.85941         9.73269
| 77>    C        7.41948        -0.72559         7.72927
| 78>    C        6.36124        -1.17212         6.90812
| 79>    C        6.52395        -2.27053         6.08150
| 80>    C        7.74688        -2.92521         6.08103
| 81>    C        8.78913        -2.48499         6.88220
| 82>    C        8.63863        -1.38237         7.71127
| 83>    C        5.22734        -0.27884         7.10208
| 84>    C        4.18234        -0.13727         6.21690
| 85>    C        3.89396        -1.04849         5.18897
| 86>    N        3.55147        -1.80315         4.39101
| 87>    C        3.27850         0.94229         6.23029
| 88>    N        2.53426         1.81483         6.17420
| 89>    H        2.41997       -15.05660         1.91743
| 90>    H        1.88959       -16.95154         0.45033
| 91>    H        0.05476       -16.81271        -1.17556
| 92>    H       -1.29050       -14.75849        -1.38064
| 93>    H       -0.07351       -10.28777         2.89033
| 94>    H       -1.35640        -8.50154         3.24620
| 95>    H       -5.68193       -10.58591         1.55903
| 96>    H       -5.98570        -5.09380         4.44986
| 97>    H       -8.35869        -5.96163         3.79757
| 98>    H       -3.36598        -5.35743         4.75029
| 99>    H       -1.08004        -6.50683         3.06483
|100>    H        1.85184        -3.12137         5.19220
|101>    H        2.42943        -4.71485         3.18528
|102>    H        1.04994        -5.31743         2.25371
|103>    H        1.73354        -6.29942         3.54858
|104>    H        1.44547        -1.71494         7.06533
|105>    H       -3.25066        -0.89714         8.88687
|106>    H        1.34702         2.59799        11.14657
|107>    H       -0.93798         3.20959        12.19487
|108>    H        2.85446        -0.54637         8.27695
|109>    H        2.90434         2.10717         9.79419
|110>    H        5.20358         2.05842         9.65374
|111>    H        5.72112        -2.62605         5.45624
|112>    H        7.88473        -3.78894         5.44856
|113>    H        9.73357        -3.00711         6.86535
|114>    H        9.46068        -1.05753         8.32701
|115> *
|116>
|117>                          ****END OF INPUT****

CARTESIAN COORDINATES (ANGSTROEM)
---------------------------------
  C      1.612840  -14.975900    1.207940
  C      1.309470  -16.044450    0.375750
  C      0.274560  -15.965460   -0.544120
  C     -0.485520  -14.810630   -0.665270
  C     -0.194710  -13.741550    0.163060
  C      0.854180  -13.821560    1.107360
  C      0.921260  -12.563070    1.842360
  C      1.903250  -12.197460    2.727980
  C      2.990770  -13.020400    3.086510
  N      3.895720  -13.638610    3.428290
  C      1.999240  -10.939800    3.356410
  N      2.142910   -9.929210    3.885040
  C     -0.238600  -11.783630    1.438580
  C     -0.781540  -12.412980    0.249290
  C     -1.460720  -11.765290   -0.752140
  C     -1.673350  -10.371540   -0.743550
  N     -1.800060   -9.230450   -0.774660
  C     -1.909210  -12.392570   -1.929830
  N     -2.310420  -12.865190   -2.896150
  C     -0.739210  -10.726370    2.158600
  C     -2.034930  -10.168360    2.174960
  C     -2.236440   -8.954530    2.813430
  C     -3.447840   -8.297380    2.929130
  C     -4.695150   -8.935740    2.487770
  C     -4.752930  -10.137130    1.873890
  S     -3.381320  -11.094350    1.507520
  C     -5.735450   -8.050460    2.880560
  C     -5.186590   -6.937740    3.525220
  C     -6.178280   -6.019330    3.938740
  C     -7.422720   -6.450300    3.609590
  S     -7.446280   -7.976550    2.785860
  C     -3.756920   -7.055250    3.540130
  C     -2.900650   -6.071930    4.082680
  C     -1.575250   -5.909660    3.813340
  C     -0.763260   -4.936310    4.434870
  O     -1.256360   -4.133840    5.411620
  C     -0.250090   -3.330690    5.830230
  C      0.903560   -3.612890    5.112400
  C      0.586490   -4.637290    4.217870
  C      1.503100   -5.278890    3.242410
  C     -0.528110   -2.388240    6.858110
  C      0.437720   -1.589460    7.433020
  C      0.184840   -0.650190    8.425280
  C     -1.172640   -0.410530    8.914390
  C     -2.263560   -1.095260    8.500410
  S     -2.215990   -2.338260    7.322800
  C     -1.054580    0.652950    9.850990
  C      0.274370    1.071610    9.942760
  C      0.424540    2.114800   10.883840
  C     -0.761640    2.453850   11.454670
  S     -2.106290    1.528690   10.887230
  C      1.074740    0.255330    9.060060
  C      2.452410    0.302480    8.813120
  C      3.313430    1.294170    9.214530
  C      4.699050    1.344890    9.015020
  C      5.538790    0.580240    8.223670
  C      6.958690    0.425580    8.499300
  C      7.747680    1.190760    9.320920
  C      7.340920    2.325580   10.052470
  N      7.106900    3.260430   10.679040
  C      9.126610    0.971870    9.520570
  N     10.249750    0.859410    9.732690
  C      7.419480   -0.725590    7.729270
  C      6.361240   -1.172120    6.908120
  C      6.523950   -2.270530    6.081500
  C      7.746880   -2.925210    6.081030
  C      8.789130   -2.484990    6.882200
  C      8.638630   -1.382370    7.711270
  C      5.227340   -0.278840    7.102080
  C      4.182340   -0.137270    6.216900
  C      3.893960   -1.048490    5.188970
  N      3.551470   -1.803150    4.391010
  C      3.278500    0.942290    6.230290
  N      2.534260    1.814830    6.174200
  H      2.419970  -15.056600    1.917430
  H      1.889590  -16.951540    0.450330
  H      0.054760  -16.812710   -1.175560
  H     -1.290500  -14.758490   -1.380640
  H     -0.073510  -10.287770    2.890330
  H     -1.356400   -8.501540    3.246200
  H     -5.681930  -10.585910    1.559030
  H     -5.985700   -5.093800    4.449860
  H     -8.358690   -5.961630    3.797570
  H     -3.365980   -5.357430    4.750290
  H     -1.080040   -6.506830    3.064830
  H      1.851840   -3.121370    5.192200
  H      2.429430   -4.714850    3.185280
  H      1.049940   -5.317430    2.253710
  H      1.733540   -6.299420    3.548580
  H      1.445470   -1.714940    7.065330
  H     -3.250660   -0.897140    8.886870
  H      1.347020    2.597990   11.146570
  H     -0.937980    3.209590   12.194870
  H      2.854460   -0.546370    8.276950
  H      2.904340    2.107170    9.794190
  H      5.203580    2.058420    9.653740
  H      5.721120   -2.626050    5.456240
  H      7.884730   -3.788940    5.448560
  H      9.733570   -3.007110    6.865350
  H      9.460680   -1.057530    8.327010

 Total Charge           Charge          ....    0
 Multiplicity           Mult            ....    1
 Number of Electrons    NEL             ....  520
 Basis Dimension        Dim             .... 1182

ORBITAL ENERGIES
----------------

  NO   OCC          E(Eh)            E(eV)
   0   2.0000     -88.998444     -2421.7708
   1   2.0000     -88.984464     -2421.3904
   2   2.0000     -88.973889     -2421.1026
   3   2.0000     -88.967638     -2420.9325
   4   2.0000     -19.309176      -525.4294
   5   2.0000     -14.426294      -392.5594
   6   2.0000     -14.422758      -392.4632
   7   2.0000     -14.420433      -392.3999
   8   2.0000     -14.418950      -392.3596
   9   2.0000     -14.417539      -392.3212
  10   2.0000     -14.412009      -392.1707
  11   2.0000     -14.410014      -392.1164
  12   2.0000     -14.407099      -392.0371
  13   2.0000     -10.355371      -281.7840
  14   2.0000     -10.350984      -281.6646
  15   2.0000     -10.349247      -281.6173
  16   2.0000     -10.348952      -281.6093
  17   2.0000     -10.348322      -281.5922
  18   2.0000     -10.344222      -281.4806
  19   2.0000     -10.343988      -281.4742
  20   2.0000     -10.343911      -281.4721
  21   2.0000     -10.342048      -281.4214
  22   2.0000     -10.338113      -281.3143
  23   2.0000     -10.337219      -281.2900
  24   2.0000     -10.335227      -281.2358
  25   2.0000     -10.334600      -281.2188
  26   2.0000     -10.334531      -281.2169
  27   2.0000     -10.329206      -281.0720
  28   2.0000     -10.328706      -281.0584
  29   2.0000     -10.328305      -281.0475
  30   2.0000     -10.323080      -280.9053
  31   2.0000     -10.322690      -280.8947
  32   2.0000     -10.322104      -280.8787
  33   2.0000     -10.320181      -280.8264
  34   2.0000     -10.316570      -280.7282
  35   2.0000     -10.315216      -280.6913
  36   2.0000     -10.315176      -280.6902
  37   2.0000     -10.314292      -280.6661
  38   2.0000     -10.313435      -280.6428
  39   2.0000     -10.313066      -280.6328
  40   2.0000     -10.312441      -280.6158
  41   2.0000     -10.311773      -280.5976
  42   2.0000     -10.311666      -280.5947
  43   2.0000     -10.311464      -280.5892
  44   2.0000     -10.310756      -280.5699
  45   2.0000     -10.309912      -280.5470
  46   2.0000     -10.309517      -280.5362
  47   2.0000     -10.307000      -280.4677
  48   2.0000     -10.306163      -280.4450
  49   2.0000     -10.305882      -280.4373
  50   2.0000     -10.302489      -280.3450
  51   2.0000     -10.302408      -280.3428
  52   2.0000     -10.301878      -280.3283
  53   2.0000     -10.300758      -280.2979
  54   2.0000     -10.300427      -280.2889
  55   2.0000     -10.300085      -280.2796
  56   2.0000     -10.299543      -280.2648
  57   2.0000     -10.299238      -280.2565
  58   2.0000     -10.297956      -280.2216
  59   2.0000     -10.297873      -280.2194
  60   2.0000     -10.296292      -280.1764
  61   2.0000     -10.294447      -280.1261
  62   2.0000     -10.293008      -280.0870
  63   2.0000     -10.291800      -280.0541
  64   2.0000     -10.291306      -280.0407
  65   2.0000     -10.291088      -280.0347
  66   2.0000     -10.290904      -280.0297
  67   2.0000     -10.290015      -280.0056
  68   2.0000     -10.289827      -280.0004
  69   2.0000     -10.288219      -279.9567
  70   2.0000     -10.286065      -279.8981
  71   2.0000     -10.284093      -279.8444
  72   2.0000     -10.280117      -279.7362
  73   2.0000     -10.274077      -279.5718
  74   2.0000      -8.093384      -220.2322
  75   2.0000      -8.079359      -219.8505
  76   2.0000      -8.069431      -219.5804
  77   2.0000      -8.063089      -219.4078
  78   2.0000      -6.062814      -164.9776
  79   2.0000      -6.058155      -164.8508
  80   2.0000      -6.055661      -164.7829
  81   2.0000      -6.049005      -164.6018
  82   2.0000      -6.044433      -164.4774
  83   2.0000      -6.041065      -164.3857
  84   2.0000      -6.038872      -164.3260
  85   2.0000      -6.034567      -164.2089
  86   2.0000      -6.032511      -164.1530
  87   2.0000      -6.031452      -164.1242
  88   2.0000      -6.028231      -164.0365
  89   2.0000      -6.025185      -163.9536
  90   2.0000      -1.227548       -33.4033
  91   2.0000      -1.036739       -28.2111
  92   2.0000      -1.026071       -27.9208
  93   2.0000      -1.023492       -27.8506
  94   2.0000      -1.022538       -27.8247
  95   2.0000      -1.018379       -27.7115
  96   2.0000      -1.012018       -27.5384
  97   2.0000      -1.007198       -27.4073
  98   2.0000      -1.000277       -27.2189
  99   2.0000      -0.999488       -27.1974
 100   2.0000      -0.998344       -27.1663
 101   2.0000      -0.994267       -27.0554
 102   2.0000      -0.990207       -26.9449
 103   2.0000      -0.986977       -26.8570
 104   2.0000      -0.986860       -26.8538
 105   2.0000      -0.959089       -26.0981
 106   2.0000      -0.950946       -25.8766
 107   2.0000      -0.947594       -25.7853
 108   2.0000      -0.944087       -25.6899
 109   2.0000      -0.939108       -25.5544
 110   2.0000      -0.929751       -25.2998
 111   2.0000      -0.928796       -25.2738
 112   2.0000      -0.926195       -25.2030
 113   2.0000      -0.918348       -24.9895
 114   2.0000      -0.908010       -24.7082
 115   2.0000      -0.898387       -24.4463
 116   2.0000      -0.893486       -24.3130
 117   2.0000      -0.884756       -24.0754
 118   2.0000      -0.871561       -23.7164
 119   2.0000      -0.867748       -23.6126
 120   2.0000      -0.866153       -23.5692
 121   2.0000      -0.865491       -23.5512
 122   2.0000      -0.857171       -23.3248
 123   2.0000      -0.848896       -23.0996
 124   2.0000      -0.839420       -22.8418
 125   2.0000      -0.824907       -22.4469
 126   2.0000      -0.820533       -22.3278
 127   2.0000      -0.811043       -22.0696
 128   2.0000      -0.806156       -21.9366
 129   2.0000      -0.795209       -21.6387
 130   2.0000      -0.790054       -21.4985
 131   2.0000      -0.782349       -21.2888
 132   2.0000      -0.779777       -21.2188
 133   2.0000      -0.768850       -20.9215
 134   2.0000      -0.754183       -20.5224
 135   2.0000      -0.736061       -20.0292
 136   2.0000      -0.731543       -19.9063
 137   2.0000      -0.721726       -19.6392
 138   2.0000      -0.714821       -19.4513
 139   2.0000      -0.711803       -19.3691
 140   2.0000      -0.708787       -19.2871
 141   2.0000      -0.703989       -19.1565
 142   2.0000      -0.703537       -19.1442
 143   2.0000      -0.696684       -18.9577
 144   2.0000      -0.686904       -18.6916
 145   2.0000      -0.676120       -18.3982
 146   2.0000      -0.666751       -18.1432
 147   2.0000      -0.666497       -18.1363
 148   2.0000      -0.663701       -18.0602
 149   2.0000      -0.662423       -18.0254
 150   2.0000      -0.660803       -17.9814
 151   2.0000      -0.654681       -17.8148
 152   2.0000      -0.654160       -17.8006
 153   2.0000      -0.641344       -17.4519
 154   2.0000      -0.639613       -17.4048
 155   2.0000      -0.636837       -17.3292
 156   2.0000      -0.627070       -17.0634
 157   2.0000      -0.622954       -16.9514
 158   2.0000      -0.616334       -16.7713
 159   2.0000      -0.610734       -16.6189
 160   2.0000      -0.596522       -16.2322
 161   2.0000      -0.592074       -16.1111
 162   2.0000      -0.589434       -16.0393
 163   2.0000      -0.584929       -15.9167
 164   2.0000      -0.582873       -15.8608
 165   2.0000      -0.578947       -15.7539
 166   2.0000      -0.575179       -15.6514
 167   2.0000      -0.574720       -15.6389
 168   2.0000      -0.574215       -15.6252
 169   2.0000      -0.569338       -15.4925
 170   2.0000      -0.560200       -15.2438
 171   2.0000      -0.555016       -15.1027
 172   2.0000      -0.553324       -15.0567
 173   2.0000      -0.546750       -14.8778
 174   2.0000      -0.541639       -14.7388
 175   2.0000      -0.537477       -14.6255
 176   2.0000      -0.537247       -14.6192
 177   2.0000      -0.536443       -14.5974
 178   2.0000      -0.532759       -14.4971
 179   2.0000      -0.531781       -14.4705
 180   2.0000      -0.529084       -14.3971
 181   2.0000      -0.528704       -14.3868
 182   2.0000      -0.526806       -14.3351
 183   2.0000      -0.525249       -14.2927
 184   2.0000      -0.523950       -14.2574
 185   2.0000      -0.516437       -14.0530
 186   2.0000      -0.514508       -14.0005
 187   2.0000      -0.510862       -13.9013
 188   2.0000      -0.507703       -13.8153
 189   2.0000      -0.505433       -13.7535
 190   2.0000      -0.504681       -13.7331
 191   2.0000      -0.501689       -13.6516
 192   2.0000      -0.498173       -13.5560
 193   2.0000      -0.493376       -13.4255
 194   2.0000      -0.491903       -13.3853
 195   2.0000      -0.491091       -13.3633
 196   2.0000      -0.483058       -13.1447
 197   2.0000      -0.480120       -13.0647
 198   2.0000      -0.478332       -13.0161
 199   2.0000      -0.477580       -12.9956
 200   2.0000      -0.475325       -12.9342
 201   2.0000      -0.472620       -12.8606
 202   2.0000      -0.465796       -12.6749
 203   2.0000      -0.463853       -12.6221
 204   2.0000      -0.463224       -12.6050
 205   2.0000      -0.462399       -12.5825
 206   2.0000      -0.459271       -12.4974
 207   2.0000      -0.458211       -12.4686
 208   2.0000      -0.456920       -12.4334
 209   2.0000      -0.453598       -12.3430
 210   2.0000      -0.452432       -12.3113
 211   2.0000      -0.451475       -12.2853
 212   2.0000      -0.449531       -12.2324
 213   2.0000      -0.449123       -12.2212
 214   2.0000      -0.447170       -12.1681
 215   2.0000      -0.447002       -12.1635
 216   2.0000      -0.446303       -12.1445
 217   2.0000      -0.443462       -12.0672
 218   2.0000      -0.442145       -12.0314
 219   2.0000      -0.441838       -12.0230
 220   2.0000      -0.441185       -12.0052
 221   2.0000      -0.440665       -11.9911
 222   2.0000      -0.437757       -11.9120
 223   2.0000      -0.436050       -11.8655
 224   2.0000      -0.435875       -11.8608
 225   2.0000      -0.434002       -11.8098
 226   2.0000      -0.432438       -11.7672
 227   2.0000      -0.429906       -11.6983
 228   2.0000      -0.429326       -11.6826
 229   2.0000      -0.427295       -11.6273
 230   2.0000      -0.427084       -11.6216
 231   2.0000      -0.425003       -11.5649
 232   2.0000      -0.423979       -11.5371
 233   2.0000      -0.419630       -11.4187
 234   2.0000      -0.417503       -11.3608
 235   2.0000      -0.416118       -11.3231
 236   2.0000      -0.415353       -11.3023
 237   2.0000      -0.413348       -11.2478
 238   2.0000      -0.412787       -11.2325
 239   2.0000      -0.408353       -11.1119
 240   2.0000      -0.399382       -10.8677
 241   2.0000      -0.399131       -10.8609
 242   2.0000      -0.386006       -10.5038
 243   2.0000      -0.382920       -10.4198
 244   2.0000      -0.381740       -10.3877
 245   2.0000      -0.375573       -10.2199
 246   2.0000      -0.363182        -9.8827
 247   2.0000      -0.353221        -9.6116
 248   2.0000      -0.349360        -9.5066
 249   2.0000      -0.343631        -9.3507
 250   2.0000      -0.333200        -9.0668
 251   2.0000      -0.325841        -8.8666
 252   2.0000      -0.321462        -8.7474
 253   2.0000      -0.313290        -8.5250
 254   2.0000      -0.310319        -8.4442
 255   2.0000      -0.299317        -8.1448
 256   2.0000      -0.291254        -7.9254
 257   2.0000      -0.280345        -7.6286
 258   2.0000      -0.252841        -6.8801
 259   2.0000      -0.231156        -6.2901
 260   0.0000      -0.117087        -3.1861
 261   0.0000      -0.097420        -2.6509
 262   0.0000      -0.087682        -2.3859
 263   0.0000      -0.080369        -2.1870
 264   0.0000      -0.057813        -1.5732

MULLIKEN ATOMIC CHARGES
-----------------------
   0 C :   -0.037148
   1 C :    0.045909
   2 C :    0.048840
   3 C :   -0.039489
   4 C :    0.015129
   5 C :    0.012802
   6 C :    0.295856
   7 C :   -0.347734
   8 C :   -0.187169
   9 N :    0.154507
  10 C :   -0.176566
  11 N :    0.137532
  12 C :   -0.060615
  13 C :    0.206863
  14 C :   -0.316721
  15 C :   -0.209357
  16 N :    0.171098
  17 C :   -0.181433
  18 N :    0.161758
  19 C :    0.015181
  20 C :   -0.087023
  21 C :   -0.031001
  22 C :    0.067484
  23 C :    0.060552
  24 C :   -0.107396
  25 S :    0.135969
  26 C :   -0.092244
  27 C :    0.039746
  28 C :    0.020086
  29 C :   -0.067951
  30 S :    0.146759
  31 C :    0.124000
  32 C :   -0.039765
  33 C :   -0.050526
  34 C :    0.128834
  35 O :   -0.222231
  36 C :    0.209793
  37 C :   -0.055166
  38 C :   -0.092103
  39 C :    0.112036
  40 C :   -0.073363
  41 C :   -0.052627
  42 C :    0.093217
  43 C :    0.056608
  44 C :   -0.123340
  45 S :    0.197866
  46 C :   -0.117507
  47 C :    0.069252
  48 C :   -0.003112
  49 C :   -0.064944
  50 S :    0.136723
  51 C :    0.065232
  52 C :    0.028669
  53 C :   -0.015870
  54 C :    0.048971
  55 C :   -0.076582
  56 C :    0.305375
  57 C :   -0.355031
  58 C :   -0.180222
  59 N :    0.144901
  60 C :   -0.189613
  61 N :    0.148094
  62 C :    0.008927
  63 C :    0.008934
  64 C :   -0.043740
  65 C :    0.045478
  66 C :    0.046101
  67 C :   -0.034308
  68 C :    0.247236
  69 C :   -0.391123
  70 C :   -0.119581
  71 N :    0.099897
  72 C :   -0.216320
  73 N :    0.187409
  74 H :    0.005976
  75 H :    0.002988
  76 H :    0.003889
  77 H :    0.006687
  78 H :    0.015782
  79 H :   -0.000357
  80 H :    0.041810
  81 H :   -0.012463
  82 H :    0.033256
  83 H :   -0.007048
  84 H :    0.007632
  85 H :   -0.032842
  86 H :    0.034006
  87 H :    0.035171
  88 H :    0.046344
  89 H :   -0.020694
  90 H :    0.041782
  91 H :   -0.003054
  92 H :    0.032846
  93 H :   -0.004936
  94 H :   -0.026886
  95 H :    0.010709
  96 H :   -0.005465
  97 H :    0.000210
  98 H :    0.000609
  99 H :    0.003341
Sum of atomic charges:   -0.0000000

LOEWDIN ATOMIC CHARGES
----------------------
   0 C :    0.004826
   1 C :   -0.001475
   2 C :    0.003875
   3 C :   -0.001004
   4 C :   -0.007950
   5 C :   -0.014959
   6 C :    0.083518
   7 C :   -0.143143
   8 C :   -0.020226
   9 N :   -0.050996
  10 C :   -0.015588
  11 N :   -0.061443
  12 C :   -0.076655
  13 C :    0.054740
  14 C :   -0.143177
  15 C :   -0.039002
  16 N :   -0.051595
  17 C :   -0.020692
  18 N :   -0.047997
  19 C :    0.032112
  20 C :   -0.185881
  21 C :    0.037013
  22 C :   -0.036101
  23 C :   -0.054250
  24 C :   -0.124965
  25 S :    0.478051
  26 C :   -0.179721
  27 C :   -0.046369
  28 C :   -0.056901
  29 C :   -0.159138
  30 S :    0.436742
  31 C :   -0.004331
  32 C :   -0.018538
  33 C :   -0.023438
  34 C :    0.028779
  35 O :   -0.000434
  36 C :    0.007256
  37 C :   -0.030518
  38 C :   -0.035771
  39 C :   -0.045834
  40 C :   -0.154221
  41 C :   -0.019301
  42 C :    0.024038
  43 C :   -0.044851
  44 C :   -0.142182
  45 S :    0.497744
  46 C :   -0.203112
  47 C :   -0.029601
  48 C :   -0.060773
  49 C :   -0.158500
  50 S :    0.431223
  51 C :   -0.059514
  52 C :    0.060119
  53 C :   -0.068213
  54 C :    0.061045
  55 C :   -0.087526
  56 C :    0.079574
  57 C :   -0.143844
  58 C :   -0.022696
  59 N :   -0.053967
  60 C :   -0.018744
  61 N :   -0.057615
  62 C :   -0.011644
  63 C :   -0.012801
  64 C :   -0.006251
  65 C :   -0.001297
  66 C :   -0.001509
  67 C :    0.003362
  68 C :    0.071911
  69 C :   -0.168340
  70 C :   -0.004703
  71 N :   -0.079937
  72 C :   -0.024431
  73 N :   -0.042279
  74 H :    0.041292
  75 H :    0.037105
  76 H :    0.037265
  77 H :    0.040637
  78 H :    0.048410
  79 H :    0.043961
  80 H :    0.039805
  81 H :    0.032933
  82 H :    0.026310
  83 H :    0.033095
  84 H :    0.038961
  85 H :    0.029499
  86 H :    0.044655
  87 H :    0.039920
  88 H :    0.045697
  89 H :    0.040661
  90 H :    0.038957
  91 H :    0.032898
  92 H :    0.026768
  93 H :    0.031707
  94 H :    0.032751
  95 H :    0.047299
  96 H :    0.036644
  97 H :    0.035693
  98 H :    0.036235
  99 H :    0.040859

  Mayer bond orders larger than 0.100000
B(  0-C ,  1-C ) :   1.3657 B(  0-C ,  5-C ) :   1.3863 B(  0-C , 74-H ) :   0.9851
B(  1-C ,  2-C ) :   1.3827 B(  1-C , 75-H ) :   0.9858 B(  2-C ,  3-C ) :   1.3577
B(  2-C , 76-H ) :   0.9865 B(  3-C ,  4-C ) :   1.3885 B(  3-C , 77-H ) :   0.9889
B(  4-C ,  5-C ) :   1.3128 B(  4-C , 13-C ) :   1.0125 B(  5-C ,  6-C ) :   0.9983
B(  6-C ,  7-C ) :   1.6181 B(  6-C , 12-C ) :   1.0833 B(  7-C ,  8-C ) :   1.1455
B(  7-C , 10-C ) :   1.1431 B(  8-C ,  9-N ) :   2.9767 B( 10-C , 11-N ) :   2.9678
B( 12-C , 13-C ) :   1.0373 B( 12-C , 19-C ) :   1.4902 B( 13-C , 14-C ) :   1.6292
B( 14-C , 15-C ) :   1.1467 B( 14-C , 17-C ) :   1.1499 B( 15-C , 16-N ) :   3.0262
B( 17-C , 18-N ) :   2.9956 B( 19-C , 20-C ) :   1.2437 B( 19-C , 78-H ) :   0.9365
B( 20-C , 21-C ) :   1.4064 B( 20-C , 25-S ) :   1.0331 B( 21-C , 22-C ) :   1.2698
B( 21-C , 79-H ) :   0.9786 B( 22-C , 23-C ) :   1.0458 B( 22-C , 31-C ) :   1.3176
B( 23-C , 24-C ) :   1.6021 B( 23-C , 26-C ) :   1.1841 B( 24-C , 25-S ) :   1.1527
B( 24-C , 80-H ) :   0.9416 B( 26-C , 27-C ) :   1.4130 B( 26-C , 30-S ) :   1.0971
B( 27-C , 28-C ) :   1.2138 B( 27-C , 31-C ) :   1.1290 B( 28-C , 29-C ) :   1.5994
B( 28-C , 81-H ) :   0.9976 B( 29-C , 30-S ) :   1.1421 B( 29-C , 82-H ) :   0.9664
B( 31-C , 32-C ) :   1.1565 B( 32-C , 33-C ) :   1.5745 B( 32-C , 83-H ) :   0.9712
B( 33-C , 34-C ) :   1.2095 B( 33-C , 84-H ) :   0.9515 B( 34-C , 35-O ) :   1.1247
B( 34-C , 38-C ) :   1.3785 B( 35-O , 36-C ) :   1.1429 B( 36-C , 37-C ) :   1.4130
B( 36-C , 40-C ) :   1.0979 B( 37-C , 38-C ) :   1.3019 B( 37-C , 85-H ) :   0.9913
B( 38-C , 39-C ) :   1.0987 B( 39-C , 86-H ) :   0.9453 B( 39-C , 87-H ) :   0.9426
B( 39-C , 88-H ) :   0.9426 B( 40-C , 41-C ) :   1.5044 B( 40-C , 45-S ) :   1.0915
B( 41-C , 42-C ) :   1.2947 B( 41-C , 89-H ) :   0.9671 B( 42-C , 43-C ) :   1.0768
B( 42-C , 51-C ) :   1.2768 B( 43-C , 44-C ) :   1.5881 B( 43-C , 46-C ) :   1.1748
B( 44-C , 45-S ) :   1.1460 B( 44-C , 90-H ) :   0.9396 B( 46-C , 47-C ) :   1.4558
B( 46-C , 50-S ) :   1.0816 B( 47-C , 48-C ) :   1.2224 B( 47-C , 51-C ) :   1.0644
B( 48-C , 49-C ) :   1.5834 B( 48-C , 91-H ) :   1.0006 B( 49-C , 50-S ) :   1.1596
B( 49-C , 92-H ) :   0.9650 B( 51-C , 52-C ) :   1.3266 B( 52-C , 53-C ) :   1.4325
B( 52-C , 93-H ) :   0.9345 B( 53-C , 54-C ) :   1.3456 B( 53-C , 94-H ) :   0.9622
B( 54-C , 55-C ) :   1.4277 B( 54-C , 95-H ) :   0.9242 B( 55-C , 56-C ) :   1.0990
B( 55-C , 68-C ) :   1.0868 B( 56-C , 57-C ) :   1.6036 B( 56-C , 62-C ) :   0.9836
B( 57-C , 58-C ) :   1.1373 B( 57-C , 60-C ) :   1.1520 B( 58-C , 59-N ) :   2.9643
B( 60-C , 61-N ) :   2.9706 B( 62-C , 63-C ) :   1.3180 B( 62-C , 67-C ) :   1.3911
B( 63-C , 64-C ) :   1.3831 B( 63-C , 68-C ) :   1.0131 B( 64-C , 65-C ) :   1.3588
B( 64-C , 96-H ) :   0.9865 B( 65-C , 66-C ) :   1.3866 B( 65-C , 97-H ) :   0.9866
B( 66-C , 67-C ) :   1.3595 B( 66-C , 98-H ) :   0.9863 B( 67-C , 99-H ) :   0.9836
B( 68-C , 69-C ) :   1.5601 B( 69-C , 70-C ) :   1.1519 B( 69-C , 72-C ) :   1.1689
B( 70-C , 71-N ) :   2.8613 B( 72-C , 73-N ) :   3.0078

-----------------------------------------------------------------------------
         ABSORPTION SPECTRUM VIA TRANSITION ELECTRIC DIPOLE MOMENTS
-----------------------------------------------------------------------------
State   Energy  Wavelength   fosc         T2         TX        TY        TZ
        (cm-1)    (nm)                  (au**2)     (au)      (au)      (au)
-----------------------------------------------------------------------------
   0   10468.9    955.2   0.996893926  31.34886   2.05316   4.62826   2.39011
   1   14048.9    711.8   0.554547063  12.99485  -2.97403   1.53906   1.33465
   2   17513.1    571.0   0.067194427   1.26312  -0.67484   0.32724   0.83704
   3   17688.0    565.4   0.183065183   3.40724   1.78772  -0.18486   0.42084
   4   17981.6    556.1   0.207870956   3.80576  -1.42873  -0.80182  -1.05904
   5   20056.8    498.6   0.064769487   1.06312  -0.66523  -0.35736  -0.70205
   6   21128.1    473.3   0.092677518   1.44407  -0.72242   0.52767   0.80234
   7   22475.2    444.9   0.057646819   0.84440  -0.75677  -0.32504   0.40749
   8   22647.9    441.5   0.082564355   1.20016   1.04525  -0.18756  -0.26913
   9   23376.4    427.8   0.021556914   0.30359   0.45660   0.03316  -0.30660
  10   25142.5    397.7   0.063898471   0.83668  -0.57515   0.66165   0.26096
  11   25564.3    391.2   0.046591588   0.60000  -0.55013   0.53422  -0.10936
  12   25715.8    388.9   0.093776871   1.20053   0.93651  -0.37409  -0.42840
  13   25943.5    385.5   0.015214639   0.19307  -0.32586   0.24123   0.16939
  14   26290.3    380.4   0.031670507   0.39658  -0.12459   0.60160  -0.13834
  15   26465.3    377.9   0.579988173   7.21469   1.92287   1.20784   1.43470
  16   28152.3    355.2   0.168129885   1.96610   1.03762  -0.45386   0.82671
  17   28424.3    351.8   0.097656146   1.13106  -0.90243   0.51210   0.23330
  18   29513.1    338.8   0.211263582   2.35660   1.19710   0.76647   0.57971
  19   29861.2    334.9   0.098499288   1.08593  -0.75205  -0.30689  -0.65282
  20   30314.8    329.9   0.183407905   1.99177   1.39737   0.11860   0.15827
  21   30736.3    325.3   0.030473567   0.32640  -0.06829   0.53995   0.17374
  22   30783.9    324.8   0.084076920   0.89914   0.08384  -0.67536  -0.66030
  23   30852.8    324.1   0.008709352   0.09293  -0.16383   0.14742  -0.21062
  24   31372.8    318.7   0.075861100   0.79605   0.83991  -0.14743  -0.26244
  25   31861.8    313.9   0.104646358   1.08126  -0.34580  -0.67554  -0.71087
  26   32065.6    311.9   0.067314195   0.69110   0.56017  -0.51068   0.34135
  27   32204.6    310.5   0.412657999   4.21840   1.27495  -0.06930   1.60876
  28   32267.3    309.9   0.067440638   0.68807   0.35211   0.45907   0.59442
  29   32384.8    308.8   0.247685550   2.51788   1.37279  -0.04421   0.79459
  30   32906.3    303.9   0.117359655   1.17413  -0.57780  -0.05329  -0.91511
  31   33307.7    300.2   0.121088782   1.19684   1.09258   0.03510  -0.04333
  32   33827.4    295.6   0.028182276   0.27427  -0.12539  -0.12457  -0.49299
  33   34219.0    292.2   0.235521875   2.26589   1.11987  -0.96179  -0.29453
  34   34457.9    290.2   0.018705047   0.17871  -0.20024   0.34619   0.13698
  35   34615.6    288.9   0.627760847   5.97032  -0.59571   1.97870   1.30391
  36   34791.5    287.4   0.113126054   1.07045   0.12687   0.95986   0.36471
  37   35745.3    279.8   0.065004738   0.59869   0.49590  -0.52288   0.28173
  38   35793.8    279.4   0.030995406   0.28508  -0.45245  -0.25230  -0.12928
  39   36047.0    277.4   0.008956186   0.08180   0.28355   0.01014   0.03593
  40   36501.3    274.0   0.028177504   0.25414   0.01329  -0.47515  -0.16792
  41   36580.8    273.4   0.081592372   0.73430  -0.84358   0.14823  -0.02634
  42   36807.0    271.7   0.058509561   0.52333   0.40746   0.57681   0.15683
  43   36968.8    270.5   0.022571812   0.20101  -0.13163   0.31431  -0.29135
  44   37037.2    270.0   0.007509077   0.06675   0.13221  -0.21476  -0.05606
  45   37353.1    267.7   0.074759591   0.65889  -0.42101   0.47834   0.50283
  46   37939.1    263.6   0.023074542   0.20023  -0.12047   0.36945   0.22186
  47   38184.6    261.9   0.017435594   0.15032   0.33082  -0.04543  -0.19702
  48   38592.2    259.1   0.015068617   0.12854  -0.35338   0.06012   0.00693
  49   38673.1    258.6   0.220004589   1.87283   0.41072  -0.97895  -0.86360
  50   38863.5    257.3   0.092755817   0.78573  -0.09129   0.70988   0.52294
  51   39151.7    255.4   0.101931293   0.85710   0.58469   0.71726  -0.02780
  52   39656.8    252.2   0.051041860   0.42373   0.52541  -0.18603  -0.33625
  53   39726.2    251.7   0.218496472   1.81069  -1.08288  -0.70933  -0.36731
  54   40002.3    250.0   0.143897675   1.18425   0.05987   0.71159   0.82117
  55   40072.0    249.6   0.037948666   0.31177   0.44279  -0.33328   0.06804

FINAL SINGLE POINT ENERGY     -4441.733574437029

DIPOLE MOMENT
-------------
                                X             Y             Z
Electronic contribution:    -15.27274      -0.25165      -0.20146
Nuclear contribution   :     10.54511      -2.38386       0.79357
                        -----------------------------------------
Total Dipole Moment    :     -4.72763      -2.63551       0.59211
                        -----------------------------------------
Magnitude (a.u.)       :      5.44490
Magnitude (Debye)      :     13.83984

Rotational constants in cm-1:     0.001160     0.000341     0.000276
Rotational constants in MHz :    34.782657    10.236383     8.270179

                             ****ORCA TERMINATED NORMALLY****
TOTAL RUN TIME: 0 days 0 hours 12 minutes 34 seconds 664 msec
