                         Program Version 4.2.0 -  RELEASE  -
|  1> # ORCA input file
|  2> # SCF done       -186.114960871559          0.000886115861
|  3> ! CAM-B3LYP def2-SVP def2/J RIJCOSX Grid4 TightSCF
|  4> %maxcore 5000
|  5> %tddft
|  6>     Mode sTDDFT
|  7>     Ethresh 5.0
|  8>     maxcore 5000
|  9> end
| 10>
| 11> %pal
| 12>   nprocs 6
| 13>   end
| 14> * xyz 0 1
| 15>    C        1.35265        -8.13910       -12.49418
| 16>    C        2.67728        -8.31030       -12.86306
| 17>    C        3.70926        -7.78999       -12.09211
| 18>    C        3.44630        -7.08635       -10.92762
| 19>    C        2.12548        -6.90387       -10.54797
| 20>    C        1.07310        -7.42998       -11.33544
| 21>    C       -0.19288        -7.09361       -10.70867
| 22>    C       -1.42496        -7.59964       -11.01942
| 23>    C       -1.66393        -8.49107       -12.08652
| 24>    N       -1.91832        -9.20800       -12.94583
| 25>    C       -2.59541        -7.35594       -10.26926
| 26>    N       -3.57103        -7.22107        -9.67857
| 27>    C        0.11321        -6.14455        -9.63539
| 28>    C        1.55243        -6.24074        -9.38943
| 29>    C        2.19478        -5.96787        -8.21426
| 30>    C        1.53893        -5.57012        -7.02953
| 31>    N        1.06940        -5.29839        -6.01838
| 32>    C        3.58201        -6.13400        -8.02263
| 33>    N        4.70744        -6.23289        -7.81984
| 34>    C       -0.78155        -5.24695        -9.15853
| 35>    C       -0.55661        -4.07680        -8.35985
| 36>    C        0.50647        -3.23767        -8.36619
| 37>    C        0.24620        -2.08611        -7.46533
| 38>    C       -1.12480        -2.36560        -6.95704
| 39>    C       -1.59669        -3.51781        -7.48193
| 40>    C       -2.85912        -4.17355        -7.24702
| 41>    C       -3.95163        -3.55032        -6.77518
| 42>    C       -5.24264        -4.14421        -6.51548
| 43>    C       -6.29299        -3.31948        -6.18228
| 44>    C       -7.57114        -3.84971        -5.91011
| 45>    C       -8.77374        -3.24696        -5.57007
| 46>    C       -9.09450        -1.79487        -5.43410
| 47>    C       -8.16257        -1.06947        -4.44728
| 48>    N       -8.88772         0.01239        -3.80278
| 49>    C       -9.08776        -1.12022        -6.81796
| 50>    N      -10.19520        -1.63313        -7.60721
| 51>    C       -9.74053        -4.30795        -5.40930
| 52>    C      -11.05140        -4.27152        -5.10582
| 53>    C      -11.86598        -5.51748        -5.03546
| 54>    C      -11.08866        -6.78064        -5.20898
| 55>    C       -9.77859        -6.79964        -5.51632
| 56>    C       -9.06202        -5.58617        -5.65196
| 57>    C       -7.74961        -5.29643        -5.96746
| 58>    C       -6.65569        -6.12077        -6.31802
| 59>    C       -5.44994        -5.56147        -6.58811
| 60>    C      -12.95407        -5.37272        -6.08303
| 61>    C      -12.85487        -5.88567        -7.30607
| 62>    C      -13.86355        -5.76662        -8.33930
| 63>    C      -14.82929        -4.83203        -8.45276
| 64>    C      -15.66578        -5.09582        -9.65611
| 65>    C      -15.05193        -6.32241       -10.22445
| 66>    C      -14.00238        -6.71392        -9.45896
| 67>    C      -13.17080        -7.86793        -9.61881
| 68>    C      -13.37510        -8.88401       -10.48616
| 69>    C      -12.51372       -10.01399       -10.59868
| 70>    C      -11.74975       -10.56992        -9.61501
| 71>    C      -10.58347       -11.41855        -9.85056
| 72>    C      -10.30188       -12.15003       -10.97102
| 73>    C      -11.13334       -12.24757       -12.10724
| 74>    N      -11.76450       -12.38055       -13.05705
| 75>    C       -9.15882       -12.96636       -11.11181
| 76>    N       -8.25595       -13.65318       -11.28516
| 77>    C       -9.77336       -11.35545        -8.64120
| 78>    C      -10.50953       -10.69146        -7.63339
| 79>    C       -9.96144       -10.48672        -6.37760
| 80>    C       -8.67064       -10.93330        -6.13850
| 81>    C       -7.94508       -11.58235        -7.12793
| 82>    C       -8.48759       -11.80497        -8.38483
| 83>    C      -11.81241       -10.33749        -8.17292
| 84>    C      -12.93927       -10.08758        -7.43704
| 85>    C      -12.94818        -9.95756        -6.03498
| 86>    N      -13.00758        -9.80992        -4.89747
| 87>    C      -14.23735        -9.98161        -7.97944
| 88>    N      -15.32402        -9.93546        -8.34504
| 89>    H        0.56182        -8.54412       -13.10448
| 90>    H        2.90859        -8.85488       -13.76567
| 91>    H        4.73246        -7.93361       -12.40396
| 92>    H        4.25560        -6.68265       -10.34075
| 93>    H       -1.81182        -5.36912        -9.46968
| 94>    H        1.39784        -3.32467        -8.96195
| 95>    H        0.31518        -1.12771        -7.98649
| 96>    H        0.97665        -2.05369        -6.65168
| 97>    H       -1.61779        -1.73256        -6.24398
| 98>    H       -2.89701        -5.22475        -7.49395
| 99>    H       -3.89118        -2.48617        -6.58146
|100>    H       -6.13501        -2.25206        -6.13119
|101>    H      -10.10726        -1.69819        -5.03453
|102>    H       -7.25481        -0.72875        -4.97178
|103>    H       -7.85557        -1.76872        -3.66460
|104>    H       -9.17532         0.70322        -4.48792
|105>    H       -8.30070         0.47799        -3.11970
|106>    H       -8.10411        -1.28004        -7.29092
|107>    H       -9.24085        -0.04249        -6.70491
|108>    H      -10.09756        -2.63734        -7.72212
|109>    H      -10.19799        -1.21302        -8.53030
|110>    H      -11.57565        -3.33961        -4.94698
|111>    H      -12.36707        -5.54938        -4.05720
|112>    H      -11.65515        -7.69081        -5.08278
|113>    H       -9.25149        -7.73418        -5.65098
|114>    H       -6.79323        -7.19134        -6.37084
|115>    H       -4.62013        -6.19373        -6.85910
|116>    H      -13.81995        -4.79678        -5.79267
|117>    H      -11.96861        -6.45577        -7.55394
|118>    H      -14.99374        -3.99309        -7.80318
|119>    H      -15.64952        -4.26167       -10.36254
|120>    H      -16.71469        -5.26011        -9.39439
|121>    H      -15.41099        -6.79380       -11.11980
|122>    H      -12.30233        -7.91771        -8.97408
|123>    H      -14.18036        -8.82270       -11.20417
|124>    H      -12.41923       -10.42350       -11.59615
|125>    H      -10.51478        -9.98205        -5.60240
|126>    H       -8.22501       -10.77011        -5.16879
|127>    H       -6.94096       -11.91859        -6.91961
|128>    H       -7.90879       -12.30788        -9.14201
|129> *
|130>
|131>                          ****END OF INPUT****

CARTESIAN COORDINATES (ANGSTROEM)
---------------------------------
  C      1.352650   -8.139100  -12.494180
  C      2.677280   -8.310300  -12.863060
  C      3.709260   -7.789990  -12.092110
  C      3.446300   -7.086350  -10.927620
  C      2.125480   -6.903870  -10.547970
  C      1.073100   -7.429980  -11.335440
  C     -0.192880   -7.093610  -10.708670
  C     -1.424960   -7.599640  -11.019420
  C     -1.663930   -8.491070  -12.086520
  N     -1.918320   -9.208000  -12.945830
  C     -2.595410   -7.355940  -10.269260
  N     -3.571030   -7.221070   -9.678570
  C      0.113210   -6.144550   -9.635390
  C      1.552430   -6.240740   -9.389430
  C      2.194780   -5.967870   -8.214260
  C      1.538930   -5.570120   -7.029530
  N      1.069400   -5.298390   -6.018380
  C      3.582010   -6.134000   -8.022630
  N      4.707440   -6.232890   -7.819840
  C     -0.781550   -5.246950   -9.158530
  C     -0.556610   -4.076800   -8.359850
  C      0.506470   -3.237670   -8.366190
  C      0.246200   -2.086110   -7.465330
  C     -1.124800   -2.365600   -6.957040
  C     -1.596690   -3.517810   -7.481930
  C     -2.859120   -4.173550   -7.247020
  C     -3.951630   -3.550320   -6.775180
  C     -5.242640   -4.144210   -6.515480
  C     -6.292990   -3.319480   -6.182280
  C     -7.571140   -3.849710   -5.910110
  C     -8.773740   -3.246960   -5.570070
  C     -9.094500   -1.794870   -5.434100
  C     -8.162570   -1.069470   -4.447280
  N     -8.887720    0.012390   -3.802780
  C     -9.087760   -1.120220   -6.817960
  N    -10.195200   -1.633130   -7.607210
  C     -9.740530   -4.307950   -5.409300
  C    -11.051400   -4.271520   -5.105820
  C    -11.865980   -5.517480   -5.035460
  C    -11.088660   -6.780640   -5.208980
  C     -9.778590   -6.799640   -5.516320
  C     -9.062020   -5.586170   -5.651960
  C     -7.749610   -5.296430   -5.967460
  C     -6.655690   -6.120770   -6.318020
  C     -5.449940   -5.561470   -6.588110
  C    -12.954070   -5.372720   -6.083030
  C    -12.854870   -5.885670   -7.306070
  C    -13.863550   -5.766620   -8.339300
  C    -14.829290   -4.832030   -8.452760
  C    -15.665780   -5.095820   -9.656110
  C    -15.051930   -6.322410  -10.224450
  C    -14.002380   -6.713920   -9.458960
  C    -13.170800   -7.867930   -9.618810
  C    -13.375100   -8.884010  -10.486160
  C    -12.513720  -10.013990  -10.598680
  C    -11.749750  -10.569920   -9.615010
  C    -10.583470  -11.418550   -9.850560
  C    -10.301880  -12.150030  -10.971020
  C    -11.133340  -12.247570  -12.107240
  N    -11.764500  -12.380550  -13.057050
  C     -9.158820  -12.966360  -11.111810
  N     -8.255950  -13.653180  -11.285160
  C     -9.773360  -11.355450   -8.641200
  C    -10.509530  -10.691460   -7.633390
  C     -9.961440  -10.486720   -6.377600
  C     -8.670640  -10.933300   -6.138500
  C     -7.945080  -11.582350   -7.127930
  C     -8.487590  -11.804970   -8.384830
  C    -11.812410  -10.337490   -8.172920
  C    -12.939270  -10.087580   -7.437040
  C    -12.948180   -9.957560   -6.034980
  N    -13.007580   -9.809920   -4.897470
  C    -14.237350   -9.981610   -7.979440
  N    -15.324020   -9.935460   -8.345040
  H      0.561820   -8.544120  -13.104480
  H      2.908590   -8.854880  -13.765670
  H      4.732460   -7.933610  -12.403960
  H      4.255600   -6.682650  -10.340750
  H     -1.811820   -5.369120   -9.469680
  H      1.397840   -3.324670   -8.961950
  H      0.315180   -1.127710   -7.986490
  H      0.976650   -2.053690   -6.651680
  H     -1.617790   -1.732560   -6.243980
  H     -2.897010   -5.224750   -7.493950
  H     -3.891180   -2.486170   -6.581460
  H     -6.135010   -2.252060   -6.131190
  H    -10.107260   -1.698190   -5.034530
  H     -7.254810   -0.728750   -4.971780
  H     -7.855570   -1.768720   -3.664600
  H     -9.175320    0.703220   -4.487920
  H     -8.300700    0.477990   -3.119700
  H     -8.104110   -1.280040   -7.290920
  H     -9.240850   -0.042490   -6.704910
  H    -10.097560   -2.637340   -7.722120
  H    -10.197990   -1.213020   -8.530300
  H    -11.575650   -3.339610   -4.946980
  H    -12.367070   -5.549380   -4.057200
  H    -11.655150   -7.690810   -5.082780
  H     -9.251490   -7.734180   -5.650980
  H     -6.793230   -7.191340   -6.370840
  H     -4.620130   -6.193730   -6.859100
  H    -13.819950   -4.796780   -5.792670
  H    -11.968610   -6.455770   -7.553940
  H    -14.993740   -3.993090   -7.803180
  H    -15.649520   -4.261670  -10.362540
  H    -16.714690   -5.260110   -9.394390
  H    -15.410990   -6.793800  -11.119800
  H    -12.302330   -7.917710   -8.974080
  H    -14.180360   -8.822700  -11.204170
  H    -12.419230  -10.423500  -11.596150
  H    -10.514780   -9.982050   -5.602400
  H     -8.225010  -10.770110   -5.168790
  H     -6.940960  -11.918590   -6.919610
  H     -7.908790  -12.307880   -9.142010

 Total Charge           Charge          ....    0
 Multiplicity           Mult            ....    1
 Number of Electrons    NEL             ....  494
 Basis Dimension        Dim             .... 1236

ORBITAL ENERGIES
----------------

  NO   OCC          E(Eh)            E(eV)
   0   2.0000     -14.429492      -392.6464
   1   2.0000     -14.428101      -392.6086
   2   2.0000     -14.426076      -392.5535
   3   2.0000     -14.424007      -392.4972
   4   2.0000     -14.423396      -392.4806
   5   2.0000     -14.420966      -392.4144
   6   2.0000     -14.418538      -392.3484
   7   2.0000     -14.418253      -392.3406
   8   2.0000     -14.373730      -391.1291
   9   2.0000     -14.371163      -391.0592
  10   2.0000     -10.358372      -281.8656
  11   2.0000     -10.357453      -281.8406
  12   2.0000     -10.354981      -281.7733
  13   2.0000     -10.354181      -281.7516
  14   2.0000     -10.350274      -281.6453
  15   2.0000     -10.349680      -281.6291
  16   2.0000     -10.348842      -281.6063
  17   2.0000     -10.348080      -281.5856
  18   2.0000     -10.331628      -281.1379
  19   2.0000     -10.329769      -281.0873
  20   2.0000     -10.328117      -281.0424
  21   2.0000     -10.327651      -281.0297
  22   2.0000     -10.326248      -280.9915
  23   2.0000     -10.325271      -280.9649
  24   2.0000     -10.324624      -280.9473
  25   2.0000     -10.323765      -280.9239
  26   2.0000     -10.322821      -280.8983
  27   2.0000     -10.321113      -280.8518
  28   2.0000     -10.320616      -280.8382
  29   2.0000     -10.320580      -280.8373
  30   2.0000     -10.320014      -280.8219
  31   2.0000     -10.317802      -280.7617
  32   2.0000     -10.314124      -280.6616
  33   2.0000     -10.313760      -280.6517
  34   2.0000     -10.308422      -280.5064
  35   2.0000     -10.308242      -280.5015
  36   2.0000     -10.307350      -280.4772
  37   2.0000     -10.306477      -280.4535
  38   2.0000     -10.303989      -280.3858
  39   2.0000     -10.302691      -280.3505
  40   2.0000     -10.301371      -280.3146
  41   2.0000     -10.301034      -280.3054
  42   2.0000     -10.299999      -280.2772
  43   2.0000     -10.295852      -280.1644
  44   2.0000     -10.293352      -280.0963
  45   2.0000     -10.293222      -280.0928
  46   2.0000     -10.291730      -280.0522
  47   2.0000     -10.288851      -279.9739
  48   2.0000     -10.283218      -279.8206
  49   2.0000     -10.283003      -279.8147
  50   2.0000     -10.282599      -279.8037
  51   2.0000     -10.282188      -279.7926
  52   2.0000     -10.280231      -279.7393
  53   2.0000     -10.278011      -279.6789
  54   2.0000     -10.276674      -279.6425
  55   2.0000     -10.276561      -279.6394
  56   2.0000     -10.276435      -279.6360
  57   2.0000     -10.273759      -279.5632
  58   2.0000     -10.269950      -279.4595
  59   2.0000     -10.269274      -279.4411
  60   2.0000     -10.268227      -279.4127
  61   2.0000     -10.268067      -279.4083
  62   2.0000     -10.266729      -279.3719
  63   2.0000     -10.266403      -279.3630
  64   2.0000     -10.264533      -279.3122
  65   2.0000     -10.261926      -279.2412
  66   2.0000     -10.261690      -279.2348
  67   2.0000     -10.260935      -279.2142
  68   2.0000     -10.257161      -279.1115
  69   2.0000     -10.256555      -279.0951
  70   2.0000     -10.255807      -279.0747
  71   2.0000     -10.254741      -279.0457
  72   2.0000     -10.253843      -279.0212
  73   2.0000     -10.253020      -278.9988
  74   2.0000      -1.043048       -28.3828
  75   2.0000      -1.036431       -28.2027
  76   2.0000      -1.023846       -27.8603
  77   2.0000      -1.017651       -27.6917
  78   2.0000      -1.013621       -27.5820
  79   2.0000      -1.007497       -27.4154
  80   2.0000      -1.005604       -27.3639
  81   2.0000      -1.003866       -27.3166
  82   2.0000      -0.999024       -27.1848
  83   2.0000      -0.997614       -27.1465
  84   2.0000      -0.978605       -26.6292
  85   2.0000      -0.977335       -26.5946
  86   2.0000      -0.973004       -26.4768
  87   2.0000      -0.962934       -26.2028
  88   2.0000      -0.960764       -26.1437
  89   2.0000      -0.959721       -26.1153
  90   2.0000      -0.946982       -25.7687
  91   2.0000      -0.945780       -25.7360
  92   2.0000      -0.940358       -25.5884
  93   2.0000      -0.938839       -25.5471
  94   2.0000      -0.920815       -25.0567
  95   2.0000      -0.910569       -24.7778
  96   2.0000      -0.903249       -24.5786
  97   2.0000      -0.894499       -24.3406
  98   2.0000      -0.893805       -24.3217
  99   2.0000      -0.877061       -23.8660
 100   2.0000      -0.873727       -23.7753
 101   2.0000      -0.870993       -23.7009
 102   2.0000      -0.867394       -23.6030
 103   2.0000      -0.864771       -23.5316
 104   2.0000      -0.853166       -23.2158
 105   2.0000      -0.832531       -22.6543
 106   2.0000      -0.828379       -22.5413
 107   2.0000      -0.822466       -22.3804
 108   2.0000      -0.817720       -22.2513
 109   2.0000      -0.813520       -22.1370
 110   2.0000      -0.798186       -21.7198
 111   2.0000      -0.791761       -21.5449
 112   2.0000      -0.788629       -21.4597
 113   2.0000      -0.775736       -21.1089
 114   2.0000      -0.770838       -20.9756
 115   2.0000      -0.763594       -20.7784
 116   2.0000      -0.750936       -20.4340
 117   2.0000      -0.724407       -19.7121
 118   2.0000      -0.723943       -19.6995
 119   2.0000      -0.723215       -19.6797
 120   2.0000      -0.720305       -19.6005
 121   2.0000      -0.716357       -19.4931
 122   2.0000      -0.714133       -19.4325
 123   2.0000      -0.713327       -19.4106
 124   2.0000      -0.707638       -19.2558
 125   2.0000      -0.692483       -18.8434
 126   2.0000      -0.688154       -18.7256
 127   2.0000      -0.677062       -18.4238
 128   2.0000      -0.675243       -18.3743
 129   2.0000      -0.673184       -18.3183
 130   2.0000      -0.666535       -18.1373
 131   2.0000      -0.665509       -18.1094
 132   2.0000      -0.663321       -18.0499
 133   2.0000      -0.656769       -17.8716
 134   2.0000      -0.650787       -17.7088
 135   2.0000      -0.648452       -17.6453
 136   2.0000      -0.635423       -17.2907
 137   2.0000      -0.633200       -17.2302
 138   2.0000      -0.621580       -16.9140
 139   2.0000      -0.615784       -16.7563
 140   2.0000      -0.612698       -16.6724
 141   2.0000      -0.608921       -16.5696
 142   2.0000      -0.598837       -16.2952
 143   2.0000      -0.594535       -16.1781
 144   2.0000      -0.592916       -16.1341
 145   2.0000      -0.587466       -15.9858
 146   2.0000      -0.585699       -15.9377
 147   2.0000      -0.584631       -15.9086
 148   2.0000      -0.578634       -15.7454
 149   2.0000      -0.569918       -15.5082
 150   2.0000      -0.567034       -15.4298
 151   2.0000      -0.564551       -15.3622
 152   2.0000      -0.555764       -15.1231
 153   2.0000      -0.553785       -15.0693
 154   2.0000      -0.552460       -15.0332
 155   2.0000      -0.548777       -14.9330
 156   2.0000      -0.547946       -14.9104
 157   2.0000      -0.545756       -14.8508
 158   2.0000      -0.540343       -14.7035
 159   2.0000      -0.539959       -14.6930
 160   2.0000      -0.539070       -14.6688
 161   2.0000      -0.535991       -14.5851
 162   2.0000      -0.531846       -14.4723
 163   2.0000      -0.531481       -14.4623
 164   2.0000      -0.530609       -14.4386
 165   2.0000      -0.522633       -14.2216
 166   2.0000      -0.518706       -14.1147
 167   2.0000      -0.517072       -14.0702
 168   2.0000      -0.515374       -14.0240
 169   2.0000      -0.512306       -13.9405
 170   2.0000      -0.510607       -13.8943
 171   2.0000      -0.508052       -13.8248
 172   2.0000      -0.507036       -13.7971
 173   2.0000      -0.504653       -13.7323
 174   2.0000      -0.503507       -13.7011
 175   2.0000      -0.496802       -13.5187
 176   2.0000      -0.492478       -13.4010
 177   2.0000      -0.490147       -13.3376
 178   2.0000      -0.489562       -13.3217
 179   2.0000      -0.485474       -13.2104
 180   2.0000      -0.484520       -13.1845
 181   2.0000      -0.478105       -13.0099
 182   2.0000      -0.473268       -12.8783
 183   2.0000      -0.472315       -12.8523
 184   2.0000      -0.471334       -12.8257
 185   2.0000      -0.467820       -12.7300
 186   2.0000      -0.463512       -12.6128
 187   2.0000      -0.461969       -12.5708
 188   2.0000      -0.461157       -12.5487
 189   2.0000      -0.459847       -12.5131
 190   2.0000      -0.459333       -12.4991
 191   2.0000      -0.458061       -12.4645
 192   2.0000      -0.456935       -12.4338
 193   2.0000      -0.456057       -12.4099
 194   2.0000      -0.454873       -12.3777
 195   2.0000      -0.453445       -12.3389
 196   2.0000      -0.452876       -12.3234
 197   2.0000      -0.451815       -12.2945
 198   2.0000      -0.450312       -12.2536
 199   2.0000      -0.450053       -12.2466
 200   2.0000      -0.447360       -12.1733
 201   2.0000      -0.446335       -12.1454
 202   2.0000      -0.445217       -12.1150
 203   2.0000      -0.443837       -12.0774
 204   2.0000      -0.443521       -12.0688
 205   2.0000      -0.439874       -11.9696
 206   2.0000      -0.438110       -11.9216
 207   2.0000      -0.437880       -11.9153
 208   2.0000      -0.437064       -11.8931
 209   2.0000      -0.435068       -11.8388
 210   2.0000      -0.433089       -11.7850
 211   2.0000      -0.431971       -11.7545
 212   2.0000      -0.429527       -11.6880
 213   2.0000      -0.426718       -11.6116
 214   2.0000      -0.425957       -11.5909
 215   2.0000      -0.425763       -11.5856
 216   2.0000      -0.422232       -11.4895
 217   2.0000      -0.421788       -11.4774
 218   2.0000      -0.419203       -11.4071
 219   2.0000      -0.418791       -11.3959
 220   2.0000      -0.416380       -11.3303
 221   2.0000      -0.414439       -11.2775
 222   2.0000      -0.411698       -11.2029
 223   2.0000      -0.404021       -10.9940
 224   2.0000      -0.402630       -10.9561
 225   2.0000      -0.396654       -10.7935
 226   2.0000      -0.391813       -10.6618
 227   2.0000      -0.388946       -10.5838
 228   2.0000      -0.384231       -10.4555
 229   2.0000      -0.383030       -10.4228
 230   2.0000      -0.379078       -10.3152
 231   2.0000      -0.369000       -10.0410
 232   2.0000      -0.362293        -9.8585
 233   2.0000      -0.352270        -9.5858
 234   2.0000      -0.341885        -9.3032
 235   2.0000      -0.339289        -9.2325
 236   2.0000      -0.334707        -9.1078
 237   2.0000      -0.324099        -8.8192
 238   2.0000      -0.319107        -8.6833
 239   2.0000      -0.313776        -8.5383
 240   2.0000      -0.300711        -8.1828
 241   2.0000      -0.298802        -8.1308
 242   2.0000      -0.293718        -7.9925
 243   2.0000      -0.292582        -7.9616
 244   2.0000      -0.272869        -7.4251
 245   2.0000      -0.264446        -7.1959
 246   2.0000      -0.214977        -5.8498
 247   0.0000      -0.096686        -2.6310
 248   0.0000      -0.094781        -2.5791
 249   0.0000      -0.093264        -2.5378
 250   0.0000      -0.086958        -2.3663
 251   0.0000      -0.062781        -1.7084

MULLIKEN ATOMIC CHARGES
-----------------------
   0 C :   -0.029096
   1 C :    0.048145
   2 C :    0.047466
   3 C :   -0.031856
   4 C :    0.011933
   5 C :    0.011702
   6 C :    0.267801
   7 C :   -0.330784
   8 C :   -0.187896
   9 N :    0.164031
  10 C :   -0.185803
  11 N :    0.162669
  12 C :   -0.039951
  13 C :    0.219894
  14 C :   -0.325767
  15 C :   -0.195496
  16 N :    0.195273
  17 C :   -0.191100
  18 N :    0.169183
  19 C :    0.016866
  20 C :    0.028845
  21 C :   -0.123626
  22 C :    0.165716
  23 C :   -0.165850
  24 C :    0.126401
  25 C :   -0.001519
  26 C :   -0.005273
  27 C :    0.133514
  28 C :   -0.107133
  29 C :    0.059116
  30 C :   -0.089010
  31 C :   -0.023621
  32 C :    0.130945
  33 N :   -0.213360
  34 C :    0.157310
  35 N :   -0.229839
  36 C :    0.092255
  37 C :   -0.097154
  38 C :    0.154297
  39 C :   -0.071946
  40 C :    0.022508
  41 C :    0.010698
  42 C :    0.031985
  43 C :   -0.009539
  44 C :   -0.000978
  45 C :   -0.076889
  46 C :    0.019949
  47 C :    0.112294
  48 C :   -0.156445
  49 C :    0.143625
  50 C :   -0.129523
  51 C :    0.069576
  52 C :    0.040857
  53 C :   -0.006241
  54 C :    0.052889
  55 C :   -0.069086
  56 C :    0.280279
  57 C :   -0.335251
  58 C :   -0.184767
  59 N :    0.161089
  60 C :   -0.189199
  61 N :    0.162854
  62 C :    0.020260
  63 C :    0.010556
  64 C :   -0.031219
  65 C :    0.045038
  66 C :    0.050455
  67 C :   -0.035982
  68 C :    0.213289
  69 C :   -0.336908
  70 C :   -0.153448
  71 N :    0.144680
  72 C :   -0.184239
  73 N :    0.182212
  74 H :    0.009274
  75 H :    0.007301
  76 H :    0.007456
  77 H :    0.007854
  78 H :    0.034638
  79 H :    0.003853
  80 H :    0.045030
  81 H :    0.054645
  82 H :   -0.011134
  83 H :   -0.009604
  84 H :   -0.030954
  85 H :   -0.053045
  86 H :   -0.019240
  87 H :   -0.017210
  88 H :    0.003823
  89 H :    0.084529
  90 H :    0.088977
  91 H :   -0.018567
  92 H :   -0.022047
  93 H :    0.097814
  94 H :    0.088646
  95 H :   -0.000412
  96 H :    0.033458
  97 H :   -0.012552
  98 H :   -0.058341
  99 H :   -0.042414
 100 H :   -0.026345
 101 H :   -0.002520
 102 H :    0.002408
 103 H :   -0.013250
 104 H :    0.048275
 105 H :    0.053585
 106 H :   -0.004704
 107 H :    0.010440
 108 H :    0.008693
 109 H :    0.028099
 110 H :    0.005824
 111 H :    0.007740
 112 H :    0.006865
 113 H :    0.010446
Sum of atomic charges:   -0.0000000

LOEWDIN ATOMIC CHARGES
----------------------
   0 C :    0.006766
   1 C :    0.004475
   2 C :    0.006691
   3 C :    0.002708
   4 C :   -0.009697
   5 C :   -0.013085
   6 C :    0.081315
   7 C :   -0.131273
   8 C :   -0.020417
   9 N :   -0.041119
  10 C :   -0.019799
  11 N :   -0.044109
  12 C :   -0.048088
  13 C :    0.069177
  14 C :   -0.123439
  15 C :   -0.020476
  16 N :   -0.030811
  17 C :   -0.020466
  18 N :   -0.041457
  19 C :    0.069615
  20 C :   -0.045175
  21 C :    0.026670
  22 C :   -0.025388
  23 C :   -0.016637
  24 C :   -0.023215
  25 C :   -0.042388
  26 C :    0.004647
  27 C :   -0.027902
  28 C :   -0.017831
  29 C :   -0.025051
  30 C :   -0.039107
  31 C :   -0.039300
  32 C :    0.027917
  33 N :   -0.118747
  34 C :    0.028020
  35 N :   -0.122867
  36 C :   -0.025372
  37 C :    0.076439
  38 C :   -0.029316
  39 C :   -0.033700
  40 C :   -0.027643
  41 C :   -0.042569
  42 C :   -0.028952
  43 C :   -0.009919
  44 C :   -0.019005
  45 C :    0.012604
  46 C :   -0.032824
  47 C :   -0.030675
  48 C :   -0.017752
  49 C :   -0.027341
  50 C :    0.022163
  51 C :   -0.041849
  52 C :    0.039135
  53 C :   -0.029328
  54 C :    0.067154
  55 C :   -0.056644
  56 C :    0.079252
  57 C :   -0.131100
  58 C :   -0.021973
  59 N :   -0.042647
  60 C :   -0.019555
  61 N :   -0.043865
  62 C :   -0.010906
  63 C :   -0.010845
  64 C :    0.001901
  65 C :    0.002844
  66 C :    0.005461
  67 C :    0.007444
  68 C :    0.068847
  69 C :   -0.132032
  70 C :   -0.011366
  71 N :   -0.050713
  72 C :   -0.018668
  73 N :   -0.036174
  74 H :    0.042585
  75 H :    0.038984
  76 H :    0.038851
  77 H :    0.041586
  78 H :    0.049179
  79 H :    0.022994
  80 H :    0.054010
  81 H :    0.062634
  82 H :    0.021202
  83 H :    0.025507
  84 H :    0.025931
  85 H :    0.017477
  86 H :    0.027036
  87 H :   -0.003760
  88 H :    0.021522
  89 H :    0.047810
  90 H :    0.053680
  91 H :   -0.000897
  92 H :    0.007880
  93 H :    0.052335
  94 H :    0.053447
  95 H :    0.032665
  96 H :    0.058252
  97 H :    0.021539
  98 H :    0.023316
  99 H :    0.025659
 100 H :    0.027083
 101 H :    0.024981
 102 H :    0.026588
 103 H :    0.020632
 104 H :    0.056164
 105 H :    0.059678
 106 H :    0.023402
 107 H :    0.031285
 108 H :    0.038594
 109 H :    0.048666
 110 H :    0.040350
 111 H :    0.038596
 112 H :    0.039059
 113 H :    0.042832

  Mayer bond orders larger than 0.100000
B(  0-C ,  1-C ) :   1.3747 B(  0-C ,  5-C ) :   1.3757 B(  0-C , 74-H ) :   0.9859
B(  1-C ,  2-C ) :   1.3704 B(  1-C , 75-H ) :   0.9863 B(  2-C ,  3-C ) :   1.3718
B(  2-C , 76-H ) :   0.9870 B(  3-C ,  4-C ) :   1.3772 B(  3-C , 77-H ) :   0.9875
B(  4-C ,  5-C ) :   1.3068 B(  4-C , 13-C ) :   1.0161 B(  5-C ,  6-C ) :   1.0122
B(  6-C ,  7-C ) :   1.6646 B(  6-C , 12-C ) :   1.0139 B(  7-C ,  8-C ) :   1.1380
B(  7-C , 10-C ) :   1.1357 B(  8-C ,  9-N ) :   2.9866 B( 10-C , 11-N ) :   2.9897
B( 12-C , 13-C ) :   0.9918 B( 12-C , 19-C ) :   1.7067 B( 13-C , 14-C ) :   1.6856
B( 14-C , 15-C ) :   1.1559 B( 14-C , 17-C ) :   1.1366 B( 15-C , 16-N ) :   3.0132
B( 17-C , 18-N ) :   2.9959 B( 19-C , 20-C ) :   1.0440 B( 19-C , 78-H ) :   0.9255
B( 20-C , 21-C ) :   1.6836 B( 20-C , 24-C ) :   1.0575 B( 21-C , 22-C ) :   1.0486
B( 21-C , 79-H ) :   0.9892 B( 22-C , 23-C ) :   1.0450 B( 22-C , 80-H ) :   0.8969
B( 22-C , 81-H ) :   0.8778 B( 23-C , 24-C ) :   1.7247 B( 23-C , 82-H ) :   0.9901
B( 24-C , 25-C ) :   1.0569 B( 25-C , 26-C ) :   1.7269 B( 25-C , 83-H ) :   0.9484
B( 26-C , 27-C ) :   1.0658 B( 26-C , 84-H ) :   0.9909 B( 27-C , 28-C ) :   1.5092
B( 27-C , 44-C ) :   1.1212 B( 28-C , 29-C ) :   1.1114 B( 28-C , 85-H ) :   0.9974
B( 29-C , 30-C ) :   1.4647 B( 29-C , 42-C ) :   1.1241 B( 30-C , 31-C ) :   1.0420
B( 30-C , 36-C ) :   1.1162 B( 31-C , 32-C ) :   1.0355 B( 31-C , 34-C ) :   1.0352
B( 31-C , 86-H ) :   0.8734 B( 32-C , 33-N ) :   1.0995 B( 32-C , 87-H ) :   0.9280
B( 32-C , 88-H ) :   0.9467 B( 33-N , 89-H ) :   0.9706 B( 33-N , 90-H ) :   0.9678
B( 34-C , 35-N ) :   1.0880 B( 34-C , 91-H ) :   0.9329 B( 34-C , 92-H ) :   0.9341
B( 35-N , 93-H ) :   0.9690 B( 35-N , 94-H ) :   0.9664 B( 36-C , 37-C ) :   1.6783
B( 36-C , 41-C ) :   1.0512 B( 37-C , 38-C ) :   0.9725 B( 37-C , 95-H ) :   0.9607
B( 38-C , 39-C ) :   1.0068 B( 38-C , 45-C ) :   0.9568 B( 38-C , 96-H ) :   0.8637
B( 39-C , 40-C ) :   1.6936 B( 39-C , 97-H ) :   0.9703 B( 40-C , 41-C ) :   1.1254
B( 40-C , 98-H ) :   0.9853 B( 41-C , 42-C ) :   1.4373 B( 42-C , 43-C ) :   1.1333
B( 43-C , 44-C ) :   1.6245 B( 43-C , 99-H ) :   0.9913 B( 44-C ,100-H ) :   0.9808
B( 45-C , 46-C ) :   1.8816 B( 45-C ,101-H ) :   0.9752 B( 46-C , 47-C ) :   1.0306
B( 46-C ,102-H ) :   0.9395 B( 47-C , 48-C ) :   1.7488 B( 47-C , 51-C ) :   1.0538
B( 48-C , 49-C ) :   1.0432 B( 48-C ,103-H ) :   0.9912 B( 49-C , 50-C ) :   1.0433
B( 49-C ,104-H ) :   0.8939 B( 49-C ,105-H ) :   0.8905 B( 50-C , 51-C ) :   1.7007
B( 50-C ,106-H ) :   0.9866 B( 51-C , 52-C ) :   1.1059 B( 52-C , 53-C ) :   1.7022
B( 52-C ,107-H ) :   0.9502 B( 53-C , 54-C ) :   1.1347 B( 53-C ,108-H ) :   0.9581
B( 54-C , 55-C ) :   1.6488 B( 54-C ,109-H ) :   0.9247 B( 55-C , 56-C ) :   1.0413
B( 55-C , 68-C ) :   1.0053 B( 56-C , 57-C ) :   1.6564 B( 56-C , 62-C ) :   0.9981
B( 57-C , 58-C ) :   1.1331 B( 57-C , 60-C ) :   1.1431 B( 58-C , 59-N ) :   2.9863
B( 60-C , 61-N ) :   2.9841 B( 62-C , 63-C ) :   1.3130 B( 62-C , 67-C ) :   1.3803
B( 63-C , 64-C ) :   1.3846 B( 63-C , 68-C ) :   1.0105 B( 64-C , 65-C ) :   1.3625
B( 64-C ,110-H ) :   0.9825 B( 65-C , 66-C ) :   1.3728 B( 65-C ,111-H ) :   0.9877
B( 66-C , 67-C ) :   1.3710 B( 66-C ,112-H ) :   0.9867 B( 67-C ,113-H ) :   0.9845
B( 68-C , 69-C ) :   1.6694 B( 69-C , 70-C ) :   1.1574 B( 69-C , 72-C ) :   1.1455
B( 70-C , 71-N ) :   2.9079 B( 72-C , 73-N ) :   3.0061

-----------------------------------------------------------------------------
         ABSORPTION SPECTRUM VIA TRANSITION ELECTRIC DIPOLE MOMENTS
-----------------------------------------------------------------------------
State   Energy  Wavelength   fosc         T2         TX        TY        TZ
        (cm-1)    (nm)                  (au**2)     (au)      (au)      (au)
-----------------------------------------------------------------------------
   0   12178.3    821.1   0.000538541   0.01456   0.03925   0.10802   0.03674
   1   13952.3    716.7   0.000199994   0.00472   0.00871   0.06814  -0.00027
   2   14565.8    686.5   0.051138636   1.15582   0.14714  -1.06003  -0.10253
   3   14960.0    668.5   0.000059710   0.00131  -0.01800   0.02708  -0.01603
   4   15484.1    645.8   0.000253004   0.00538  -0.05574  -0.00252  -0.04760
   5   20198.0    495.1   0.175792027   2.86528   0.62466  -1.39662   0.72424
   6   20641.0    484.5   0.018801454   0.29987  -0.28018   0.46966   0.02808
   7   22395.1    446.5   0.025110142   0.36912  -0.42800  -0.23785  -0.35967
   8   23774.3    420.6   0.167955546   2.32575  -0.74898   1.08972   0.75980
   9   24523.9    407.8   0.086563265   1.16204   0.40368  -0.98143   0.18937
  10   25759.7    388.2   0.017585428   0.22474   0.42384   0.12349  -0.17279
  11   26035.2    384.1   0.064431084   0.81472   0.74368  -0.50702  -0.06780
  12   26470.5    377.8   0.112529632   1.39953  -0.83324   0.83977  -0.00430
  13   27571.2    362.7   0.007127698   0.08511   0.09554  -0.16775  -0.21872
  14   27630.5    361.9   0.129205659   1.53946  -0.50957  -0.83930  -0.75854
  15   27740.7    360.5   0.008232409   0.09770   0.28986   0.07266   0.09165
  16   28747.2    347.9   0.086754274   0.99351   0.55128  -0.63648   0.53337
  17   29371.9    340.5   0.624557042   7.00029   2.56573   0.58380  -0.27662
  18   29674.5    337.0   0.430275282   4.77352   1.76718  -0.99039  -0.81837
  19   29835.0    335.2   0.151951100   1.67669   1.26782  -0.13794  -0.22429
  20   30012.9    333.2   0.141713265   1.55445  -0.60252  -0.83312  -0.70522
  21   30766.6    325.0   0.090503558   0.96842  -0.75646  -0.40865   0.47873
  22   31040.0    322.2   0.016508466   0.17509  -0.15560  -0.31693  -0.22457
  23   31514.5    317.3   0.025943439   0.27101   0.46492   0.23389  -0.01248
  24   31619.4    316.3   0.128977993   1.34288   1.10490   0.33753  -0.09026
  25   31743.6    315.0   0.152664956   1.58328   1.09322   0.28693   0.55302
  26   31952.4    313.0   0.135971264   1.40094   1.15811   0.16576  -0.17957
  27   31990.1    312.6   0.243176725   2.50255  -0.74384  -0.58253  -1.26882
  28   32867.8    304.2   0.006772336   0.06783   0.03907   0.15645   0.20452
  29   33503.8    298.5   0.484139587   4.75721  -1.57244   0.84027   1.25642
  30   33868.4    295.3   0.027029993   0.26274   0.24604  -0.38906  -0.22548
  31   33872.5    295.2   0.008725973   0.08481  -0.09815   0.22452   0.15738
  32   34327.7    291.3   0.018481211   0.17724  -0.32855   0.22830   0.13106
  33   34597.0    289.0   0.001064500   0.01013  -0.08912  -0.04280  -0.01884
  34   34652.9    288.6   0.010778255   0.10240   0.25965   0.18000  -0.05080
  35   34759.8    287.7   0.334018742   3.16351   0.85177   0.65154   1.41898
  36   34816.8    287.2   0.003267545   0.03090  -0.01690   0.09039  -0.14980
  37   34939.2    286.2   0.099489208   0.93743  -0.04318   0.01839  -0.96707
  38   34983.6    285.8   0.292760962   2.75502   1.64550   0.20191  -0.08110
  39   35003.8    285.7   0.158531095   1.49099  -1.18336  -0.24655  -0.17277
  40   35225.3    283.9   0.104870282   0.98011  -0.98314   0.04368   0.10783
  41   35248.9    283.7   0.120271833   1.12329  -0.52335   0.00482  -0.92161
  42   35569.6    281.1   0.152552600   1.41194   0.74267  -0.28826  -0.88164
  43   35756.4    279.7   0.025324346   0.23316  -0.28869   0.17796   0.34373
  44   36171.4    276.5   0.004161873   0.03788  -0.14531   0.02349  -0.12733
  45   36657.0    272.8   0.100624244   0.90369   0.54855  -0.59040  -0.50421
  46   36763.5    272.0   0.008311077   0.07442   0.18037  -0.12656  -0.16085
  47   36874.0    271.2   0.121912167   1.08843   0.47962  -0.53088  -0.75932
  48   37065.3    269.8   0.090017717   0.79953  -0.63386   0.44741   0.44449
  49   37217.3    268.7   0.009842363   0.08706   0.09031   0.11039   0.25830
  50   37371.0    267.6   0.000011435   0.00010   0.00136   0.00939   0.00327
  51   37398.2    267.4   0.000769181   0.00677   0.00277   0.08028  -0.01784
  52   37977.7    263.3   0.104353025   0.90459  -0.57341   0.48739   0.58158
  53   38256.6    261.4   0.170126978   1.46400  -1.17196  -0.30040   0.01641
  54   38691.4    258.5   0.028557297   0.24298  -0.32778   0.09067  -0.35682
  55   38864.2    257.3   0.162471825   1.37627   0.54015  -0.46431   0.93216
  56   38910.4    257.0   0.017348989   0.14679   0.35287  -0.14913  -0.00554
  57   39380.2    253.9   0.535906297   4.48009   2.00167   0.62625  -0.28500
  58   39583.8    252.6   0.067547507   0.56178   0.74172  -0.05164  -0.09466
  59   40106.3    249.3   0.000889887   0.00730  -0.03534  -0.06853  -0.03687
  60   40223.4    248.6   0.054972137   0.44992   0.59141   0.31040   0.06175

FINAL SINGLE POINT ENERGY     -3006.152841947661

DIPOLE MOMENT
-------------
                                X             Y             Z
Electronic contribution:     29.58048     -61.25043     -25.51765
Nuclear contribution   :    -28.11082      64.74484      24.71016
                        -----------------------------------------
Total Dipole Moment    :      1.46966       3.49441      -0.80750
                        -----------------------------------------
Magnitude (a.u.)       :      3.87593
Magnitude (Debye)      :      9.85183

Rotational constants in cm-1:     0.001181     0.000471     0.000371
Rotational constants in MHz :    35.414953    14.110623    11.137072

                             ****ORCA TERMINATED NORMALLY****
TOTAL RUN TIME: 0 days 0 hours 16 minutes 9 seconds 956 msec
