                         Program Version 4.2.0 -  RELEASE  -
|  1> # ORCA input file
|  2> # SCF done       -166.900152111948          0.000524023427
|  3> ! CAM-B3LYP def2-SVP def2/J RIJCOSX Grid4 TightSCF
|  4> %maxcore 5000
|  5> %tddft
|  6>     Mode sTDDFT
|  7>     Ethresh 5.0
|  8>     maxcore 5000
|  9> end
| 10>
| 11> %pal
| 12>   nprocs 6
| 13>   end
| 14> * xyz 0 1
| 15>    C        0.45973        -1.55952        -2.45119
| 16>    C        1.10552        -2.64562        -3.02570
| 17>    C        0.39006        -3.66801        -3.63057
| 18>    C       -0.99553        -3.62955        -3.68480
| 19>    C       -1.64973        -2.55612        -3.10599
| 20>    C       -0.92415        -1.51540        -2.48395
| 21>    C       -1.86884        -0.53322        -1.95919
| 22>    C       -1.53408         0.64544        -1.34055
| 23>    C       -0.21026         1.08523        -1.13703
| 24>    N        0.84010         1.50479        -0.93765
| 25>    C       -2.44938         1.59590        -0.84577
| 26>    N       -3.13681         2.41090        -0.41681
| 27>    C       -3.20019        -1.05998        -2.20057
| 28>    C       -3.06177        -2.21247        -3.06254
| 29>    C       -4.03036        -2.74052        -3.88651
| 30>    C       -5.23642        -2.06692        -4.17113
| 31>    N       -6.18560        -1.50293        -4.48578
| 32>    C       -3.94317        -3.98407        -4.52314
| 33>    N       -4.00525        -5.04760        -4.96280
| 34>    C       -4.33481        -0.62635        -1.54038
| 35>    C       -5.53872        -1.30422        -1.34141
| 36>    O       -5.73035        -2.59067        -1.74191
| 37>    C       -6.98245        -2.95738        -1.40014
| 38>    C       -7.60438        -1.90507        -0.72777
| 39>    C       -6.70037        -0.84986        -0.68453
| 40>    C       -6.90363         0.49658        -0.09835
| 41>    C       -7.47131        -4.21739        -1.81470
| 42>    C       -6.71754        -5.03274        -2.60406
| 43>    C       -7.09358        -6.24992        -3.20339
| 44>    N       -6.23139        -6.87636        -4.08220
| 45>    C       -6.83752        -7.99103        -4.55195
| 46>    C       -6.68223        -9.07750        -5.40322
| 47>    C       -7.86804        -9.82094        -5.30741
| 48>    N       -8.72206        -9.20668        -4.41159
| 49>    C       -8.11857        -8.08804        -3.93331
| 50>    C       -8.27815        -7.00046        -3.08952
| 51>    C       -8.25601       -11.00019        -5.98371
| 52>    C       -7.46617       -11.71916        -6.82492
| 53>    C       -7.91485       -12.86512        -7.52146
| 54>    O       -9.20006       -13.26922        -7.42848
| 55>    C       -9.35228       -14.35606        -8.22227
| 56>    C       -8.13003       -14.66522        -8.81741
| 57>    C       -7.20854       -13.71742        -8.38213
| 58>    C       -5.77115       -13.61332        -8.74693
| 59>    C      -10.61448       -14.95053        -8.40092
| 60>    C      -11.74928       -14.52354        -7.77086
| 61>    C      -13.04131       -15.06151        -7.92291
| 62>    C      -13.55531       -15.80376        -8.96059
| 63>    C      -14.71807       -16.67119        -8.84122
| 64>    C      -15.65998       -16.67910        -7.84412
| 65>    C      -15.70308       -15.80632        -6.73759
| 66>    N      -15.81746       -15.13668        -5.81088
| 67>    C      -16.76783       -17.55156        -7.81112
| 68>    N      -17.69294       -18.22536        -7.71832
| 69>    C      -14.70644       -17.55725        -9.99964
| 70>    C      -13.67452       -17.14853       -10.87326
| 71>    C      -13.42529       -17.84158       -12.04569
| 72>    C      -14.21360       -18.94313       -12.34421
| 73>    C      -15.23466       -19.33976       -11.49341
| 74>    C      -15.49222       -18.65389       -10.31535
| 75>    C      -13.04460       -15.96076       -10.31359
| 76>    C      -12.33456       -15.03675       -11.03740
| 77>    C      -11.94389       -15.21999       -12.37857
| 78>    N      -11.57403       -15.32110       -13.46112
| 79>    C      -11.97273       -13.75835       -10.56747
| 80>    N      -11.69063       -12.68555       -10.27118
| 81>    H        1.03556        -0.77327        -1.99180
| 82>    H        2.18358        -2.69129        -3.00017
| 83>    H        0.91561        -4.50335        -4.06791
| 84>    H       -1.54490        -4.42700        -4.16027
| 85>    H       -4.27789         0.31813        -1.01990
| 86>    H       -8.60248        -1.91611        -0.33935
| 87>    H       -7.84570         0.53497         0.44151
| 88>    H       -6.92002         1.24970        -0.88562
| 89>    H       -6.09156         0.75031         0.58172
| 90>    H       -8.48022        -4.47094        -1.53327
| 91>    H       -5.71543        -4.70109        -2.83786
| 92>    H       -5.35847        -6.47293        -4.40291
| 93>    H       -5.84458        -9.30894        -6.02815
| 94>    H       -9.63886        -9.54561        -4.17566
| 95>    H       -9.11425        -6.75662        -2.46641
| 96>    H       -9.26788       -11.34549        -5.81601
| 97>    H       -6.44328       -11.42748        -7.00206
| 98>    H       -7.95217       -15.47641        -9.49466
| 99>    H       -5.49393       -14.42643        -9.41184
|100>    H       -5.14539       -13.65838        -7.85660
|101>    H       -5.57413       -12.66788        -9.25060
|102>    H      -10.63823       -15.79919        -9.07010
|103>    H      -11.63851       -13.75006        -7.02325
|104>    H      -13.69419       -14.90906        -7.07352
|105>    H      -12.63072       -17.54651       -12.71171
|106>    H      -14.02661       -19.49765       -13.25112
|107>    H      -15.83787       -20.19830       -11.74644
|108>    H      -16.28595       -18.98138        -9.66455
|109> *
|110>
|111>                          ****END OF INPUT****

CARTESIAN COORDINATES (ANGSTROEM)
---------------------------------
  C      0.459730   -1.559520   -2.451190
  C      1.105520   -2.645620   -3.025700
  C      0.390060   -3.668010   -3.630570
  C     -0.995530   -3.629550   -3.684800
  C     -1.649730   -2.556120   -3.105990
  C     -0.924150   -1.515400   -2.483950
  C     -1.868840   -0.533220   -1.959190
  C     -1.534080    0.645440   -1.340550
  C     -0.210260    1.085230   -1.137030
  N      0.840100    1.504790   -0.937650
  C     -2.449380    1.595900   -0.845770
  N     -3.136810    2.410900   -0.416810
  C     -3.200190   -1.059980   -2.200570
  C     -3.061770   -2.212470   -3.062540
  C     -4.030360   -2.740520   -3.886510
  C     -5.236420   -2.066920   -4.171130
  N     -6.185600   -1.502930   -4.485780
  C     -3.943170   -3.984070   -4.523140
  N     -4.005250   -5.047600   -4.962800
  C     -4.334810   -0.626350   -1.540380
  C     -5.538720   -1.304220   -1.341410
  O     -5.730350   -2.590670   -1.741910
  C     -6.982450   -2.957380   -1.400140
  C     -7.604380   -1.905070   -0.727770
  C     -6.700370   -0.849860   -0.684530
  C     -6.903630    0.496580   -0.098350
  C     -7.471310   -4.217390   -1.814700
  C     -6.717540   -5.032740   -2.604060
  C     -7.093580   -6.249920   -3.203390
  N     -6.231390   -6.876360   -4.082200
  C     -6.837520   -7.991030   -4.551950
  C     -6.682230   -9.077500   -5.403220
  C     -7.868040   -9.820940   -5.307410
  N     -8.722060   -9.206680   -4.411590
  C     -8.118570   -8.088040   -3.933310
  C     -8.278150   -7.000460   -3.089520
  C     -8.256010  -11.000190   -5.983710
  C     -7.466170  -11.719160   -6.824920
  C     -7.914850  -12.865120   -7.521460
  O     -9.200060  -13.269220   -7.428480
  C     -9.352280  -14.356060   -8.222270
  C     -8.130030  -14.665220   -8.817410
  C     -7.208540  -13.717420   -8.382130
  C     -5.771150  -13.613320   -8.746930
  C    -10.614480  -14.950530   -8.400920
  C    -11.749280  -14.523540   -7.770860
  C    -13.041310  -15.061510   -7.922910
  C    -13.555310  -15.803760   -8.960590
  C    -14.718070  -16.671190   -8.841220
  C    -15.659980  -16.679100   -7.844120
  C    -15.703080  -15.806320   -6.737590
  N    -15.817460  -15.136680   -5.810880
  C    -16.767830  -17.551560   -7.811120
  N    -17.692940  -18.225360   -7.718320
  C    -14.706440  -17.557250   -9.999640
  C    -13.674520  -17.148530  -10.873260
  C    -13.425290  -17.841580  -12.045690
  C    -14.213600  -18.943130  -12.344210
  C    -15.234660  -19.339760  -11.493410
  C    -15.492220  -18.653890  -10.315350
  C    -13.044600  -15.960760  -10.313590
  C    -12.334560  -15.036750  -11.037400
  C    -11.943890  -15.219990  -12.378570
  N    -11.574030  -15.321100  -13.461120
  C    -11.972730  -13.758350  -10.567470
  N    -11.690630  -12.685550  -10.271180
  H      1.035560   -0.773270   -1.991800
  H      2.183580   -2.691290   -3.000170
  H      0.915610   -4.503350   -4.067910
  H     -1.544900   -4.427000   -4.160270
  H     -4.277890    0.318130   -1.019900
  H     -8.602480   -1.916110   -0.339350
  H     -7.845700    0.534970    0.441510
  H     -6.920020    1.249700   -0.885620
  H     -6.091560    0.750310    0.581720
  H     -8.480220   -4.470940   -1.533270
  H     -5.715430   -4.701090   -2.837860
  H     -5.358470   -6.472930   -4.402910
  H     -5.844580   -9.308940   -6.028150
  H     -9.638860   -9.545610   -4.175660
  H     -9.114250   -6.756620   -2.466410
  H     -9.267880  -11.345490   -5.816010
  H     -6.443280  -11.427480   -7.002060
  H     -7.952170  -15.476410   -9.494660
  H     -5.493930  -14.426430   -9.411840
  H     -5.145390  -13.658380   -7.856600
  H     -5.574130  -12.667880   -9.250600
  H    -10.638230  -15.799190   -9.070100
  H    -11.638510  -13.750060   -7.023250
  H    -13.694190  -14.909060   -7.073520
  H    -12.630720  -17.546510  -12.711710
  H    -14.026610  -19.497650  -13.251120
  H    -15.837870  -20.198300  -11.746440
  H    -16.285950  -18.981380   -9.664550

 Total Charge           Charge          ....    0
 Multiplicity           Mult            ....    1
 Number of Electrons    NEL             ....  438
 Basis Dimension        Dim             .... 1064

ORBITAL ENERGIES
----------------

  NO   OCC          E(Eh)            E(eV)
   0   2.0000     -19.303818      -525.2836
   1   2.0000     -19.303333      -525.2704
   2   2.0000     -14.469796      -393.7432
   3   2.0000     -14.458034      -393.4231
   4   2.0000     -14.432436      -392.7265
   5   2.0000     -14.417503      -392.3202
   6   2.0000     -14.416744      -392.2995
   7   2.0000     -14.416497      -392.2928
   8   2.0000     -14.415420      -392.2635
   9   2.0000     -14.413496      -392.2112
  10   2.0000     -14.412124      -392.1738
  11   2.0000     -14.408423      -392.0731
  12   2.0000     -10.364489      -282.0321
  13   2.0000     -10.349846      -281.6336
  14   2.0000     -10.344516      -281.4886
  15   2.0000     -10.343793      -281.4689
  16   2.0000     -10.343759      -281.4680
  17   2.0000     -10.342502      -281.4338
  18   2.0000     -10.342223      -281.4262
  19   2.0000     -10.341800      -281.4147
  20   2.0000     -10.340501      -281.3793
  21   2.0000     -10.340004      -281.3658
  22   2.0000     -10.339936      -281.3640
  23   2.0000     -10.339572      -281.3541
  24   2.0000     -10.338573      -281.3269
  25   2.0000     -10.321851      -280.8718
  26   2.0000     -10.320781      -280.8427
  27   2.0000     -10.320575      -280.8371
  28   2.0000     -10.319619      -280.8111
  29   2.0000     -10.319472      -280.8071
  30   2.0000     -10.317036      -280.7408
  31   2.0000     -10.316858      -280.7360
  32   2.0000     -10.316770      -280.7336
  33   2.0000     -10.315760      -280.7061
  34   2.0000     -10.315668      -280.7036
  35   2.0000     -10.314066      -280.6600
  36   2.0000     -10.313600      -280.6473
  37   2.0000     -10.312786      -280.6252
  38   2.0000     -10.308712      -280.5143
  39   2.0000     -10.308099      -280.4976
  40   2.0000     -10.307721      -280.4873
  41   2.0000     -10.307449      -280.4799
  42   2.0000     -10.306692      -280.4594
  43   2.0000     -10.306541      -280.4552
  44   2.0000     -10.306222      -280.4466
  45   2.0000     -10.304714      -280.4055
  46   2.0000     -10.304130      -280.3896
  47   2.0000     -10.301172      -280.3091
  48   2.0000     -10.297739      -280.2157
  49   2.0000     -10.297050      -280.1970
  50   2.0000     -10.296363      -280.1783
  51   2.0000     -10.296089      -280.1708
  52   2.0000     -10.296056      -280.1699
  53   2.0000     -10.295501      -280.1548
  54   2.0000     -10.295150      -280.1453
  55   2.0000     -10.294611      -280.1306
  56   2.0000     -10.294556      -280.1291
  57   2.0000     -10.294200      -280.1194
  58   2.0000     -10.293973      -280.1132
  59   2.0000     -10.291381      -280.0427
  60   2.0000     -10.290186      -280.0102
  61   2.0000     -10.287789      -279.9450
  62   2.0000     -10.285325      -279.8779
  63   2.0000     -10.284469      -279.8546
  64   2.0000     -10.279888      -279.7300
  65   2.0000     -10.275997      -279.6241
  66   2.0000      -1.226742       -33.3814
  67   2.0000      -1.223591       -33.2956
  68   2.0000      -1.100140       -29.9363
  69   2.0000      -1.062552       -28.9135
  70   2.0000      -1.030571       -28.0433
  71   2.0000      -1.030385       -28.0382
  72   2.0000      -1.019005       -27.7285
  73   2.0000      -1.013027       -27.5659
  74   2.0000      -1.005740       -27.3676
  75   2.0000      -1.002559       -27.2810
  76   2.0000      -0.994393       -27.0588
  77   2.0000      -0.993889       -27.0451
  78   2.0000      -0.993366       -27.0309
  79   2.0000      -0.992572       -27.0093
  80   2.0000      -0.956287       -26.0219
  81   2.0000      -0.955192       -25.9921
  82   2.0000      -0.937666       -25.5152
  83   2.0000      -0.936718       -25.4894
  84   2.0000      -0.934121       -25.4187
  85   2.0000      -0.933628       -25.4053
  86   2.0000      -0.928216       -25.2580
  87   2.0000      -0.928067       -25.2540
  88   2.0000      -0.914443       -24.8833
  89   2.0000      -0.898424       -24.4474
  90   2.0000      -0.890279       -24.2257
  91   2.0000      -0.888476       -24.1767
  92   2.0000      -0.883981       -24.0543
  93   2.0000      -0.874178       -23.7876
  94   2.0000      -0.868316       -23.6281
  95   2.0000      -0.861891       -23.4533
  96   2.0000      -0.861491       -23.4424
  97   2.0000      -0.847581       -23.0639
  98   2.0000      -0.834217       -22.7002
  99   2.0000      -0.816158       -22.2088
 100   2.0000      -0.812348       -22.1051
 101   2.0000      -0.804619       -21.8948
 102   2.0000      -0.792693       -21.5703
 103   2.0000      -0.786462       -21.4007
 104   2.0000      -0.785513       -21.3749
 105   2.0000      -0.762532       -20.7495
 106   2.0000      -0.749003       -20.3814
 107   2.0000      -0.725996       -19.7553
 108   2.0000      -0.717288       -19.5184
 109   2.0000      -0.713557       -19.4169
 110   2.0000      -0.710083       -19.3223
 111   2.0000      -0.709279       -19.3005
 112   2.0000      -0.707159       -19.2428
 113   2.0000      -0.704144       -19.1607
 114   2.0000      -0.701659       -19.0931
 115   2.0000      -0.696739       -18.9592
 116   2.0000      -0.688369       -18.7315
 117   2.0000      -0.681691       -18.5498
 118   2.0000      -0.670343       -18.2410
 119   2.0000      -0.663993       -18.0682
 120   2.0000      -0.661047       -17.9880
 121   2.0000      -0.659956       -17.9583
 122   2.0000      -0.658711       -17.9244
 123   2.0000      -0.653593       -17.7852
 124   2.0000      -0.643116       -17.5001
 125   2.0000      -0.637034       -17.3346
 126   2.0000      -0.634969       -17.2784
 127   2.0000      -0.619768       -16.8647
 128   2.0000      -0.618728       -16.8364
 129   2.0000      -0.611376       -16.6364
 130   2.0000      -0.603830       -16.4311
 131   2.0000      -0.588050       -16.0017
 132   2.0000      -0.581095       -15.8124
 133   2.0000      -0.580771       -15.8036
 134   2.0000      -0.578947       -15.7539
 135   2.0000      -0.574599       -15.6356
 136   2.0000      -0.573902       -15.6167
 137   2.0000      -0.573398       -15.6030
 138   2.0000      -0.567589       -15.4449
 139   2.0000      -0.561976       -15.2921
 140   2.0000      -0.557416       -15.1681
 141   2.0000      -0.547718       -14.9042
 142   2.0000      -0.544973       -14.8295
 143   2.0000      -0.542519       -14.7627
 144   2.0000      -0.541666       -14.7395
 145   2.0000      -0.537227       -14.6187
 146   2.0000      -0.534616       -14.5476
 147   2.0000      -0.533950       -14.5295
 148   2.0000      -0.532228       -14.4827
 149   2.0000      -0.529601       -14.4112
 150   2.0000      -0.529060       -14.3965
 151   2.0000      -0.525760       -14.3067
 152   2.0000      -0.519814       -14.1449
 153   2.0000      -0.515331       -14.0229
 154   2.0000      -0.512159       -13.9366
 155   2.0000      -0.510603       -13.8942
 156   2.0000      -0.509606       -13.8671
 157   2.0000      -0.507053       -13.7976
 158   2.0000      -0.505220       -13.7477
 159   2.0000      -0.503698       -13.7063
 160   2.0000      -0.500663       -13.6237
 161   2.0000      -0.497328       -13.5330
 162   2.0000      -0.494806       -13.4644
 163   2.0000      -0.489962       -13.3325
 164   2.0000      -0.484786       -13.1917
 165   2.0000      -0.483669       -13.1613
 166   2.0000      -0.480653       -13.0792
 167   2.0000      -0.480532       -13.0759
 168   2.0000      -0.478535       -13.0216
 169   2.0000      -0.472648       -12.8614
 170   2.0000      -0.466784       -12.7018
 171   2.0000      -0.464554       -12.6412
 172   2.0000      -0.464013       -12.6264
 173   2.0000      -0.463558       -12.6141
 174   2.0000      -0.460471       -12.5301
 175   2.0000      -0.455899       -12.4056
 176   2.0000      -0.455148       -12.3852
 177   2.0000      -0.451846       -12.2954
 178   2.0000      -0.451779       -12.2935
 179   2.0000      -0.451034       -12.2733
 180   2.0000      -0.448617       -12.2075
 181   2.0000      -0.448102       -12.1935
 182   2.0000      -0.447948       -12.1893
 183   2.0000      -0.446639       -12.1537
 184   2.0000      -0.442923       -12.0525
 185   2.0000      -0.442811       -12.0495
 186   2.0000      -0.441952       -12.0261
 187   2.0000      -0.441583       -12.0161
 188   2.0000      -0.440560       -11.9882
 189   2.0000      -0.432865       -11.7789
 190   2.0000      -0.430606       -11.7174
 191   2.0000      -0.427353       -11.6289
 192   2.0000      -0.426866       -11.6156
 193   2.0000      -0.426183       -11.5970
 194   2.0000      -0.425506       -11.5786
 195   2.0000      -0.421434       -11.4678
 196   2.0000      -0.421010       -11.4563
 197   2.0000      -0.415086       -11.2951
 198   2.0000      -0.413532       -11.2528
 199   2.0000      -0.409914       -11.1543
 200   2.0000      -0.406753       -11.0683
 201   2.0000      -0.406100       -11.0505
 202   2.0000      -0.404849       -11.0165
 203   2.0000      -0.389728       -10.6050
 204   2.0000      -0.380226       -10.3465
 205   2.0000      -0.380058       -10.3419
 206   2.0000      -0.376302       -10.2397
 207   2.0000      -0.369793       -10.0626
 208   2.0000      -0.367592       -10.0027
 209   2.0000      -0.352005        -9.5785
 210   2.0000      -0.332819        -9.0565
 211   2.0000      -0.329712        -8.9719
 212   2.0000      -0.328244        -8.9320
 213   2.0000      -0.314200        -8.5498
 214   2.0000      -0.304437        -8.2842
 215   2.0000      -0.299289        -8.1441
 216   2.0000      -0.282864        -7.6971
 217   2.0000      -0.261063        -7.1039
 218   2.0000      -0.224697        -6.1143
 219   0.0000      -0.108757        -2.9594
 220   0.0000      -0.094305        -2.5662
 221   0.0000      -0.084831        -2.3084
 222   0.0000      -0.083233        -2.2649
 223   0.0000      -0.047579        -1.2947

MULLIKEN ATOMIC CHARGES
-----------------------
   0 C :   -0.030640
   1 C :    0.042441
   2 C :    0.047302
   3 C :   -0.044256
   4 C :    0.020661
   5 C :    0.001369
   6 C :    0.298785
   7 C :   -0.356373
   8 C :   -0.184369
   9 N :    0.148632
  10 C :   -0.178098
  11 N :    0.139584
  12 C :   -0.050369
  13 C :    0.231277
  14 C :   -0.337846
  15 C :   -0.219495
  16 N :    0.169760
  17 C :   -0.107978
  18 N :    0.064707
  19 C :   -0.002291
  20 C :    0.103775
  21 O :   -0.229596
  22 C :    0.242884
  23 C :   -0.086471
  24 C :   -0.064805
  25 C :    0.131859
  26 C :   -0.046937
  27 C :    0.041925
  28 C :    0.108107
  29 N :   -0.026807
  30 C :    0.130625
  31 C :   -0.164821
  32 C :    0.111298
  33 N :   -0.034882
  34 C :    0.120328
  35 C :   -0.163078
  36 C :    0.023943
  37 C :   -0.067041
  38 C :    0.162063
  39 O :   -0.203924
  40 C :    0.172602
  41 C :   -0.055751
  42 C :   -0.106320
  43 C :    0.121161
  44 C :    0.023759
  45 C :   -0.018068
  46 C :    0.049507
  47 C :   -0.073969
  48 C :    0.301648
  49 C :   -0.353796
  50 C :   -0.179287
  51 N :    0.148173
  52 C :   -0.191576
  53 N :    0.155373
  54 C :    0.014633
  55 C :    0.003173
  56 C :   -0.036909
  57 C :    0.047030
  58 C :    0.045476
  59 C :   -0.036833
  60 C :    0.227513
  61 C :   -0.356783
  62 C :   -0.182435
  63 N :    0.156781
  64 C :   -0.196427
  65 N :    0.180933
  66 H :    0.003880
  67 H :    0.002196
  68 H :   -0.001424
  69 H :   -0.004697
  70 H :   -0.007616
  71 H :   -0.014791
  72 H :    0.020593
  73 H :    0.056377
  74 H :    0.051967
  75 H :   -0.009466
  76 H :   -0.010275
  77 H :    0.121332
  78 H :   -0.026140
  79 H :    0.125224
  80 H :   -0.029630
  81 H :   -0.009106
  82 H :   -0.006265
  83 H :   -0.011636
  84 H :    0.017175
  85 H :    0.033912
  86 H :    0.037040
  87 H :    0.020193
  88 H :    0.009858
  89 H :    0.018746
  90 H :    0.003483
  91 H :    0.001747
  92 H :    0.001958
  93 H :    0.004508
Sum of atomic charges:   -0.0000000

LOEWDIN ATOMIC CHARGES
----------------------
   0 C :    0.003849
   1 C :   -0.002839
   2 C :   -0.001127
   3 C :   -0.006544
   4 C :   -0.010165
   5 C :   -0.012491
   6 C :    0.080303
   7 C :   -0.146096
   8 C :   -0.019414
   9 N :   -0.056253
  10 C :   -0.019197
  11 N :   -0.058878
  12 C :   -0.084918
  13 C :    0.078578
  14 C :   -0.160346
  15 C :   -0.029778
  16 N :   -0.060670
  17 C :    0.013961
  18 N :   -0.093504
  19 C :    0.039147
  20 C :   -0.000629
  21 O :    0.016612
  22 C :    0.096751
  23 C :   -0.070500
  24 C :    0.015868
  25 C :   -0.042929
  26 C :   -0.068976
  27 C :    0.022935
  28 C :   -0.005250
  29 N :    0.080703
  30 C :   -0.000499
  31 C :   -0.083117
  32 C :    0.006272
  33 N :    0.069970
  34 C :   -0.013211
  35 C :   -0.074529
  36 C :   -0.005774
  37 C :   -0.048691
  38 C :    0.054720
  39 O :    0.017847
  40 C :    0.022641
  41 C :   -0.023569
  42 C :   -0.061592
  43 C :   -0.045147
  44 C :    0.024489
  45 C :   -0.049663
  46 C :    0.057335
  47 C :   -0.071681
  48 C :    0.078552
  49 C :   -0.140881
  50 C :   -0.021393
  51 N :   -0.052063
  52 C :   -0.019167
  53 N :   -0.053503
  54 C :   -0.012993
  55 C :   -0.011379
  56 C :   -0.001557
  57 C :    0.001512
  58 C :   -0.000423
  59 C :    0.003628
  60 C :    0.064728
  61 C :   -0.142589
  62 C :   -0.021785
  63 N :   -0.054855
  64 C :   -0.019116
  65 N :   -0.042541
  66 H :    0.041022
  67 H :    0.036470
  68 H :    0.035151
  69 H :    0.036901
  70 H :    0.050215
  71 H :    0.033699
  72 H :    0.039586
  73 H :    0.053885
  74 H :    0.048729
  75 H :    0.035874
  76 H :    0.036883
  77 H :    0.074777
  78 H :    0.027131
  79 H :    0.091782
  80 H :    0.026131
  81 H :    0.033719
  82 H :    0.036260
  83 H :    0.034698
  84 H :    0.037731
  85 H :    0.038961
  86 H :    0.040751
  87 H :    0.042414
  88 H :    0.037587
  89 H :    0.047401
  90 H :    0.039803
  91 H :    0.036471
  92 H :    0.036714
  93 H :    0.041079

  Mayer bond orders larger than 0.100000
B(  0-C ,  1-C ) :   1.3609 B(  0-C ,  5-C ) :   1.3948 B(  0-C , 66-H ) :   0.9829
B(  1-C ,  2-C ) :   1.3869 B(  1-C , 67-H ) :   0.9862 B(  2-C ,  3-C ) :   1.3600
B(  2-C , 68-H ) :   0.9855 B(  3-C ,  4-C ) :   1.3878 B(  3-C , 69-H ) :   0.9854
B(  4-C ,  5-C ) :   1.3115 B(  4-C , 13-C ) :   1.0283 B(  5-C ,  6-C ) :   0.9902
B(  6-C ,  7-C ) :   1.6058 B(  6-C , 12-C ) :   1.0964 B(  7-C ,  8-C ) :   1.1493
B(  7-C , 10-C ) :   1.1442 B(  8-C ,  9-N ) :   2.9709 B( 10-C , 11-N ) :   2.9614
B( 12-C , 13-C ) :   1.0872 B( 12-C , 19-C ) :   1.4053 B( 13-C , 14-C ) :   1.5622
B( 14-C , 15-C ) :   1.1575 B( 14-C , 17-C ) :   1.1651 B( 15-C , 16-N ) :   3.0177
B( 17-C , 18-N ) :   2.8434 B( 18-N , 77-H ) :   0.1094 B( 19-C , 20-C ) :   1.3610
B( 19-C , 70-H ) :   0.9169 B( 20-C , 21-O ) :   1.0674 B( 20-C , 24-C ) :   1.2950
B( 21-O , 22-C ) :   1.1537 B( 22-C , 23-C ) :   1.3003 B( 22-C , 26-C ) :   1.2097
B( 23-C , 24-C ) :   1.3533 B( 23-C , 71-H ) :   1.0152 B( 24-C , 25-C ) :   1.1118
B( 25-C , 72-H ) :   0.9458 B( 25-C , 73-H ) :   0.9373 B( 25-C , 74-H ) :   0.9302
B( 26-C , 27-C ) :   1.5636 B( 26-C , 75-H ) :   0.9670 B( 27-C , 28-C ) :   1.1620
B( 27-C , 76-H ) :   0.9606 B( 28-C , 29-N ) :   1.1833 B( 28-C , 35-C ) :   1.3441
B( 29-N , 30-C ) :   1.2060 B( 29-N , 77-H ) :   0.8931 B( 30-C , 31-C ) :   1.2714
B( 30-C , 34-C ) :   1.2672 B( 31-C , 32-C ) :   1.3844 B( 31-C , 78-H ) :   1.0313
B( 32-C , 33-N ) :   1.1697 B( 32-C , 36-C ) :   1.1140 B( 33-N , 34-C ) :   1.1613
B( 33-N , 79-H ) :   0.9362 B( 34-C , 35-C ) :   1.3043 B( 35-C , 80-H ) :   1.0306
B( 36-C , 37-C ) :   1.6129 B( 36-C , 81-H ) :   0.9748 B( 37-C , 38-C ) :   1.1995
B( 37-C , 82-H ) :   0.9583 B( 38-C , 39-O ) :   1.1584 B( 38-C , 42-C ) :   1.3628
B( 39-O , 40-C ) :   1.1274 B( 40-C , 41-C ) :   1.3344 B( 40-C , 44-C ) :   1.2561
B( 41-C , 42-C ) :   1.3136 B( 41-C , 83-H ) :   1.0158 B( 42-C , 43-C ) :   1.0948
B( 43-C , 84-H ) :   0.9499 B( 43-C , 85-H ) :   0.9470 B( 43-C , 86-H ) :   0.9449
B( 44-C , 45-C ) :   1.5246 B( 44-C , 87-H ) :   0.9501 B( 45-C , 46-C ) :   1.2426
B( 45-C , 88-H ) :   0.9596 B( 46-C , 47-C ) :   1.5324 B( 46-C , 89-H ) :   0.9245
B( 47-C , 48-C ) :   1.0804 B( 47-C , 60-C ) :   1.0367 B( 48-C , 49-C ) :   1.6180
B( 48-C , 54-C ) :   0.9900 B( 49-C , 50-C ) :   1.1389 B( 49-C , 52-C ) :   1.1511
B( 50-C , 51-N ) :   2.9676 B( 52-C , 53-N ) :   2.9755 B( 54-C , 55-C ) :   1.3177
B( 54-C , 59-C ) :   1.3849 B( 55-C , 56-C ) :   1.3811 B( 55-C , 60-C ) :   1.0050
B( 56-C , 57-C ) :   1.3621 B( 56-C , 90-H ) :   0.9881 B( 57-C , 58-C ) :   1.3807
B( 57-C , 91-H ) :   0.9870 B( 58-C , 59-C ) :   1.3666 B( 58-C , 92-H ) :   0.9867
B( 59-C , 93-H ) :   0.9844 B( 60-C , 61-C ) :   1.6283 B( 61-C , 62-C ) :   1.1436
B( 61-C , 64-C ) :   1.1604 B( 62-C , 63-N ) :   2.9901 B( 64-C , 65-N ) :   3.0008

-----------------------------------------------------------------------------
         ABSORPTION SPECTRUM VIA TRANSITION ELECTRIC DIPOLE MOMENTS
-----------------------------------------------------------------------------
State   Energy  Wavelength   fosc         T2         TX        TY        TZ
        (cm-1)    (nm)                  (au**2)     (au)      (au)      (au)
-----------------------------------------------------------------------------
   0   10932.8    914.7   1.669940985  50.28602   4.03872   5.31808   2.38596
   1   14567.5    686.5   0.164163661   3.70995  -0.89019  -0.69988  -1.55810
   2   17078.4    585.5   0.181538306   3.49942   0.83096   1.62707   0.40197
   3   18442.8    542.2   0.069735593   1.24481  -0.79843  -0.65723   0.41877
   4   20335.1    491.8   0.079406485   1.28554   0.36937   0.56314   0.91213
   5   22306.2    448.3   0.312015350   4.60495  -1.14278   1.45832   1.08274
   6   24765.6    403.8   0.050591773   0.67252  -0.81146  -0.11845  -0.00532
   7   25516.2    391.9   0.498473625   6.43134   0.69755  -1.99880  -1.39627
   8   26242.1    381.1   0.143240340   1.79697  -0.66613   0.28933   1.12673
   9   26522.4    377.0   0.074626023   0.92630   0.18677  -0.73161  -0.59680
  10   26732.6    374.1   0.027574077   0.33957   0.28406   0.32957   0.38765
  11   26768.8    373.6   0.205632239   2.52894   1.24053   0.99461   0.02783
  12   29092.2    343.7   0.179867437   2.03541  -1.37170   0.18548   0.34563
  13   29814.6    335.4   0.075343738   0.83194   0.43774  -0.53056  -0.59902
  14   30523.3    327.6   0.277630993   2.99442   1.18904   1.04304   0.70191
  15   30895.8    323.7   0.110324571   1.17557   0.77092   0.36113  -0.67145
  16   31140.2    321.1   0.047720637   0.50450   0.45110  -0.19955  -0.51107
  17   31460.5    317.9   0.052104174   0.54523  -0.68511   0.20892   0.17947
  18   32142.9    311.1   0.266726781   2.73185  -1.30910  -0.69239  -0.73396
  19   32684.2    306.0   0.130626438   1.31574   0.99231   0.53295   0.21687
  20   32877.2    304.2   0.458889073   4.59503  -1.36482  -0.92713   1.36847
  21   33221.5    301.0   0.108101034   1.07124   0.50462  -0.26779  -0.86307
  22   34087.5    293.4   0.075719119   0.73128   0.08512  -0.81566  -0.24236
  23   34250.2    292.0   0.071887452   0.69098  -0.77844  -0.29088   0.01998
  24   34513.3    289.7   0.141567708   1.35037  -0.73280   0.77814   0.45594
  25   34706.5    288.1   0.024300289   0.23050  -0.16108   0.41735  -0.17427
  26   35435.0    282.2   0.541998002   5.03548   0.84093  -1.58065  -1.35272
  27   36364.4    275.0   0.036337393   0.32897   0.06740   0.50840   0.25681
  28   36521.3    273.8   0.130409301   1.17554  -0.99387  -0.42670  -0.07545
  29   36834.3    271.5   0.032344643   0.28909  -0.52019   0.05392  -0.12482
  30   37684.5    265.4   0.007282659   0.06362   0.22549   0.11209   0.01450
  31   38420.4    260.3   0.063663173   0.54551   0.44880  -0.55667  -0.18495
  32   38701.3    258.4   0.018099182   0.15396   0.09153   0.16817   0.34249
  33   38992.0    256.5   0.030491300   0.25744  -0.18836   0.38106   0.27704
  34   39099.7    255.8   0.001179537   0.00993  -0.03808   0.07180  -0.05767
  35   39689.9    252.0   0.060829255   0.50455   0.05204   0.59415   0.38579
  36   40139.8    249.1   0.111517943   0.91463  -0.90353   0.07341   0.30477

FINAL SINGLE POINT ENERGY     -2768.806283768165

DIPOLE MOMENT
-------------
                                X             Y             Z
Electronic contribution:    -10.12648       5.93317      -1.76975
Nuclear contribution   :     11.90468      -8.66415       2.51114
                        -----------------------------------------
Total Dipole Moment    :      1.77820      -2.73098       0.74140
                        -----------------------------------------
Magnitude (a.u.)       :      3.34214
Magnitude (Debye)      :      8.49505

Rotational constants in cm-1:     0.003124     0.000255     0.000242
Rotational constants in MHz :    93.653408     7.647807     7.265457

                             ****ORCA TERMINATED NORMALLY****
TOTAL RUN TIME: 0 days 0 hours 9 minutes 48 seconds 581 msec
