                         Program Version 4.2.0 -  RELEASE  -
|  1> # ORCA input file
|  2> # SCF done       -187.805502373410          0.000623857780
|  3> ! CAM-B3LYP def2-SVP def2/J RIJCOSX Grid4 TightSCF
|  4> %maxcore 5000
|  5> %tddft
|  6>     Mode sTDDFT
|  7>     Ethresh 5.0
|  8>     maxcore 5000
|  9> end
| 10>
| 11> %pal
| 12>   nprocs 6
| 13>   end
| 14> * xyz 0 1
| 15>    C       -2.03609        -2.12409        -3.00129
| 16>    C       -2.27914        -2.85312        -4.15498
| 17>    C       -3.53761        -3.37726        -4.41987
| 18>    C       -4.59399        -3.17934        -3.54303
| 19>    C       -4.36526        -2.44933        -2.38881
| 20>    C       -3.08094        -1.92533        -2.11045
| 21>    C       -3.12298        -1.23441        -0.83204
| 22>    C       -2.13152        -0.45912        -0.29517
| 23>    C       -0.88086        -0.23306        -0.91292
| 24>    N        0.15656        -0.01316        -1.35003
| 25>    C       -2.21788         0.25453         0.91644
| 26>    N       -2.20439         0.86781         1.88801
| 27>    C       -4.43002        -1.52594        -0.24042
| 28>    C       -5.26823        -2.05290        -1.31897
| 29>    C       -6.62340        -1.94827        -1.41453
| 30>    C       -7.42690        -1.25888        -0.47614
| 31>    N       -8.10121        -0.59945         0.17752
| 32>    C       -7.36407        -2.39198        -2.53185
| 33>    N       -8.00329        -2.73524        -3.41987
| 34>    C       -4.68200        -1.47474         1.09891
| 35>    C       -5.76668        -2.08438         1.78417
| 36>    N       -6.61221        -2.89899         1.16204
| 37>    C       -7.53934        -3.24932         2.07226
| 38>    C       -7.27632        -2.60367         3.35906
| 39>    C       -8.31426        -2.95673         4.34292
| 40>    O       -8.40369        -2.61854         5.50010
| 41>    C       -9.20928        -3.83426         3.55601
| 42>    C       -8.68768        -3.99508         2.17857
| 43>    N       -9.48915        -4.81210         1.45325
| 44>    C      -10.45477        -5.15439         2.26938
| 45>    C      -10.33811        -4.58273         3.60151
| 46>    C       -6.11601        -1.88731         3.21242
| 47>    C       -5.49786        -1.11750         4.24622
| 48>    C       -4.20028        -0.77794         4.38732
| 49>    C       -3.74833        -0.02092         5.51605
| 50>    C       -2.47523         0.33074         5.76356
| 51>    C       -1.32191        -0.01428         4.87554
| 52>    C       -2.16375         1.18741         6.96848
| 53>    N       -2.06935         2.57753         6.57852
| 54>    C       -3.03638         3.46515         6.75810
| 55>    C       -3.01527         4.76278         6.31565
| 56>    C       -4.08672         5.61680         6.60444
| 57>    N       -5.17522         5.19117         7.26279
| 58>    C       -5.98111         6.24556         7.37016
| 59>    C       -5.39808         7.44544         6.74161
| 60>    C       -6.30385         8.59897         6.90005
| 61>    O       -6.14412         9.73962         6.50595
| 62>    C       -7.42975         8.02968         7.63888
| 63>    C       -7.20620         6.59909         7.90430
| 64>    N       -8.24287         6.07871         8.58656
| 65>    C       -9.08677         7.07894         8.76417
| 66>    C       -8.64077         8.31990         8.20206
| 67>    C       -4.17725         7.05579         6.24808
| 68>    C       -3.17485         7.82053         5.59476
| 69>    C       -3.33084         9.14613         5.34733
| 70>    C       -2.33990         9.95300         4.74310
| 71>    C       -2.37609        11.31797         4.70971
| 72>    C       -1.61190        12.16487         3.80248
| 73>    C       -0.46867        11.82737         3.12895
| 74>    C        0.20356        10.59316         3.25135
| 75>    N        0.80279         9.61532         3.31096
| 76>    C        0.21806        12.69136         2.25001
| 77>    N        0.82255        13.34113         1.52211
| 78>    C       -2.30330        13.44531         3.74710
| 79>    C       -3.35215        13.44274         4.69602
| 80>    C       -4.18605        14.54035         4.82827
| 81>    C       -3.96579        15.64080         4.01347
| 82>    C       -2.92942        15.65038         3.09028
| 83>    C       -2.08893        14.55696         2.94682
| 84>    C       -3.31191        12.18295         5.42345
| 85>    C       -3.85339        11.94930         6.65659
| 86>    C       -4.71643        12.85069         7.31666
| 87>    N       -5.41648        13.55215         7.89439
| 88>    C       -3.50642        10.85829         7.48546
| 89>    N       -3.18562        10.04685         8.23053
| 90>    H       -1.05118        -1.73207        -2.80699
| 91>    H       -1.47392        -3.01884        -4.85398
| 92>    H       -3.69817        -3.94890        -5.32095
| 93>    H       -5.56449        -3.59779        -3.75407
| 94>    H       -3.95082        -0.98804         1.72547
| 95>    H      -11.24455        -5.80409         1.93417
| 96>    H      -11.02380        -4.74396         4.40947
| 97>    H       -6.18329        -0.85040         5.04263
| 98>    H       -3.45230        -1.08924         3.67461
| 99>    H       -4.51974         0.28088         6.21261
|100>    H       -0.38696         0.36652         5.27873
|101>    H       -1.46643         0.40223         3.87812
|102>    H       -1.22860        -1.09468         4.77090
|103>    H       -1.21186         0.88319         7.41535
|104>    H       -2.95146         1.09786         7.71835
|105>    H       -1.28839         2.82971         5.98630
|106>    H       -3.89841         3.14916         7.33075
|107>    H       -2.17342         5.13692         5.75314
|108>    H      -10.01130         6.91730         9.29023
|109>    H       -9.16831         9.25248         8.23591
|110>    H       -2.24080         7.33438         5.34643
|111>    H       -4.27309         9.60833         5.60771
|112>    H       -1.54362         9.44241         4.21811
|113>    H       -4.99806        14.54020         5.53706
|114>    H       -4.61192        16.50100         4.09977
|115>    H       -2.77544        16.51956         2.46921
|116>    H       -1.29283        14.57859         2.22067
|117> *
|118>
|119>                          ****END OF INPUT****

CARTESIAN COORDINATES (ANGSTROEM)
---------------------------------
  C     -2.036090   -2.124090   -3.001290
  C     -2.279140   -2.853120   -4.154980
  C     -3.537610   -3.377260   -4.419870
  C     -4.593990   -3.179340   -3.543030
  C     -4.365260   -2.449330   -2.388810
  C     -3.080940   -1.925330   -2.110450
  C     -3.122980   -1.234410   -0.832040
  C     -2.131520   -0.459120   -0.295170
  C     -0.880860   -0.233060   -0.912920
  N      0.156560   -0.013160   -1.350030
  C     -2.217880    0.254530    0.916440
  N     -2.204390    0.867810    1.888010
  C     -4.430020   -1.525940   -0.240420
  C     -5.268230   -2.052900   -1.318970
  C     -6.623400   -1.948270   -1.414530
  C     -7.426900   -1.258880   -0.476140
  N     -8.101210   -0.599450    0.177520
  C     -7.364070   -2.391980   -2.531850
  N     -8.003290   -2.735240   -3.419870
  C     -4.682000   -1.474740    1.098910
  C     -5.766680   -2.084380    1.784170
  N     -6.612210   -2.898990    1.162040
  C     -7.539340   -3.249320    2.072260
  C     -7.276320   -2.603670    3.359060
  C     -8.314260   -2.956730    4.342920
  O     -8.403690   -2.618540    5.500100
  C     -9.209280   -3.834260    3.556010
  C     -8.687680   -3.995080    2.178570
  N     -9.489150   -4.812100    1.453250
  C    -10.454770   -5.154390    2.269380
  C    -10.338110   -4.582730    3.601510
  C     -6.116010   -1.887310    3.212420
  C     -5.497860   -1.117500    4.246220
  C     -4.200280   -0.777940    4.387320
  C     -3.748330   -0.020920    5.516050
  C     -2.475230    0.330740    5.763560
  C     -1.321910   -0.014280    4.875540
  C     -2.163750    1.187410    6.968480
  N     -2.069350    2.577530    6.578520
  C     -3.036380    3.465150    6.758100
  C     -3.015270    4.762780    6.315650
  C     -4.086720    5.616800    6.604440
  N     -5.175220    5.191170    7.262790
  C     -5.981110    6.245560    7.370160
  C     -5.398080    7.445440    6.741610
  C     -6.303850    8.598970    6.900050
  O     -6.144120    9.739620    6.505950
  C     -7.429750    8.029680    7.638880
  C     -7.206200    6.599090    7.904300
  N     -8.242870    6.078710    8.586560
  C     -9.086770    7.078940    8.764170
  C     -8.640770    8.319900    8.202060
  C     -4.177250    7.055790    6.248080
  C     -3.174850    7.820530    5.594760
  C     -3.330840    9.146130    5.347330
  C     -2.339900    9.953000    4.743100
  C     -2.376090   11.317970    4.709710
  C     -1.611900   12.164870    3.802480
  C     -0.468670   11.827370    3.128950
  C      0.203560   10.593160    3.251350
  N      0.802790    9.615320    3.310960
  C      0.218060   12.691360    2.250010
  N      0.822550   13.341130    1.522110
  C     -2.303300   13.445310    3.747100
  C     -3.352150   13.442740    4.696020
  C     -4.186050   14.540350    4.828270
  C     -3.965790   15.640800    4.013470
  C     -2.929420   15.650380    3.090280
  C     -2.088930   14.556960    2.946820
  C     -3.311910   12.182950    5.423450
  C     -3.853390   11.949300    6.656590
  C     -4.716430   12.850690    7.316660
  N     -5.416480   13.552150    7.894390
  C     -3.506420   10.858290    7.485460
  N     -3.185620   10.046850    8.230530
  H     -1.051180   -1.732070   -2.806990
  H     -1.473920   -3.018840   -4.853980
  H     -3.698170   -3.948900   -5.320950
  H     -5.564490   -3.597790   -3.754070
  H     -3.950820   -0.988040    1.725470
  H    -11.244550   -5.804090    1.934170
  H    -11.023800   -4.743960    4.409470
  H     -6.183290   -0.850400    5.042630
  H     -3.452300   -1.089240    3.674610
  H     -4.519740    0.280880    6.212610
  H     -0.386960    0.366520    5.278730
  H     -1.466430    0.402230    3.878120
  H     -1.228600   -1.094680    4.770900
  H     -1.211860    0.883190    7.415350
  H     -2.951460    1.097860    7.718350
  H     -1.288390    2.829710    5.986300
  H     -3.898410    3.149160    7.330750
  H     -2.173420    5.136920    5.753140
  H    -10.011300    6.917300    9.290230
  H     -9.168310    9.252480    8.235910
  H     -2.240800    7.334380    5.346430
  H     -4.273090    9.608330    5.607710
  H     -1.543620    9.442410    4.218110
  H     -4.998060   14.540200    5.537060
  H     -4.611920   16.501000    4.099770
  H     -2.775440   16.519560    2.469210
  H     -1.292830   14.578590    2.220670

 Total Charge           Charge          ....    0
 Multiplicity           Mult            ....    1
 Number of Electrons    NEL             ....  494
 Basis Dimension        Dim             .... 1185

ORBITAL ENERGIES
----------------

  NO   OCC          E(Eh)            E(eV)
   0   2.0000     -19.222410      -523.0684
   1   2.0000     -19.201048      -522.4871
   2   2.0000     -14.481202      -394.0535
   3   2.0000     -14.453593      -393.3023
   4   2.0000     -14.443614      -393.0307
   5   2.0000     -14.436560      -392.8388
   6   2.0000     -14.436306      -392.8318
   7   2.0000     -14.430280      -392.6679
   8   2.0000     -14.422395      -392.4533
   9   2.0000     -14.417793      -392.3281
  10   2.0000     -14.415032      -392.2530
  11   2.0000     -14.410520      -392.1302
  12   2.0000     -14.407064      -392.0361
  13   2.0000     -14.388167      -391.5219
  14   2.0000     -14.382475      -391.3670
  15   2.0000     -10.383133      -282.5394
  16   2.0000     -10.378682      -282.4183
  17   2.0000     -10.374418      -282.3023
  18   2.0000     -10.371680      -282.2278
  19   2.0000     -10.366200      -282.0787
  20   2.0000     -10.361228      -281.9433
  21   2.0000     -10.359656      -281.9006
  22   2.0000     -10.356582      -281.8169
  23   2.0000     -10.356286      -281.8089
  24   2.0000     -10.352659      -281.7102
  25   2.0000     -10.347824      -281.5786
  26   2.0000     -10.345652      -281.5195
  27   2.0000     -10.345073      -281.5038
  28   2.0000     -10.344875      -281.4984
  29   2.0000     -10.344490      -281.4879
  30   2.0000     -10.343341      -281.4566
  31   2.0000     -10.342890      -281.4443
  32   2.0000     -10.342256      -281.4271
  33   2.0000     -10.337426      -281.2957
  34   2.0000     -10.336226      -281.2630
  35   2.0000     -10.335573      -281.2453
  36   2.0000     -10.334715      -281.2219
  37   2.0000     -10.333382      -281.1856
  38   2.0000     -10.331592      -281.1369
  39   2.0000     -10.331279      -281.1284
  40   2.0000     -10.321271      -280.8561
  41   2.0000     -10.320395      -280.8322
  42   2.0000     -10.319944      -280.8199
  43   2.0000     -10.319088      -280.7967
  44   2.0000     -10.317779      -280.7610
  45   2.0000     -10.316753      -280.7331
  46   2.0000     -10.315814      -280.7076
  47   2.0000     -10.314511      -280.6721
  48   2.0000     -10.313347      -280.6405
  49   2.0000     -10.312149      -280.6078
  50   2.0000     -10.310063      -280.5511
  51   2.0000     -10.309764      -280.5429
  52   2.0000     -10.306528      -280.4549
  53   2.0000     -10.305875      -280.4371
  54   2.0000     -10.305520      -280.4275
  55   2.0000     -10.304358      -280.3958
  56   2.0000     -10.302486      -280.3449
  57   2.0000     -10.301188      -280.3096
  58   2.0000     -10.300915      -280.3021
  59   2.0000     -10.300373      -280.2874
  60   2.0000     -10.298076      -280.2249
  61   2.0000     -10.297567      -280.2110
  62   2.0000     -10.296963      -280.1946
  63   2.0000     -10.296876      -280.1923
  64   2.0000     -10.294719      -280.1335
  65   2.0000     -10.293549      -280.1017
  66   2.0000     -10.292955      -280.0855
  67   2.0000     -10.292261      -280.0667
  68   2.0000     -10.288200      -279.9561
  69   2.0000     -10.285716      -279.8886
  70   2.0000     -10.282649      -279.8051
  71   2.0000     -10.278709      -279.6979
  72   2.0000     -10.276498      -279.6377
  73   2.0000     -10.267105      -279.3821
  74   2.0000     -10.265302      -279.3331
  75   2.0000      -1.137347       -30.9488
  76   2.0000      -1.114681       -30.3320
  77   2.0000      -1.100164       -29.9370
  78   2.0000      -1.079192       -29.3663
  79   2.0000      -1.078041       -29.3350
  80   2.0000      -1.061594       -28.8874
  81   2.0000      -1.057439       -28.7744
  82   2.0000      -1.040911       -28.3246
  83   2.0000      -1.037110       -28.2212
  84   2.0000      -1.028310       -27.9817
  85   2.0000      -1.026538       -27.9335
  86   2.0000      -1.023294       -27.8452
  87   2.0000      -1.010731       -27.5034
  88   2.0000      -1.010515       -27.4975
  89   2.0000      -0.998483       -27.1701
  90   2.0000      -0.994611       -27.0647
  91   2.0000      -0.986983       -26.8572
  92   2.0000      -0.979072       -26.6419
  93   2.0000      -0.961663       -26.1682
  94   2.0000      -0.953562       -25.9477
  95   2.0000      -0.952957       -25.9313
  96   2.0000      -0.944497       -25.7011
  97   2.0000      -0.932660       -25.3790
  98   2.0000      -0.927622       -25.2419
  99   2.0000      -0.924724       -25.1630
 100   2.0000      -0.920190       -25.0396
 101   2.0000      -0.914707       -24.8904
 102   2.0000      -0.906720       -24.6731
 103   2.0000      -0.888896       -24.1881
 104   2.0000      -0.885590       -24.0981
 105   2.0000      -0.883499       -24.0412
 106   2.0000      -0.877350       -23.8739
 107   2.0000      -0.874489       -23.7961
 108   2.0000      -0.859340       -23.3838
 109   2.0000      -0.859132       -23.3782
 110   2.0000      -0.835070       -22.7234
 111   2.0000      -0.833603       -22.6835
 112   2.0000      -0.829347       -22.5677
 113   2.0000      -0.810997       -22.0683
 114   2.0000      -0.807493       -21.9730
 115   2.0000      -0.797469       -21.7002
 116   2.0000      -0.783936       -21.3320
 117   2.0000      -0.781749       -21.2725
 118   2.0000      -0.775361       -21.0987
 119   2.0000      -0.768230       -20.9046
 120   2.0000      -0.753938       -20.5157
 121   2.0000      -0.740332       -20.1455
 122   2.0000      -0.738094       -20.0846
 123   2.0000      -0.734292       -19.9811
 124   2.0000      -0.732171       -19.9234
 125   2.0000      -0.722821       -19.6690
 126   2.0000      -0.712080       -19.3767
 127   2.0000      -0.708802       -19.2875
 128   2.0000      -0.704257       -19.1638
 129   2.0000      -0.697515       -18.9803
 130   2.0000      -0.696554       -18.9542
 131   2.0000      -0.686353       -18.6766
 132   2.0000      -0.680628       -18.5208
 133   2.0000      -0.679400       -18.4874
 134   2.0000      -0.670501       -18.2453
 135   2.0000      -0.667484       -18.1632
 136   2.0000      -0.660218       -17.9655
 137   2.0000      -0.655381       -17.8338
 138   2.0000      -0.653325       -17.7779
 139   2.0000      -0.639668       -17.4062
 140   2.0000      -0.637699       -17.3527
 141   2.0000      -0.635078       -17.2814
 142   2.0000      -0.625107       -17.0100
 143   2.0000      -0.623603       -16.9691
 144   2.0000      -0.613803       -16.7024
 145   2.0000      -0.609789       -16.5932
 146   2.0000      -0.606489       -16.5034
 147   2.0000      -0.606415       -16.5014
 148   2.0000      -0.599693       -16.3185
 149   2.0000      -0.594263       -16.1707
 150   2.0000      -0.592455       -16.1215
 151   2.0000      -0.579443       -15.7675
 152   2.0000      -0.579432       -15.7671
 153   2.0000      -0.573679       -15.6106
 154   2.0000      -0.569778       -15.5044
 155   2.0000      -0.566974       -15.4281
 156   2.0000      -0.565233       -15.3808
 157   2.0000      -0.563776       -15.3411
 158   2.0000      -0.562351       -15.3024
 159   2.0000      -0.555413       -15.1136
 160   2.0000      -0.552912       -15.0455
 161   2.0000      -0.548187       -14.9169
 162   2.0000      -0.546122       -14.8607
 163   2.0000      -0.541218       -14.7273
 164   2.0000      -0.536956       -14.6113
 165   2.0000      -0.535745       -14.5784
 166   2.0000      -0.533515       -14.5177
 167   2.0000      -0.532764       -14.4972
 168   2.0000      -0.530810       -14.4441
 169   2.0000      -0.528262       -14.3747
 170   2.0000      -0.526490       -14.3265
 171   2.0000      -0.525127       -14.2894
 172   2.0000      -0.524089       -14.2612
 173   2.0000      -0.521377       -14.1874
 174   2.0000      -0.516797       -14.0628
 175   2.0000      -0.514701       -14.0057
 176   2.0000      -0.510424       -13.8893
 177   2.0000      -0.507219       -13.8021
 178   2.0000      -0.502132       -13.6637
 179   2.0000      -0.500226       -13.6118
 180   2.0000      -0.496484       -13.5100
 181   2.0000      -0.495534       -13.4842
 182   2.0000      -0.489050       -13.3077
 183   2.0000      -0.488080       -13.2813
 184   2.0000      -0.486203       -13.2302
 185   2.0000      -0.485428       -13.2092
 186   2.0000      -0.483854       -13.1663
 187   2.0000      -0.481535       -13.1032
 188   2.0000      -0.480124       -13.0648
 189   2.0000      -0.479285       -13.0420
 190   2.0000      -0.475454       -12.9378
 191   2.0000      -0.474963       -12.9244
 192   2.0000      -0.472072       -12.8457
 193   2.0000      -0.468883       -12.7590
 194   2.0000      -0.466093       -12.6830
 195   2.0000      -0.465210       -12.6590
 196   2.0000      -0.464046       -12.6273
 197   2.0000      -0.460835       -12.5400
 198   2.0000      -0.459119       -12.4933
 199   2.0000      -0.458650       -12.4805
 200   2.0000      -0.457540       -12.4503
 201   2.0000      -0.455235       -12.3876
 202   2.0000      -0.453953       -12.3527
 203   2.0000      -0.453867       -12.3503
 204   2.0000      -0.450648       -12.2627
 205   2.0000      -0.449898       -12.2424
 206   2.0000      -0.446369       -12.1463
 207   2.0000      -0.445242       -12.1157
 208   2.0000      -0.444466       -12.0945
 209   2.0000      -0.444174       -12.0866
 210   2.0000      -0.442615       -12.0442
 211   2.0000      -0.440284       -11.9807
 212   2.0000      -0.440248       -11.9797
 213   2.0000      -0.437079       -11.8935
 214   2.0000      -0.435945       -11.8627
 215   2.0000      -0.429533       -11.6882
 216   2.0000      -0.427929       -11.6445
 217   2.0000      -0.427474       -11.6322
 218   2.0000      -0.424429       -11.5493
 219   2.0000      -0.421979       -11.4826
 220   2.0000      -0.420294       -11.4368
 221   2.0000      -0.417860       -11.3706
 222   2.0000      -0.408512       -11.1162
 223   2.0000      -0.404588       -11.0094
 224   2.0000      -0.403393       -10.9769
 225   2.0000      -0.393813       -10.7162
 226   2.0000      -0.391044       -10.6408
 227   2.0000      -0.381522       -10.3817
 228   2.0000      -0.377391       -10.2693
 229   2.0000      -0.370060       -10.0698
 230   2.0000      -0.362399        -9.8614
 231   2.0000      -0.352256        -9.5854
 232   2.0000      -0.351306        -9.5595
 233   2.0000      -0.350290        -9.5319
 234   2.0000      -0.348615        -9.4863
 235   2.0000      -0.346957        -9.4412
 236   2.0000      -0.343465        -9.3462
 237   2.0000      -0.339254        -9.2316
 238   2.0000      -0.334584        -9.1045
 239   2.0000      -0.327071        -8.9000
 240   2.0000      -0.317267        -8.6333
 241   2.0000      -0.316501        -8.6124
 242   2.0000      -0.313345        -8.5265
 243   2.0000      -0.306509        -8.3405
 244   2.0000      -0.289232        -7.8704
 245   2.0000      -0.276824        -7.5328
 246   2.0000      -0.261078        -7.1043
 247   0.0000      -0.149429        -4.0662
 248   0.0000      -0.105826        -2.8797
 249   0.0000      -0.103853        -2.8260
 250   0.0000      -0.091178        -2.4811
 251   0.0000      -0.079693        -2.1686

MULLIKEN ATOMIC CHARGES
-----------------------
   0 C :   -0.028154
   1 C :    0.045566
   2 C :    0.054181
   3 C :   -0.029737
   4 C :    0.017401
   5 C :    0.009722
   6 C :    0.281742
   7 C :   -0.336658
   8 C :   -0.190854
   9 N :    0.178295
  10 C :   -0.139138
  11 N :    0.151511
  12 C :   -0.003704
  13 C :    0.214620
  14 C :   -0.236199
  15 C :   -0.177032
  16 N :    0.172380
  17 C :   -0.193013
  18 N :    0.175822
  19 C :    0.036235
  20 C :    0.009481
  21 N :   -0.076281
  22 C :    0.078993
  23 C :   -0.120314
  24 C :    0.212189
  25 O :   -0.117447
  26 C :   -0.033728
  27 C :   -0.006730
  28 N :   -0.053950
  29 C :    0.104443
  30 C :   -0.089381
  31 C :    0.076639
  32 C :   -0.054054
  33 C :    0.019468
  34 C :    0.011935
  35 C :   -0.195575
  36 C :    0.081371
  37 C :    0.196115
  38 N :   -0.094860
  39 C :    0.113707
  40 C :   -0.101748
  41 C :    0.071527
  42 N :   -0.076415
  43 C :    0.063642
  44 C :   -0.145415
  45 C :    0.230352
  46 O :   -0.170985
  47 C :   -0.010936
  48 C :   -0.060264
  49 N :   -0.061419
  50 C :    0.080843
  51 C :   -0.099074
  52 C :    0.047990
  53 C :   -0.016558
  54 C :   -0.000191
  55 C :    0.035123
  56 C :   -0.058248
  57 C :    0.296554
  58 C :   -0.340366
  59 C :   -0.184781
  60 N :    0.148522
  61 C :   -0.187822
  62 N :    0.155909
  63 C :    0.011616
  64 C :    0.012922
  65 C :   -0.034559
  66 C :    0.048429
  67 C :    0.045349
  68 C :   -0.036654
  69 C :    0.229103
  70 C :   -0.290988
  71 C :   -0.177478
  72 N :    0.159880
  73 C :   -0.203719
  74 N :    0.170761
  75 H :    0.008534
  76 H :    0.010255
  77 H :    0.011981
  78 H :    0.013072
  79 H :   -0.035653
  80 H :    0.019591
  81 H :    0.004723
  82 H :    0.019971
  83 H :   -0.002367
  84 H :   -0.012810
  85 H :   -0.001634
  86 H :    0.045693
  87 H :    0.036652
  88 H :    0.027766
  89 H :    0.032211
  90 H :    0.137968
  91 H :    0.042894
  92 H :   -0.024202
  93 H :   -0.003124
  94 H :   -0.014443
  95 H :   -0.013554
  96 H :    0.047404
  97 H :    0.011232
  98 H :    0.010194
  99 H :    0.004231
 100 H :    0.002091
 101 H :    0.005417
Sum of atomic charges:   -0.0000000

LOEWDIN ATOMIC CHARGES
----------------------
   0 C :    0.009255
   1 C :    0.002448
   2 C :    0.015176
   3 C :    0.003399
   4 C :   -0.000715
   5 C :   -0.020163
   6 C :    0.081206
   7 C :   -0.123402
   8 C :   -0.020329
   9 N :   -0.030024
  10 C :   -0.003541
  11 N :   -0.036911
  12 C :    0.014589
  13 C :    0.057454
  14 C :   -0.079172
  15 C :   -0.017161
  16 N :   -0.036092
  17 C :   -0.015826
  18 N :   -0.025857
  19 C :    0.024413
  20 C :    0.058662
  21 N :   -0.075807
  22 C :    0.039772
  23 C :   -0.038679
  24 C :    0.067674
  25 O :   -0.128033
  26 C :   -0.034795
  27 C :    0.046088
  28 N :   -0.096356
  29 C :    0.094193
  30 C :   -0.025220
  31 C :   -0.018525
  32 C :   -0.020221
  33 C :   -0.005355
  34 C :   -0.038805
  35 C :   -0.028822
  36 C :   -0.065052
  37 C :    0.050643
  38 N :    0.056898
  39 C :    0.125531
  40 C :   -0.142705
  41 C :    0.085914
  42 N :   -0.145770
  43 C :    0.051919
  44 C :   -0.011748
  45 C :    0.073181
  46 O :   -0.161912
  47 C :   -0.048751
  48 C :   -0.005331
  49 N :   -0.102779
  50 C :    0.052829
  51 C :   -0.048448
  52 C :   -0.039261
  53 C :    0.024090
  54 C :   -0.009664
  55 C :    0.057726
  56 C :   -0.049322
  57 C :    0.080004
  58 C :   -0.135522
  59 C :   -0.019150
  60 N :   -0.052414
  61 C :   -0.018967
  62 N :   -0.049425
  63 C :   -0.015910
  64 C :   -0.005739
  65 C :    0.002017
  66 C :    0.004962
  67 C :   -0.001750
  68 C :    0.004262
  69 C :    0.066249
  70 C :   -0.107576
  71 C :   -0.012213
  72 N :   -0.043041
  73 C :   -0.017460
  74 N :   -0.045088
  75 H :    0.042355
  76 H :    0.040101
  77 H :    0.040904
  78 H :    0.043534
  79 H :    0.042735
  80 H :    0.028195
  81 H :    0.038520
  82 H :    0.044980
  83 H :    0.022407
  84 H :    0.030616
  85 H :    0.023965
  86 H :    0.036981
  87 H :    0.040953
  88 H :    0.031533
  89 H :    0.038689
  90 H :    0.091455
  91 H :    0.044627
  92 H :    0.024708
  93 H :    0.018888
  94 H :    0.030952
  95 H :    0.031847
  96 H :    0.034422
  97 H :    0.043800
  98 H :    0.042145
  99 H :    0.037326
 100 H :    0.036698
 101 H :    0.040918

  Mayer bond orders larger than 0.100000
B(  0-C ,  1-C ) :   1.3815 B(  0-C ,  5-C ) :   1.3705 B(  0-C , 75-H ) :   0.9848
B(  1-C ,  2-C ) :   1.3702 B(  1-C , 76-H ) :   0.9856 B(  2-C ,  3-C ) :   1.3685
B(  2-C , 77-H ) :   0.9863 B(  3-C ,  4-C ) :   1.3865 B(  3-C , 78-H ) :   0.9869
B(  4-C ,  5-C ) :   1.3015 B(  4-C , 13-C ) :   1.0059 B(  5-C ,  6-C ) :   1.0171
B(  6-C ,  7-C ) :   1.6460 B(  6-C , 12-C ) :   1.0253 B(  7-C ,  8-C ) :   1.1395
B(  7-C , 10-C ) :   1.1526 B(  8-C ,  9-N ) :   2.9858 B( 10-C , 11-N ) :   2.8899
B( 12-C , 13-C ) :   0.9912 B( 12-C , 19-C ) :   1.6598 B( 13-C , 14-C ) :   1.7248
B( 14-C , 15-C ) :   1.1348 B( 14-C , 17-C ) :   1.1495 B( 15-C , 16-N ) :   2.9786
B( 17-C , 18-N ) :   2.9916 B( 19-C , 20-C ) :   1.1310 B( 19-C , 79-H ) :   0.9194
B( 20-C , 21-N ) :   1.5550 B( 20-C , 22-C ) :   0.1051 B( 20-C , 31-C ) :   1.0238
B( 21-N , 22-C ) :   1.2992 B( 22-C , 23-C ) :   1.0568 B( 22-C , 27-C ) :   1.4287
B( 23-C , 24-C ) :   0.8899 B( 23-C , 31-C ) :   1.5734 B( 24-C , 25-O ) :   2.2898
B( 24-C , 26-C ) :   0.8960 B( 26-C , 27-C ) :   1.0440 B( 26-C , 30-C ) :   1.6396
B( 27-C , 28-N ) :   1.3061 B( 28-N , 29-C ) :   1.6599 B( 29-C , 30-C ) :   1.0497
B( 29-C , 80-H ) :   0.9887 B( 30-C , 81-H ) :   1.0098 B( 31-C , 32-C ) :   1.0766
B( 32-C , 33-C ) :   1.6831 B( 32-C , 82-H ) :   0.9721 B( 33-C , 34-C ) :   1.1215
B( 33-C , 83-H ) :   0.9574 B( 34-C , 35-C ) :   1.7678 B( 34-C , 84-H ) :   0.9796
B( 35-C , 36-C ) :   1.0663 B( 35-C , 37-C ) :   1.0481 B( 36-C , 85-H ) :   0.9467
B( 36-C , 86-H ) :   0.9255 B( 36-C , 87-H ) :   0.9371 B( 37-C , 38-N ) :   0.9907
B( 37-C , 88-H ) :   0.9333 B( 37-C , 89-H ) :   0.9391 B( 38-N , 39-C ) :   1.3640
B( 38-N , 90-H ) :   0.9294 B( 39-C , 40-C ) :   1.4351 B( 39-C , 91-H ) :   0.9512
B( 40-C , 41-C ) :   1.3127 B( 40-C , 92-H ) :   0.9468 B( 41-C , 42-N ) :   1.4657
B( 41-C , 43-C ) :   0.1092 B( 41-C , 52-C ) :   0.9882 B( 42-N , 43-C ) :   1.4578
B( 43-C , 44-C ) :   1.0508 B( 43-C , 48-C ) :   1.3250 B( 44-C , 45-C ) :   0.8902
B( 44-C , 52-C ) :   1.5582 B( 45-C , 46-O ) :   2.1111 B( 45-C , 47-C ) :   0.9667
B( 46-O , 96-H ) :   0.1169 B( 47-C , 48-C ) :   1.0974 B( 47-C , 51-C ) :   1.5239
B( 48-C , 49-N ) :   1.3761 B( 49-N , 50-C ) :   1.5899 B( 50-C , 51-C ) :   1.1368
B( 50-C , 93-H ) :   0.9905 B( 51-C , 94-H ) :   1.0127 B( 52-C , 53-C ) :   1.1065
B( 53-C , 54-C ) :   1.6415 B( 53-C , 95-H ) :   0.9787 B( 54-C , 55-C ) :   1.1330
B( 54-C , 96-H ) :   0.9281 B( 55-C , 56-C ) :   1.5840 B( 55-C , 97-H ) :   0.9538
B( 56-C , 57-C ) :   1.0443 B( 56-C , 69-C ) :   1.0143 B( 57-C , 58-C ) :   1.6379
B( 57-C , 63-C ) :   1.0064 B( 58-C , 59-C ) :   1.1385 B( 58-C , 61-C ) :   1.1438
B( 59-C , 60-N ) :   2.9802 B( 61-C , 62-N ) :   2.9790 B( 63-C , 64-C ) :   1.3099
B( 63-C , 68-C ) :   1.3787 B( 64-C , 65-C ) :   1.3858 B( 64-C , 69-C ) :   1.0087
B( 65-C , 66-C ) :   1.3661 B( 65-C , 98-H ) :   0.9865 B( 66-C , 67-C ) :   1.3747
B( 66-C , 99-H ) :   0.9860 B( 67-C , 68-C ) :   1.3743 B( 67-C ,100-H ) :   0.9856
B( 68-C ,101-H ) :   0.9846 B( 69-C , 70-C ) :   1.6731 B( 70-C , 71-C ) :   1.1446
B( 70-C , 73-C ) :   1.1489 B( 71-C , 72-N ) :   2.9913 B( 73-C , 74-N ) :   3.0039

-----------------------------------------------------------------------------
         ABSORPTION SPECTRUM VIA TRANSITION ELECTRIC DIPOLE MOMENTS
-----------------------------------------------------------------------------
State   Energy  Wavelength   fosc         T2         TX        TY        TZ
        (cm-1)    (nm)                  (au**2)     (au)      (au)      (au)
-----------------------------------------------------------------------------
   0   12372.4    808.3   0.038711093   1.03005   0.76804   0.65542  -0.10288
   1   14960.0    668.5   0.005830202   0.12830   0.31060   0.09571  -0.15056
   2   17812.4    561.4   0.077771078   1.43738  -0.74852  -0.64824   0.67592
   3   18753.0    533.2   0.255475394   4.48490  -1.87367   0.23089   0.95967
   4   19182.2    521.3   0.023099582   0.39644   0.33305   0.51229  -0.15195
   5   19428.3    514.7   0.389400523   6.59837   1.13914   2.22280  -0.59990
   6   19644.9    509.0   0.108811346   1.82348   0.82143   0.81830  -0.69218
   7   22142.1    451.6   0.005666429   0.08425   0.05210   0.27796  -0.06537
   8   22855.2    437.5   0.012798735   0.18436   0.34907  -0.07533  -0.23840
   9   23319.0    428.8   0.225603351   3.18502  -0.63820   1.43609   0.84579
  10   23693.8    422.1   0.182204001   2.53163   0.12773  -1.57008   0.22398
  11   23954.7    417.5   0.115327797   1.58496   0.91457   0.28984  -0.81518
  12   24033.3    416.1   0.049477436   0.67775   0.38198  -0.14960  -0.71376
  13   24066.3    415.5   0.009538103   0.13048  -0.26943   0.07939   0.22711
  14   24225.1    412.8   0.178435639   2.42489  -0.69767  -1.31303   0.46271
  15   24776.6    403.6   0.080639777   1.07148  -0.44750  -0.32715   0.87418
  16   25245.9    396.1   0.145584591   1.89845  -0.38195   1.29140   0.29131
  17   25543.9    391.5   0.144959438   1.86825  -0.41265   1.29867   0.10694
  18   26050.4    383.9   0.002025393   0.02560   0.15584  -0.03522   0.00833
  19   26230.3    381.2   0.265076480   3.32693   1.80259  -0.26896  -0.07240
  20   26438.6    378.2   0.000555749   0.00692   0.05808  -0.05266   0.02781
  21   26893.6    371.8   0.104148637   1.27491   0.96225   0.46343  -0.36637
  22   26988.0    370.5   0.315101783   3.84375   1.33573   0.40013  -1.37821
  23   27420.0    364.7   0.067038312   0.80488  -0.70592  -0.49444   0.24917
  24   27571.6    362.7   0.001113158   0.01329   0.08474  -0.03099  -0.07177
  25   27653.8    361.6   0.002248776   0.02677   0.05428  -0.07131  -0.13690
  26   28102.9    355.8   0.000709297   0.00831   0.08853   0.00691   0.02060
  27   28331.6    353.0   0.040574492   0.47147   0.65749   0.19555   0.03067
  28   28583.6    349.9   0.072511640   0.83515  -0.49578  -0.06430   0.76500
  29   28727.8    348.1   0.076340277   0.87484  -0.73339  -0.43046  -0.38946
  30   29075.1    343.9   0.019638162   0.22236  -0.45492  -0.10341  -0.06867
  31   29333.0    340.9   0.248099129   2.78448   1.56785   0.47108   0.32311
  32   29990.6    333.4   0.009039002   0.09922  -0.19933  -0.03625   0.24120
  33   30647.8    326.3   0.006486995   0.06968   0.21543   0.13430   0.07235
  34   30845.1    324.2   0.003096097   0.03304   0.08283   0.13252  -0.09287
  35   30977.6    322.8   0.456019748   4.84631  -1.89926  -1.09450  -0.20292
  36   31239.7    320.1   0.000426965   0.00450  -0.05095  -0.04165   0.01297
  37   31309.1    319.4   0.052860578   0.55582   0.48602   0.21453  -0.52305
  38   31662.2    315.8   0.019591014   0.20370   0.40241   0.19212   0.06969
  39   31911.6    313.4   0.033848059   0.34919  -0.04484  -0.58479  -0.07209
  40   32266.6    309.9   0.000211051   0.00215  -0.02488  -0.01035   0.03778
  41   32457.9    308.1   0.279428644   2.83417  -1.56784  -0.52633  -0.31470
  42   32766.1    305.2   0.365368454   3.67098   1.54711   0.09285  -1.12642
  43   33040.6    302.7   0.023947768   0.23861   0.12912   0.08573   0.46324
  44   33265.2    300.6   0.413796666   4.09518  -1.48828  -0.02990   1.37087
  45   33427.8    299.2   0.007815635   0.07697  -0.24507  -0.11166   0.06666
  46   33643.1    297.2   0.000468225   0.00458   0.00819  -0.06560  -0.01455
  47   33921.5    294.8   0.053948295   0.52357  -0.16845   0.49916   0.49602
  48   34368.1    291.0   0.039513801   0.37850   0.43816   0.20224  -0.38161
  49   34713.3    288.1   0.006663373   0.06319  -0.12404  -0.12323  -0.18061
  50   35031.8    285.5   0.031862007   0.29942  -0.48492  -0.01274   0.25321
  51   35046.3    285.3   0.013072948   0.12280  -0.23201   0.22480   0.13578
  52   35814.6    279.2   0.367019969   3.37369  -0.10570   1.80093  -0.34522
  53   35905.0    278.5   0.285002280   2.61318   0.37785   0.13729   1.56575
  54   35939.1    278.2   0.010908373   0.09992   0.00325  -0.28646   0.13362
  55   36256.4    275.8   0.192725979   1.74997  -0.67494   1.10854  -0.25605
  56   36440.7    274.4   0.001163597   0.01051   0.09167  -0.04300  -0.01615
  57   36621.1    273.1   0.010387534   0.09338  -0.09368   0.28939  -0.02930
  58   36752.0    272.1   0.063990926   0.57321   0.18482  -0.69004  -0.25078
  59   36864.9    271.3   0.139263084   1.24365  -0.20789  -0.82678  -0.71894
  60   36910.0    270.9   0.187882033   1.67578  -0.43219  -0.41066  -1.14907
  61   37123.2    269.4   0.010380102   0.09205   0.29209   0.05056  -0.06464
  62   37205.6    268.8   0.276206971   2.44400   1.21660  -0.06975  -0.97930
  63   37484.1    266.8   0.009332571   0.08197   0.10950  -0.09180  -0.24809
  64   37555.2    266.3   0.083416804   0.73124   0.50421  -0.69019  -0.02542
  65   37789.3    264.6   0.179980197   1.56795   1.13445   0.00379  -0.53006
  66   37829.7    264.3   0.053651238   0.46690   0.61219  -0.16675  -0.25361
  67   37874.9    264.0   0.215537323   1.87347   0.94258  -0.88854  -0.44217
  68   37983.2    263.3   0.126802224   1.09903   0.74253  -0.70532  -0.22409
  69   38129.0    262.3   0.034082131   0.29427  -0.42271   0.29948   0.16094
  70   38189.4    261.9   0.000552622   0.00476  -0.02789   0.05018   0.03831
  71   38390.7    260.5   0.044773698   0.38395  -0.49704  -0.24079   0.28093
  72   39029.8    256.2   0.001695458   0.01430   0.07672  -0.06324   0.06645
  73   39048.6    256.1   0.002714916   0.02289  -0.03984  -0.14459  -0.01989
  74   39285.5    254.5   0.097912265   0.82050  -0.40612   0.45118   0.67232
  75   39428.7    253.6   0.127068570   1.06097  -0.91560  -0.36819   0.29510
  76   40075.1    249.5   0.064722059   0.53168  -0.48515  -0.54382   0.02409
  77   40138.2    249.1   0.114094067   0.93579   0.66257   0.70469  -0.01417
  78   40184.5    248.9   0.011687159   0.09575  -0.25886  -0.16449  -0.04100
  79   40317.7    248.0   0.012621315   0.10306  -0.03129   0.26208   0.18274

FINAL SINGLE POINT ENERGY     -3160.439982473567

DIPOLE MOMENT
-------------
                                X             Y             Z
Electronic contribution:    -12.91404       7.11400     -11.84195
Nuclear contribution   :     13.76659     -11.96497       9.83488
                        -----------------------------------------
Total Dipole Moment    :      0.85255      -4.85097      -2.00706
                        -----------------------------------------
Magnitude (a.u.)       :      5.31856
Magnitude (Debye)      :     13.51870

Rotational constants in cm-1:     0.001215     0.000347     0.000304
Rotational constants in MHz :    36.427609    10.391334     9.102109

                             ****ORCA TERMINATED NORMALLY****
TOTAL RUN TIME: 0 days 0 hours 15 minutes 30 seconds 312 msec
