                         Program Version 4.2.0 -  RELEASE  -
|  1> # ORCA input file
|  2> # SCF done       -196.913131995091          0.000513382000
|  3> ! CAM-B3LYP def2-SVP def2/J RIJCOSX Grid4 TightSCF
|  4> %maxcore 5000
|  5> %tddft
|  6>     Mode sTDDFT
|  7>     Ethresh 5.0
|  8>     maxcore 5000
|  9> end
| 10>
| 11> %pal
| 12>   nprocs 6
| 13>   end
| 14> * xyz 0 1
| 15>    C       -4.04131       -13.93082         8.62869
| 16>    C       -4.73744       -15.03593         8.16415
| 17>    C       -5.19392       -15.09736         6.85372
| 18>    C       -4.95986       -14.05851         5.96520
| 19>    C       -4.26189       -12.95014         6.41555
| 20>    C       -3.80606       -12.88054         7.75345
| 21>    C       -3.13539       -11.60682         7.95627
| 22>    C       -2.40543       -11.23489         9.04973
| 23>    C       -2.21070       -12.05220        10.18629
| 24>    N       -2.01700       -12.66466        11.13618
| 25>    C       -1.70246       -10.01963         9.17723
| 26>    N       -1.09445        -9.06129         9.34849
| 27>    C       -3.38971       -10.80727         6.75500
| 28>    C       -3.85205       -11.73968         5.72232
| 29>    C       -3.69470       -11.59684         4.37707
| 30>    C       -3.04734       -10.49446         3.77351
| 31>    N       -2.45568        -9.66535         3.24648
| 32>    C       -4.05617       -12.58998         3.43998
| 33>    N       -4.32331       -13.37415         2.64728
| 34>    C       -3.36950        -9.44870         6.71649
| 35>    C       -3.99172        -8.62938         5.72974
| 36>    N       -4.91892        -9.10122         4.91214
| 37>    C       -5.35798        -8.04232         4.19989
| 38>    C       -4.68181        -6.80789         4.60645
| 39>    C       -5.16096        -5.67380         3.79826
| 40>    O       -4.85695        -4.50496         3.87660
| 41>    C       -6.11854        -6.31700         2.87306
| 42>    C       -6.22012        -7.76381         3.16903
| 43>    N       -7.08942        -8.36797         2.32174
| 44>    C       -7.51033        -7.41522         1.52912
| 45>    C       -6.93684        -6.10793         1.81394
| 46>    C       -3.78313        -7.16832         5.58528
| 47>    C       -2.82168        -6.39956         6.29274
| 48>    C       -2.78657        -5.04229         6.21841
| 49>    C       -1.85306        -4.20037         6.86947
| 50>    S       -2.03488        -2.48286         6.74850
| 51>    C       -0.62043        -2.20194         7.72853
| 52>    C       -0.01993        -3.41396         8.10162
| 53>    C       -0.74339        -4.53905         7.65579
| 54>    O       -0.46893        -5.82892         7.96712
| 55>    C        0.10095        -6.04532         9.25594
| 56>    C        1.61489        -5.83447         9.28342
| 57>    C        1.99739        -4.57840         8.50213
| 58>    O        1.14993        -3.46658         8.78018
| 59>    C       -0.37043        -0.83150         7.95809
| 60>    N       -1.27192         0.00320         7.43122
| 61>    C       -0.88522         1.24161         7.74992
| 62>    C        0.37246         1.22317         8.51043
| 63>    C        0.78047         2.59609         8.86784
| 64>    O        1.78479         2.95913         9.44721
| 65>    C       -0.31669         3.40687         8.33063
| 66>    C       -1.30447         2.55115         7.64001
| 67>    N       -2.31843         3.29385         7.14953
| 68>    C       -2.03698         4.53244         7.49338
| 69>    C       -0.80736         4.67289         8.23663
| 70>    C        0.70775        -0.10213         8.67022
| 71>    C        1.81354        -0.66403         9.35572
| 72>    C        2.80524         0.07942         9.91205
| 73>    C        3.89858        -0.53803        10.55772
| 74>    C        4.85125         0.09221        11.30639
| 75>    C        6.16147        -0.45794        11.62697
| 76>    C        6.55383        -1.76718        11.52100
| 77>    C        5.73648        -2.83367        11.09232
| 78>    N        5.13490        -3.74864        10.74310
| 79>    C        7.84486        -2.23521        11.84639
| 80>    N        8.87115        -2.68520        12.09435
| 81>    C        6.99192         0.66215        12.04618
| 82>    C        6.19816         1.83254        12.09317
| 83>    C        6.76013         3.05200        12.43205
| 84>    C        8.11432         3.09827        12.72800
| 85>    C        8.89240         1.94951        12.69458
| 86>    C        8.34242         0.72294        12.35471
| 87>    C        4.82350         1.47024        11.78165
| 88>    C        3.70592         2.19215        12.09934
| 89>    C        3.74167         3.51748        12.58353
| 90>    N        3.72150         4.59454        12.97801
| 91>    C        2.39781         1.65794        12.13335
| 92>    N        1.33728         1.24511        12.27948
| 93>    H       -3.70333       -13.89463         9.65143
| 94>    H       -4.93156       -15.85779         8.83593
| 95>    H       -5.74193       -15.96519         6.52056
| 96>    H       -5.32787       -14.11131         4.95357
| 97>    H       -2.94515        -8.91586         7.55668
| 98>    H       -8.22363        -7.62957         0.75233
| 99>    H       -7.14944        -5.20506         1.27679
|100>    H       -2.09993        -6.92427         6.90045
|101>    H       -3.52715        -4.52735         5.61912
|102>    H       -0.38496        -5.37834         9.97841
|103>    H       -0.14618        -7.07849         9.50345
|104>    H        2.12828        -6.68310         8.83256
|105>    H        1.93237        -5.74664        10.32192
|106>    H        3.00037        -4.25017         8.78532
|107>    H        1.97909        -4.78104         7.42487
|108>    H       -2.69878         5.33427         7.21575
|109>    H       -0.40417         5.59189         8.61338
|110>    H        1.83862        -1.73576         9.46079
|111>    H        2.78309         1.15635         9.82370
|112>    H        4.02068        -1.59532        10.36718
|113>    H        6.16658         3.95141        12.45510
|114>    H        8.56735         4.04291        12.98730
|115>    H        9.94353         2.00908        12.93202
|116>    H        8.96251        -0.15809        12.32913
|117> *
|118>
|119>                          ****END OF INPUT****

CARTESIAN COORDINATES (ANGSTROEM)
---------------------------------
  C     -4.041310  -13.930820    8.628690
  C     -4.737440  -15.035930    8.164150
  C     -5.193920  -15.097360    6.853720
  C     -4.959860  -14.058510    5.965200
  C     -4.261890  -12.950140    6.415550
  C     -3.806060  -12.880540    7.753450
  C     -3.135390  -11.606820    7.956270
  C     -2.405430  -11.234890    9.049730
  C     -2.210700  -12.052200   10.186290
  N     -2.017000  -12.664660   11.136180
  C     -1.702460  -10.019630    9.177230
  N     -1.094450   -9.061290    9.348490
  C     -3.389710  -10.807270    6.755000
  C     -3.852050  -11.739680    5.722320
  C     -3.694700  -11.596840    4.377070
  C     -3.047340  -10.494460    3.773510
  N     -2.455680   -9.665350    3.246480
  C     -4.056170  -12.589980    3.439980
  N     -4.323310  -13.374150    2.647280
  C     -3.369500   -9.448700    6.716490
  C     -3.991720   -8.629380    5.729740
  N     -4.918920   -9.101220    4.912140
  C     -5.357980   -8.042320    4.199890
  C     -4.681810   -6.807890    4.606450
  C     -5.160960   -5.673800    3.798260
  O     -4.856950   -4.504960    3.876600
  C     -6.118540   -6.317000    2.873060
  C     -6.220120   -7.763810    3.169030
  N     -7.089420   -8.367970    2.321740
  C     -7.510330   -7.415220    1.529120
  C     -6.936840   -6.107930    1.813940
  C     -3.783130   -7.168320    5.585280
  C     -2.821680   -6.399560    6.292740
  C     -2.786570   -5.042290    6.218410
  C     -1.853060   -4.200370    6.869470
  S     -2.034880   -2.482860    6.748500
  C     -0.620430   -2.201940    7.728530
  C     -0.019930   -3.413960    8.101620
  C     -0.743390   -4.539050    7.655790
  O     -0.468930   -5.828920    7.967120
  C      0.100950   -6.045320    9.255940
  C      1.614890   -5.834470    9.283420
  C      1.997390   -4.578400    8.502130
  O      1.149930   -3.466580    8.780180
  C     -0.370430   -0.831500    7.958090
  N     -1.271920    0.003200    7.431220
  C     -0.885220    1.241610    7.749920
  C      0.372460    1.223170    8.510430
  C      0.780470    2.596090    8.867840
  O      1.784790    2.959130    9.447210
  C     -0.316690    3.406870    8.330630
  C     -1.304470    2.551150    7.640010
  N     -2.318430    3.293850    7.149530
  C     -2.036980    4.532440    7.493380
  C     -0.807360    4.672890    8.236630
  C      0.707750   -0.102130    8.670220
  C      1.813540   -0.664030    9.355720
  C      2.805240    0.079420    9.912050
  C      3.898580   -0.538030   10.557720
  C      4.851250    0.092210   11.306390
  C      6.161470   -0.457940   11.626970
  C      6.553830   -1.767180   11.521000
  C      5.736480   -2.833670   11.092320
  N      5.134900   -3.748640   10.743100
  C      7.844860   -2.235210   11.846390
  N      8.871150   -2.685200   12.094350
  C      6.991920    0.662150   12.046180
  C      6.198160    1.832540   12.093170
  C      6.760130    3.052000   12.432050
  C      8.114320    3.098270   12.728000
  C      8.892400    1.949510   12.694580
  C      8.342420    0.722940   12.354710
  C      4.823500    1.470240   11.781650
  C      3.705920    2.192150   12.099340
  C      3.741670    3.517480   12.583530
  N      3.721500    4.594540   12.978010
  C      2.397810    1.657940   12.133350
  N      1.337280    1.245110   12.279480
  H     -3.703330  -13.894630    9.651430
  H     -4.931560  -15.857790    8.835930
  H     -5.741930  -15.965190    6.520560
  H     -5.327870  -14.111310    4.953570
  H     -2.945150   -8.915860    7.556680
  H     -8.223630   -7.629570    0.752330
  H     -7.149440   -5.205060    1.276790
  H     -2.099930   -6.924270    6.900450
  H     -3.527150   -4.527350    5.619120
  H     -0.384960   -5.378340    9.978410
  H     -0.146180   -7.078490    9.503450
  H      2.128280   -6.683100    8.832560
  H      1.932370   -5.746640   10.321920
  H      3.000370   -4.250170    8.785320
  H      1.979090   -4.781040    7.424870
  H     -2.698780    5.334270    7.215750
  H     -0.404170    5.591890    8.613380
  H      1.838620   -1.735760    9.460790
  H      2.783090    1.156350    9.823700
  H      4.020680   -1.595320   10.367180
  H      6.166580    3.951410   12.455100
  H      8.567350    4.042910   12.987300
  H      9.943530    2.009080   12.932020
  H      8.962510   -0.158090   12.329130

 Total Charge           Charge          ....    0
 Multiplicity           Mult            ....    1
 Number of Electrons    NEL             ....  522
 Basis Dimension        Dim             .... 1216

ORBITAL ENERGIES
----------------

  NO   OCC          E(Eh)            E(eV)
   0   2.0000     -88.967464     -2420.9278
   1   2.0000     -19.274360      -524.4820
   2   2.0000     -19.261935      -524.1439
   3   2.0000     -19.223658      -523.1023
   4   2.0000     -19.214336      -522.8487
   5   2.0000     -14.450376      -393.2147
   6   2.0000     -14.441035      -392.9605
   7   2.0000     -14.434362      -392.7790
   8   2.0000     -14.432877      -392.7386
   9   2.0000     -14.431397      -392.6983
  10   2.0000     -14.427764      -392.5994
  11   2.0000     -14.420474      -392.4010
  12   2.0000     -14.419279      -392.3685
  13   2.0000     -14.415470      -392.2649
  14   2.0000     -14.410781      -392.1373
  15   2.0000     -14.407133      -392.0380
  16   2.0000     -14.400355      -391.8536
  17   2.0000     -10.383348      -282.5453
  18   2.0000     -10.376141      -282.3491
  19   2.0000     -10.374323      -282.2997
  20   2.0000     -10.371959      -282.2353
  21   2.0000     -10.369332      -282.1639
  22   2.0000     -10.367749      -282.1208
  23   2.0000     -10.361940      -281.9627
  24   2.0000     -10.359259      -281.8898
  25   2.0000     -10.353291      -281.7274
  26   2.0000     -10.353216      -281.7253
  27   2.0000     -10.353063      -281.7212
  28   2.0000     -10.352615      -281.7090
  29   2.0000     -10.349461      -281.6232
  30   2.0000     -10.347746      -281.5765
  31   2.0000     -10.347717      -281.5757
  32   2.0000     -10.345883      -281.5258
  33   2.0000     -10.342409      -281.4313
  34   2.0000     -10.342144      -281.4241
  35   2.0000     -10.342102      -281.4229
  36   2.0000     -10.341256      -281.3999
  37   2.0000     -10.340296      -281.3738
  38   2.0000     -10.337399      -281.2949
  39   2.0000     -10.334700      -281.2215
  40   2.0000     -10.333131      -281.1788
  41   2.0000     -10.332692      -281.1668
  42   2.0000     -10.331117      -281.1240
  43   2.0000     -10.330199      -281.0990
  44   2.0000     -10.329824      -281.0888
  45   2.0000     -10.324644      -280.9479
  46   2.0000     -10.322161      -280.8803
  47   2.0000     -10.319606      -280.8107
  48   2.0000     -10.319257      -280.8013
  49   2.0000     -10.318923      -280.7922
  50   2.0000     -10.318576      -280.7827
  51   2.0000     -10.318002      -280.7671
  52   2.0000     -10.317379      -280.7502
  53   2.0000     -10.317169      -280.7444
  54   2.0000     -10.317102      -280.7426
  55   2.0000     -10.315300      -280.6936
  56   2.0000     -10.314641      -280.6757
  57   2.0000     -10.313565      -280.6464
  58   2.0000     -10.313474      -280.6439
  59   2.0000     -10.312967      -280.6301
  60   2.0000     -10.310526      -280.5637
  61   2.0000     -10.310334      -280.5584
  62   2.0000     -10.310013      -280.5497
  63   2.0000     -10.304940      -280.4117
  64   2.0000     -10.302293      -280.3396
  65   2.0000     -10.299993      -280.2770
  66   2.0000     -10.299729      -280.2699
  67   2.0000     -10.299323      -280.2588
  68   2.0000     -10.298999      -280.2500
  69   2.0000     -10.297873      -280.2194
  70   2.0000     -10.297441      -280.2076
  71   2.0000     -10.297260      -280.2027
  72   2.0000     -10.296398      -280.1792
  73   2.0000     -10.294272      -280.1214
  74   2.0000     -10.286223      -279.9024
  75   2.0000     -10.284838      -279.8647
  76   2.0000     -10.284024      -279.8425
  77   2.0000     -10.278343      -279.6879
  78   2.0000      -8.061879      -219.3749
  79   2.0000      -6.031277      -164.1194
  80   2.0000      -6.027195      -164.0083
  81   2.0000      -6.023629      -163.9113
  82   2.0000      -1.187280       -32.3075
  83   2.0000      -1.158067       -31.5126
  84   2.0000      -1.138773       -30.9876
  85   2.0000      -1.128028       -30.6952
  86   2.0000      -1.097214       -29.8567
  87   2.0000      -1.080005       -29.3884
  88   2.0000      -1.076748       -29.2998
  89   2.0000      -1.056362       -28.7451
  90   2.0000      -1.055171       -28.7127
  91   2.0000      -1.038351       -28.2550
  92   2.0000      -1.033242       -28.1160
  93   2.0000      -1.024605       -27.8809
  94   2.0000      -1.021331       -27.7918
  95   2.0000      -1.017072       -27.6759
  96   2.0000      -1.010566       -27.4989
  97   2.0000      -1.004061       -27.3219
  98   2.0000      -1.000323       -27.2202
  99   2.0000      -0.996699       -27.1216
 100   2.0000      -0.991263       -26.9736
 101   2.0000      -0.977276       -26.5930
 102   2.0000      -0.959934       -26.1211
 103   2.0000      -0.957897       -26.0657
 104   2.0000      -0.951010       -25.8783
 105   2.0000      -0.938739       -25.5444
 106   2.0000      -0.937401       -25.5080
 107   2.0000      -0.930623       -25.3235
 108   2.0000      -0.926933       -25.2231
 109   2.0000      -0.916100       -24.9283
 110   2.0000      -0.906649       -24.6712
 111   2.0000      -0.893866       -24.3233
 112   2.0000      -0.892189       -24.2777
 113   2.0000      -0.887444       -24.1486
 114   2.0000      -0.882096       -24.0030
 115   2.0000      -0.880654       -23.9638
 116   2.0000      -0.872374       -23.7385
 117   2.0000      -0.863618       -23.5002
 118   2.0000      -0.857098       -23.3228
 119   2.0000      -0.838464       -22.8158
 120   2.0000      -0.835634       -22.7388
 121   2.0000      -0.830563       -22.6008
 122   2.0000      -0.825385       -22.4599
 123   2.0000      -0.808993       -22.0138
 124   2.0000      -0.803835       -21.8735
 125   2.0000      -0.789376       -21.4800
 126   2.0000      -0.787529       -21.4297
 127   2.0000      -0.782908       -21.3040
 128   2.0000      -0.770098       -20.9554
 129   2.0000      -0.757252       -20.6059
 130   2.0000      -0.749831       -20.4039
 131   2.0000      -0.736218       -20.0335
 132   2.0000      -0.732423       -19.9302
 133   2.0000      -0.729097       -19.8397
 134   2.0000      -0.725722       -19.7479
 135   2.0000      -0.718129       -19.5413
 136   2.0000      -0.713723       -19.4214
 137   2.0000      -0.706553       -19.2263
 138   2.0000      -0.703913       -19.1544
 139   2.0000      -0.699417       -19.0321
 140   2.0000      -0.693258       -18.8645
 141   2.0000      -0.684833       -18.6353
 142   2.0000      -0.681437       -18.5428
 143   2.0000      -0.678404       -18.4603
 144   2.0000      -0.674682       -18.3590
 145   2.0000      -0.665200       -18.1010
 146   2.0000      -0.664425       -18.0799
 147   2.0000      -0.661243       -17.9933
 148   2.0000      -0.652901       -17.7663
 149   2.0000      -0.650422       -17.6989
 150   2.0000      -0.638258       -17.3679
 151   2.0000      -0.632175       -17.2024
 152   2.0000      -0.628161       -17.0931
 153   2.0000      -0.623900       -16.9772
 154   2.0000      -0.618588       -16.8326
 155   2.0000      -0.610288       -16.6068
 156   2.0000      -0.608015       -16.5449
 157   2.0000      -0.605044       -16.4641
 158   2.0000      -0.603367       -16.4184
 159   2.0000      -0.592040       -16.1102
 160   2.0000      -0.591144       -16.0858
 161   2.0000      -0.584949       -15.9173
 162   2.0000      -0.584108       -15.8944
 163   2.0000      -0.581760       -15.8305
 164   2.0000      -0.575588       -15.6625
 165   2.0000      -0.572882       -15.5889
 166   2.0000      -0.567235       -15.4352
 167   2.0000      -0.565842       -15.3973
 168   2.0000      -0.560580       -15.2542
 169   2.0000      -0.559544       -15.2260
 170   2.0000      -0.555086       -15.1047
 171   2.0000      -0.552118       -15.0239
 172   2.0000      -0.551297       -15.0015
 173   2.0000      -0.547062       -14.8863
 174   2.0000      -0.546386       -14.8679
 175   2.0000      -0.541860       -14.7448
 176   2.0000      -0.540735       -14.7141
 177   2.0000      -0.538890       -14.6639
 178   2.0000      -0.534873       -14.5546
 179   2.0000      -0.532817       -14.4987
 180   2.0000      -0.529795       -14.4165
 181   2.0000      -0.526144       -14.3171
 182   2.0000      -0.523555       -14.2467
 183   2.0000      -0.522707       -14.2236
 184   2.0000      -0.520291       -14.1578
 185   2.0000      -0.517759       -14.0889
 186   2.0000      -0.514910       -14.0114
 187   2.0000      -0.512794       -13.9538
 188   2.0000      -0.511332       -13.9141
 189   2.0000      -0.509829       -13.8732
 190   2.0000      -0.505756       -13.7623
 191   2.0000      -0.503015       -13.6877
 192   2.0000      -0.499490       -13.5918
 193   2.0000      -0.495795       -13.4913
 194   2.0000      -0.494986       -13.4693
 195   2.0000      -0.493365       -13.4251
 196   2.0000      -0.486400       -13.2356
 197   2.0000      -0.484228       -13.1765
 198   2.0000      -0.481613       -13.1054
 199   2.0000      -0.479767       -13.0551
 200   2.0000      -0.478918       -13.0320
 201   2.0000      -0.477712       -12.9992
 202   2.0000      -0.472745       -12.8640
 203   2.0000      -0.471856       -12.8399
 204   2.0000      -0.470039       -12.7904
 205   2.0000      -0.468493       -12.7484
 206   2.0000      -0.467453       -12.7200
 207   2.0000      -0.464427       -12.6377
 208   2.0000      -0.463879       -12.6228
 209   2.0000      -0.462080       -12.5738
 210   2.0000      -0.461273       -12.5519
 211   2.0000      -0.460493       -12.5306
 212   2.0000      -0.458894       -12.4872
 213   2.0000      -0.456287       -12.4162
 214   2.0000      -0.455853       -12.4044
 215   2.0000      -0.455270       -12.3885
 216   2.0000      -0.451552       -12.2874
 217   2.0000      -0.449716       -12.2374
 218   2.0000      -0.448526       -12.2050
 219   2.0000      -0.448161       -12.1951
 220   2.0000      -0.445898       -12.1335
 221   2.0000      -0.444968       -12.1082
 222   2.0000      -0.443663       -12.0727
 223   2.0000      -0.440442       -11.9850
 224   2.0000      -0.440289       -11.9809
 225   2.0000      -0.435489       -11.8503
 226   2.0000      -0.434684       -11.8283
 227   2.0000      -0.431860       -11.7515
 228   2.0000      -0.427607       -11.6358
 229   2.0000      -0.426590       -11.6081
 230   2.0000      -0.425115       -11.5680
 231   2.0000      -0.422577       -11.4989
 232   2.0000      -0.417640       -11.3646
 233   2.0000      -0.413916       -11.2632
 234   2.0000      -0.410700       -11.1757
 235   2.0000      -0.408776       -11.1234
 236   2.0000      -0.402646       -10.9566
 237   2.0000      -0.399507       -10.8711
 238   2.0000      -0.395587       -10.7645
 239   2.0000      -0.390746       -10.6327
 240   2.0000      -0.389991       -10.6122
 241   2.0000      -0.382762       -10.4155
 242   2.0000      -0.379212       -10.3189
 243   2.0000      -0.368438       -10.0257
 244   2.0000      -0.362382        -9.8609
 245   2.0000      -0.359776        -9.7900
 246   2.0000      -0.358054        -9.7431
 247   2.0000      -0.350201        -9.5295
 248   2.0000      -0.349558        -9.5119
 249   2.0000      -0.348969        -9.4959
 250   2.0000      -0.342688        -9.3250
 251   2.0000      -0.338071        -9.1994
 252   2.0000      -0.332271        -9.0416
 253   2.0000      -0.330334        -8.9888
 254   2.0000      -0.329199        -8.9580
 255   2.0000      -0.319315        -8.6890
 256   2.0000      -0.314241        -8.5509
 257   2.0000      -0.312721        -8.5096
 258   2.0000      -0.301539        -8.2053
 259   2.0000      -0.280007        -7.6194
 260   2.0000      -0.261773        -7.1232
 261   0.0000      -0.146009        -3.9731
 262   0.0000      -0.121837        -3.3154
 263   0.0000      -0.102179        -2.7804
 264   0.0000      -0.097596        -2.6557
 265   0.0000      -0.085019        -2.3135

MULLIKEN ATOMIC CHARGES
-----------------------
   0 C :   -0.029255
   1 C :    0.046463
   2 C :    0.052940
   3 C :   -0.026300
   4 C :    0.017581
   5 C :    0.009862
   6 C :    0.274443
   7 C :   -0.328478
   8 C :   -0.187674
   9 N :    0.176767
  10 C :   -0.179950
  11 N :    0.193679
  12 C :   -0.005759
  13 C :    0.227530
  14 C :   -0.252077
  15 C :   -0.183676
  16 N :    0.180766
  17 C :   -0.196921
  18 N :    0.175064
  19 C :   -0.000203
  20 C :    0.002488
  21 N :   -0.056602
  22 C :    0.071726
  23 C :   -0.153767
  24 C :    0.226285
  25 O :   -0.129249
  26 C :   -0.007045
  27 C :   -0.013019
  28 N :   -0.053056
  29 C :    0.101135
  30 C :   -0.094508
  31 C :    0.083450
  32 C :   -0.053020
  33 C :    0.061286
  34 C :   -0.116376
  35 S :    0.247862
  36 C :   -0.222345
  37 C :    0.212841
  38 C :    0.121544
  39 O :   -0.319164
  40 C :    0.184692
  41 C :   -0.008779
  42 C :    0.180705
  43 O :   -0.330592
  44 C :    0.108209
  45 N :   -0.075614
  46 C :    0.079213
  47 C :   -0.160956
  48 C :    0.239225
  49 O :   -0.155865
  50 C :   -0.014646
  51 C :   -0.049926
  52 N :   -0.056223
  53 C :    0.089770
  54 C :   -0.089645
  55 C :    0.045742
  56 C :   -0.032934
  57 C :    0.005592
  58 C :    0.021395
  59 C :   -0.046120
  60 C :    0.311026
  61 C :   -0.353641
  62 C :   -0.172257
  63 N :    0.142671
  64 C :   -0.190035
  65 N :    0.159236
  66 C :    0.008194
  67 C :    0.008459
  68 C :   -0.030588
  69 C :    0.049815
  70 C :    0.046300
  71 C :   -0.035660
  72 C :    0.234810
  73 C :   -0.295695
  74 C :   -0.183239
  75 N :    0.160948
  76 C :   -0.202089
  77 N :    0.173307
  78 H :    0.009577
  79 H :    0.010123
  80 H :    0.011391
  81 H :    0.013784
  82 H :    0.022168
  83 H :    0.019593
  84 H :    0.004332
  85 H :    0.007425
  86 H :    0.000003
  87 H :    0.023141
  88 H :    0.028327
  89 H :    0.028156
  90 H :    0.033662
  91 H :    0.044698
  92 H :    0.032642
  93 H :    0.008006
  94 H :   -0.005488
  95 H :    0.001714
  96 H :    0.042007
  97 H :    0.004255
  98 H :    0.007338
  99 H :    0.003776
 100 H :    0.003651
 101 H :    0.005646
Sum of atomic charges:   -0.0000000

LOEWDIN ATOMIC CHARGES
----------------------
   0 C :    0.008910
   1 C :    0.003910
   2 C :    0.014276
   3 C :    0.005373
   4 C :   -0.001546
   5 C :   -0.017967
   6 C :    0.080913
   7 C :   -0.122206
   8 C :   -0.019907
   9 N :   -0.029869
  10 C :   -0.001796
  11 N :   -0.030689
  12 C :    0.011696
  13 C :    0.064387
  14 C :   -0.086689
  15 C :   -0.017744
  16 N :   -0.034518
  17 C :   -0.016209
  18 N :   -0.028073
  19 C :    0.026024
  20 C :    0.056516
  21 N :   -0.080561
  22 C :    0.042018
  23 C :   -0.048849
  24 C :    0.071527
  25 O :   -0.129047
  26 C :   -0.034215
  27 C :    0.042681
  28 N :   -0.094920
  29 C :    0.090678
  30 C :   -0.023623
  31 C :   -0.013683
  32 C :   -0.029712
  33 C :    0.002384
  34 C :   -0.173062
  35 S :    0.522690
  36 C :   -0.212373
  37 C :    0.020100
  38 C :   -0.010509
  39 O :   -0.097712
  40 C :    0.081136
  41 C :   -0.055281
  42 C :    0.088753
  43 O :   -0.088639
  44 C :    0.063408
  45 N :   -0.129035
  46 C :    0.043847
  47 C :   -0.012668
  48 C :    0.075665
  49 O :   -0.146322
  50 C :   -0.042526
  51 C :    0.018646
  52 N :   -0.096210
  53 C :    0.071460
  54 C :   -0.036771
  55 C :   -0.033448
  56 C :    0.027117
  57 C :   -0.010909
  58 C :    0.060483
  59 C :   -0.055482
  60 C :    0.083213
  61 C :   -0.139202
  62 C :   -0.009280
  63 N :   -0.062846
  64 C :   -0.019975
  65 N :   -0.048532
  66 C :   -0.016695
  67 C :   -0.006126
  68 C :    0.001880
  69 C :    0.006285
  70 C :   -0.001066
  71 C :    0.005340
  72 C :    0.066424
  73 C :   -0.111094
  74 C :   -0.013731
  75 N :   -0.043044
  76 C :   -0.017767
  77 N :   -0.044364
  78 H :    0.042646
  79 H :    0.040095
  80 H :    0.040705
  81 H :    0.043940
  82 H :    0.048694
  83 H :    0.027726
  84 H :    0.038237
  85 H :    0.030374
  86 H :    0.034363
  87 H :    0.018266
  88 H :    0.021325
  89 H :    0.037251
  90 H :    0.039294
  91 H :    0.031851
  92 H :    0.022590
  93 H :    0.023327
  94 H :    0.034641
  95 H :    0.030882
  96 H :    0.031824
  97 H :    0.042929
  98 H :    0.041752
  99 H :    0.037504
 100 H :    0.037291
 101 H :    0.041239

  Mayer bond orders larger than 0.100000
B(  0-C ,  1-C ) :   1.3813 B(  0-C ,  5-C ) :   1.3713 B(  0-C , 78-H ) :   0.9848
B(  1-C ,  2-C ) :   1.3705 B(  1-C , 79-H ) :   0.9855 B(  2-C ,  3-C ) :   1.3691
B(  2-C , 80-H ) :   0.9862 B(  3-C ,  4-C ) :   1.3851 B(  3-C , 81-H ) :   0.9869
B(  4-C ,  5-C ) :   1.3015 B(  4-C , 13-C ) :   1.0076 B(  5-C ,  6-C ) :   1.0175
B(  6-C ,  7-C ) :   1.6594 B(  6-C , 12-C ) :   1.0167 B(  7-C ,  8-C ) :   1.1382
B(  7-C , 10-C ) :   1.1320 B(  8-C ,  9-N ) :   2.9874 B( 10-C , 11-N ) :   2.9812
B( 11-N , 88-H ) :   0.1039 B( 12-C , 13-C ) :   0.9937 B( 12-C , 19-C ) :   1.6853
B( 13-C , 14-C ) :   1.7206 B( 14-C , 15-C ) :   1.1387 B( 14-C , 17-C ) :   1.1477
B( 15-C , 16-N ) :   2.9962 B( 17-C , 18-N ) :   2.9953 B( 19-C , 20-C ) :   1.0946
B( 19-C , 82-H ) :   0.9319 B( 20-C , 21-N ) :   1.5764 B( 20-C , 22-C ) :   0.1098
B( 20-C , 31-C ) :   1.0191 B( 21-N , 22-C ) :   1.3049 B( 22-C , 23-C ) :   1.0732
B( 22-C , 27-C ) :   1.4341 B( 23-C , 24-C ) :   0.8997 B( 23-C , 31-C ) :   1.5268
B( 24-C , 25-O ) :   2.1989 B( 24-C , 26-C ) :   0.9212 B( 26-C , 27-C ) :   1.0552
B( 26-C , 30-C ) :   1.6304 B( 27-C , 28-N ) :   1.3023 B( 28-N , 29-C ) :   1.6663
B( 29-C , 30-C ) :   1.0453 B( 29-C , 83-H ) :   0.9887 B( 30-C , 84-H ) :   1.0115
B( 31-C , 32-C ) :   1.1250 B( 32-C , 33-C ) :   1.6433 B( 32-C , 85-H ) :   0.9542
B( 33-C , 34-C ) :   1.1507 B( 33-C , 86-H ) :   0.9344 B( 34-C , 35-S ) :   1.1245
B( 34-C , 36-C ) :   0.1312 B( 34-C , 38-C ) :   1.4132 B( 35-S , 36-C ) :   1.1266
B( 36-C , 37-C ) :   1.3844 B( 36-C , 44-C ) :   1.1753 B( 37-C , 38-C ) :   1.2435
B( 37-C , 43-O ) :   1.1493 B( 38-C , 39-O ) :   1.1530 B( 39-O , 40-C ) :   0.9224
B( 40-C , 41-C ) :   1.1016 B( 40-C , 87-H ) :   0.9310 B( 40-C , 88-H ) :   0.9336
B( 41-C , 42-C ) :   1.1027 B( 41-C , 89-H ) :   0.9341 B( 41-C , 90-H ) :   0.9330
B( 42-C , 43-O ) :   0.9018 B( 42-C , 91-H ) :   0.9515 B( 42-C , 92-H ) :   0.9368
B( 44-C , 45-N ) :   1.5468 B( 44-C , 46-C ) :   0.1196 B( 44-C , 55-C ) :   1.0318
B( 45-N , 46-C ) :   1.4256 B( 46-C , 47-C ) :   1.0614 B( 46-C , 51-C ) :   1.3583
B( 47-C , 48-C ) :   0.8865 B( 47-C , 55-C ) :   1.5395 B( 48-C , 49-O ) :   2.1381
B( 48-C , 50-C ) :   0.9481 B( 49-O , 96-H ) :   0.1053 B( 50-C , 51-C ) :   1.0765
B( 50-C , 54-C ) :   1.5715 B( 51-C , 52-N ) :   1.3475 B( 52-N , 53-C ) :   1.6191
B( 53-C , 54-C ) :   1.0964 B( 53-C , 93-H ) :   0.9898 B( 54-C , 94-H ) :   1.0114
B( 55-C , 56-C ) :   1.1134 B( 56-C , 57-C ) :   1.6033 B( 56-C , 95-H ) :   0.9696
B( 57-C , 58-C ) :   1.1438 B( 57-C , 96-H ) :   0.9395 B( 58-C , 59-C ) :   1.5531
B( 58-C , 97-H ) :   0.9509 B( 59-C , 60-C ) :   1.0560 B( 59-C , 72-C ) :   1.0216
B( 60-C , 61-C ) :   1.6246 B( 60-C , 66-C ) :   1.0041 B( 61-C , 62-C ) :   1.1437
B( 61-C , 64-C ) :   1.1453 B( 62-C , 63-N ) :   2.9674 B( 64-C , 65-N ) :   2.9781
B( 66-C , 67-C ) :   1.3111 B( 66-C , 71-C ) :   1.3766 B( 67-C , 68-C ) :   1.3870
B( 67-C , 72-C ) :   1.0082 B( 68-C , 69-C ) :   1.3613 B( 68-C , 98-H ) :   0.9870
B( 69-C , 70-C ) :   1.3760 B( 69-C , 99-H ) :   0.9868 B( 70-C , 71-C ) :   1.3728
B( 70-C ,100-H ) :   0.9859 B( 71-C ,101-H ) :   0.9846 B( 72-C , 73-C ) :   1.6634
B( 73-C , 74-C ) :   1.1445 B( 73-C , 76-C ) :   1.1511 B( 74-C , 75-N ) :   2.9902
B( 76-C , 77-N ) :   3.0026

-----------------------------------------------------------------------------
         ABSORPTION SPECTRUM VIA TRANSITION ELECTRIC DIPOLE MOMENTS
-----------------------------------------------------------------------------
State   Energy  Wavelength   fosc         T2         TX        TY        TZ
        (cm-1)    (nm)                  (au**2)     (au)      (au)      (au)
-----------------------------------------------------------------------------
   0   10343.7    966.8   0.058555523   1.86366   0.91650   0.51739   0.86948
   1   16157.8    618.9   0.860977258  17.54226  -1.33446  -3.82344  -1.06902
   2   17778.2    562.5   0.269201091   4.98498  -1.08874   1.83624  -0.65411
   3   18737.8    533.7   0.046595092   0.81865   0.56784  -0.49468   0.50149
   4   19908.4    502.3   0.082274016   1.36051   0.88842   0.44928   0.60776
   5   20231.7    494.3   0.105077416   1.70983  -0.49002  -1.19716  -0.19107
   6   20491.3    488.0   0.373274649   5.99700  -1.96100  -0.59209  -1.34198
   7   21042.8    475.2   0.252436729   3.94934  -1.46368  -0.88275  -1.01377
   8   21413.4    467.0   0.000326722   0.00502   0.00479   0.05420   0.04542
   9   22044.4    453.6   0.069555196   1.03874  -0.26418  -0.93306  -0.31359
  10   22194.7    450.6   0.006062338   0.08992  -0.18464   0.14598  -0.18579
  11   22658.3    441.3   0.013562470   0.19705  -0.27640   0.31893  -0.13762
  12   23090.1    433.1   0.284157364   4.05143  -1.22643   1.17474  -1.08041
  13   23571.9    424.2   0.001456656   0.02034   0.02993  -0.13432  -0.03749
  14   23886.2    418.7   0.002990373   0.04121  -0.17847  -0.08503   0.04621
  15   24081.8    415.3   0.097598107   1.33422   0.80696  -0.09825   0.82060
  16   24238.4    412.6   0.126425671   1.71714   0.49669  -1.11818  -0.46916
  17   24526.9    407.7   0.040021437   0.53719   0.16844  -0.71326   0.00885
  18   25133.6    397.9   0.272437040   3.56851  -0.89304   1.30439  -1.03419
  19   25273.9    395.7   0.001048474   0.01366   0.06189  -0.09145  -0.03827
  20   25993.2    384.7   0.106705826   1.35146   0.97631  -0.48306   0.40611
  21   26211.4    381.5   0.062986351   0.79110   0.08720   0.78176  -0.41515
  22   27170.0    368.1   0.001966724   0.02383  -0.14385   0.01947   0.05253
  23   27443.5    364.4   0.032225866   0.38658   0.02297   0.47390  -0.40184
  24   27651.1    361.6   0.173119204   2.06114   0.89591  -0.75370   0.83092
  25   28134.2    355.4   0.244682203   2.86314   1.44754  -0.53542   0.69362
  26   28247.8    354.0   0.038005046   0.44293  -0.46025   0.11821  -0.46596
  27   28602.7    349.6   0.099638942   1.14683   0.46949  -0.94691   0.17256
  28   28986.2    345.0   0.008701332   0.09883   0.24765   0.00451   0.19359
  29   29515.6    338.8   0.152928028   1.70573   0.58845  -0.03395   1.16546
  30   29769.2    335.9   0.000941446   0.01041  -0.02208   0.08968   0.04336
  31   29850.0    335.0   0.308715103   3.40478   0.54355   0.04377   1.76279
  32   30052.6    332.8   0.037015211   0.40548   0.27822   0.07210   0.56822
  33   30301.3    330.0   0.016522956   0.17952   0.09775  -0.35681  -0.20651
  34   30495.2    327.9   0.024723238   0.26690  -0.05663   0.51304   0.02201
  35   31118.7    321.4   0.047047526   0.49773  -0.66219  -0.05113  -0.23795
  36   31637.5    316.1   0.032460341   0.33777   0.19544   0.35024   0.42060
  37   31765.1    314.8   0.048299746   0.50058   0.40041  -0.52273   0.25884
  38   31923.7    313.2   0.001596572   0.01646  -0.06314   0.02654  -0.10851
  39   31961.7    312.9   0.012573562   0.12951   0.15956  -0.27791   0.16376
  40   32161.4    310.9   0.061108168   0.62552  -0.16458  -0.24705  -0.73308
  41   32250.8    310.1   0.070976308   0.72452  -0.05516   0.12389   0.84031
  42   32704.3    305.8   0.071043734   0.71515  -0.48494   0.67653  -0.14926
  43   32789.5    305.0   0.551301562   5.53515  -1.55205   1.74882   0.26060
  44   33154.9    301.6   0.024272487   0.24101   0.14461  -0.39114   0.25905
  45   33277.1    300.5   0.164029031   1.62275  -0.61710   0.08667  -1.11105
  46   33846.8    295.4   0.027483157   0.26732   0.28121  -0.26119   0.34644
  47   34041.3    293.8   0.050108395   0.48460  -0.30599   0.62136  -0.06987
  48   34391.9    290.8   0.010358985   0.09916  -0.06435  -0.28979   0.10508
  49   34597.7    289.0   0.013447848   0.12796   0.10023  -0.31934   0.12626
  50   34935.7    286.2   0.010574254   0.09965  -0.23619  -0.17009  -0.12220
  51   35044.2    285.4   0.476602569   4.47730  -1.62858  -1.25023  -0.51183
  52   35116.3    284.8   0.114677079   1.07509   0.44430   0.85439  -0.38433
  53   35163.6    284.4   0.032454049   0.30384  -0.19104  -0.44400   0.26497
  54   35290.4    283.4   0.180566645   1.68444  -0.10617  -1.27804  -0.19945
  55   35349.8    282.9   0.156558985   1.45803   0.11462   1.19022   0.16813
  56   36004.3    277.7   0.017384230   0.15896   0.08421  -0.23462   0.31116
  57   36220.1    276.1   0.062048730   0.56397  -0.24221  -0.63206   0.32528
  58   36369.8    275.0   0.135889965   1.23005  -0.24460  -0.99374   0.42744
  59   36559.7    273.5   0.023108500   0.20809  -0.41067   0.13827  -0.14255
  60   36564.1    273.5   0.082928529   0.74666   0.77406  -0.25960   0.28302
  61   36757.7    272.1   0.015771461   0.14125  -0.08843   0.36051  -0.05889
  62   36935.2    270.7   0.043707713   0.38958  -0.25851   0.56547   0.05474
  63   37082.4    269.7   0.005230084   0.04643   0.14481  -0.09213   0.13029
  64   37200.6    268.8   0.016820929   0.14886  -0.10985  -0.10435  -0.35483
  65   37260.0    268.4   0.028690988   0.25350  -0.31928   0.38065   0.08165
  66   37379.6    267.5   0.125416694   1.10458  -0.20507  -0.56407  -0.86276
  67   37596.1    266.0   0.031534865   0.27614   0.41279   0.29962   0.12639
  68   37760.4    264.8   0.047904776   0.41765   0.19303  -0.13709   0.60133
  69   37838.9    264.3   0.024129022   0.20993   0.35298  -0.13908   0.25689
  70   37868.4    264.1   0.150484463   1.30825   0.44065  -0.76143   0.73096
  71   38181.6    261.9   0.098863166   0.85242  -0.03549  -0.19895  -0.90088
  72   38234.9    261.5   0.049094077   0.42271   0.49976  -0.33821   0.24200
  73   38429.8    260.2   0.018805322   0.16110   0.19863   0.13456   0.32177
  74   38561.6    259.3   0.031618413   0.26994  -0.05997   0.43085  -0.28409
  75   38636.8    258.8   0.133167187   1.13467   0.11548   1.01105  -0.31482
  76   38660.6    258.7   0.023308413   0.19848   0.41939   0.03462  -0.14628
  77   39063.5    256.0   0.060334806   0.50848   0.39502   0.44121   0.39720
  78   39092.7    255.8   0.001327520   0.01118   0.04771  -0.03296  -0.08841
  79   39793.3    251.3   0.002253153   0.01864   0.12623  -0.03244  -0.04066
  80   39949.2    250.3   0.067400846   0.55543  -0.36159  -0.65123   0.02427
  81   40033.0    249.8   0.000730769   0.00601   0.07294   0.02531  -0.00694

FINAL SINGLE POINT ENERGY     -3690.386456153554

DIPOLE MOMENT
-------------
                                X             Y             Z
Electronic contribution:    -13.72637       1.51151      -9.70724
Nuclear contribution   :     12.48979      -3.59474       9.05706
                        -----------------------------------------
Total Dipole Moment    :     -1.23658      -2.08323      -0.65018
                        -----------------------------------------
Magnitude (a.u.)       :      2.50833
Magnitude (Debye)      :      6.37566

Rotational constants in cm-1:     0.001374     0.000340     0.000286
Rotational constants in MHz :    41.206335    10.197336     8.573761

                             ****ORCA TERMINATED NORMALLY****
TOTAL RUN TIME: 0 days 0 hours 10 minutes 34 seconds 600 msec
