                         Program Version 4.2.0 -  RELEASE  -
|  1> # ORCA input file
|  2> # SCF done       -194.458024965231          0.000981621214
|  3> ! CAM-B3LYP def2-SVP def2/J RIJCOSX Grid4 TightSCF
|  4> %maxcore 5000
|  5> %tddft
|  6>     Mode sTDDFT
|  7>     Ethresh 5.0
|  8>     maxcore 5000
|  9> end
| 10>
| 11> %pal
| 12>   nprocs 6
| 13>   end
| 14> * xyz 0 1
| 15>    C        6.38060        -7.62716         0.72052
| 16>    C        6.83807        -6.89358         1.80607
| 17>    C        5.99755        -6.57689         2.86296
| 18>    C        4.68198        -7.01597         2.87956
| 19>    C        4.22698        -7.78005         1.81889
| 20>    C        5.06458        -8.06126         0.71673
| 21>    C        4.28931        -8.78308        -0.28562
| 22>    C        4.78887        -9.36535        -1.41727
| 23>    C        6.16154        -9.38664        -1.74452
| 24>    N        7.26319        -9.45092        -2.06005
| 25>    C        4.03621       -10.06642        -2.38335
| 26>    N        3.49168       -10.63397        -3.21966
| 27>    C        2.90265        -8.78924         0.17477
| 28>    C        2.94778        -8.43121         1.58627
| 29>    C        2.12592        -8.90675         2.57477
| 30>    C        1.03848        -9.77767         2.35783
| 31>    N        0.15359       -10.49893         2.24521
| 32>    C        2.35453        -8.64649         3.93517
| 33>    N        2.51222        -8.43608         5.05425
| 34>    C        1.82198        -9.02969        -0.62421
| 35>    C        0.45070        -8.77456        -0.36101
| 36>    C       -0.03084        -7.90118         0.59381
| 37>    C       -1.37262        -7.68009         0.86146
| 38>    C       -2.42519        -8.30674         0.05987
| 39>    C       -2.18705        -9.15744        -0.96645
| 40>    S       -0.62295        -9.64443        -1.44944
| 41>    C       -3.64304        -7.81459         0.59414
| 42>    C       -3.38572        -6.95280         1.66981
| 43>    C       -4.58563        -6.47883         2.25008
| 44>    C       -5.68105        -6.96748         1.61338
| 45>    S       -5.31825        -8.02560         0.29251
| 46>    C       -1.96360        -6.86297         1.85639
| 47>    C       -1.25094        -6.18722         2.87140
| 48>    C       -1.76884        -5.27645         3.73837
| 49>    C       -1.03115        -4.66473         4.77935
| 50>    O        0.22851        -5.04191         5.10798
| 51>    C        0.66786        -4.26783         6.13309
| 52>    C       -0.33542        -3.36181         6.46552
| 53>    C       -1.41457        -3.62072         5.61883
| 54>    F       -2.59438        -2.99992         5.58616
| 55>    F       -0.25462        -2.44135         7.42526
| 56>    C        1.94654        -4.43231         6.71840
| 57>    C        2.77735        -5.46942         6.44489
| 58>    C        4.07737        -5.65592         6.99069
| 59>    C        4.80777        -6.79352         6.70360
| 60>    C        6.09173        -7.06112         7.16258
| 61>    C        6.74121        -6.16169         8.12126
| 62>    C        6.21444        -4.98670         8.53847
| 63>    S        4.70566        -4.37605         8.01250
| 64>    C        7.96777        -6.78803         8.47595
| 65>    C        8.09220        -7.99332         7.78847
| 66>    C        9.30992        -8.64688         8.07598
| 67>    C       10.05828        -7.93719         8.96131
| 68>    S        9.32612        -6.45612         9.47406
| 69>    C        6.94420        -8.17332         6.93230
| 70>    C        6.87895        -9.23610         6.02023
| 71>    C        6.04366        -9.37570         4.94058
| 72>    C        6.04560       -10.42073         4.00620
| 73>    C        6.96362       -11.42475         3.76896
| 74>    C        6.61371       -12.67531         3.11760
| 75>    C        5.56086       -12.91045         2.26756
| 76>    C        4.68273       -11.92723         1.78212
| 77>    N        3.95593       -11.16971         1.31197
| 78>    C        5.27011       -14.16557         1.69454
| 79>    N        4.97340       -15.16026         1.20420
| 80>    C        7.62958       -13.64986         3.49823
| 81>    C        8.66853       -12.97351         4.17560
| 82>    C        9.76650       -13.66584         4.65505
| 83>    C        9.81734       -15.03941         4.46305
| 84>    C        8.79961       -15.70449         3.79609
| 85>    C        7.69823       -15.01887         3.30298
| 86>    C        8.33827       -11.55500         4.21398
| 87>    C        9.24169       -10.53456         4.38557
| 88>    C       10.57286       -10.71967         4.80279
| 89>    N       11.65256       -10.80117         5.18623
| 90>    C        8.94176        -9.18478         4.12125
| 91>    N        8.74782        -8.07933         3.87815
| 92>    H        7.04238        -7.84039        -0.10286
| 93>    H        7.86211        -6.55785         1.82656
| 94>    H        6.37480        -5.98894         3.68508
| 95>    H        4.02446        -6.73887         3.68925
| 96>    H        2.02046        -9.43592        -1.60716
| 97>    H        0.69899        -7.32915         1.14993
| 98>    H       -2.98229        -9.60089        -1.54497
| 99>    H       -4.65698        -5.82046         3.09559
|100>    H       -6.71068        -6.77180         1.84107
|101>    H       -0.19915        -6.42183         2.96887
|102>    H       -2.79026        -4.94348         3.65205
|103>    H        2.22069        -3.67005         7.43465
|104>    H        2.43198        -6.24539         5.77491
|105>    H        4.29855        -7.53367         6.10449
|106>    H        6.72650        -4.34086         9.23427
|107>    H        9.62999        -9.58441         7.65829
|108>    H       11.02252        -8.19212         9.35515
|109>    H        7.60785       -10.01524         6.20245
|110>    H        5.26858        -8.64237         4.79264
|111>    H        5.13366       -10.48797         3.42558
|112>    H       10.56232       -13.16072         5.17854
|113>    H       10.66151       -15.59543         4.84132
|114>    H        8.86028       -16.77320         3.65824
|115>    H        6.91560       -15.55204         2.78880
|116> *
|117>
|118>                          ****END OF INPUT****

CARTESIAN COORDINATES (ANGSTROEM)
---------------------------------
  C      6.380600   -7.627160    0.720520
  C      6.838070   -6.893580    1.806070
  C      5.997550   -6.576890    2.862960
  C      4.681980   -7.015970    2.879560
  C      4.226980   -7.780050    1.818890
  C      5.064580   -8.061260    0.716730
  C      4.289310   -8.783080   -0.285620
  C      4.788870   -9.365350   -1.417270
  C      6.161540   -9.386640   -1.744520
  N      7.263190   -9.450920   -2.060050
  C      4.036210  -10.066420   -2.383350
  N      3.491680  -10.633970   -3.219660
  C      2.902650   -8.789240    0.174770
  C      2.947780   -8.431210    1.586270
  C      2.125920   -8.906750    2.574770
  C      1.038480   -9.777670    2.357830
  N      0.153590  -10.498930    2.245210
  C      2.354530   -8.646490    3.935170
  N      2.512220   -8.436080    5.054250
  C      1.821980   -9.029690   -0.624210
  C      0.450700   -8.774560   -0.361010
  C     -0.030840   -7.901180    0.593810
  C     -1.372620   -7.680090    0.861460
  C     -2.425190   -8.306740    0.059870
  C     -2.187050   -9.157440   -0.966450
  S     -0.622950   -9.644430   -1.449440
  C     -3.643040   -7.814590    0.594140
  C     -3.385720   -6.952800    1.669810
  C     -4.585630   -6.478830    2.250080
  C     -5.681050   -6.967480    1.613380
  S     -5.318250   -8.025600    0.292510
  C     -1.963600   -6.862970    1.856390
  C     -1.250940   -6.187220    2.871400
  C     -1.768840   -5.276450    3.738370
  C     -1.031150   -4.664730    4.779350
  O      0.228510   -5.041910    5.107980
  C      0.667860   -4.267830    6.133090
  C     -0.335420   -3.361810    6.465520
  C     -1.414570   -3.620720    5.618830
  F     -2.594380   -2.999920    5.586160
  F     -0.254620   -2.441350    7.425260
  C      1.946540   -4.432310    6.718400
  C      2.777350   -5.469420    6.444890
  C      4.077370   -5.655920    6.990690
  C      4.807770   -6.793520    6.703600
  C      6.091730   -7.061120    7.162580
  C      6.741210   -6.161690    8.121260
  C      6.214440   -4.986700    8.538470
  S      4.705660   -4.376050    8.012500
  C      7.967770   -6.788030    8.475950
  C      8.092200   -7.993320    7.788470
  C      9.309920   -8.646880    8.075980
  C     10.058280   -7.937190    8.961310
  S      9.326120   -6.456120    9.474060
  C      6.944200   -8.173320    6.932300
  C      6.878950   -9.236100    6.020230
  C      6.043660   -9.375700    4.940580
  C      6.045600  -10.420730    4.006200
  C      6.963620  -11.424750    3.768960
  C      6.613710  -12.675310    3.117600
  C      5.560860  -12.910450    2.267560
  C      4.682730  -11.927230    1.782120
  N      3.955930  -11.169710    1.311970
  C      5.270110  -14.165570    1.694540
  N      4.973400  -15.160260    1.204200
  C      7.629580  -13.649860    3.498230
  C      8.668530  -12.973510    4.175600
  C      9.766500  -13.665840    4.655050
  C      9.817340  -15.039410    4.463050
  C      8.799610  -15.704490    3.796090
  C      7.698230  -15.018870    3.302980
  C      8.338270  -11.555000    4.213980
  C      9.241690  -10.534560    4.385570
  C     10.572860  -10.719670    4.802790
  N     11.652560  -10.801170    5.186230
  C      8.941760   -9.184780    4.121250
  N      8.747820   -8.079330    3.878150
  H      7.042380   -7.840390   -0.102860
  H      7.862110   -6.557850    1.826560
  H      6.374800   -5.988940    3.685080
  H      4.024460   -6.738870    3.689250
  H      2.020460   -9.435920   -1.607160
  H      0.698990   -7.329150    1.149930
  H     -2.982290   -9.600890   -1.544970
  H     -4.656980   -5.820460    3.095590
  H     -6.710680   -6.771800    1.841070
  H     -0.199150   -6.421830    2.968870
  H     -2.790260   -4.943480    3.652050
  H      2.220690   -3.670050    7.434650
  H      2.431980   -6.245390    5.774910
  H      4.298550   -7.533670    6.104490
  H      6.726500   -4.340860    9.234270
  H      9.629990   -9.584410    7.658290
  H     11.022520   -8.192120    9.355150
  H      7.607850  -10.015240    6.202450
  H      5.268580   -8.642370    4.792640
  H      5.133660  -10.487970    3.425580
  H     10.562320  -13.160720    5.178540
  H     10.661510  -15.595430    4.841320
  H      8.860280  -16.773200    3.658240
  H      6.915600  -15.552040    2.788800

 Total Charge           Charge          ....    0
 Multiplicity           Mult            ....    1
 Number of Electrons    NEL             ....  542
 Basis Dimension        Dim             .... 1214

ORBITAL ENERGIES
----------------

  NO   OCC          E(Eh)            E(eV)
   0   2.0000     -88.992864     -2421.6189
   1   2.0000     -88.982607     -2421.3398
   2   2.0000     -88.965161     -2420.8651
   3   2.0000     -88.963175     -2420.8111
   4   2.0000     -24.812706      -675.1881
   5   2.0000     -24.809210      -675.0929
   6   2.0000     -19.313775      -525.5545
   7   2.0000     -14.434055      -392.7706
   8   2.0000     -14.421842      -392.4383
   9   2.0000     -14.418459      -392.3462
  10   2.0000     -14.417997      -392.3336
  11   2.0000     -14.416390      -392.2899
  12   2.0000     -14.415734      -392.2721
  13   2.0000     -14.413928      -392.2229
  14   2.0000     -14.409198      -392.0942
  15   2.0000     -10.379481      -282.4400
  16   2.0000     -10.374370      -282.3010
  17   2.0000     -10.355888      -281.7980
  18   2.0000     -10.353624      -281.7364
  19   2.0000     -10.349942      -281.6362
  20   2.0000     -10.349307      -281.6190
  21   2.0000     -10.343870      -281.4710
  22   2.0000     -10.343013      -281.4477
  23   2.0000     -10.341161      -281.3973
  24   2.0000     -10.340413      -281.3769
  25   2.0000     -10.340078      -281.3678
  26   2.0000     -10.340051      -281.3671
  27   2.0000     -10.339987      -281.3654
  28   2.0000     -10.339616      -281.3553
  29   2.0000     -10.337746      -281.3044
  30   2.0000     -10.336779      -281.2781
  31   2.0000     -10.331204      -281.1263
  32   2.0000     -10.328190      -281.0443
  33   2.0000     -10.323651      -280.9208
  34   2.0000     -10.319954      -280.8202
  35   2.0000     -10.319723      -280.8139
  36   2.0000     -10.319041      -280.7954
  37   2.0000     -10.318395      -280.7778
  38   2.0000     -10.317256      -280.7468
  39   2.0000     -10.316492      -280.7260
  40   2.0000     -10.313705      -280.6502
  41   2.0000     -10.313130      -280.6345
  42   2.0000     -10.312945      -280.6295
  43   2.0000     -10.312926      -280.6290
  44   2.0000     -10.310161      -280.5537
  45   2.0000     -10.309216      -280.5280
  46   2.0000     -10.309149      -280.5262
  47   2.0000     -10.307583      -280.4836
  48   2.0000     -10.305555      -280.4284
  49   2.0000     -10.305194      -280.4186
  50   2.0000     -10.305104      -280.4161
  51   2.0000     -10.304857      -280.4094
  52   2.0000     -10.304269      -280.3934
  53   2.0000     -10.302538      -280.3463
  54   2.0000     -10.302512      -280.3456
  55   2.0000     -10.301263      -280.3116
  56   2.0000     -10.300679      -280.2957
  57   2.0000     -10.299376      -280.2603
  58   2.0000     -10.296656      -280.1862
  59   2.0000     -10.296348      -280.1779
  60   2.0000     -10.295079      -280.1434
  61   2.0000     -10.294602      -280.1304
  62   2.0000     -10.294375      -280.1242
  63   2.0000     -10.294213      -280.1198
  64   2.0000     -10.294174      -280.1187
  65   2.0000     -10.293481      -280.0999
  66   2.0000     -10.293426      -280.0984
  67   2.0000     -10.292997      -280.0867
  68   2.0000     -10.291860      -280.0558
  69   2.0000     -10.291292      -280.0403
  70   2.0000     -10.291125      -280.0358
  71   2.0000     -10.287042      -279.9246
  72   2.0000     -10.285516      -279.8831
  73   2.0000     -10.283913      -279.8395
  74   2.0000     -10.282122      -279.7908
  75   2.0000     -10.280243      -279.7396
  76   2.0000     -10.279341      -279.7151
  77   2.0000      -8.088073      -220.0876
  78   2.0000      -8.077843      -219.8093
  79   2.0000      -8.060746      -219.3441
  80   2.0000      -8.058606      -219.2858
  81   2.0000      -6.057350      -164.8289
  82   2.0000      -6.052891      -164.7075
  83   2.0000      -6.050506      -164.6426
  84   2.0000      -6.047283      -164.5549
  85   2.0000      -6.042783      -164.4325
  86   2.0000      -6.039935      -164.3550
  87   2.0000      -6.030146      -164.0886
  88   2.0000      -6.028067      -164.0320
  89   2.0000      -6.025912      -163.9734
  90   2.0000      -6.023793      -163.9157
  91   2.0000      -6.022775      -163.8880
  92   2.0000      -6.020612      -163.8292
  93   2.0000      -1.328846       -36.1597
  94   2.0000      -1.319179       -35.8967
  95   2.0000      -1.231197       -33.5026
  96   2.0000      -1.036885       -28.2151
  97   2.0000      -1.028451       -27.9856
  98   2.0000      -1.021196       -27.7882
  99   2.0000      -1.017783       -27.6953
 100   2.0000      -1.016332       -27.6558
 101   2.0000      -1.014290       -27.6002
 102   2.0000      -1.007170       -27.4065
 103   2.0000      -1.003431       -27.3047
 104   2.0000      -1.001099       -27.2413
 105   2.0000      -0.995378       -27.0856
 106   2.0000      -0.993465       -27.0336
 107   2.0000      -0.992269       -27.0010
 108   2.0000      -0.985831       -26.8258
 109   2.0000      -0.982866       -26.7452
 110   2.0000      -0.955381       -25.9972
 111   2.0000      -0.952707       -25.9245
 112   2.0000      -0.944690       -25.7063
 113   2.0000      -0.940626       -25.5957
 114   2.0000      -0.938575       -25.5399
 115   2.0000      -0.932846       -25.3840
 116   2.0000      -0.930599       -25.3229
 117   2.0000      -0.922551       -25.1039
 118   2.0000      -0.917553       -24.9679
 119   2.0000      -0.909868       -24.7588
 120   2.0000      -0.903235       -24.5783
 121   2.0000      -0.892354       -24.2822
 122   2.0000      -0.887733       -24.1564
 123   2.0000      -0.884519       -24.0690
 124   2.0000      -0.866408       -23.5762
 125   2.0000      -0.865935       -23.5633
 126   2.0000      -0.862926       -23.4814
 127   2.0000      -0.859322       -23.3833
 128   2.0000      -0.856122       -23.2963
 129   2.0000      -0.841001       -22.8848
 130   2.0000      -0.834250       -22.7011
 131   2.0000      -0.822065       -22.3695
 132   2.0000      -0.812693       -22.1145
 133   2.0000      -0.804799       -21.8997
 134   2.0000      -0.793227       -21.5848
 135   2.0000      -0.788584       -21.4585
 136   2.0000      -0.783912       -21.3313
 137   2.0000      -0.781328       -21.2610
 138   2.0000      -0.769591       -20.9416
 139   2.0000      -0.750052       -20.4099
 140   2.0000      -0.738357       -20.0917
 141   2.0000      -0.734139       -19.9769
 142   2.0000      -0.727315       -19.7912
 143   2.0000      -0.718730       -19.5576
 144   2.0000      -0.714335       -19.4380
 145   2.0000      -0.712787       -19.3959
 146   2.0000      -0.709962       -19.3190
 147   2.0000      -0.706273       -19.2187
 148   2.0000      -0.705875       -19.2078
 149   2.0000      -0.697653       -18.9841
 150   2.0000      -0.684170       -18.6172
 151   2.0000      -0.676741       -18.4151
 152   2.0000      -0.675663       -18.3857
 153   2.0000      -0.667088       -18.1524
 154   2.0000      -0.664829       -18.0909
 155   2.0000      -0.662531       -18.0284
 156   2.0000      -0.660277       -17.9671
 157   2.0000      -0.659624       -17.9493
 158   2.0000      -0.659160       -17.9367
 159   2.0000      -0.647041       -17.6069
 160   2.0000      -0.643433       -17.5087
 161   2.0000      -0.639346       -17.3975
 162   2.0000      -0.633683       -17.2434
 163   2.0000      -0.628226       -17.0949
 164   2.0000      -0.620254       -16.8780
 165   2.0000      -0.613298       -16.6887
 166   2.0000      -0.607421       -16.5288
 167   2.0000      -0.606101       -16.4928
 168   2.0000      -0.601135       -16.3577
 169   2.0000      -0.598697       -16.2914
 170   2.0000      -0.591479       -16.0950
 171   2.0000      -0.586655       -15.9637
 172   2.0000      -0.582333       -15.8461
 173   2.0000      -0.577706       -15.7202
 174   2.0000      -0.574992       -15.6463
 175   2.0000      -0.572051       -15.5663
 176   2.0000      -0.570641       -15.5279
 177   2.0000      -0.568813       -15.4782
 178   2.0000      -0.560105       -15.2412
 179   2.0000      -0.558994       -15.2110
 180   2.0000      -0.556555       -15.1446
 181   2.0000      -0.552358       -15.0304
 182   2.0000      -0.549288       -14.9469
 183   2.0000      -0.546334       -14.8665
 184   2.0000      -0.542243       -14.7552
 185   2.0000      -0.540237       -14.7006
 186   2.0000      -0.537316       -14.6211
 187   2.0000      -0.533816       -14.5259
 188   2.0000      -0.533065       -14.5054
 189   2.0000      -0.530997       -14.4492
 190   2.0000      -0.530664       -14.4401
 191   2.0000      -0.527448       -14.3526
 192   2.0000      -0.525929       -14.3112
 193   2.0000      -0.524557       -14.2739
 194   2.0000      -0.522339       -14.2136
 195   2.0000      -0.520189       -14.1551
 196   2.0000      -0.519925       -14.1479
 197   2.0000      -0.514660       -14.0046
 198   2.0000      -0.510143       -13.8817
 199   2.0000      -0.509277       -13.8581
 200   2.0000      -0.507624       -13.8132
 201   2.0000      -0.503785       -13.7087
 202   2.0000      -0.501491       -13.6463
 203   2.0000      -0.495380       -13.4800
 204   2.0000      -0.492581       -13.4038
 205   2.0000      -0.487385       -13.2624
 206   2.0000      -0.484376       -13.1805
 207   2.0000      -0.482601       -13.1322
 208   2.0000      -0.481634       -13.1059
 209   2.0000      -0.478122       -13.0104
 210   2.0000      -0.477682       -12.9984
 211   2.0000      -0.471074       -12.8186
 212   2.0000      -0.465935       -12.6787
 213   2.0000      -0.465439       -12.6653
 214   2.0000      -0.463158       -12.6032
 215   2.0000      -0.461735       -12.5644
 216   2.0000      -0.458929       -12.4881
 217   2.0000      -0.454644       -12.3715
 218   2.0000      -0.453212       -12.3325
 219   2.0000      -0.452526       -12.3139
 220   2.0000      -0.451355       -12.2820
 221   2.0000      -0.449954       -12.2439
 222   2.0000      -0.448276       -12.1982
 223   2.0000      -0.447652       -12.1812
 224   2.0000      -0.447278       -12.1711
 225   2.0000      -0.445406       -12.1201
 226   2.0000      -0.443631       -12.0718
 227   2.0000      -0.443038       -12.0557
 228   2.0000      -0.442424       -12.0390
 229   2.0000      -0.441820       -12.0225
 230   2.0000      -0.439947       -11.9716
 231   2.0000      -0.437742       -11.9116
 232   2.0000      -0.435420       -11.8484
 233   2.0000      -0.435059       -11.8386
 234   2.0000      -0.433110       -11.7855
 235   2.0000      -0.431607       -11.7446
 236   2.0000      -0.430473       -11.7138
 237   2.0000      -0.429094       -11.6762
 238   2.0000      -0.427802       -11.6411
 239   2.0000      -0.425938       -11.5904
 240   2.0000      -0.425645       -11.5824
 241   2.0000      -0.423986       -11.5372
 242   2.0000      -0.423514       -11.5244
 243   2.0000      -0.422094       -11.4858
 244   2.0000      -0.419864       -11.4251
 245   2.0000      -0.416212       -11.3257
 246   2.0000      -0.415037       -11.2937
 247   2.0000      -0.413355       -11.2480
 248   2.0000      -0.411347       -11.1933
 249   2.0000      -0.407132       -11.0786
 250   2.0000      -0.405618       -11.0374
 251   2.0000      -0.395267       -10.7558
 252   2.0000      -0.389218       -10.5912
 253   2.0000      -0.381637       -10.3849
 254   2.0000      -0.380796       -10.3620
 255   2.0000      -0.376335       -10.2406
 256   2.0000      -0.373655       -10.1677
 257   2.0000      -0.355498        -9.6736
 258   2.0000      -0.348990        -9.4965
 259   2.0000      -0.340823        -9.2743
 260   2.0000      -0.335819        -9.1381
 261   2.0000      -0.332037        -9.0352
 262   2.0000      -0.326135        -8.8746
 263   2.0000      -0.321943        -8.7605
 264   2.0000      -0.306449        -8.3389
 265   2.0000      -0.303642        -8.2625
 266   2.0000      -0.299922        -8.1613
 267   2.0000      -0.286234        -7.7888
 268   2.0000      -0.275826        -7.5056
 269   2.0000      -0.247070        -6.7231
 270   2.0000      -0.226849        -6.1729
 271   0.0000      -0.111190        -3.0256
 272   0.0000      -0.098363        -2.6766
 273   0.0000      -0.084295        -2.2938
 274   0.0000      -0.080778        -2.1981
 275   0.0000      -0.062285        -1.6949

MULLIKEN ATOMIC CHARGES
-----------------------
   0 C :   -0.051884
   1 C :    0.077850
   2 C :    0.047946
   3 C :   -0.033520
   4 C :   -0.002854
   5 C :    0.025724
   6 C :    0.313603
   7 C :   -0.348255
   8 C :   -0.192994
   9 N :    0.160499
  10 C :   -0.177234
  11 N :    0.157975
  12 C :   -0.023111
  13 C :    0.210324
  14 C :   -0.368651
  15 C :   -0.174988
  16 N :    0.198304
  17 C :   -0.117380
  18 N :    0.128833
  19 C :    0.083743
  20 C :   -0.128205
  21 C :   -0.017134
  22 C :    0.044285
  23 C :    0.070322
  24 C :   -0.113186
  25 S :    0.178930
  26 C :   -0.109592
  27 C :    0.052822
  28 C :   -0.002622
  29 C :   -0.064429
  30 S :    0.139187
  31 C :    0.104189
  32 C :   -0.020519
  33 C :   -0.029014
  34 C :    0.099921
  35 O :   -0.210714
  36 C :    0.087141
  37 C :    0.178536
  38 C :    0.172028
  39 F :   -0.165684
  40 F :   -0.162550
  41 C :   -0.002734
  42 C :   -0.007773
  43 C :   -0.038451
  44 C :   -0.053598
  45 C :    0.084120
  46 C :    0.053882
  47 C :   -0.121848
  48 S :    0.142080
  49 C :   -0.107199
  50 C :    0.057152
  51 C :    0.008072
  52 C :   -0.062225
  53 S :    0.134295
  54 C :    0.069442
  55 C :    0.023482
  56 C :   -0.002590
  57 C :    0.058817
  58 C :   -0.085734
  59 C :    0.293246
  60 C :   -0.358454
  61 C :   -0.153286
  62 N :    0.122816
  63 C :   -0.185919
  64 N :    0.155220
  65 C :    0.008319
  66 C :    0.009288
  67 C :   -0.039078
  68 C :    0.046960
  69 C :    0.044982
  70 C :   -0.032473
  71 C :    0.234176
  72 C :   -0.369302
  73 C :   -0.173166
  74 N :    0.151839
  75 C :   -0.180938
  76 N :    0.159300
  77 H :    0.005706
  78 H :    0.013640
  79 H :    0.005561
  80 H :   -0.030204
  81 H :    0.014920
  82 H :    0.004245
  83 H :    0.042177
  84 H :   -0.009448
  85 H :    0.030484
  86 H :   -0.018330
  87 H :   -0.010860
  88 H :    0.014330
  89 H :    0.012614
  90 H :   -0.009651
  91 H :    0.042644
  92 H :   -0.011353
  93 H :    0.033273
  94 H :   -0.001126
  95 H :   -0.040339
  96 H :   -0.001017
  97 H :    0.001930
  98 H :    0.001243
  99 H :    0.002961
 100 H :    0.006239
Sum of atomic charges:   -0.0000000

LOEWDIN ATOMIC CHARGES
----------------------
   0 C :    0.003382
   1 C :    0.019643
   2 C :    0.012929
   3 C :   -0.013278
   4 C :   -0.017085
   5 C :   -0.008180
   6 C :    0.084595
   7 C :   -0.128559
   8 C :   -0.018157
   9 N :   -0.047698
  10 C :   -0.019446
  11 N :   -0.044119
  12 C :   -0.037615
  13 C :    0.077831
  14 C :   -0.145279
  15 C :   -0.018954
  16 N :   -0.032795
  17 C :    0.009507
  18 N :   -0.066536
  19 C :    0.030514
  20 C :   -0.182247
  21 C :    0.014772
  22 C :   -0.015449
  23 C :   -0.052406
  24 C :   -0.128869
  25 S :    0.490098
  26 C :   -0.188183
  27 C :   -0.037563
  28 C :   -0.064709
  29 C :   -0.158752
  30 S :    0.432288
  31 C :   -0.034898
  32 C :   -0.001767
  33 C :   -0.051837
  34 C :    0.018496
  35 O :    0.015300
  36 C :   -0.001469
  37 C :    0.028951
  38 C :    0.014061
  39 F :   -0.044317
  40 F :   -0.040653
  41 C :   -0.033743
  42 C :   -0.045465
  43 C :   -0.142511
  44 C :   -0.024127
  45 C :    0.016251
  46 C :   -0.042971
  47 C :   -0.140693
  48 S :    0.482092
  49 C :   -0.208544
  50 C :   -0.032442
  51 C :   -0.062569
  52 C :   -0.155113
  53 S :    0.426760
  54 C :   -0.060641
  55 C :    0.059054
  56 C :   -0.067737
  57 C :    0.057665
  58 C :   -0.085155
  59 C :    0.087332
  60 C :   -0.153637
  61 C :    0.005015
  62 N :   -0.071048
  63 C :   -0.020916
  64 N :   -0.053812
  65 C :   -0.012520
  66 C :   -0.010528
  67 C :   -0.002074
  68 C :    0.000999
  69 C :   -0.000781
  70 C :    0.004717
  71 C :    0.071548
  72 C :   -0.154604
  73 C :   -0.023136
  74 N :   -0.058756
  75 C :   -0.006301
  76 N :   -0.048656
  77 H :    0.041823
  78 H :    0.039943
  79 H :    0.038101
  80 H :    0.031346
  81 H :    0.042709
  82 H :    0.038661
  83 H :    0.039979
  84 H :    0.030452
  85 H :    0.025758
  86 H :    0.028355
  87 H :    0.037159
  88 H :    0.032959
  89 H :    0.036470
  90 H :    0.038402
  91 H :    0.039099
  92 H :    0.031988
  93 H :    0.027074
  94 H :    0.035007
  95 H :    0.024657
  96 H :    0.041700
  97 H :    0.039322
  98 H :    0.036212
  99 H :    0.036852
 100 H :    0.041475

  Mayer bond orders larger than 0.100000
B(  0-C ,  1-C ) :   1.3584 B(  0-C ,  5-C ) :   1.3730 B(  0-C , 77-H ) :   0.9880
B(  1-C ,  2-C ) :   1.3823 B(  1-C , 78-H ) :   0.9832 B(  2-C ,  3-C ) :   1.3460
B(  2-C , 79-H ) :   0.9897 B(  3-C ,  4-C ) :   1.3821 B(  3-C , 80-H ) :   0.9886
B(  4-C ,  5-C ) :   1.3219 B(  4-C , 13-C ) :   1.0035 B(  5-C ,  6-C ) :   0.9883
B(  6-C ,  7-C ) :   1.6551 B(  6-C , 12-C ) :   1.0484 B(  7-C ,  8-C ) :   1.1499
B(  7-C , 10-C ) :   1.1357 B(  8-C ,  9-N ) :   2.9817 B( 10-C , 11-N ) :   2.9730
B( 12-C , 13-C ) :   1.0122 B( 12-C , 19-C ) :   1.6518 B( 13-C , 14-C ) :   1.6491
B( 14-C , 15-C ) :   1.1481 B( 14-C , 17-C ) :   1.1772 B( 15-C , 16-N ) :   3.0153
B( 17-C , 18-N ) :   2.8558 B( 19-C , 20-C ) :   1.1530 B( 19-C , 81-H ) :   0.9060
B( 20-C , 21-C ) :   1.4617 B( 20-C , 25-S ) :   1.0673 B( 21-C , 22-C ) :   1.3132
B( 21-C , 82-H ) :   0.9563 B( 22-C , 23-C ) :   1.0576 B( 22-C , 31-C ) :   1.3276
B( 23-C , 24-C ) :   1.5770 B( 23-C , 26-C ) :   1.2005 B( 24-C , 25-S ) :   1.1694
B( 24-C , 83-H ) :   0.9398 B( 26-C , 27-C ) :   1.4244 B( 26-C , 30-S ) :   1.0857
B( 27-C , 28-C ) :   1.2015 B( 27-C , 31-C ) :   1.1173 B( 28-C , 29-C ) :   1.5957
B( 28-C , 84-H ) :   0.9998 B( 29-C , 30-S ) :   1.1500 B( 29-C , 85-H ) :   0.9654
B( 31-C , 32-C ) :   1.1698 B( 32-C , 33-C ) :   1.5866 B( 32-C , 86-H ) :   0.9678
B( 33-C , 34-C ) :   1.1700 B( 33-C , 87-H ) :   0.9633 B( 34-C , 35-O ) :   1.1317
B( 34-C , 36-C ) :   0.1213 B( 34-C , 38-C ) :   1.3264 B( 35-O , 36-C ) :   1.1132
B( 36-C , 37-C ) :   1.3314 B( 36-C , 41-C ) :   1.1916 B( 37-C , 38-C ) :   1.2201
B( 37-C , 40-F ) :   1.1791 B( 38-C , 39-F ) :   1.1696 B( 41-C , 42-C ) :   1.5915
B( 41-C , 88-H ) :   0.9491 B( 42-C , 43-C ) :   1.1620 B( 42-C , 89-H ) :   0.9754
B( 43-C , 44-C ) :   1.4579 B( 43-C , 48-S ) :   1.0785 B( 44-C , 45-C ) :   1.2628
B( 44-C , 90-H ) :   0.9621 B( 45-C , 46-C ) :   1.0845 B( 45-C , 54-C ) :   1.2723
B( 46-C , 47-C ) :   1.5783 B( 46-C , 49-C ) :   1.1720 B( 47-C , 48-S ) :   1.1591
B( 47-C , 91-H ) :   0.9413 B( 49-C , 50-C ) :   1.4545 B( 49-C , 53-S ) :   1.0749
B( 50-C , 51-C ) :   1.2203 B( 50-C , 54-C ) :   1.0872 B( 51-C , 52-C ) :   1.5880
B( 51-C , 92-H ) :   0.9966 B( 52-C , 53-S ) :   1.1599 B( 52-C , 93-H ) :   0.9653
B( 54-C , 55-C ) :   1.3064 B( 55-C , 56-C ) :   1.4526 B( 55-C , 94-H ) :   0.9409
B( 56-C , 57-C ) :   1.3401 B( 56-C , 95-H ) :   0.9443 B( 57-C , 58-C ) :   1.4626
B( 57-C , 96-H ) :   0.9259 B( 58-C , 59-C ) :   1.0962 B( 58-C , 71-C ) :   1.0538
B( 59-C , 60-C ) :   1.5918 B( 59-C , 65-C ) :   0.9933 B( 60-C , 61-C ) :   1.1596
B( 60-C , 63-C ) :   1.1409 B( 61-C , 62-N ) :   2.9196 B( 63-C , 64-N ) :   2.9796
B( 65-C , 66-C ) :   1.3162 B( 65-C , 70-C ) :   1.3921 B( 66-C , 67-C ) :   1.3908
B( 66-C , 71-C ) :   1.0116 B( 67-C , 68-C ) :   1.3556 B( 67-C , 97-H ) :   0.9875
B( 68-C , 69-C ) :   1.3874 B( 68-C , 98-H ) :   0.9859 B( 69-C , 70-C ) :   1.3596
B( 69-C , 99-H ) :   0.9864 B( 70-C ,100-H ) :   0.9839 B( 71-C , 72-C ) :   1.6074
B( 72-C , 73-C ) :   1.1373 B( 72-C , 75-C ) :   1.1719 B( 73-C , 74-N ) :   2.9723
B( 75-C , 76-N ) :   2.9642

-----------------------------------------------------------------------------
         ABSORPTION SPECTRUM VIA TRANSITION ELECTRIC DIPOLE MOMENTS
-----------------------------------------------------------------------------
State   Energy  Wavelength   fosc         T2         TX        TY        TZ
        (cm-1)    (nm)                  (au**2)     (au)      (au)      (au)
-----------------------------------------------------------------------------
   0    9418.3   1061.8   0.064622424   2.25885   0.96818  -0.82162   0.80400
   1   12788.6    781.9   0.598816212  15.41510  -2.76678   2.64206   0.88293
   2   15431.1    648.0   0.269017405   5.73930  -0.92517   1.60122   1.52298
   3   16090.1    621.5   0.108964390   2.22947  -0.95392   0.50075   1.03381
   4   17236.1    580.2   0.044220052   0.84461  -0.77002   0.49512   0.08086
   5   18108.1    552.2   0.420625555   7.64713  -0.86404  -1.71419  -1.99051
   6   20413.1    489.9   0.103791000   1.67389  -1.25471   0.22259   0.22373
   7   20856.2    479.5   0.055216598   0.87158   0.20881  -0.57271  -0.70710
   8   20992.0    476.4   0.429872158   6.74156  -1.84546  -0.56037  -1.73834
   9   22162.8    451.2   0.016432568   0.24409   0.28544  -0.24744  -0.31842
  10   22693.4    440.7   0.138061189   2.00285  -1.09144  -0.33926  -0.83458
  11   23036.3    434.1   0.076785083   1.09734  -0.54032  -0.64063  -0.62848
  12   23696.9    422.0   0.500663103   6.95552   2.37159  -0.16188   1.14232
  13   24779.6    403.6   0.049706274   0.66038  -0.69887   0.25400  -0.32778
  14   25518.7    391.9   0.006713584   0.08661   0.06754  -0.15866   0.23849
  15   25849.1    386.9   0.065456653   0.83365   0.88558  -0.21388   0.06038
  16   26025.2    384.2   0.116622182   1.47524   0.77913   0.88360   0.29571
  17   26282.8    380.5   0.058143076   0.72829   0.73953  -0.18328  -0.38444
  18   27226.5    367.3   0.072659359   0.87857   0.85223   0.35848  -0.15414
  19   28143.1    355.3   0.020440106   0.23910   0.09015  -0.25200   0.40924
  20   28636.9    349.2   0.024799766   0.28510  -0.46156   0.23785   0.12446
  21   28933.9    345.6   0.265130021   3.01667   0.50391   1.06467   1.27641
  22   29213.0    342.3   0.021721054   0.24478   0.38150  -0.14828  -0.27794
  23   29640.2    337.4   0.006899893   0.07664   0.22496   0.16057  -0.01568
  24   29770.1    335.9   0.069153504   0.76473  -0.59897   0.48044   0.41850
  25   30007.9    333.2   0.017628629   0.19340   0.39181   0.12383   0.15668
  26   30064.1    332.6   0.040018345   0.43821   0.35460  -0.53419   0.16466
  27   30461.8    328.3   0.044797231   0.48414  -0.57919  -0.36788  -0.11550
  28   30689.5    325.8   0.167676672   1.79870   0.13494   1.09374   0.76435
  29   30950.4    323.1   0.011546144   0.12281  -0.08312  -0.13929   0.31065
  30   31128.6    321.2   0.139922723   1.47980  -1.17672   0.23894  -0.19506
  31   31807.2    314.4   0.466646432   4.82989   0.66553  -0.79684  -1.93701
  32   32038.9    312.1   0.045776032   0.47037   0.15066   0.19163   0.64105
  33   32400.9    308.6   0.057866417   0.58796  -0.29955  -0.48482   0.51300
  34   32649.6    306.3   0.101768061   1.02615   0.77688  -0.17267  -0.62673
  35   32761.2    305.2   0.074005405   0.74367   0.28839   0.80378  -0.12014
  36   32847.0    304.4   0.364109448   3.64932   1.90791   0.03322   0.09006
  37   33364.6    299.7   0.078304887   0.77264  -0.41299   0.35587   0.68952
  38   33521.5    298.3   0.089047972   0.87453   0.73094   0.03732  -0.58212
  39   33564.1    297.9   0.088494454   0.86799  -0.19887  -0.91019  -0.00014
  40   33962.1    294.4   0.073005010   0.70768   0.71714  -0.30766   0.31422
  41   34311.0    291.5   0.143652584   1.37834  -0.00255  -1.16526  -0.14317
  42   34507.9    289.8   0.021227625   0.20252  -0.07143   0.27491  -0.34905
  43   34681.5    288.3   0.050585547   0.48018  -0.52600  -0.16447  -0.42007
  44   34894.1    286.6   0.078909018   0.74448  -0.85525  -0.06104  -0.09644
  45   35087.3    285.0   0.468738317   4.39800   1.70494   0.48720   1.11974
  46   35199.3    284.1   0.100329819   0.93837   0.44012   0.73417   0.45349
  47   35738.0    279.8   0.362506286   3.33934  -0.69917   1.43746   0.88555
  48   35882.8    278.7   0.360374872   3.30631  -1.17089   1.38667   0.11164
  49   36288.2    275.6   0.163447189   1.48282   1.02817  -0.65202  -0.02348
  50   36343.9    275.1   0.100478398   0.91016  -0.04913   0.78290   0.54297
  51   36721.3    272.3   0.008289173   0.07431   0.16963   0.16787   0.13175
  52   36784.4    271.9   0.072128366   0.64553  -0.79784  -0.01891  -0.09292
  53   37131.9    269.3   0.156425972   1.38688   1.16606   0.07906  -0.14469
  54   37478.8    266.8   0.052966887   0.46526  -0.22658   0.63226   0.11902
  55   37590.2    266.0   0.054385284   0.47630   0.50193   0.11090   0.46051
  56   37659.4    265.5   0.014694364   0.12846  -0.20523  -0.22334  -0.19093
  57   37801.8    264.5   0.105747091   0.92094  -0.18322   0.73321   0.59141
  58   37991.1    263.2   0.006147675   0.05327   0.21586  -0.01115  -0.08094
  59   38286.1    261.2   0.038460304   0.33071  -0.23630  -0.43419  -0.29385
  60   38338.6    260.8   0.037701454   0.32374  -0.16024  -0.42027  -0.34848
  61   38560.6    259.3   0.010795678   0.09217   0.02257   0.16245   0.25548
  62   38671.2    258.6   0.046309152   0.39424  -0.15043  -0.43374  -0.42834
  63   39005.0    256.4   0.035397864   0.29877  -0.33970   0.42452   0.05611
  64   39074.3    255.9   0.014498151   0.12215   0.29194   0.13468   0.13705
  65   39223.6    254.9   0.011381770   0.09553  -0.22997  -0.20638  -0.00729
  66   39754.6    251.5   0.084372928   0.69870  -0.26662   0.37247   0.69920
  67   40311.6    248.1   0.083610169   0.68282   0.76565  -0.26908   0.15554

FINAL SINGLE POINT ENERGY     -4678.032313671587

DIPOLE MOMENT
-------------
                                X             Y             Z
Electronic contribution:    -24.27298      17.66694      -2.59931
Nuclear contribution   :     22.91761     -15.26943       5.26122
                        -----------------------------------------
Total Dipole Moment    :     -1.35536       2.39751       2.66191
                        -----------------------------------------
Magnitude (a.u.)       :      3.83026
Magnitude (Debye)      :      9.73574

Rotational constants in cm-1:     0.001021     0.000630     0.000438
Rotational constants in MHz :    30.615716    18.890127    13.138060

                             ****ORCA TERMINATED NORMALLY****
TOTAL RUN TIME: 0 days 0 hours 14 minutes 28 seconds 354 msec
