                         Program Version 4.2.0 -  RELEASE  -
|  1> # ORCA input file
|  2> # SCF done       -202.920048418209          0.000418387335
|  3> ! CAM-B3LYP def2-SVP def2/J RIJCOSX Grid4 TightSCF
|  4> %maxcore 5000
|  5> %tddft
|  6>     Mode sTDDFT
|  7>     Ethresh 5.0
|  8>     maxcore 5000
|  9> end
| 10>
| 11> %pal
| 12>   nprocs 6
| 13>   end
| 14> * xyz 0 1
| 15>    C       -9.16733         3.38266         2.72631
| 16>    C       -8.73908         4.32391         1.80261
| 17>    C       -8.32948         3.94628         0.53126
| 18>    C       -8.34244         2.61503         0.14421
| 19>    C       -8.76719         1.66505         1.05868
| 20>    C       -9.17810         2.04647         2.35674
| 21>    C       -9.55103         0.85351         3.10395
| 22>    C      -10.14822         0.82568         4.33408
| 23>    C      -10.48419         1.97876         5.07552
| 24>    N      -10.78257         2.87453         5.72798
| 25>    C      -10.55786        -0.34205         5.01263
| 26>    N      -10.92489        -1.24757         5.61585
| 27>    C       -9.17225        -0.29261         2.27858
| 28>    C       -8.91206         0.22380         0.93578
| 29>    C       -9.04327        -0.47027        -0.23538
| 30>    C       -9.47477        -1.81114        -0.31497
| 31>    N       -9.89511        -2.87037        -0.45001
| 32>    C       -8.85179         0.10084        -1.51047
| 33>    N       -8.68725         0.51372        -2.56856
| 34>    C       -8.98652        -1.55542         2.74569
| 35>    C       -8.27828        -2.63285         2.10823
| 36>    C       -8.68893        -3.95223         2.36225
| 37>    C       -8.03775        -4.99381         1.75067
| 38>    C       -6.95850        -4.74029         0.88242
| 39>    C       -6.49915        -3.44444         0.68189
| 40>    C       -7.16010        -2.40239         1.29294
| 41>    C       -6.52837        -5.99002         0.30267
| 42>    C       -7.33648        -7.02036         0.81284
| 43>    C       -8.31921        -6.47658         1.82677
| 44>    C       -7.92984        -7.06831         3.20249
| 45>    C       -8.69039        -6.51848         4.40174
| 46>    C       -9.77233        -6.80771         1.45418
| 47>    C      -10.12817        -6.35870         0.04152
| 48>    C       -7.16038        -8.31642         0.39656
| 49>    C       -6.17397        -8.61160        -0.55697
| 50>    C       -5.39326        -7.57029        -1.07597
| 51>    C       -5.55747        -6.26843        -0.64853
| 52>    C       -6.04065        -9.97977        -1.01100
| 53>    O       -7.15240       -10.76515        -0.96336
| 54>    C       -6.83172       -11.95598        -1.47349
| 55>    C       -5.52441       -11.99982        -1.84358
| 56>    C       -4.98455       -10.72082        -1.53245
| 57>    N       -3.69620       -10.26768        -1.68662
| 58>    C       -2.54200       -10.94953        -2.00341
| 59>    C       -1.46631       -10.18778        -2.48939
| 60>    C       -0.29846       -10.81009        -2.84999
| 61>    C       -0.18622       -12.21136        -2.76200
| 62>    C       -1.22323       -12.96123        -2.22515
| 63>    C       -2.38581       -12.32925        -1.83363
| 64>    C        1.07841       -12.60848        -3.32784
| 65>    C        1.76023       -11.45335        -3.75419
| 66>    C        0.97098       -10.20973        -3.40731
| 67>    C        0.71326        -9.32846        -4.63789
| 68>    C        0.00875       -10.08546        -5.75775
| 69>    C        1.77256        -9.45611        -2.31846
| 70>    C        1.06723        -8.26774        -1.67873
| 71>    C        2.98545       -11.54908        -4.35887
| 72>    C        3.52990       -12.81881        -4.61855
| 73>    C        2.85260       -13.96204        -4.16484
| 74>    C        1.64462       -13.86524        -3.51132
| 75>    C        4.79903       -12.89708        -5.28515
| 76>    C        5.25754       -13.88749        -6.09853
| 77>    C        6.66311       -14.10585        -6.43137
| 78>    C        7.69141       -13.20996        -6.31676
| 79>    C        7.56358       -11.86995        -5.89384
| 80>    N        7.53670       -10.76803        -5.57127
| 81>    C        9.03049       -13.49536        -6.65851
| 82>    N       10.13680       -13.66039        -6.91632
| 83>    C        6.76887       -15.47241        -6.92429
| 84>    C        5.46946       -16.01254        -7.06024
| 85>    C        5.28737       -17.31252        -7.50274
| 86>    C        6.40744       -18.07057        -7.80815
| 87>    C        7.68380       -17.54051        -7.68142
| 88>    C        7.87884       -16.24032        -7.24053
| 89>    C        4.50533       -14.98553        -6.69985
| 90>    C        3.19564       -14.94663        -7.09475
| 91>    C        2.53829       -16.01411        -7.73983
| 92>    N        1.95119       -16.85933        -8.24836
| 93>    C        2.37357       -13.80474        -6.99647
| 94>    N        1.67915       -12.89130        -7.02215
| 95>    H       -9.47660         3.69361         3.71061
| 96>    H       -8.72191         5.36649         2.08103
| 97>    H       -7.99417         4.69749        -0.16730
| 98>    H       -8.01598         2.33168        -0.84339
| 99>    H       -9.36161        -1.78241         3.73516
|100>    H       -9.55223        -4.11565         2.98867
|101>    H       -5.64450        -3.25373         0.05045
|102>    H       -6.79844        -1.39154         1.16542
|103>    H       -6.86115        -6.89209         3.35379
|104>    H       -8.08028        -8.14885         3.14982
|105>    H       -8.48091        -5.46222         4.54572
|106>    H       -8.37718        -7.04833         5.29886
|107>    H       -9.76224        -6.65467         4.28873
|108>    H      -10.44229        -6.31789         2.16148
|109>    H       -9.91780        -7.88661         1.54342
|110>    H      -10.00424        -5.28442        -0.06643
|111>    H      -11.16395        -6.60783        -0.17664
|112>    H       -9.49514        -6.85403        -0.69151
|113>    H       -7.77522        -9.11719         0.77744
|114>    H       -4.69088        -7.76604        -1.87243
|115>    H       -4.95370        -5.47786        -1.06840
|116>    H       -7.60807       -12.69302        -1.53100
|117>    H       -5.03043       -12.82056        -2.31750
|118>    H       -3.58314        -9.27107        -1.57806
|119>    H       -1.58827        -9.11970        -2.59908
|120>    H       -1.12653       -14.03037        -2.11090
|121>    H       -3.17213       -12.90326        -1.37387
|122>    H        1.66897        -8.94596        -5.00148
|123>    H        0.10173        -8.47428        -4.34275
|124>    H        0.60687       -10.92730        -6.09502
|125>    H       -0.16128        -9.42394        -6.60401
|126>    H       -0.95342       -10.46329        -5.41826
|127>    H        2.70586        -9.11529        -2.77141
|128>    H        2.02895       -10.17327        -1.53391
|129>    H        0.78287        -7.52798        -2.42216
|130>    H        1.74022        -7.79003        -0.96993
|131>    H        0.18081        -8.58809        -1.13788
|132>    H        3.51874       -10.67129        -4.69253
|133>    H        3.31046       -14.93242        -4.29782
|134>    H        1.14398       -14.75289        -3.15497
|135>    H        5.47709       -12.08407        -5.06030
|136>    H        4.30066       -17.73606        -7.59868
|137>    H        6.28212       -19.08728        -8.14790
|138>    H        8.54109       -18.14863        -7.92655
|139>    H        8.87746       -15.84721        -7.14395
|140> *
|141>
|142>                          ****END OF INPUT****

CARTESIAN COORDINATES (ANGSTROEM)
---------------------------------
  C     -9.167330    3.382660    2.726310
  C     -8.739080    4.323910    1.802610
  C     -8.329480    3.946280    0.531260
  C     -8.342440    2.615030    0.144210
  C     -8.767190    1.665050    1.058680
  C     -9.178100    2.046470    2.356740
  C     -9.551030    0.853510    3.103950
  C    -10.148220    0.825680    4.334080
  C    -10.484190    1.978760    5.075520
  N    -10.782570    2.874530    5.727980
  C    -10.557860   -0.342050    5.012630
  N    -10.924890   -1.247570    5.615850
  C     -9.172250   -0.292610    2.278580
  C     -8.912060    0.223800    0.935780
  C     -9.043270   -0.470270   -0.235380
  C     -9.474770   -1.811140   -0.314970
  N     -9.895110   -2.870370   -0.450010
  C     -8.851790    0.100840   -1.510470
  N     -8.687250    0.513720   -2.568560
  C     -8.986520   -1.555420    2.745690
  C     -8.278280   -2.632850    2.108230
  C     -8.688930   -3.952230    2.362250
  C     -8.037750   -4.993810    1.750670
  C     -6.958500   -4.740290    0.882420
  C     -6.499150   -3.444440    0.681890
  C     -7.160100   -2.402390    1.292940
  C     -6.528370   -5.990020    0.302670
  C     -7.336480   -7.020360    0.812840
  C     -8.319210   -6.476580    1.826770
  C     -7.929840   -7.068310    3.202490
  C     -8.690390   -6.518480    4.401740
  C     -9.772330   -6.807710    1.454180
  C    -10.128170   -6.358700    0.041520
  C     -7.160380   -8.316420    0.396560
  C     -6.173970   -8.611600   -0.556970
  C     -5.393260   -7.570290   -1.075970
  C     -5.557470   -6.268430   -0.648530
  C     -6.040650   -9.979770   -1.011000
  O     -7.152400  -10.765150   -0.963360
  C     -6.831720  -11.955980   -1.473490
  C     -5.524410  -11.999820   -1.843580
  C     -4.984550  -10.720820   -1.532450
  N     -3.696200  -10.267680   -1.686620
  C     -2.542000  -10.949530   -2.003410
  C     -1.466310  -10.187780   -2.489390
  C     -0.298460  -10.810090   -2.849990
  C     -0.186220  -12.211360   -2.762000
  C     -1.223230  -12.961230   -2.225150
  C     -2.385810  -12.329250   -1.833630
  C      1.078410  -12.608480   -3.327840
  C      1.760230  -11.453350   -3.754190
  C      0.970980  -10.209730   -3.407310
  C      0.713260   -9.328460   -4.637890
  C      0.008750  -10.085460   -5.757750
  C      1.772560   -9.456110   -2.318460
  C      1.067230   -8.267740   -1.678730
  C      2.985450  -11.549080   -4.358870
  C      3.529900  -12.818810   -4.618550
  C      2.852600  -13.962040   -4.164840
  C      1.644620  -13.865240   -3.511320
  C      4.799030  -12.897080   -5.285150
  C      5.257540  -13.887490   -6.098530
  C      6.663110  -14.105850   -6.431370
  C      7.691410  -13.209960   -6.316760
  C      7.563580  -11.869950   -5.893840
  N      7.536700  -10.768030   -5.571270
  C      9.030490  -13.495360   -6.658510
  N     10.136800  -13.660390   -6.916320
  C      6.768870  -15.472410   -6.924290
  C      5.469460  -16.012540   -7.060240
  C      5.287370  -17.312520   -7.502740
  C      6.407440  -18.070570   -7.808150
  C      7.683800  -17.540510   -7.681420
  C      7.878840  -16.240320   -7.240530
  C      4.505330  -14.985530   -6.699850
  C      3.195640  -14.946630   -7.094750
  C      2.538290  -16.014110   -7.739830
  N      1.951190  -16.859330   -8.248360
  C      2.373570  -13.804740   -6.996470
  N      1.679150  -12.891300   -7.022150
  H     -9.476600    3.693610    3.710610
  H     -8.721910    5.366490    2.081030
  H     -7.994170    4.697490   -0.167300
  H     -8.015980    2.331680   -0.843390
  H     -9.361610   -1.782410    3.735160
  H     -9.552230   -4.115650    2.988670
  H     -5.644500   -3.253730    0.050450
  H     -6.798440   -1.391540    1.165420
  H     -6.861150   -6.892090    3.353790
  H     -8.080280   -8.148850    3.149820
  H     -8.480910   -5.462220    4.545720
  H     -8.377180   -7.048330    5.298860
  H     -9.762240   -6.654670    4.288730
  H    -10.442290   -6.317890    2.161480
  H     -9.917800   -7.886610    1.543420
  H    -10.004240   -5.284420   -0.066430
  H    -11.163950   -6.607830   -0.176640
  H     -9.495140   -6.854030   -0.691510
  H     -7.775220   -9.117190    0.777440
  H     -4.690880   -7.766040   -1.872430
  H     -4.953700   -5.477860   -1.068400
  H     -7.608070  -12.693020   -1.531000
  H     -5.030430  -12.820560   -2.317500
  H     -3.583140   -9.271070   -1.578060
  H     -1.588270   -9.119700   -2.599080
  H     -1.126530  -14.030370   -2.110900
  H     -3.172130  -12.903260   -1.373870
  H      1.668970   -8.945960   -5.001480
  H      0.101730   -8.474280   -4.342750
  H      0.606870  -10.927300   -6.095020
  H     -0.161280   -9.423940   -6.604010
  H     -0.953420  -10.463290   -5.418260
  H      2.705860   -9.115290   -2.771410
  H      2.028950  -10.173270   -1.533910
  H      0.782870   -7.527980   -2.422160
  H      1.740220   -7.790030   -0.969930
  H      0.180810   -8.588090   -1.137880
  H      3.518740  -10.671290   -4.692530
  H      3.310460  -14.932420   -4.297820
  H      1.143980  -14.752890   -3.154970
  H      5.477090  -12.084070   -5.060300
  H      4.300660  -17.736060   -7.598680
  H      6.282120  -19.087280   -8.147900
  H      8.541090  -18.148630   -7.926550
  H      8.877460  -15.847210   -7.143950

 Total Charge           Charge          ....    0
 Multiplicity           Mult            ....    1
 Number of Electrons    NEL             ....  536
 Basis Dimension        Dim             .... 1345

ORBITAL ENERGIES
----------------

  NO   OCC          E(Eh)            E(eV)
   0   2.0000     -19.287493      -524.8394
   1   2.0000     -14.447243      -393.1295
   2   2.0000     -14.425623      -392.5411
   3   2.0000     -14.424733      -392.5169
   4   2.0000     -14.423448      -392.4820
   5   2.0000     -14.423076      -392.4718
   6   2.0000     -14.422481      -392.4557
   7   2.0000     -14.422461      -392.4551
   8   2.0000     -14.420679      -392.4066
   9   2.0000     -14.420098      -392.3908
  10   2.0000     -10.354546      -281.7615
  11   2.0000     -10.353947      -281.7452
  12   2.0000     -10.352088      -281.6946
  13   2.0000     -10.351675      -281.6834
  14   2.0000     -10.350955      -281.6638
  15   2.0000     -10.350902      -281.6624
  16   2.0000     -10.349450      -281.6229
  17   2.0000     -10.348426      -281.5950
  18   2.0000     -10.327604      -281.0284
  19   2.0000     -10.326749      -281.0051
  20   2.0000     -10.326113      -280.9878
  21   2.0000     -10.325939      -280.9831
  22   2.0000     -10.325593      -280.9737
  23   2.0000     -10.325497      -280.9711
  24   2.0000     -10.325464      -280.9702
  25   2.0000     -10.324661      -280.9483
  26   2.0000     -10.324645      -280.9479
  27   2.0000     -10.323263      -280.9103
  28   2.0000     -10.323102      -280.9059
  29   2.0000     -10.322443      -280.8880
  30   2.0000     -10.320334      -280.8306
  31   2.0000     -10.319204      -280.7998
  32   2.0000     -10.318330      -280.7760
  33   2.0000     -10.317561      -280.7551
  34   2.0000     -10.317253      -280.7467
  35   2.0000     -10.316851      -280.7358
  36   2.0000     -10.315149      -280.6895
  37   2.0000     -10.314827      -280.6807
  38   2.0000     -10.305548      -280.4282
  39   2.0000     -10.305209      -280.4190
  40   2.0000     -10.304281      -280.3938
  41   2.0000     -10.303507      -280.3727
  42   2.0000     -10.303258      -280.3659
  43   2.0000     -10.302858      -280.3550
  44   2.0000     -10.302253      -280.3386
  45   2.0000     -10.301325      -280.3133
  46   2.0000     -10.295674      -280.1595
  47   2.0000     -10.293231      -280.0931
  48   2.0000     -10.292269      -280.0669
  49   2.0000     -10.289371      -279.9880
  50   2.0000     -10.287421      -279.9350
  51   2.0000     -10.286754      -279.9168
  52   2.0000     -10.286386      -279.9068
  53   2.0000     -10.285045      -279.8703
  54   2.0000     -10.283879      -279.8386
  55   2.0000     -10.283871      -279.8384
  56   2.0000     -10.283029      -279.8155
  57   2.0000     -10.282843      -279.8104
  58   2.0000     -10.281740      -279.7804
  59   2.0000     -10.280786      -279.7544
  60   2.0000     -10.280508      -279.7469
  61   2.0000     -10.280258      -279.7400
  62   2.0000     -10.279424      -279.7173
  63   2.0000     -10.277460      -279.6639
  64   2.0000     -10.275551      -279.6120
  65   2.0000     -10.275474      -279.6099
  66   2.0000     -10.275106      -279.5999
  67   2.0000     -10.272842      -279.5382
  68   2.0000     -10.272024      -279.5160
  69   2.0000     -10.271371      -279.4982
  70   2.0000     -10.271149      -279.4922
  71   2.0000     -10.268997      -279.4336
  72   2.0000     -10.268064      -279.4082
  73   2.0000     -10.267072      -279.3812
  74   2.0000     -10.261612      -279.2327
  75   2.0000     -10.260630      -279.2059
  76   2.0000     -10.255981      -279.0794
  77   2.0000     -10.253915      -279.0232
  78   2.0000     -10.235348      -278.5180
  79   2.0000     -10.234919      -278.5063
  80   2.0000      -1.206969       -32.8433
  81   2.0000      -1.052490       -28.6397
  82   2.0000      -1.039955       -28.2986
  83   2.0000      -1.037375       -28.2284
  84   2.0000      -1.021224       -27.7889
  85   2.0000      -1.018980       -27.7278
  86   2.0000      -1.010769       -27.5044
  87   2.0000      -1.008507       -27.4429
  88   2.0000      -1.002760       -27.2865
  89   2.0000      -1.002215       -27.2716
  90   2.0000      -1.000406       -27.2224
  91   2.0000      -0.999887       -27.2083
  92   2.0000      -0.995930       -27.1006
  93   2.0000      -0.992779       -27.0149
  94   2.0000      -0.966790       -26.3077
  95   2.0000      -0.963699       -26.2236
  96   2.0000      -0.954519       -25.9738
  97   2.0000      -0.948707       -25.8156
  98   2.0000      -0.943907       -25.6850
  99   2.0000      -0.941235       -25.6123
 100   2.0000      -0.928430       -25.2639
 101   2.0000      -0.920335       -25.0436
 102   2.0000      -0.901719       -24.5370
 103   2.0000      -0.899795       -24.4847
 104   2.0000      -0.896362       -24.3912
 105   2.0000      -0.894656       -24.3448
 106   2.0000      -0.887364       -24.1464
 107   2.0000      -0.879608       -23.9353
 108   2.0000      -0.870656       -23.6917
 109   2.0000      -0.868360       -23.6293
 110   2.0000      -0.860407       -23.4129
 111   2.0000      -0.849846       -23.1255
 112   2.0000      -0.845316       -23.0022
 113   2.0000      -0.845089       -22.9960
 114   2.0000      -0.839054       -22.8318
 115   2.0000      -0.837920       -22.8010
 116   2.0000      -0.832983       -22.6666
 117   2.0000      -0.831611       -22.6293
 118   2.0000      -0.818836       -22.2817
 119   2.0000      -0.808176       -21.9916
 120   2.0000      -0.795124       -21.6364
 121   2.0000      -0.792818       -21.5737
 122   2.0000      -0.781985       -21.2789
 123   2.0000      -0.777813       -21.1654
 124   2.0000      -0.769854       -20.9488
 125   2.0000      -0.768709       -20.9176
 126   2.0000      -0.738026       -20.0827
 127   2.0000      -0.736087       -20.0300
 128   2.0000      -0.722735       -19.6666
 129   2.0000      -0.720717       -19.6117
 130   2.0000      -0.718327       -19.5467
 131   2.0000      -0.716619       -19.5002
 132   2.0000      -0.714555       -19.4440
 133   2.0000      -0.713530       -19.4161
 134   2.0000      -0.706387       -19.2218
 135   2.0000      -0.694426       -18.8963
 136   2.0000      -0.692399       -18.8411
 137   2.0000      -0.689040       -18.7497
 138   2.0000      -0.688127       -18.7249
 139   2.0000      -0.681248       -18.5377
 140   2.0000      -0.675479       -18.3807
 141   2.0000      -0.672351       -18.2956
 142   2.0000      -0.669969       -18.2308
 143   2.0000      -0.669079       -18.2066
 144   2.0000      -0.667510       -18.1639
 145   2.0000      -0.666003       -18.1229
 146   2.0000      -0.662260       -18.0210
 147   2.0000      -0.656893       -17.8750
 148   2.0000      -0.649326       -17.6691
 149   2.0000      -0.639633       -17.4053
 150   2.0000      -0.630197       -17.1485
 151   2.0000      -0.624894       -17.0042
 152   2.0000      -0.613943       -16.7062
 153   2.0000      -0.608919       -16.5695
 154   2.0000      -0.600957       -16.3529
 155   2.0000      -0.596752       -16.2385
 156   2.0000      -0.591998       -16.1091
 157   2.0000      -0.590569       -16.0702
 158   2.0000      -0.589371       -16.0376
 159   2.0000      -0.588060       -16.0019
 160   2.0000      -0.581060       -15.8114
 161   2.0000      -0.572968       -15.5913
 162   2.0000      -0.567175       -15.4336
 163   2.0000      -0.562912       -15.3176
 164   2.0000      -0.556295       -15.1376
 165   2.0000      -0.553837       -15.0707
 166   2.0000      -0.550221       -14.9723
 167   2.0000      -0.548401       -14.9228
 168   2.0000      -0.546921       -14.8825
 169   2.0000      -0.545658       -14.8481
 170   2.0000      -0.542783       -14.7699
 171   2.0000      -0.541163       -14.7258
 172   2.0000      -0.540779       -14.7153
 173   2.0000      -0.539926       -14.6921
 174   2.0000      -0.536458       -14.5978
 175   2.0000      -0.535234       -14.5645
 176   2.0000      -0.533297       -14.5117
 177   2.0000      -0.530205       -14.4276
 178   2.0000      -0.527695       -14.3593
 179   2.0000      -0.526648       -14.3308
 180   2.0000      -0.525503       -14.2997
 181   2.0000      -0.523891       -14.2558
 182   2.0000      -0.522439       -14.2163
 183   2.0000      -0.519963       -14.1489
 184   2.0000      -0.515996       -14.0410
 185   2.0000      -0.512343       -13.9416
 186   2.0000      -0.512073       -13.9342
 187   2.0000      -0.510468       -13.8905
 188   2.0000      -0.507361       -13.8060
 189   2.0000      -0.505554       -13.7568
 190   2.0000      -0.502480       -13.6732
 191   2.0000      -0.500523       -13.6199
 192   2.0000      -0.498448       -13.5634
 193   2.0000      -0.493325       -13.4241
 194   2.0000      -0.490209       -13.3393
 195   2.0000      -0.487192       -13.2572
 196   2.0000      -0.486041       -13.2259
 197   2.0000      -0.482238       -13.1224
 198   2.0000      -0.481157       -13.0930
 199   2.0000      -0.476066       -12.9544
 200   2.0000      -0.474756       -12.9188
 201   2.0000      -0.470490       -12.8027
 202   2.0000      -0.468359       -12.7447
 203   2.0000      -0.466968       -12.7068
 204   2.0000      -0.464466       -12.6388
 205   2.0000      -0.462894       -12.5960
 206   2.0000      -0.460761       -12.5379
 207   2.0000      -0.460698       -12.5362
 208   2.0000      -0.458489       -12.4761
 209   2.0000      -0.457755       -12.4562
 210   2.0000      -0.456665       -12.4265
 211   2.0000      -0.456126       -12.4118
 212   2.0000      -0.454326       -12.3628
 213   2.0000      -0.453391       -12.3374
 214   2.0000      -0.451604       -12.2888
 215   2.0000      -0.451131       -12.2759
 216   2.0000      -0.450611       -12.2617
 217   2.0000      -0.448611       -12.2073
 218   2.0000      -0.447852       -12.1867
 219   2.0000      -0.445893       -12.1334
 220   2.0000      -0.442953       -12.0534
 221   2.0000      -0.441818       -12.0225
 222   2.0000      -0.440906       -11.9977
 223   2.0000      -0.437486       -11.9046
 224   2.0000      -0.437073       -11.8934
 225   2.0000      -0.436133       -11.8678
 226   2.0000      -0.435646       -11.8545
 227   2.0000      -0.433439       -11.7945
 228   2.0000      -0.433362       -11.7924
 229   2.0000      -0.432104       -11.7581
 230   2.0000      -0.431168       -11.7327
 231   2.0000      -0.431089       -11.7305
 232   2.0000      -0.428336       -11.6556
 233   2.0000      -0.426896       -11.6164
 234   2.0000      -0.426378       -11.6023
 235   2.0000      -0.423297       -11.5185
 236   2.0000      -0.422187       -11.4883
 237   2.0000      -0.418227       -11.3805
 238   2.0000      -0.416404       -11.3309
 239   2.0000      -0.415457       -11.3052
 240   2.0000      -0.413888       -11.2625
 241   2.0000      -0.412153       -11.2153
 242   2.0000      -0.408881       -11.1262
 243   2.0000      -0.405770       -11.0416
 244   2.0000      -0.395672       -10.7668
 245   2.0000      -0.394816       -10.7435
 246   2.0000      -0.389728       -10.6050
 247   2.0000      -0.389305       -10.5935
 248   2.0000      -0.388524       -10.5723
 249   2.0000      -0.386474       -10.5165
 250   2.0000      -0.382769       -10.4157
 251   2.0000      -0.382036       -10.3957
 252   2.0000      -0.380125       -10.3437
 253   2.0000      -0.374782       -10.1983
 254   2.0000      -0.352732        -9.5983
 255   2.0000      -0.349118        -9.5000
 256   2.0000      -0.338813        -9.2196
 257   2.0000      -0.336463        -9.1556
 258   2.0000      -0.331336        -9.0161
 259   2.0000      -0.329279        -8.9601
 260   2.0000      -0.325822        -8.8661
 261   2.0000      -0.322885        -8.7862
 262   2.0000      -0.321582        -8.7507
 263   2.0000      -0.317642        -8.6435
 264   2.0000      -0.305285        -8.3072
 265   2.0000      -0.292320        -7.9544
 266   2.0000      -0.269423        -7.3314
 267   2.0000      -0.237663        -6.4671
 268   0.0000      -0.095552        -2.6001
 269   0.0000      -0.092801        -2.5252
 270   0.0000      -0.090707        -2.4683
 271   0.0000      -0.088690        -2.4134
 272   0.0000      -0.026282        -0.7152

MULLIKEN ATOMIC CHARGES
-----------------------
   0 C :   -0.031707
   1 C :    0.046300
   2 C :    0.048719
   3 C :   -0.031472
   4 C :    0.005422
   5 C :    0.014628
   6 C :    0.289847
   7 C :   -0.339189
   8 C :   -0.187978
   9 N :    0.158837
  10 C :   -0.182609
  11 N :    0.158751
  12 C :   -0.052320
  13 C :    0.214508
  14 C :   -0.328266
  15 C :   -0.182258
  16 N :    0.209907
  17 C :   -0.188182
  18 N :    0.165019
  19 C :    0.030046
  20 C :    0.029712
  21 C :   -0.074364
  22 C :    0.030545
  23 C :    0.129166
  24 C :   -0.061389
  25 C :    0.027270
  26 C :    0.095914
  27 C :    0.032614
  28 C :   -0.131124
  29 C :    0.074040
  30 C :    0.030076
  31 C :    0.046629
  32 C :    0.019301
  33 C :   -0.092909
  34 C :    0.060853
  35 C :   -0.048157
  36 C :   -0.043949
  37 C :    0.079001
  38 O :   -0.193625
  39 C :    0.157447
  40 C :   -0.098800
  41 C :    0.065520
  42 N :   -0.021316
  43 C :    0.161235
  44 C :   -0.107158
  45 C :    0.014009
  46 C :    0.102293
  47 C :   -0.054092
  48 C :   -0.058645
  49 C :    0.122643
  50 C :    0.025056
  51 C :   -0.131292
  52 C :    0.049306
  53 C :    0.021834
  54 C :    0.079716
  55 C :    0.030615
  56 C :   -0.069739
  57 C :    0.028411
  58 C :    0.024427
  59 C :   -0.054883
  60 C :    0.027030
  61 C :   -0.052020
  62 C :    0.291833
  63 C :   -0.341343
  64 C :   -0.181415
  65 N :    0.154262
  66 C :   -0.188429
  67 N :    0.159240
  68 C :    0.014874
  69 C :    0.008140
  70 C :   -0.036127
  71 C :    0.051105
  72 C :    0.048058
  73 C :   -0.036575
  74 C :    0.216078
  75 C :   -0.329713
  76 C :   -0.188628
  77 N :    0.165491
  78 C :   -0.184192
  79 N :    0.206516
  80 H :    0.006501
  81 H :    0.006344
  82 H :    0.006710
  83 H :    0.006281
  84 H :    0.024533
  85 H :   -0.017892
  86 H :   -0.029456
  87 H :   -0.011470
  88 H :    0.003294
  89 H :    0.001386
  90 H :    0.017289
  91 H :    0.014924
  92 H :    0.009992
  93 H :    0.008410
  94 H :   -0.001696
  95 H :    0.031054
  96 H :    0.005494
  97 H :    0.014570
  98 H :   -0.027409
  99 H :   -0.029432
 100 H :   -0.033975
 101 H :    0.012343
 102 H :   -0.011084
 103 H :    0.111471
 104 H :   -0.048215
 105 H :   -0.031403
 106 H :   -0.022751
 107 H :   -0.001653
 108 H :    0.000966
 109 H :    0.032205
 110 H :    0.004676
 111 H :    0.010835
 112 H :    0.000250
 113 H :    0.003638
 114 H :    0.004114
 115 H :    0.015246
 116 H :    0.015615
 117 H :   -0.022775
 118 H :   -0.011411
 119 H :   -0.032029
 120 H :    0.023380
 121 H :    0.005928
 122 H :    0.005142
 123 H :    0.004962
 124 H :    0.006724
Sum of atomic charges:   -0.0000000

LOEWDIN ATOMIC CHARGES
----------------------
   0 C :    0.006068
   1 C :    0.003121
   2 C :    0.005448
   3 C :    0.002085
   4 C :   -0.010741
   5 C :   -0.013069
   6 C :    0.080084
   7 C :   -0.131616
   8 C :   -0.019073
   9 N :   -0.044935
  10 C :   -0.021334
  11 N :   -0.043640
  12 C :   -0.058053
  13 C :    0.068472
  14 C :   -0.125494
  15 C :   -0.009087
  16 N :   -0.029256
  17 C :   -0.019922
  18 N :   -0.044154
  19 C :    0.078098
  20 C :   -0.050993
  21 C :    0.009744
  22 C :    0.009263
  23 C :    0.013285
  24 C :   -0.019097
  25 C :   -0.001807
  26 C :   -0.030018
  27 C :    0.018112
  28 C :   -0.034552
  29 C :   -0.009390
  30 C :   -0.058699
  31 C :   -0.014672
  32 C :   -0.061450
  33 C :   -0.016328
  34 C :   -0.020935
  35 C :   -0.040125
  36 C :   -0.008638
  37 C :   -0.019415
  38 O :    0.019130
  39 C :    0.047382
  40 C :   -0.097078
  41 C :   -0.005983
  42 N :    0.019973
  43 C :    0.044719
  44 C :   -0.058885
  45 C :    0.022189
  46 C :   -0.047684
  47 C :    0.000857
  48 C :   -0.061992
  49 C :    0.016165
  50 C :    0.007591
  51 C :   -0.033934
  52 C :   -0.015542
  53 C :   -0.061184
  54 C :   -0.008346
  55 C :   -0.059382
  56 C :    0.010820
  57 C :   -0.053461
  58 C :   -0.000880
  59 C :   -0.021616
  60 C :    0.079162
  61 C :   -0.062183
  62 C :    0.080101
  63 C :   -0.133788
  64 C :   -0.021076
  65 N :   -0.045817
  66 C :   -0.019052
  67 N :   -0.046968
  68 C :   -0.013051
  69 C :   -0.010606
  70 C :    0.001445
  71 C :    0.004862
  72 C :    0.002357
  73 C :    0.005413
  74 C :    0.068857
  75 C :   -0.127366
  76 C :   -0.019881
  77 N :   -0.046177
  78 C :   -0.008233
  79 N :   -0.030755
  80 H :    0.041851
  81 H :    0.038448
  82 H :    0.038501
  83 H :    0.041132
  84 H :    0.047568
  85 H :    0.032174
  86 H :    0.029743
  87 H :    0.028687
  88 H :    0.025347
  89 H :    0.021957
  90 H :    0.023081
  91 H :    0.028914
  92 H :    0.022461
  93 H :    0.020214
  94 H :    0.019758
  95 H :    0.024566
  96 H :    0.024053
  97 H :    0.022810
  98 H :    0.027701
  99 H :    0.020944
 100 H :    0.027877
 101 H :    0.024623
 102 H :    0.031142
 103 H :    0.078386
 104 H :    0.021365
 105 H :    0.028811
 106 H :    0.028844
 107 H :    0.020602
 108 H :    0.016913
 109 H :    0.024536
 110 H :    0.023536
 111 H :    0.022212
 112 H :    0.021642
 113 H :    0.026034
 114 H :    0.020014
 115 H :    0.028657
 116 H :    0.022267
 117 H :    0.031393
 118 H :    0.028635
 119 H :    0.029006
 120 H :    0.047408
 121 H :    0.041017
 122 H :    0.037941
 123 H :    0.038033
 124 H :    0.041806

  Mayer bond orders larger than 0.100000
B(  0-C ,  1-C ) :   1.3744 B(  0-C ,  5-C ) :   1.3794 B(  0-C , 80-H ) :   0.9837
B(  1-C ,  2-C ) :   1.3726 B(  1-C , 81-H ) :   0.9866 B(  2-C ,  3-C ) :   1.3694
B(  2-C , 82-H ) :   0.9861 B(  3-C ,  4-C ) :   1.3810 B(  3-C , 83-H ) :   0.9867
B(  4-C ,  5-C ) :   1.3092 B(  4-C , 13-C ) :   1.0134 B(  5-C ,  6-C ) :   1.0025
B(  6-C ,  7-C ) :   1.6526 B(  6-C , 12-C ) :   1.0349 B(  7-C ,  8-C ) :   1.1438
B(  7-C , 10-C ) :   1.1345 B(  8-C ,  9-N ) :   2.9792 B( 10-C , 11-N ) :   2.9807
B( 12-C , 13-C ) :   0.9990 B( 12-C , 19-C ) :   1.6566 B( 13-C , 14-C ) :   1.6749
B( 14-C , 15-C ) :   1.1384 B( 14-C , 17-C ) :   1.1444 B( 15-C , 16-N ) :   3.0042
B( 17-C , 18-N ) :   2.9943 B( 19-C , 20-C ) :   1.0634 B( 19-C , 84-H ) :   0.9366
B( 20-C , 21-C ) :   1.2767 B( 20-C , 25-C ) :   1.3365 B( 21-C , 22-C ) :   1.3973
B( 21-C , 85-H ) :   1.0056 B( 22-C , 23-C ) :   1.3701 B( 22-C , 28-C ) :   0.9155
B( 23-C , 24-C ) :   1.3222 B( 23-C , 26-C ) :   1.0064 B( 24-C , 25-C ) :   1.4001
B( 24-C , 86-H ) :   0.9937 B( 25-C , 87-H ) :   0.9831 B( 26-C , 27-C ) :   1.3657
B( 26-C , 36-C ) :   1.3414 B( 27-C , 28-C ) :   0.9223 B( 27-C , 33-C ) :   1.3777
B( 28-C , 29-C ) :   1.0133 B( 28-C , 31-C ) :   1.0339 B( 29-C , 30-C ) :   1.1139
B( 29-C , 88-H ) :   0.9387 B( 29-C , 89-H ) :   0.9376 B( 30-C , 90-H ) :   0.9607
B( 30-C , 91-H ) :   0.9596 B( 30-C , 92-H ) :   0.9637 B( 31-C , 32-C ) :   1.1028
B( 31-C , 93-H ) :   0.9379 B( 31-C , 94-H ) :   0.9386 B( 32-C , 95-H ) :   0.9549
B( 32-C , 96-H ) :   0.9596 B( 32-C , 97-H ) :   0.9581 B( 33-C , 34-C ) :   1.3053
B( 33-C , 98-H ) :   1.0108 B( 34-C , 35-C ) :   1.3582 B( 34-C , 37-C ) :   1.0178
B( 35-C , 36-C ) :   1.3981 B( 35-C , 99-H ) :   0.9706 B( 36-C ,100-H ) :   0.9884
B( 37-C , 38-O ) :   1.1295 B( 37-C , 41-C ) :   1.4715 B( 38-O , 39-C ) :   1.1634
B( 39-C , 40-C ) :   1.5150 B( 39-C ,101-H ) :   1.0051 B( 40-C , 41-C ) :   1.2099
B( 40-C ,102-H ) :   1.0126 B( 41-C , 42-N ) :   1.1425 B( 42-N , 43-C ) :   1.1143
B( 42-N ,103-H ) :   0.9043 B( 43-C , 44-C ) :   1.2719 B( 43-C , 48-C ) :   1.3499
B( 44-C , 45-C ) :   1.4353 B( 44-C ,104-H ) :   0.9888 B( 45-C , 46-C ) :   1.3617
B( 45-C , 51-C ) :   0.9216 B( 46-C , 47-C ) :   1.3283 B( 46-C , 49-C ) :   1.0147
B( 47-C , 48-C ) :   1.3830 B( 47-C ,105-H ) :   0.9905 B( 48-C ,106-H ) :   0.9872
B( 49-C , 50-C ) :   1.3569 B( 49-C , 59-C ) :   1.3212 B( 50-C , 51-C ) :   0.9232
B( 50-C , 56-C ) :   1.3979 B( 51-C , 52-C ) :   1.0334 B( 51-C , 54-C ) :   1.0124
B( 52-C , 53-C ) :   1.1028 B( 52-C ,107-H ) :   0.9386 B( 52-C ,108-H ) :   0.9367
B( 53-C ,109-H ) :   0.9528 B( 53-C ,110-H ) :   0.9592 B( 53-C ,111-H ) :   0.9600
B( 54-C , 55-C ) :   1.1164 B( 54-C ,112-H ) :   0.9371 B( 54-C ,113-H ) :   0.9385
B( 55-C ,114-H ) :   0.9628 B( 55-C ,115-H ) :   0.9596 B( 55-C ,116-H ) :   0.9604
B( 56-C , 57-C ) :   1.2704 B( 56-C ,117-H ) :   1.0105 B( 57-C , 58-C ) :   1.3283
B( 57-C , 60-C ) :   1.0782 B( 58-C , 59-C ) :   1.4087 B( 58-C ,118-H ) :   0.9821
B( 59-C ,119-H ) :   0.9926 B( 60-C , 61-C ) :   1.6357 B( 60-C ,120-H ) :   0.9364
B( 61-C , 62-C ) :   1.0406 B( 61-C , 74-C ) :   1.0056 B( 62-C , 63-C ) :   1.6473
B( 62-C , 68-C ) :   0.9997 B( 63-C , 64-C ) :   1.1357 B( 63-C , 66-C ) :   1.1439
B( 64-C , 65-N ) :   2.9770 B( 66-C , 67-N ) :   2.9792 B( 68-C , 69-C ) :   1.3125
B( 68-C , 73-C ) :   1.3779 B( 69-C , 70-C ) :   1.3770 B( 69-C , 74-C ) :   1.0128
B( 70-C , 71-C ) :   1.3684 B( 70-C ,121-H ) :   0.9882 B( 71-C , 72-C ) :   1.3743
B( 71-C ,122-H ) :   0.9860 B( 72-C , 73-C ) :   1.3718 B( 72-C ,123-H ) :   0.9865
B( 73-C ,124-H ) :   0.9852 B( 74-C , 75-C ) :   1.6685 B( 75-C , 76-C ) :   1.1451
B( 75-C , 78-C ) :   1.1397 B( 76-C , 77-N ) :   2.9939 B( 78-C , 79-N ) :   3.0038

-----------------------------------------------------------------------------
         ABSORPTION SPECTRUM VIA TRANSITION ELECTRIC DIPOLE MOMENTS
-----------------------------------------------------------------------------
State   Energy  Wavelength   fosc         T2         TX        TY        TZ
        (cm-1)    (nm)                  (au**2)     (au)      (au)      (au)
-----------------------------------------------------------------------------
   0   17895.8    558.8   1.104664642  20.32146  -3.00644   2.69838   2.00038
   1   18881.0    529.6   0.193315198   3.37068  -0.11452   1.79351  -0.37534
   2   20895.5    478.6   0.239704805   3.77659   1.84420  -0.09152  -0.60592
   3   21509.4    464.9   0.145983334   2.23435  -0.31069   1.12084   0.93891
   4   24746.0    404.1   0.053656637   0.71383  -0.33271   0.71928  -0.29285
   5   25532.8    391.7   0.027368771   0.35288   0.08139   0.01086   0.58834
   6   26918.1    371.5   0.136105589   1.66459   0.38807  -0.51477  -1.11759
   7   27547.3    363.0   0.142860205   1.70729  -1.18734  -0.54133  -0.06690
   8   28924.1    345.7   0.136554129   1.55425  -0.11533  -1.18121  -0.38170
   9   29084.9    343.8   0.148377537   1.67948   1.07752  -0.62583  -0.35606
  10   30895.4    323.7   0.984216000  10.48751   1.89508  -2.25869  -1.33959
  11   31065.6    321.9   0.008578530   0.09091  -0.09775   0.28406   0.02574
  12   31098.3    321.6   0.013409296   0.14195   0.30948   0.21408  -0.01853
  13   31474.3    317.7   0.219020461   2.29089  -0.09311   0.17420  -1.50062
  14   31682.9    315.6   0.296775047   3.08374   1.36581   0.99024   0.48759
  15   32273.5    309.9   0.117271335   1.19625   0.71094  -0.63899  -0.53152
  16   33320.7    300.1   0.019790261   0.19553   0.26144  -0.00846  -0.35652
  17   33972.7    294.4   0.041295743   0.40018   0.27151   0.40615   0.40187
  18   34227.0    292.2   0.204842536   1.97027   1.34503   0.13859  -0.37678
  19   34480.9    290.0   0.061593469   0.58807   0.74391  -0.18322  -0.03326
  20   34585.5    289.1   0.231304789   2.20174  -0.32407   0.67343   1.28188
  21   34669.3    288.4   0.021535892   0.20450  -0.37912   0.17963   0.16882
  22   34717.6    288.0   0.192378680   1.82424  -1.15047  -0.57380  -0.41403
  23   34969.4    286.0   0.136711613   1.28704   0.05892  -0.18696  -1.11742
  24   35140.3    284.6   0.154763547   1.44990  -1.13328   0.36253  -0.18480
  25   35355.4    282.8   0.019453471   0.18114  -0.36841   0.08753  -0.19430
  26   35576.9    281.1   0.694869365   6.43000  -0.66693  -2.43776   0.20621
  27   35879.7    278.7   0.236368209   2.16878  -0.95175   0.89007   0.68609
  28   36872.0    271.2   0.023417815   0.20909  -0.12526   0.40912   0.16130
  29   37728.2    265.1   0.052894384   0.46155   0.65710   0.11303   0.13037
  30   37950.5    263.5   0.037492024   0.32523   0.35644  -0.14233  -0.42182
  31   38074.6    262.6   0.054057503   0.46741   0.26052  -0.62843  -0.06787
  32   38619.8    258.9   0.008152166   0.06949  -0.10919  -0.23780   0.03193
  33   38940.1    256.8   0.002555678   0.02161  -0.09461  -0.10513   0.04003
  34   39488.1    253.2   0.187178037   1.56050  -0.24863  -1.22310   0.05208
  35   39750.2    251.6   0.128698137   1.06588  -0.35052  -0.97050   0.03381
  36   39958.8    250.3   0.008496509   0.07000  -0.00215  -0.25990  -0.04950

FINAL SINGLE POINT ENERGY     -3258.185007759805

DIPOLE MOMENT
-------------
                                X             Y             Z
Electronic contribution:     18.46948       9.96249     -16.46433
Nuclear contribution   :    -17.78992     -10.99924      17.30865
                        -----------------------------------------
Total Dipole Moment    :      0.67956      -1.03675       0.84432
                        -----------------------------------------
Magnitude (a.u.)       :      1.49984
Magnitude (Debye)      :      3.81230

Rotational constants in cm-1:     0.001935     0.000193     0.000183
Rotational constants in MHz :    58.018780     5.781103     5.477964

                             ****ORCA TERMINATED NORMALLY****
TOTAL RUN TIME: 0 days 0 hours 14 minutes 36 seconds 248 msec
