                         Program Version 4.2.0 -  RELEASE  -
|  1> # ORCA input file
|  2> # SCF done       -198.089327683849          0.000724835505
|  3> ! CAM-B3LYP def2-SVP def2/J RIJCOSX Grid4 TightSCF
|  4> %maxcore 5000
|  5> %tddft
|  6>     Mode sTDDFT
|  7>     Ethresh 5.0
|  8>     maxcore 5000
|  9> end
| 10>
| 11> %pal
| 12>   nprocs 6
| 13>   end
| 14> * xyz 0 1
| 15>    C       -7.51781        -3.58912         6.48684
| 16>    C       -6.69906        -2.80026         7.28249
| 17>    C       -5.39271        -2.52123         6.91014
| 18>    C       -4.86773        -3.01800         5.72637
| 19>    C       -5.67321        -3.81302         4.92910
| 20>    C       -7.00274        -4.10324         5.30802
| 21>    C       -7.59957        -4.97268         4.30040
| 22>    C       -8.91063        -5.37266         4.26984
| 23>    C       -9.88183        -4.96612         5.20932
| 24>    N      -10.72551        -4.67354         5.93073
| 25>    C       -9.50041        -6.20440         3.29572
| 26>    N      -10.05498        -6.87391         2.54488
| 27>    C       -6.53950        -5.32994         3.36836
| 28>    C       -5.41066        -4.45818         3.65082
| 29>    C       -4.42279        -4.08524         2.77176
| 30>    C       -4.33465        -4.53040         1.43806
| 31>    N       -4.23560        -4.82614         0.33280
| 32>    C       -3.41528        -3.14603         3.06760
| 33>    N       -2.55096        -2.41266         3.25225
| 34>    C       -6.63437        -6.34866         2.44784
| 35>    C       -5.58367        -7.06682         1.83589
| 36>    C       -4.31573        -7.19775         2.38146
| 37>    C       -3.27441        -7.91043         1.81707
| 38>    C       -3.48372        -8.70307         0.59856
| 39>    C       -4.64959        -8.75431        -0.08680
| 40>    S       -6.05441        -7.88899         0.35486
| 41>    C       -2.26004        -9.38532         0.37056
| 42>    C       -1.33786        -9.04513         1.36527
| 43>    C       -0.09681        -9.69648         1.18351
| 44>    C       -0.11150       -10.49727         0.08709
| 45>    S       -1.61737       -10.49258        -0.77106
| 46>    C       -1.93689        -8.10154         2.26542
| 47>    C       -1.22465        -7.50174         3.32183
| 48>    C       -1.58705        -6.38575         4.02158
| 49>    C       -0.87860        -5.80422         5.08464
| 50>    S       -1.51091        -4.34733         5.81918
| 51>    C       -0.22140        -4.19442         6.97750
| 52>    C        0.69722        -5.24557         6.78531
| 53>    C        0.30292        -6.14217         5.74186
| 54>    N        1.23469        -7.12275         5.64416
| 55>    C        2.19118        -6.88926         6.59608
| 56>    N        3.24926        -7.78787         6.77528
| 57>    O        3.30358        -8.73913         6.01123
| 58>    O        4.03072        -7.57158         7.68611
| 59>    C        1.91116        -5.73726         7.30533
| 60>    C       -0.25928        -3.18848         7.96201
| 61>    C        0.66819        -3.13834         8.99050
| 62>    C        0.61282        -2.28168        10.07220
| 63>    C       -0.32636        -1.15897        10.09517
| 64>    C       -1.30176        -0.97979         9.17511
| 65>    S       -1.59042        -2.05211         7.86678
| 66>    C        0.01303        -0.40335        11.25286
| 67>    C        1.04611        -1.03768        11.94578
| 68>    C        1.39692        -0.34911        13.12657
| 69>    C        0.64222         0.76900        13.29271
| 70>    S       -0.52393         1.02500        12.03912
| 71>    C        1.40935        -2.24804        11.25296
| 72>    C        2.23863        -3.23900        11.79314
| 73>    C        2.32654        -4.53750        11.34672
| 74>    C        3.07313        -5.52497        11.98388
| 75>    C        3.14153        -6.86327        11.64286
| 76>    C        4.17068        -7.74645        12.17148
| 77>    C        4.92826        -7.55880        13.29911
| 78>    C        4.82145        -6.47796        14.19889
| 79>    N        4.79013        -5.64334        14.98816
| 80>    C        5.90236        -8.46966        13.75962
| 81>    N        6.70667        -9.15998        14.20092
| 82>    C        4.22832        -8.90775        11.29703
| 83>    C        3.17182        -8.81952        10.36471
| 84>    C        2.99206        -9.82008         9.42386
| 85>    C        3.88476       -10.88067         9.39502
| 86>    C        4.93164       -10.95572        10.30028
| 87>    C        5.10853        -9.97615        11.26619
| 88>    C        2.41472        -7.59953        10.62659
| 89>    C        1.18393        -7.33541        10.06506
| 90>    C        0.61794        -8.07728         9.00981
| 91>    N        0.10352        -8.55630         8.09880
| 92>    C        0.24227        -6.35003        10.42248
| 93>    N       -0.62423        -5.62037        10.62320
| 94>    H       -8.52947        -3.79558         6.79423
| 95>    H       -7.08896        -2.40185         8.20661
| 96>    H       -4.77029        -1.91172         7.54712
| 97>    H       -3.85030        -2.79483         5.45123
| 98>    H       -7.62827        -6.68595         2.18574
| 99>    H       -4.17552        -6.75026         3.35461
|100>    H       -4.76531        -9.35066        -0.97826
|101>    H        0.76059        -9.58841         1.82248
|102>    H        0.68543       -11.10887        -0.28836
|103>    H       -0.27232        -7.96199         3.54635
|104>    H       -2.47605        -5.84670         3.73388
|105>    H        1.21112        -7.96655         5.09374
|106>    H        2.54868        -5.34298         8.07034
|107>    H        1.48387        -3.83264         8.91570
|108>    H       -1.99755        -0.15699         9.22121
|109>    H        2.16397        -0.65399        13.81461
|110>    H        0.69276         1.48151        14.09261
|111>    H        2.76909        -2.98024        12.70159
|112>    H        1.75247        -4.82441        10.48741
|113>    H        3.71425        -5.19319        12.78886
|114>    H        2.18405        -9.78937         8.71188
|115>    H        3.76226       -11.65169         8.64993
|116>    H        5.61939       -11.78634        10.25640
|117>    H        5.92426       -10.05037        11.96624
|118> *
|119>
|120>                          ****END OF INPUT****

CARTESIAN COORDINATES (ANGSTROEM)
---------------------------------
  C     -7.517810   -3.589120    6.486840
  C     -6.699060   -2.800260    7.282490
  C     -5.392710   -2.521230    6.910140
  C     -4.867730   -3.018000    5.726370
  C     -5.673210   -3.813020    4.929100
  C     -7.002740   -4.103240    5.308020
  C     -7.599570   -4.972680    4.300400
  C     -8.910630   -5.372660    4.269840
  C     -9.881830   -4.966120    5.209320
  N    -10.725510   -4.673540    5.930730
  C     -9.500410   -6.204400    3.295720
  N    -10.054980   -6.873910    2.544880
  C     -6.539500   -5.329940    3.368360
  C     -5.410660   -4.458180    3.650820
  C     -4.422790   -4.085240    2.771760
  C     -4.334650   -4.530400    1.438060
  N     -4.235600   -4.826140    0.332800
  C     -3.415280   -3.146030    3.067600
  N     -2.550960   -2.412660    3.252250
  C     -6.634370   -6.348660    2.447840
  C     -5.583670   -7.066820    1.835890
  C     -4.315730   -7.197750    2.381460
  C     -3.274410   -7.910430    1.817070
  C     -3.483720   -8.703070    0.598560
  C     -4.649590   -8.754310   -0.086800
  S     -6.054410   -7.888990    0.354860
  C     -2.260040   -9.385320    0.370560
  C     -1.337860   -9.045130    1.365270
  C     -0.096810   -9.696480    1.183510
  C     -0.111500  -10.497270    0.087090
  S     -1.617370  -10.492580   -0.771060
  C     -1.936890   -8.101540    2.265420
  C     -1.224650   -7.501740    3.321830
  C     -1.587050   -6.385750    4.021580
  C     -0.878600   -5.804220    5.084640
  S     -1.510910   -4.347330    5.819180
  C     -0.221400   -4.194420    6.977500
  C      0.697220   -5.245570    6.785310
  C      0.302920   -6.142170    5.741860
  N      1.234690   -7.122750    5.644160
  C      2.191180   -6.889260    6.596080
  N      3.249260   -7.787870    6.775280
  O      3.303580   -8.739130    6.011230
  O      4.030720   -7.571580    7.686110
  C      1.911160   -5.737260    7.305330
  C     -0.259280   -3.188480    7.962010
  C      0.668190   -3.138340    8.990500
  C      0.612820   -2.281680   10.072200
  C     -0.326360   -1.158970   10.095170
  C     -1.301760   -0.979790    9.175110
  S     -1.590420   -2.052110    7.866780
  C      0.013030   -0.403350   11.252860
  C      1.046110   -1.037680   11.945780
  C      1.396920   -0.349110   13.126570
  C      0.642220    0.769000   13.292710
  S     -0.523930    1.025000   12.039120
  C      1.409350   -2.248040   11.252960
  C      2.238630   -3.239000   11.793140
  C      2.326540   -4.537500   11.346720
  C      3.073130   -5.524970   11.983880
  C      3.141530   -6.863270   11.642860
  C      4.170680   -7.746450   12.171480
  C      4.928260   -7.558800   13.299110
  C      4.821450   -6.477960   14.198890
  N      4.790130   -5.643340   14.988160
  C      5.902360   -8.469660   13.759620
  N      6.706670   -9.159980   14.200920
  C      4.228320   -8.907750   11.297030
  C      3.171820   -8.819520   10.364710
  C      2.992060   -9.820080    9.423860
  C      3.884760  -10.880670    9.395020
  C      4.931640  -10.955720   10.300280
  C      5.108530   -9.976150   11.266190
  C      2.414720   -7.599530   10.626590
  C      1.183930   -7.335410   10.065060
  C      0.617940   -8.077280    9.009810
  N      0.103520   -8.556300    8.098800
  C      0.242270   -6.350030   10.422480
  N     -0.624230   -5.620370   10.623200
  H     -8.529470   -3.795580    6.794230
  H     -7.088960   -2.401850    8.206610
  H     -4.770290   -1.911720    7.547120
  H     -3.850300   -2.794830    5.451230
  H     -7.628270   -6.685950    2.185740
  H     -4.175520   -6.750260    3.354610
  H     -4.765310   -9.350660   -0.978260
  H      0.760590   -9.588410    1.822480
  H      0.685430  -11.108870   -0.288360
  H     -0.272320   -7.961990    3.546350
  H     -2.476050   -5.846700    3.733880
  H      1.211120   -7.966550    5.093740
  H      2.548680   -5.342980    8.070340
  H      1.483870   -3.832640    8.915700
  H     -1.997550   -0.156990    9.221210
  H      2.163970   -0.653990   13.814610
  H      0.692760    1.481510   14.092610
  H      2.769090   -2.980240   12.701590
  H      1.752470   -4.824410   10.487410
  H      3.714250   -5.193190   12.788860
  H      2.184050   -9.789370    8.711880
  H      3.762260  -11.651690    8.649930
  H      5.619390  -11.786340   10.256400
  H      5.924260  -10.050370   11.966240

 Total Charge           Charge          ....    0
 Multiplicity           Mult            ....    1
 Number of Electrons    NEL             ....  562
 Basis Dimension        Dim             .... 1246

ORBITAL ENERGIES
----------------

  NO   OCC          E(Eh)            E(eV)
   0   2.0000     -89.003439     -2421.9067
   1   2.0000     -88.990617     -2421.5578
   2   2.0000     -88.988698     -2421.5056
   3   2.0000     -88.974081     -2421.1078
   4   2.0000     -88.970107     -2420.9997
   5   2.0000     -19.263071      -524.1748
   6   2.0000     -19.262396      -524.1564
   7   2.0000     -14.670877      -399.2148
   8   2.0000     -14.496782      -394.4775
   9   2.0000     -14.428024      -392.6065
  10   2.0000     -14.426037      -392.5524
  11   2.0000     -14.425839      -392.5470
  12   2.0000     -14.421863      -392.4388
  13   2.0000     -14.420025      -392.3888
  14   2.0000     -14.415714      -392.2715
  15   2.0000     -14.412255      -392.1774
  16   2.0000     -14.408307      -392.0700
  17   2.0000     -10.377207      -282.3782
  18   2.0000     -10.355948      -281.7997
  19   2.0000     -10.355599      -281.7902
  20   2.0000     -10.354286      -281.7545
  21   2.0000     -10.353012      -281.7198
  22   2.0000     -10.351664      -281.6831
  23   2.0000     -10.347739      -281.5763
  24   2.0000     -10.346878      -281.5529
  25   2.0000     -10.343990      -281.4743
  26   2.0000     -10.342669      -281.4383
  27   2.0000     -10.340836      -281.3885
  28   2.0000     -10.340282      -281.3734
  29   2.0000     -10.337906      -281.3087
  30   2.0000     -10.336751      -281.2773
  31   2.0000     -10.335452      -281.2419
  32   2.0000     -10.334786      -281.2238
  33   2.0000     -10.334162      -281.2068
  34   2.0000     -10.330811      -281.1157
  35   2.0000     -10.327978      -281.0386
  36   2.0000     -10.327634      -281.0292
  37   2.0000     -10.325620      -280.9744
  38   2.0000     -10.325024      -280.9582
  39   2.0000     -10.324657      -280.9482
  40   2.0000     -10.323536      -280.9177
  41   2.0000     -10.320425      -280.8330
  42   2.0000     -10.320198      -280.8269
  43   2.0000     -10.317542      -280.7546
  44   2.0000     -10.317224      -280.7459
  45   2.0000     -10.316553      -280.7277
  46   2.0000     -10.315826      -280.7079
  47   2.0000     -10.315554      -280.7005
  48   2.0000     -10.315043      -280.6866
  49   2.0000     -10.314866      -280.6818
  50   2.0000     -10.314212      -280.6640
  51   2.0000     -10.314154      -280.6624
  52   2.0000     -10.311818      -280.5988
  53   2.0000     -10.311504      -280.5903
  54   2.0000     -10.311282      -280.5842
  55   2.0000     -10.310912      -280.5742
  56   2.0000     -10.310197      -280.5547
  57   2.0000     -10.309656      -280.5400
  58   2.0000     -10.306882      -280.4645
  59   2.0000     -10.306648      -280.4582
  60   2.0000     -10.306265      -280.4477
  61   2.0000     -10.305713      -280.4327
  62   2.0000     -10.305270      -280.4206
  63   2.0000     -10.304830      -280.4087
  64   2.0000     -10.303948      -280.3847
  65   2.0000     -10.302308      -280.3401
  66   2.0000     -10.301760      -280.3252
  67   2.0000     -10.300366      -280.2872
  68   2.0000     -10.299106      -280.2529
  69   2.0000     -10.293845      -280.1098
  70   2.0000     -10.293593      -280.1029
  71   2.0000     -10.293199      -280.0922
  72   2.0000     -10.290025      -280.0058
  73   2.0000     -10.289586      -279.9939
  74   2.0000     -10.288703      -279.9698
  75   2.0000     -10.287751      -279.9439
  76   2.0000     -10.287340      -279.9328
  77   2.0000     -10.286878      -279.9202
  78   2.0000     -10.284143      -279.8458
  79   2.0000      -8.098197      -220.3631
  80   2.0000      -8.085147      -220.0080
  81   2.0000      -8.084138      -219.9806
  82   2.0000      -8.069665      -219.5867
  83   2.0000      -8.065476      -219.4728
  84   2.0000      -6.067740      -165.1116
  85   2.0000      -6.063147      -164.9866
  86   2.0000      -6.060316      -164.9096
  87   2.0000      -6.054555      -164.7528
  88   2.0000      -6.053647      -164.7281
  89   2.0000      -6.050239      -164.6354
  90   2.0000      -6.049119      -164.6049
  91   2.0000      -6.047309      -164.5556
  92   2.0000      -6.046029      -164.5208
  93   2.0000      -6.039135      -164.3332
  94   2.0000      -6.034938      -164.2190
  95   2.0000      -6.034806      -164.2154
  96   2.0000      -6.031628      -164.1289
  97   2.0000      -6.030641      -164.1021
  98   2.0000      -6.027513      -164.0170
  99   2.0000      -1.340457       -36.4757
 100   2.0000      -1.160148       -31.5692
 101   2.0000      -1.121891       -30.5282
 102   2.0000      -1.041868       -28.3507
 103   2.0000      -1.028391       -27.9840
 104   2.0000      -1.025937       -27.9172
 105   2.0000      -1.025781       -27.9129
 106   2.0000      -1.022858       -27.8334
 107   2.0000      -1.013288       -27.5730
 108   2.0000      -1.012761       -27.5586
 109   2.0000      -1.012313       -27.5464
 110   2.0000      -1.005974       -27.3739
 111   2.0000      -1.001937       -27.2641
 112   2.0000      -0.999498       -27.1977
 113   2.0000      -0.996368       -27.1126
 114   2.0000      -0.991001       -26.9665
 115   2.0000      -0.988688       -26.9036
 116   2.0000      -0.986345       -26.8398
 117   2.0000      -0.964080       -26.2340
 118   2.0000      -0.952460       -25.9177
 119   2.0000      -0.950118       -25.8540
 120   2.0000      -0.945434       -25.7266
 121   2.0000      -0.944834       -25.7102
 122   2.0000      -0.937221       -25.5031
 123   2.0000      -0.930301       -25.3148
 124   2.0000      -0.923716       -25.1356
 125   2.0000      -0.918986       -25.0069
 126   2.0000      -0.913291       -24.8519
 127   2.0000      -0.904154       -24.6033
 128   2.0000      -0.899439       -24.4750
 129   2.0000      -0.893452       -24.3121
 130   2.0000      -0.885814       -24.1042
 131   2.0000      -0.874118       -23.7860
 132   2.0000      -0.871657       -23.7190
 133   2.0000      -0.870911       -23.6987
 134   2.0000      -0.866853       -23.5883
 135   2.0000      -0.855292       -23.2737
 136   2.0000      -0.848774       -23.0963
 137   2.0000      -0.841298       -22.8929
 138   2.0000      -0.831129       -22.6162
 139   2.0000      -0.818034       -22.2598
 140   2.0000      -0.807956       -21.9856
 141   2.0000      -0.805360       -21.9150
 142   2.0000      -0.797289       -21.6953
 143   2.0000      -0.796857       -21.6836
 144   2.0000      -0.785090       -21.3634
 145   2.0000      -0.783757       -21.3271
 146   2.0000      -0.768245       -20.9050
 147   2.0000      -0.752544       -20.4778
 148   2.0000      -0.743676       -20.2364
 149   2.0000      -0.738763       -20.1028
 150   2.0000      -0.729985       -19.8639
 151   2.0000      -0.721117       -19.6226
 152   2.0000      -0.720356       -19.6019
 153   2.0000      -0.717680       -19.5291
 154   2.0000      -0.708606       -19.2822
 155   2.0000      -0.704732       -19.1767
 156   2.0000      -0.701703       -19.0943
 157   2.0000      -0.690079       -18.7780
 158   2.0000      -0.687142       -18.6981
 159   2.0000      -0.681420       -18.5424
 160   2.0000      -0.677261       -18.4292
 161   2.0000      -0.671279       -18.2664
 162   2.0000      -0.670389       -18.2422
 163   2.0000      -0.669061       -18.2061
 164   2.0000      -0.663586       -18.0571
 165   2.0000      -0.658063       -17.9068
 166   2.0000      -0.656741       -17.8708
 167   2.0000      -0.653496       -17.7825
 168   2.0000      -0.651224       -17.7207
 169   2.0000      -0.644980       -17.5508
 170   2.0000      -0.642200       -17.4751
 171   2.0000      -0.634757       -17.2726
 172   2.0000      -0.632122       -17.2009
 173   2.0000      -0.622002       -16.9255
 174   2.0000      -0.615095       -16.7376
 175   2.0000      -0.609040       -16.5728
 176   2.0000      -0.607227       -16.5235
 177   2.0000      -0.603895       -16.4328
 178   2.0000      -0.598607       -16.2889
 179   2.0000      -0.596712       -16.2373
 180   2.0000      -0.590981       -16.0814
 181   2.0000      -0.590498       -16.0683
 182   2.0000      -0.583544       -15.8790
 183   2.0000      -0.577761       -15.7217
 184   2.0000      -0.575708       -15.6658
 185   2.0000      -0.571931       -15.5630
 186   2.0000      -0.564739       -15.3673
 187   2.0000      -0.561934       -15.2910
 188   2.0000      -0.560466       -15.2511
 189   2.0000      -0.557373       -15.1669
 190   2.0000      -0.553760       -15.0686
 191   2.0000      -0.549061       -14.9407
 192   2.0000      -0.548586       -14.9278
 193   2.0000      -0.545019       -14.8307
 194   2.0000      -0.541113       -14.7244
 195   2.0000      -0.538357       -14.6494
 196   2.0000      -0.536210       -14.5910
 197   2.0000      -0.533425       -14.5152
 198   2.0000      -0.532191       -14.4817
 199   2.0000      -0.530045       -14.4232
 200   2.0000      -0.529730       -14.4147
 201   2.0000      -0.527694       -14.3593
 202   2.0000      -0.521823       -14.1995
 203   2.0000      -0.519187       -14.1278
 204   2.0000      -0.516403       -14.0520
 205   2.0000      -0.515685       -14.0325
 206   2.0000      -0.511234       -13.9114
 207   2.0000      -0.508225       -13.8295
 208   2.0000      -0.502526       -13.6744
 209   2.0000      -0.502092       -13.6626
 210   2.0000      -0.496473       -13.5097
 211   2.0000      -0.493278       -13.4228
 212   2.0000      -0.490040       -13.3347
 213   2.0000      -0.487353       -13.2615
 214   2.0000      -0.484901       -13.1948
 215   2.0000      -0.483929       -13.1684
 216   2.0000      -0.477487       -12.9931
 217   2.0000      -0.476015       -12.9530
 218   2.0000      -0.472452       -12.8561
 219   2.0000      -0.469479       -12.7752
 220   2.0000      -0.467522       -12.7219
 221   2.0000      -0.466279       -12.6881
 222   2.0000      -0.465354       -12.6629
 223   2.0000      -0.463070       -12.6008
 224   2.0000      -0.461800       -12.5662
 225   2.0000      -0.459091       -12.4925
 226   2.0000      -0.458391       -12.4735
 227   2.0000      -0.456371       -12.4185
 228   2.0000      -0.454901       -12.3785
 229   2.0000      -0.453967       -12.3531
 230   2.0000      -0.452224       -12.3056
 231   2.0000      -0.452135       -12.3032
 232   2.0000      -0.450547       -12.2600
 233   2.0000      -0.449008       -12.2181
 234   2.0000      -0.447643       -12.1810
 235   2.0000      -0.446489       -12.1496
 236   2.0000      -0.444845       -12.1049
 237   2.0000      -0.444093       -12.0844
 238   2.0000      -0.442014       -12.0278
 239   2.0000      -0.439952       -11.9717
 240   2.0000      -0.439471       -11.9586
 241   2.0000      -0.437744       -11.9116
 242   2.0000      -0.437240       -11.8979
 243   2.0000      -0.434644       -11.8273
 244   2.0000      -0.434165       -11.8142
 245   2.0000      -0.430734       -11.7209
 246   2.0000      -0.430492       -11.7143
 247   2.0000      -0.428318       -11.6551
 248   2.0000      -0.427878       -11.6431
 249   2.0000      -0.424960       -11.5638
 250   2.0000      -0.423278       -11.5180
 251   2.0000      -0.421416       -11.4673
 252   2.0000      -0.420430       -11.4405
 253   2.0000      -0.418387       -11.3849
 254   2.0000      -0.414833       -11.2882
 255   2.0000      -0.409836       -11.1522
 256   2.0000      -0.408676       -11.1206
 257   2.0000      -0.408186       -11.1073
 258   2.0000      -0.402115       -10.9421
 259   2.0000      -0.400750       -10.9050
 260   2.0000      -0.399847       -10.8804
 261   2.0000      -0.392604       -10.6833
 262   2.0000      -0.390829       -10.6350
 263   2.0000      -0.390229       -10.6187
 264   2.0000      -0.385247       -10.4831
 265   2.0000      -0.374397       -10.1878
 266   2.0000      -0.371919       -10.1204
 267   2.0000      -0.354356        -9.6425
 268   2.0000      -0.352185        -9.5835
 269   2.0000      -0.346649        -9.4328
 270   2.0000      -0.338898        -9.2219
 271   2.0000      -0.331053        -9.0084
 272   2.0000      -0.324762        -8.8372
 273   2.0000      -0.322313        -8.7706
 274   2.0000      -0.314789        -8.5658
 275   2.0000      -0.311876        -8.4866
 276   2.0000      -0.299221        -8.1422
 277   2.0000      -0.294435        -8.0120
 278   2.0000      -0.281913        -7.6712
 279   2.0000      -0.255540        -6.9536
 280   2.0000      -0.228501        -6.2178
 281   0.0000      -0.126971        -3.4551
 282   0.0000      -0.103340        -2.8120
 283   0.0000      -0.093913        -2.5555
 284   0.0000      -0.083584        -2.2744
 285   0.0000      -0.078510        -2.1364

MULLIKEN ATOMIC CHARGES
-----------------------
   0 C :   -0.032924
   1 C :    0.049799
   2 C :    0.053163
   3 C :   -0.035638
   4 C :    0.010158
   5 C :    0.016579
   6 C :    0.299733
   7 C :   -0.343021
   8 C :   -0.189565
   9 N :    0.156848
  10 C :   -0.179460
  11 N :    0.152003
  12 C :   -0.074624
  13 C :    0.224650
  14 C :   -0.354954
  15 C :   -0.196566
  16 N :    0.187034
  17 C :   -0.206119
  18 N :    0.171049
  19 C :    0.077775
  20 C :   -0.155731
  21 C :   -0.006895
  22 C :    0.041291
  23 C :    0.065733
  24 C :   -0.112939
  25 S :    0.184121
  26 C :   -0.095291
  27 C :    0.041439
  28 C :    0.014351
  29 C :   -0.063423
  30 S :    0.147023
  31 C :    0.101381
  32 C :   -0.005270
  33 C :    0.073807
  34 C :   -0.143489
  35 S :    0.148396
  36 C :   -0.087956
  37 C :    0.099285
  38 C :    0.116092
  39 N :   -0.002500
  40 C :    0.106641
  41 N :    0.291967
  42 O :   -0.258012
  43 O :   -0.233276
  44 C :   -0.085987
  45 C :   -0.004103
  46 C :   -0.047854
  47 C :    0.080983
  48 C :    0.074599
  49 C :   -0.121299
  50 S :    0.149509
  51 C :   -0.115457
  52 C :    0.059158
  53 C :    0.010632
  54 C :   -0.064177
  55 S :    0.139164
  56 C :    0.079393
  57 C :    0.009750
  58 C :   -0.013400
  59 C :    0.042574
  60 C :   -0.069183
  61 C :    0.295634
  62 C :   -0.352117
  63 C :   -0.191042
  64 N :    0.150365
  65 C :   -0.193040
  66 N :    0.149051
  67 C :    0.005370
  68 C :    0.039451
  69 C :   -0.051382
  70 C :    0.054352
  71 C :    0.046367
  72 C :   -0.034985
  73 C :    0.298999
  74 C :   -0.381839
  75 C :   -0.175715
  76 N :    0.109605
  77 C :   -0.217832
  78 N :    0.173508
  79 H :    0.007147
  80 H :    0.003855
  81 H :   -0.014542
  82 H :   -0.003571
  83 H :    0.023083
  84 H :    0.002629
  85 H :    0.044106
  86 H :   -0.012638
  87 H :    0.035599
  88 H :   -0.068656
  89 H :   -0.044469
  90 H :    0.149044
  91 H :    0.011252
  92 H :   -0.042995
  93 H :    0.042581
  94 H :   -0.006326
  95 H :    0.034894
  96 H :   -0.002045
  97 H :   -0.054044
  98 H :    0.001423
  99 H :   -0.009113
 100 H :   -0.001493
 101 H :   -0.000577
 102 H :    0.003134
Sum of atomic charges:   -0.0000000

LOEWDIN ATOMIC CHARGES
----------------------
   0 C :    0.005817
   1 C :    0.003910
   2 C :    0.000881
   3 C :   -0.003613
   4 C :   -0.013270
   5 C :   -0.010764
   6 C :    0.075985
   7 C :   -0.134227
   8 C :   -0.019207
   9 N :   -0.046884
  10 C :   -0.022172
  11 N :   -0.044592
  12 C :   -0.065953
  13 C :    0.062278
  14 C :   -0.148072
  15 C :   -0.021321
  16 N :   -0.041234
  17 C :   -0.028617
  18 N :   -0.052612
  19 C :    0.034102
  20 C :   -0.188289
  21 C :    0.024348
  22 C :   -0.022480
  23 C :   -0.051094
  24 C :   -0.125537
  25 S :    0.488497
  26 C :   -0.181902
  27 C :   -0.042592
  28 C :   -0.060956
  29 C :   -0.154534
  30 S :    0.436393
  31 C :   -0.017430
  32 C :   -0.022702
  33 C :   -0.035725
  34 C :   -0.180596
  35 S :    0.490331
  36 C :   -0.190933
  37 C :   -0.053078
  38 C :    0.008134
  39 N :    0.091799
  40 C :    0.000459
  41 N :    0.283249
  42 O :   -0.219210
  43 O :   -0.194685
  44 C :   -0.034756
  45 C :   -0.153252
  46 C :   -0.013562
  47 C :    0.023706
  48 C :   -0.038438
  49 C :   -0.140584
  50 S :    0.477309
  51 C :   -0.206831
  52 C :   -0.030953
  53 C :   -0.060374
  54 C :   -0.155837
  55 S :    0.431042
  56 C :   -0.060939
  57 C :    0.052891
  58 C :   -0.059047
  59 C :    0.057135
  60 C :   -0.079209
  61 C :    0.080496
  62 C :   -0.143575
  63 C :   -0.022431
  64 N :   -0.058013
  65 C :   -0.019042
  66 N :   -0.056001
  67 C :   -0.011824
  68 C :   -0.007880
  69 C :   -0.004718
  70 C :    0.003461
  71 C :    0.000315
  72 C :    0.002979
  73 C :    0.078891
  74 C :   -0.160301
  75 C :   -0.010734
  76 N :   -0.084298
  77 C :   -0.027339
  78 N :   -0.062776
  79 H :    0.042186
  80 H :    0.038032
  81 H :    0.027186
  82 H :    0.025655
  83 H :    0.042786
  84 H :    0.040056
  85 H :    0.040824
  86 H :    0.031392
  87 H :    0.027579
  88 H :    0.022936
  89 H :    0.026317
  90 H :    0.092781
  91 H :    0.037110
  92 H :    0.037350
  93 H :    0.039419
  94 H :    0.034672
  95 H :    0.026952
  96 H :    0.040203
  97 H :    0.020669
  98 H :    0.043945
  99 H :    0.032535
 100 H :    0.035903
 101 H :    0.035681
 102 H :    0.040417

  Mayer bond orders larger than 0.100000
B(  0-C ,  1-C ) :   1.3654 B(  0-C ,  5-C ) :   1.3841 B(  0-C , 79-H ) :   0.9836
B(  1-C ,  2-C ) :   1.3809 B(  1-C , 80-H ) :   0.9863 B(  2-C ,  3-C ) :   1.3638
B(  2-C , 81-H ) :   0.9836 B(  3-C ,  4-C ) :   1.3821 B(  3-C , 82-H ) :   0.9839
B(  4-C ,  5-C ) :   1.3146 B(  4-C , 13-C ) :   1.0069 B(  5-C ,  6-C ) :   0.9880
B(  6-C ,  7-C ) :   1.6229 B(  6-C , 12-C ) :   1.0817 B(  7-C ,  8-C ) :   1.1512
B(  7-C , 10-C ) :   1.1366 B(  8-C ,  9-N ) :   2.9723 B( 10-C , 11-N ) :   2.9572
B( 12-C , 13-C ) :   1.0441 B( 12-C , 19-C ) :   1.5607 B( 13-C , 14-C ) :   1.6169
B( 14-C , 15-C ) :   1.1618 B( 14-C , 17-C ) :   1.1488 B( 15-C , 16-N ) :   3.0057
B( 17-C , 18-N ) :   2.9760 B( 19-C , 20-C ) :   1.2038 B( 19-C , 83-H ) :   0.9087
B( 20-C , 21-C ) :   1.4188 B( 20-C , 25-S ) :   1.0615 B( 21-C , 22-C ) :   1.3392
B( 21-C , 84-H ) :   0.9663 B( 22-C , 23-C ) :   1.0615 B( 22-C , 31-C ) :   1.2826
B( 23-C , 24-C ) :   1.5868 B( 23-C , 26-C ) :   1.1998 B( 24-C , 25-S ) :   1.1647
B( 24-C , 85-H ) :   0.9398 B( 26-C , 27-C ) :   1.4080 B( 26-C , 30-S ) :   1.0901
B( 27-C , 28-C ) :   1.2074 B( 27-C , 31-C ) :   1.1298 B( 28-C , 29-C ) :   1.6036
B( 28-C , 86-H ) :   0.9966 B( 29-C , 30-S ) :   1.1447 B( 29-C , 87-H ) :   0.9656
B( 31-C , 32-C ) :   1.2354 B( 32-C , 33-C ) :   1.5608 B( 32-C , 88-H ) :   0.9456
B( 33-C , 34-C ) :   1.2103 B( 33-C , 89-H ) :   0.9365 B( 34-C , 35-S ) :   1.1150
B( 34-C , 36-C ) :   0.1011 B( 34-C , 38-C ) :   1.3306 B( 35-S , 36-C ) :   1.1408
B( 36-C , 37-C ) :   1.3127 B( 36-C , 45-C ) :   1.2204 B( 37-C , 38-C ) :   1.2793
B( 37-C , 44-C ) :   1.1594 B( 38-C , 39-N ) :   1.2059 B( 39-N , 40-C ) :   1.1962
B( 39-N , 90-H ) :   0.8963 B( 40-C , 41-N ) :   0.9342 B( 40-C , 44-C ) :   1.5024
B( 41-N , 42-O ) :   1.4712 B( 41-N , 43-O ) :   1.5106 B( 42-O , 43-O ) :   0.2649
B( 44-C , 91-H ) :   0.9973 B( 45-C , 46-C ) :   1.4433 B( 45-C , 50-S ) :   1.0785
B( 46-C , 47-C ) :   1.3235 B( 46-C , 92-H ) :   0.9548 B( 47-C , 48-C ) :   1.0863
B( 47-C , 56-C ) :   1.2628 B( 48-C , 49-C ) :   1.5912 B( 48-C , 51-C ) :   1.1656
B( 49-C , 50-S ) :   1.1479 B( 49-C , 93-H ) :   0.9401 B( 51-C , 52-C ) :   1.4513
B( 51-C , 55-S ) :   1.0794 B( 52-C , 53-C ) :   1.2304 B( 52-C , 56-C ) :   1.0815
B( 53-C , 54-C ) :   1.5805 B( 53-C , 94-H ) :   0.9990 B( 54-C , 55-S ) :   1.1609
B( 54-C , 95-H ) :   0.9661 B( 56-C , 57-C ) :   1.2533 B( 57-C , 58-C ) :   1.4529
B( 57-C , 96-H ) :   0.9793 B( 58-C , 59-C ) :   1.2882 B( 58-C , 97-H ) :   0.9603
B( 59-C , 60-C ) :   1.4277 B( 59-C , 98-H ) :   0.9490 B( 60-C , 61-C ) :   1.0731
B( 60-C , 73-C ) :   1.0779 B( 61-C , 62-C ) :   1.6057 B( 61-C , 67-C ) :   0.9945
B( 62-C , 63-C ) :   1.1387 B( 62-C , 65-C ) :   1.1526 B( 63-C , 64-N ) :   2.9813
B( 65-C , 66-N ) :   2.9749 B( 67-C , 68-C ) :   1.3166 B( 67-C , 72-C ) :   1.3868
B( 68-C , 69-C ) :   1.3732 B( 68-C , 73-C ) :   1.0124 B( 69-C , 70-C ) :   1.3675
B( 69-C , 99-H ) :   0.9786 B( 70-C , 71-C ) :   1.3805 B( 70-C ,100-H ) :   0.9857
B( 71-C , 72-C ) :   1.3621 B( 71-C ,101-H ) :   0.9862 B( 72-C ,102-H ) :   0.9827
B( 73-C , 74-C ) :   1.5435 B( 74-C , 75-C ) :   1.1480 B( 74-C , 77-C ) :   1.1690
B( 75-C , 76-N ) :   2.9028 B( 77-C , 78-N ) :   2.9819

-----------------------------------------------------------------------------
         ABSORPTION SPECTRUM VIA TRANSITION ELECTRIC DIPOLE MOMENTS
-----------------------------------------------------------------------------
State   Energy  Wavelength   fosc         T2         TX        TY        TZ
        (cm-1)    (nm)                  (au**2)     (au)      (au)      (au)
-----------------------------------------------------------------------------
   0    7431.5   1345.6   0.448594203  19.87247   3.17944  -0.11309   3.12263
   1   11586.2    863.1   0.123727817   3.51561   0.19780  -0.19536  -1.85427
   2   14392.7    694.8   0.007989320   0.18274   0.11251   0.12649  -0.39254
   3   14867.6    672.6   0.119908226   2.65511   1.55593   0.46292  -0.14102
   4   15799.8    632.9   0.115321256   2.40289  -0.15287   1.39794   0.65213
   5   17861.8    559.9   0.131948674   2.43196   1.00500  -0.10915   1.18744
   6   19021.7    525.7   0.839033359  14.52128   0.68504  -3.35762  -1.66686
   7   19799.7    505.1   0.045859173   0.76251  -0.82484  -0.02330  -0.28566
   8   21172.1    472.3   0.025576155   0.39769   0.52535  -0.19424   0.28978
   9   21650.8    461.9   0.024256005   0.36883  -0.13698  -0.35669  -0.47205
  10   22012.8    454.3   0.040573122   0.60679   0.22994  -0.57523   0.47226
  11   22496.2    444.5   0.303923675   4.44765  -0.84102   1.92416   0.19481
  12   22573.9    443.0   0.087981461   1.28310   0.95172  -0.46545  -0.40085
  13   23332.8    428.6   0.016245953   0.22922   0.44555   0.04217   0.17009
  14   24382.8    410.1   0.124077873   1.67527  -0.19860   1.26904   0.15932
  15   24889.0    401.8   0.204762085   2.70843  -0.84905   1.08921   0.89507
  16   25152.3    397.6   0.005993440   0.07845   0.14067  -0.11794  -0.21154
  17   25377.8    394.0   0.102301963   1.32711   0.58937   0.38328   0.91261
  18   25573.6    391.0   0.404715649   5.20996   0.69542   1.33910   1.71265
  19   26986.7    370.6   0.110424763   1.34708   0.91158   0.06504  -0.71546
  20   27408.2    364.9   0.095068816   1.14191   0.87588  -0.55337   0.26177
  21   28055.6    356.4   0.345701150   4.05655   1.55075  -1.14452   0.58463
  22   28502.7    350.8   0.047397536   0.54745  -0.57703   0.34378  -0.31032
  23   28868.2    346.4   0.005231884   0.05966   0.01048   0.09339   0.22546
  24   29000.7    344.8   0.052817136   0.59957  -0.40104  -0.17050  -0.64006
  25   29258.4    341.8   0.050248709   0.56539  -0.60943   0.00155  -0.44044
  26   29288.5    341.4   0.027578466   0.30999  -0.13204  -0.53849  -0.05081
  27   29479.4    339.2   0.062629507   0.69942  -0.07407   0.77063   0.31631
  28   29569.3    338.2   0.001582287   0.01762   0.08589   0.08187   0.05947
  29   30221.8    330.9   0.064690739   0.70469   0.41902  -0.72694   0.02582
  30   30423.9    328.7   0.022552829   0.24404   0.15428  -0.44310   0.15460
  31   30589.9    326.9   0.115308735   1.24097  -1.08120  -0.22854  -0.14053
  32   30972.0    322.9   0.156294720   1.66131   0.70467  -0.64475   0.86547
  33   31048.0    322.1   0.386438278   4.09753   1.37493   0.69633   1.31234
  34   31161.3    320.9   0.151979936   1.60563   1.03332  -0.01326   0.73329
  35   31745.5    315.0   0.497922164   5.16362   2.12806   0.43154  -0.66990
  36   31808.0    314.4   0.115214024   1.19246   0.57950  -0.33588  -0.86245
  37   31960.2    312.9   0.078504736   0.80865   0.48772  -0.29205   0.69677
  38   32388.6    308.8   0.023451652   0.23837   0.33650  -0.19633  -0.29427
  39   32794.8    304.9   0.087267613   0.87604   0.37964  -0.72343  -0.45668
  40   32947.7    303.5   0.004361826   0.04358   0.06412  -0.19855   0.00704
  41   33251.7    300.7   0.000860964   0.00852  -0.06995   0.03948   0.04553
  42   33312.9    300.2   0.043476281   0.42965  -0.38055   0.49436   0.20111
  43   33805.7    295.8   0.023236917   0.22629   0.30702  -0.25695  -0.25692
  44   33931.4    294.7   0.072592166   0.70431  -0.31867   0.61402   0.47512
  45   34281.0    291.7   0.206713521   1.98514   0.05023   0.56648   1.28908
  46   34498.6    289.9   0.145678492   1.39018   0.46142  -0.93815  -0.54511
  47   34748.0    287.8   0.093159111   0.88261   0.57672   0.08024   0.73727
  48   34783.7    287.5   0.290668497   2.75105   0.48196   0.93507   1.28234
  49   35013.0    285.6   0.008451574   0.07947  -0.10178  -0.14159  -0.22149
  50   35154.5    284.5   0.083119917   0.77840   0.54411  -0.62341  -0.30611
  51   35430.5    282.2   0.126320357   1.17374  -0.79250   0.73869  -0.00475
  52   35721.0    279.9   0.014380364   0.13253   0.16529  -0.20368  -0.25244
  53   35896.3    278.6   0.100631266   0.92291   0.55519   0.31268   0.71896
  54   36019.8    277.6   0.028668720   0.26202  -0.49281   0.07322  -0.11748
  55   36151.2    276.6   0.033717102   0.30705   0.45303   0.18496   0.26000
  56   36270.8    275.7   0.217604850   1.97509  -0.87304   1.10130   0.00477
  57   36405.0    274.7   0.081113035   0.73351  -0.25151   0.75074   0.32657
  58   36583.1    273.4   0.026812195   0.24128  -0.25356   0.39657   0.14043
  59   36706.4    272.4   0.207651086   1.86238   0.81420  -1.00425  -0.43696
  60   36821.8    271.6   0.049908120   0.44621   0.22186   0.62642   0.06778
  61   37070.3    269.8   0.054842403   0.48704   0.61577  -0.27727  -0.17605
  62   37361.1    267.7   0.071522182   0.63023   0.02393   0.50238   0.61422
  63   37508.2    266.6   0.058365361   0.51228  -0.61418   0.33429   0.15269
  64   37645.3    265.6   0.038884165   0.34005   0.04837   0.09192   0.57381
  65   37740.1    265.0   0.225779144   1.96950  -1.05639   0.64406  -0.66237
  66   37940.1    263.6   0.010843328   0.09409   0.27512  -0.03293   0.13159
  67   38067.4    262.7   0.150367027   1.30039   0.54228   0.59681   0.80631
  68   38449.8    260.1   0.204582310   1.75166  -0.40966  -0.73783  -1.01954
  69   38713.2    258.3   0.102052816   0.86784   0.26284  -0.73426  -0.50953
  70   39058.7    256.0   0.015971556   0.13462  -0.05024  -0.26822  -0.24526
  71   39143.8    255.5   0.024569927   0.20664  -0.44255   0.06159  -0.08363
  72   39260.3    254.7   0.030061125   0.25207   0.44217  -0.16592   0.17037
  73   39398.1    253.8   0.005699456   0.04762  -0.08119   0.16128   0.12256
  74   39459.5    253.4   0.060283674   0.50295   0.62045   0.02769   0.34238
  75   39534.6    252.9   0.019386948   0.16144  -0.11225   0.26582   0.27961
  76   39748.7    251.6   0.026843819   0.22233  -0.28263  -0.07153  -0.37058
  77   39971.5    250.2   0.016402239   0.13509   0.13599  -0.32302  -0.11069
  78   40125.5    249.2   0.025058722   0.20560   0.23916   0.02007   0.38470
  79   40136.3    249.2   0.026209940   0.21498  -0.32622   0.24465  -0.22070

FINAL SINGLE POINT ENERGY     -5061.073079354860

DIPOLE MOMENT
-------------
                                X             Y             Z
Electronic contribution:    -15.37908       3.90115     -14.59209
Nuclear contribution   :     15.64348      -3.11991      12.62237
                        -----------------------------------------
Total Dipole Moment    :      0.26439       0.78123      -1.96972
                        -----------------------------------------
Magnitude (a.u.)       :      2.13543
Magnitude (Debye)      :      5.42782

Rotational constants in cm-1:     0.001020     0.000484     0.000366
Rotational constants in MHz :    30.592424    14.511266    10.965587

                             ****ORCA TERMINATED NORMALLY****
TOTAL RUN TIME: 0 days 0 hours 14 minutes 59 seconds 848 msec
