                         Program Version 4.2.0 -  RELEASE  -
|  1> # ORCA input file
|  2> # SCF done       -203.556121413901          0.000732753977
|  3> ! CAM-B3LYP def2-SVP def2/J RIJCOSX Grid4 TightSCF
|  4> %maxcore 5000
|  5> %tddft
|  6>     Mode sTDDFT
|  7>     Ethresh 5.0
|  8>     maxcore 5000
|  9> end
| 10>
| 11> %pal
| 12>   nprocs 6
| 13>   end
| 14> * xyz 0 1
| 15>    C       -0.48375        -8.60920        -0.57690
| 16>    C       -0.89344        -9.48423        -1.57092
| 17>    C       -1.39275        -9.01375        -2.77848
| 18>    C       -1.48895        -7.65359        -3.03170
| 19>    C       -1.07855        -6.76782        -2.04885
| 20>    C       -0.58053        -7.24580        -0.81300
| 21>    C       -0.25289        -6.11060         0.03343
| 22>    C        0.40728        -6.14023         1.22968
| 23>    C        0.87007        -7.32491         1.84516
| 24>    N        1.26931        -8.25072         2.39174
| 25>    C        0.75531        -4.99895         1.98666
| 26>    N        1.06434        -4.10836         2.64148
| 27>    C       -0.75114        -4.91874        -0.65937
| 28>    C       -1.02462        -5.31393        -2.04207
| 29>    C       -0.99847        -4.50236        -3.13637
| 30>    C       -0.63464        -3.13682        -3.10014
| 31>    N       -0.24436        -2.05898        -3.14356
| 32>    C       -1.19950        -4.96450        -4.45599
| 33>    N       -1.35174        -5.29632        -5.54288
| 34>    C       -1.03918        -3.74855        -0.03417
| 35>    C       -1.79975        -2.65426        -0.53284
| 36>    N       -2.64339        -2.75882        -1.54734
| 37>    C       -3.21183        -1.54218        -1.67643
| 38>    C       -2.66677        -0.58878        -0.69654
| 39>    C       -3.30276         0.72813        -0.86350
| 40>    O       -3.09907         1.75824        -0.25722
| 41>    C       -4.25514         0.49421        -1.96534
| 42>    C       -4.16804        -0.91019        -2.42758
| 43>    N       -5.05273        -1.13987        -3.43008
| 44>    C       -5.66272         0.00262        -3.61514
| 45>    C       -5.21581         1.06672        -2.72943
| 46>    C       -1.77729        -1.30117         0.06887
| 47>    C       -1.02241        -0.91663         1.21791
| 48>    C       -1.05679         0.34641         1.68192
| 49>    C       -0.48043         0.78216         2.93704
| 50>    C        0.80008         0.38013         3.33629
| 51>    C        1.29864         0.86792         4.52197
| 52>    C        0.54649         1.72703         5.33257
| 53>    C        1.34792         2.04201         6.54223
| 54>    O        1.06198         2.72986         7.48762
| 55>    N        2.54739         1.36879         6.37075
| 56>    C        2.60732         0.63856         5.19293
| 57>    O        3.54814        -0.01529         4.82839
| 58>    C        3.61902         1.39167         7.34446
| 59>    C        3.47194         0.25645         8.35102
| 60>    C       -0.71828         2.12747         4.97106
| 61>    C       -1.23712         1.65617         3.75807
| 62>    C       -2.58779         1.95824         3.34487
| 63>    N       -3.28443         1.04677         2.69703
| 64>    C       -4.45554         1.62877         2.36654
| 65>    C       -4.54073         2.99184         2.91365
| 66>    C       -5.79468         3.63480         2.48334
| 67>    O       -6.24617         4.71049         2.81380
| 68>    C       -6.37004         2.63475         1.56707
| 69>    C       -5.53383         1.41342         1.55146
| 70>    N       -6.02437         0.50867         0.66774
| 71>    C       -7.07278         1.08726         0.13505
| 72>    C       -7.33578         2.42138         0.63826
| 73>    C       -3.32654         3.23262         3.51453
| 74>    C       -2.80792         4.43580         4.06752
| 75>    C       -3.58272         5.53116         4.27004
| 76>    C       -3.08585         6.74121         4.81405
| 77>    C       -3.77918         7.91468         4.85070
| 78>    C       -3.48753         9.04601         5.72666
| 79>    C       -2.28433         9.34755         6.30122
| 80>    C       -1.08875         8.63005         6.07741
| 81>    N       -0.08517         8.09553         5.92274
| 82>    C       -2.06947        10.45312         7.15237
| 83>    N       -1.83437        11.33286         7.85035
| 84>    C       -4.72855         9.79645         5.85751
| 85>    C       -5.68440         9.26538         4.95968
| 86>    C       -6.96321         9.79306         4.89693
| 87>    C       -7.28316        10.85162         5.73387
| 88>    C       -6.34466        11.37918         6.61030
| 89>    C       -5.06053        10.86085         6.68144
| 90>    C       -5.05583         8.19737         4.19782
| 91>    C       -5.45702         7.72059         2.98239
| 92>    C       -6.68560         8.05860         2.37484
| 93>    N       -7.67311         8.30779         1.84745
| 94>    C       -4.62980         6.95343         2.12987
| 95>    N       -3.96040         6.41149         1.37280
| 96>    H       -0.10721        -8.98979         0.35852
| 97>    H       -0.82692       -10.54741        -1.39860
| 98>    H       -1.71264        -9.71603        -3.53277
| 99>    H       -1.88646        -7.30014        -3.96904
|100>    H       -0.72871        -3.64397         0.99552
|101>    H       -6.42089         0.09705        -4.37355
|102>    H       -5.59075         2.07121        -2.72397
|103>    H       -0.49399        -1.68566         1.76489
|104>    H       -1.59802         1.08944         1.11243
|105>    H        1.38665        -0.28260         2.71925
|106>    H        3.57893         2.35882         7.85086
|107>    H        4.55970         1.29564         6.79721
|108>    H        2.53071         0.34905         8.88807
|109>    H        4.28785         0.29316         9.06696
|110>    H        3.49678        -0.70375         7.84092
|111>    H       -1.30773         2.74265         5.63289
|112>    H       -7.65661         0.57018        -0.60727
|113>    H       -8.13111         3.06446         0.31709
|114>    H       -1.74694         4.48189         4.27246
|115>    H       -4.63817         5.46679         4.04366
|116>    H       -2.12113         6.69422         5.30165
|117>    H       -7.70080         9.38578         4.22448
|118>    H       -8.27790        11.26905         5.70265
|119>    H       -6.61700        12.20387         7.25092
|120>    H       -4.34537        11.27849         7.37114
|121> *
|122>
|123>                          ****END OF INPUT****

CARTESIAN COORDINATES (ANGSTROEM)
---------------------------------
  C     -0.483750   -8.609200   -0.576900
  C     -0.893440   -9.484230   -1.570920
  C     -1.392750   -9.013750   -2.778480
  C     -1.488950   -7.653590   -3.031700
  C     -1.078550   -6.767820   -2.048850
  C     -0.580530   -7.245800   -0.813000
  C     -0.252890   -6.110600    0.033430
  C      0.407280   -6.140230    1.229680
  C      0.870070   -7.324910    1.845160
  N      1.269310   -8.250720    2.391740
  C      0.755310   -4.998950    1.986660
  N      1.064340   -4.108360    2.641480
  C     -0.751140   -4.918740   -0.659370
  C     -1.024620   -5.313930   -2.042070
  C     -0.998470   -4.502360   -3.136370
  C     -0.634640   -3.136820   -3.100140
  N     -0.244360   -2.058980   -3.143560
  C     -1.199500   -4.964500   -4.455990
  N     -1.351740   -5.296320   -5.542880
  C     -1.039180   -3.748550   -0.034170
  C     -1.799750   -2.654260   -0.532840
  N     -2.643390   -2.758820   -1.547340
  C     -3.211830   -1.542180   -1.676430
  C     -2.666770   -0.588780   -0.696540
  C     -3.302760    0.728130   -0.863500
  O     -3.099070    1.758240   -0.257220
  C     -4.255140    0.494210   -1.965340
  C     -4.168040   -0.910190   -2.427580
  N     -5.052730   -1.139870   -3.430080
  C     -5.662720    0.002620   -3.615140
  C     -5.215810    1.066720   -2.729430
  C     -1.777290   -1.301170    0.068870
  C     -1.022410   -0.916630    1.217910
  C     -1.056790    0.346410    1.681920
  C     -0.480430    0.782160    2.937040
  C      0.800080    0.380130    3.336290
  C      1.298640    0.867920    4.521970
  C      0.546490    1.727030    5.332570
  C      1.347920    2.042010    6.542230
  O      1.061980    2.729860    7.487620
  N      2.547390    1.368790    6.370750
  C      2.607320    0.638560    5.192930
  O      3.548140   -0.015290    4.828390
  C      3.619020    1.391670    7.344460
  C      3.471940    0.256450    8.351020
  C     -0.718280    2.127470    4.971060
  C     -1.237120    1.656170    3.758070
  C     -2.587790    1.958240    3.344870
  N     -3.284430    1.046770    2.697030
  C     -4.455540    1.628770    2.366540
  C     -4.540730    2.991840    2.913650
  C     -5.794680    3.634800    2.483340
  O     -6.246170    4.710490    2.813800
  C     -6.370040    2.634750    1.567070
  C     -5.533830    1.413420    1.551460
  N     -6.024370    0.508670    0.667740
  C     -7.072780    1.087260    0.135050
  C     -7.335780    2.421380    0.638260
  C     -3.326540    3.232620    3.514530
  C     -2.807920    4.435800    4.067520
  C     -3.582720    5.531160    4.270040
  C     -3.085850    6.741210    4.814050
  C     -3.779180    7.914680    4.850700
  C     -3.487530    9.046010    5.726660
  C     -2.284330    9.347550    6.301220
  C     -1.088750    8.630050    6.077410
  N     -0.085170    8.095530    5.922740
  C     -2.069470   10.453120    7.152370
  N     -1.834370   11.332860    7.850350
  C     -4.728550    9.796450    5.857510
  C     -5.684400    9.265380    4.959680
  C     -6.963210    9.793060    4.896930
  C     -7.283160   10.851620    5.733870
  C     -6.344660   11.379180    6.610300
  C     -5.060530   10.860850    6.681440
  C     -5.055830    8.197370    4.197820
  C     -5.457020    7.720590    2.982390
  C     -6.685600    8.058600    2.374840
  N     -7.673110    8.307790    1.847450
  C     -4.629800    6.953430    2.129870
  N     -3.960400    6.411490    1.372800
  H     -0.107210   -8.989790    0.358520
  H     -0.826920  -10.547410   -1.398600
  H     -1.712640   -9.716030   -3.532770
  H     -1.886460   -7.300140   -3.969040
  H     -0.728710   -3.643970    0.995520
  H     -6.420890    0.097050   -4.373550
  H     -5.590750    2.071210   -2.723970
  H     -0.493990   -1.685660    1.764890
  H     -1.598020    1.089440    1.112430
  H      1.386650   -0.282600    2.719250
  H      3.578930    2.358820    7.850860
  H      4.559700    1.295640    6.797210
  H      2.530710    0.349050    8.888070
  H      4.287850    0.293160    9.066960
  H      3.496780   -0.703750    7.840920
  H     -1.307730    2.742650    5.632890
  H     -7.656610    0.570180   -0.607270
  H     -8.131110    3.064460    0.317090
  H     -1.746940    4.481890    4.272460
  H     -4.638170    5.466790    4.043660
  H     -2.121130    6.694220    5.301650
  H     -7.700800    9.385780    4.224480
  H     -8.277900   11.269050    5.702650
  H     -6.617000   12.203870    7.250920
  H     -4.345370   11.278490    7.371140

 Total Charge           Charge          ....    0
 Multiplicity           Mult            ....    1
 Number of Electrons    NEL             ....  532
 Basis Dimension        Dim             .... 1259

ORBITAL ENERGIES
----------------

  NO   OCC          E(Eh)            E(eV)
   0   2.0000     -19.231116      -523.3053
   1   2.0000     -19.221864      -523.0535
   2   2.0000     -19.215928      -522.8920
   3   2.0000     -19.215649      -522.8844
   4   2.0000     -14.457053      -393.3964
   5   2.0000     -14.440984      -392.9591
   6   2.0000     -14.436015      -392.8239
   7   2.0000     -14.431153      -392.6916
   8   2.0000     -14.428905      -392.6305
   9   2.0000     -14.426774      -392.5725
  10   2.0000     -14.426760      -392.5721
  11   2.0000     -14.424750      -392.5174
  12   2.0000     -14.424063      -392.4987
  13   2.0000     -14.423548      -392.4847
  14   2.0000     -14.422329      -392.4515
  15   2.0000     -14.417464      -392.3191
  16   2.0000     -14.416101      -392.2820
  17   2.0000     -10.396019      -282.8901
  18   2.0000     -10.395908      -282.8870
  19   2.0000     -10.390523      -282.7405
  20   2.0000     -10.380974      -282.4807
  21   2.0000     -10.371077      -282.2114
  22   2.0000     -10.365822      -282.0683
  23   2.0000     -10.365260      -282.0531
  24   2.0000     -10.359525      -281.8970
  25   2.0000     -10.356721      -281.8207
  26   2.0000     -10.355653      -281.7917
  27   2.0000     -10.355235      -281.7803
  28   2.0000     -10.355207      -281.7795
  29   2.0000     -10.351529      -281.6794
  30   2.0000     -10.347707      -281.5754
  31   2.0000     -10.347636      -281.5735
  32   2.0000     -10.347206      -281.5618
  33   2.0000     -10.343740      -281.4675
  34   2.0000     -10.342462      -281.4327
  35   2.0000     -10.341605      -281.4094
  36   2.0000     -10.341414      -281.4042
  37   2.0000     -10.338199      -281.3167
  38   2.0000     -10.337297      -281.2922
  39   2.0000     -10.336734      -281.2768
  40   2.0000     -10.334762      -281.2232
  41   2.0000     -10.331503      -281.1345
  42   2.0000     -10.329111      -281.0694
  43   2.0000     -10.326406      -280.9958
  44   2.0000     -10.325893      -280.9818
  45   2.0000     -10.325559      -280.9727
  46   2.0000     -10.325553      -280.9726
  47   2.0000     -10.324509      -280.9442
  48   2.0000     -10.323745      -280.9234
  49   2.0000     -10.323515      -280.9171
  50   2.0000     -10.322202      -280.8814
  51   2.0000     -10.320176      -280.8263
  52   2.0000     -10.318959      -280.7932
  53   2.0000     -10.317725      -280.7596
  54   2.0000     -10.315910      -280.7102
  55   2.0000     -10.315588      -280.7014
  56   2.0000     -10.315425      -280.6970
  57   2.0000     -10.313863      -280.6545
  58   2.0000     -10.313273      -280.6384
  59   2.0000     -10.313103      -280.6338
  60   2.0000     -10.311135      -280.5802
  61   2.0000     -10.310707      -280.5686
  62   2.0000     -10.310600      -280.5657
  63   2.0000     -10.309558      -280.5373
  64   2.0000     -10.308368      -280.5050
  65   2.0000     -10.306571      -280.4561
  66   2.0000     -10.306387      -280.4511
  67   2.0000     -10.306341      -280.4498
  68   2.0000     -10.305599      -280.4296
  69   2.0000     -10.304692      -280.4049
  70   2.0000     -10.303619      -280.3757
  71   2.0000     -10.302963      -280.3579
  72   2.0000     -10.302402      -280.3426
  73   2.0000     -10.301920      -280.3295
  74   2.0000     -10.301395      -280.3152
  75   2.0000     -10.299903      -280.2746
  76   2.0000     -10.298445      -280.2349
  77   2.0000     -10.295375      -280.1514
  78   2.0000     -10.292810      -280.0816
  79   2.0000     -10.288315      -279.9593
  80   2.0000     -10.259075      -279.1636
  81   2.0000      -1.162153       -31.6238
  82   2.0000      -1.145311       -31.1655
  83   2.0000      -1.138792       -30.9881
  84   2.0000      -1.136615       -30.9289
  85   2.0000      -1.097025       -29.8516
  86   2.0000      -1.092238       -29.7213
  87   2.0000      -1.077611       -29.3233
  88   2.0000      -1.072046       -29.1719
  89   2.0000      -1.053186       -28.6586
  90   2.0000      -1.049764       -28.5655
  91   2.0000      -1.038693       -28.2643
  92   2.0000      -1.031406       -28.0660
  93   2.0000      -1.019400       -27.7393
  94   2.0000      -1.019269       -27.7357
  95   2.0000      -1.015768       -27.6405
  96   2.0000      -1.008555       -27.4442
  97   2.0000      -1.006584       -27.3905
  98   2.0000      -1.002336       -27.2749
  99   2.0000      -0.998293       -27.1649
 100   2.0000      -0.993973       -27.0474
 101   2.0000      -0.972726       -26.4692
 102   2.0000      -0.964112       -26.2348
 103   2.0000      -0.954603       -25.9761
 104   2.0000      -0.954204       -25.9652
 105   2.0000      -0.946198       -25.7474
 106   2.0000      -0.943266       -25.6676
 107   2.0000      -0.939812       -25.5736
 108   2.0000      -0.931932       -25.3592
 109   2.0000      -0.915659       -24.9164
 110   2.0000      -0.908997       -24.7351
 111   2.0000      -0.903103       -24.5747
 112   2.0000      -0.898614       -24.4525
 113   2.0000      -0.893780       -24.3210
 114   2.0000      -0.884056       -24.0564
 115   2.0000      -0.877785       -23.8857
 116   2.0000      -0.874760       -23.8034
 117   2.0000      -0.868646       -23.6371
 118   2.0000      -0.868379       -23.6298
 119   2.0000      -0.855275       -23.2732
 120   2.0000      -0.846392       -23.0315
 121   2.0000      -0.832144       -22.6438
 122   2.0000      -0.825393       -22.4601
 123   2.0000      -0.804332       -21.8870
 124   2.0000      -0.801577       -21.8120
 125   2.0000      -0.794615       -21.6226
 126   2.0000      -0.792837       -21.5742
 127   2.0000      -0.781284       -21.2598
 128   2.0000      -0.770786       -20.9741
 129   2.0000      -0.766543       -20.8587
 130   2.0000      -0.757280       -20.6066
 131   2.0000      -0.754893       -20.5417
 132   2.0000      -0.732238       -19.9252
 133   2.0000      -0.728889       -19.8341
 134   2.0000      -0.728081       -19.8121
 135   2.0000      -0.727109       -19.7856
 136   2.0000      -0.724342       -19.7103
 137   2.0000      -0.718748       -19.5581
 138   2.0000      -0.712716       -19.3940
 139   2.0000      -0.711752       -19.3678
 140   2.0000      -0.699868       -19.0444
 141   2.0000      -0.690825       -18.7983
 142   2.0000      -0.684220       -18.6186
 143   2.0000      -0.682040       -18.5592
 144   2.0000      -0.680178       -18.5086
 145   2.0000      -0.672692       -18.3049
 146   2.0000      -0.669838       -18.2272
 147   2.0000      -0.667032       -18.1509
 148   2.0000      -0.660741       -17.9797
 149   2.0000      -0.657388       -17.8884
 150   2.0000      -0.648803       -17.6548
 151   2.0000      -0.645565       -17.5667
 152   2.0000      -0.641376       -17.4527
 153   2.0000      -0.637701       -17.3527
 154   2.0000      -0.629658       -17.1339
 155   2.0000      -0.619330       -16.8528
 156   2.0000      -0.618195       -16.8219
 157   2.0000      -0.608704       -16.5637
 158   2.0000      -0.603961       -16.4346
 159   2.0000      -0.600678       -16.3453
 160   2.0000      -0.598625       -16.2894
 161   2.0000      -0.590834       -16.0774
 162   2.0000      -0.589384       -16.0380
 163   2.0000      -0.586346       -15.9553
 164   2.0000      -0.584393       -15.9021
 165   2.0000      -0.579533       -15.7699
 166   2.0000      -0.573701       -15.6112
 167   2.0000      -0.567823       -15.4512
 168   2.0000      -0.564767       -15.3681
 169   2.0000      -0.561195       -15.2709
 170   2.0000      -0.559991       -15.2381
 171   2.0000      -0.559593       -15.2273
 172   2.0000      -0.557182       -15.1617
 173   2.0000      -0.554288       -15.0830
 174   2.0000      -0.551933       -15.0189
 175   2.0000      -0.549099       -14.9417
 176   2.0000      -0.547410       -14.8958
 177   2.0000      -0.546434       -14.8692
 178   2.0000      -0.544458       -14.8155
 179   2.0000      -0.540976       -14.7207
 180   2.0000      -0.539803       -14.6888
 181   2.0000      -0.538410       -14.6509
 182   2.0000      -0.537778       -14.6337
 183   2.0000      -0.530263       -14.4292
 184   2.0000      -0.527527       -14.3547
 185   2.0000      -0.525880       -14.3099
 186   2.0000      -0.522131       -14.2079
 187   2.0000      -0.521088       -14.1795
 188   2.0000      -0.518525       -14.1098
 189   2.0000      -0.514996       -14.0137
 190   2.0000      -0.512529       -13.9466
 191   2.0000      -0.510442       -13.8898
 192   2.0000      -0.510232       -13.8841
 193   2.0000      -0.507929       -13.8215
 194   2.0000      -0.507406       -13.8072
 195   2.0000      -0.503120       -13.6906
 196   2.0000      -0.498189       -13.5564
 197   2.0000      -0.494575       -13.4581
 198   2.0000      -0.492145       -13.3919
 199   2.0000      -0.489536       -13.3210
 200   2.0000      -0.489310       -13.3148
 201   2.0000      -0.484787       -13.1917
 202   2.0000      -0.484706       -13.1895
 203   2.0000      -0.482546       -13.1307
 204   2.0000      -0.479434       -13.0461
 205   2.0000      -0.476929       -12.9779
 206   2.0000      -0.475756       -12.9460
 207   2.0000      -0.474206       -12.9038
 208   2.0000      -0.471801       -12.8384
 209   2.0000      -0.470970       -12.8158
 210   2.0000      -0.469993       -12.7891
 211   2.0000      -0.467513       -12.7217
 212   2.0000      -0.463713       -12.6183
 213   2.0000      -0.463319       -12.6075
 214   2.0000      -0.460784       -12.5386
 215   2.0000      -0.459196       -12.4954
 216   2.0000      -0.458634       -12.4801
 217   2.0000      -0.455970       -12.4076
 218   2.0000      -0.455236       -12.3876
 219   2.0000      -0.454126       -12.3574
 220   2.0000      -0.453136       -12.3304
 221   2.0000      -0.451880       -12.2963
 222   2.0000      -0.451323       -12.2811
 223   2.0000      -0.450292       -12.2531
 224   2.0000      -0.449068       -12.2198
 225   2.0000      -0.447678       -12.1819
 226   2.0000      -0.446252       -12.1431
 227   2.0000      -0.442022       -12.0280
 228   2.0000      -0.439188       -11.9509
 229   2.0000      -0.435364       -11.8469
 230   2.0000      -0.434539       -11.8244
 231   2.0000      -0.432039       -11.7564
 232   2.0000      -0.429902       -11.6982
 233   2.0000      -0.429236       -11.6801
 234   2.0000      -0.428399       -11.6573
 235   2.0000      -0.426792       -11.6136
 236   2.0000      -0.423535       -11.5250
 237   2.0000      -0.417587       -11.3631
 238   2.0000      -0.415738       -11.3128
 239   2.0000      -0.414763       -11.2863
 240   2.0000      -0.406615       -11.0645
 241   2.0000      -0.397297       -10.8110
 242   2.0000      -0.387267       -10.5381
 243   2.0000      -0.385507       -10.4902
 244   2.0000      -0.377395       -10.2694
 245   2.0000      -0.376134       -10.2351
 246   2.0000      -0.373965       -10.1761
 247   2.0000      -0.370922       -10.0933
 248   2.0000      -0.370077       -10.0703
 249   2.0000      -0.367431        -9.9983
 250   2.0000      -0.364697        -9.9239
 251   2.0000      -0.357427        -9.7261
 252   2.0000      -0.354010        -9.6331
 253   2.0000      -0.348713        -9.4890
 254   2.0000      -0.347721        -9.4620
 255   2.0000      -0.345633        -9.4051
 256   2.0000      -0.344306        -9.3690
 257   2.0000      -0.340996        -9.2790
 258   2.0000      -0.339367        -9.2346
 259   2.0000      -0.336496        -9.1565
 260   2.0000      -0.334653        -9.1064
 261   2.0000      -0.328813        -8.9475
 262   2.0000      -0.318373        -8.6634
 263   2.0000      -0.311731        -8.4826
 264   2.0000      -0.289337        -7.8733
 265   2.0000      -0.286698        -7.8014
 266   0.0000      -0.139968        -3.8087
 267   0.0000      -0.131233        -3.5710
 268   0.0000      -0.101277        -2.7559
 269   0.0000      -0.097093        -2.6420
 270   0.0000      -0.087828        -2.3899

MULLIKEN ATOMIC CHARGES
-----------------------
   0 C :   -0.027042
   1 C :    0.044739
   2 C :    0.052426
   3 C :   -0.027570
   4 C :    0.014185
   5 C :    0.010344
   6 C :    0.268112
   7 C :   -0.324321
   8 C :   -0.186298
   9 N :    0.173975
  10 C :   -0.177980
  11 N :    0.168620
  12 C :    0.005283
  13 C :    0.223873
  14 C :   -0.252130
  15 C :   -0.183346
  16 N :    0.178134
  17 C :   -0.196132
  18 N :    0.172798
  19 C :   -0.010554
  20 C :    0.003321
  21 N :   -0.052399
  22 C :    0.074496
  23 C :   -0.141914
  24 C :    0.250376
  25 O :   -0.156407
  26 C :    0.014934
  27 C :   -0.009435
  28 N :   -0.048096
  29 C :    0.093051
  30 C :   -0.114582
  31 C :    0.073784
  32 C :   -0.055270
  33 C :    0.066476
  34 C :    0.074236
  35 C :   -0.081805
  36 C :    0.024189
  37 C :   -0.001750
  38 C :    0.196088
  39 O :   -0.152273
  40 N :   -0.302778
  41 C :    0.193584
  42 O :   -0.144498
  43 C :    0.131311
  44 C :   -0.010705
  45 C :   -0.084969
  46 C :    0.056092
  47 C :   -0.007832
  48 N :   -0.054038
  49 C :    0.088161
  50 C :   -0.151445
  51 C :    0.246438
  52 O :   -0.146961
  53 C :   -0.002106
  54 C :    0.002918
  55 N :   -0.077645
  56 C :    0.107722
  57 C :   -0.098847
  58 C :    0.078159
  59 C :   -0.036062
  60 C :    0.007036
  61 C :    0.033974
  62 C :   -0.048761
  63 C :    0.288288
  64 C :   -0.329550
  65 C :   -0.188206
  66 N :    0.163605
  67 C :   -0.186441
  68 N :    0.162456
  69 C :    0.012446
  70 C :    0.012942
  71 C :   -0.032111
  72 C :    0.049924
  73 C :    0.046607
  74 C :   -0.032927
  75 C :    0.217092
  76 C :   -0.293098
  77 C :   -0.177076
  78 N :    0.164445
  79 C :   -0.200643
  80 N :    0.175392
  81 H :    0.007932
  82 H :    0.009364
  83 H :    0.010619
  84 H :    0.012092
  85 H :    0.018522
  86 H :    0.015493
  87 H :   -0.003698
  88 H :   -0.011829
  89 H :    0.044322
  90 H :    0.009059
  91 H :    0.035091
  92 H :    0.034023
  93 H :    0.026276
  94 H :    0.025668
  95 H :    0.029674
  96 H :    0.004031
  97 H :    0.014449
  98 H :    0.004387
  99 H :    0.011272
 100 H :    0.043818
 101 H :    0.017724
 102 H :    0.008247
 103 H :    0.005146
 104 H :    0.004989
 105 H :    0.007303
Sum of atomic charges:   -0.0000000

LOEWDIN ATOMIC CHARGES
----------------------
   0 C :    0.008190
   1 C :    0.003305
   2 C :    0.012101
   3 C :    0.004353
   4 C :   -0.002968
   5 C :   -0.017262
   6 C :    0.077084
   7 C :   -0.117671
   8 C :   -0.019134
   9 N :   -0.031215
  10 C :   -0.018291
  11 N :   -0.037124
  12 C :    0.010247
  13 C :    0.063695
  14 C :   -0.086829
  15 C :   -0.017105
  16 N :   -0.035746
  17 C :   -0.015444
  18 N :   -0.029422
  19 C :    0.026499
  20 C :    0.055661
  21 N :   -0.079311
  22 C :    0.050478
  23 C :   -0.042892
  24 C :    0.080789
  25 O :   -0.139741
  26 C :   -0.025356
  27 C :    0.044395
  28 N :   -0.094847
  29 C :    0.083543
  30 C :   -0.036222
  31 C :   -0.004690
  32 C :   -0.043945
  33 C :    0.040705
  34 C :    0.025070
  35 C :    0.024265
  36 C :   -0.029870
  37 C :   -0.051840
  38 C :    0.087587
  39 O :   -0.153942
  40 N :   -0.033255
  41 C :    0.088549
  42 O :   -0.145606
  43 C :    0.045227
  44 C :   -0.059350
  45 C :    0.023914
  46 C :   -0.029327
  47 C :    0.086601
  48 N :   -0.073530
  49 C :    0.051595
  50 C :   -0.021567
  51 C :    0.081864
  52 O :   -0.134937
  53 C :   -0.026416
  54 C :    0.035304
  55 N :   -0.098658
  56 C :    0.086270
  57 C :   -0.029899
  58 C :   -0.027775
  59 C :    0.011314
  60 C :    0.001296
  61 C :    0.054136
  62 C :   -0.038853
  63 C :    0.077179
  64 C :   -0.126152
  65 C :   -0.022057
  66 N :   -0.039464
  67 C :   -0.018943
  68 N :   -0.041618
  69 C :   -0.014536
  70 C :   -0.007575
  71 C :    0.002203
  72 C :    0.006222
  73 C :    0.001573
  74 C :    0.005685
  75 C :    0.064975
  76 C :   -0.108371
  77 C :   -0.012966
  78 N :   -0.041094
  79 C :   -0.020800
  80 N :   -0.042250
  81 H :    0.042227
  82 H :    0.039604
  83 H :    0.040240
  84 H :    0.043221
  85 H :    0.047990
  86 H :    0.025765
  87 H :    0.034229
  88 H :    0.028333
  89 H :    0.035023
  90 H :    0.046695
  91 H :    0.033762
  92 H :    0.033417
  93 H :    0.028048
  94 H :    0.031458
  95 H :    0.029090
  96 H :    0.041274
  97 H :    0.025163
  98 H :    0.038374
  99 H :    0.038720
 100 H :    0.034957
 101 H :    0.046745
 102 H :    0.041811
 103 H :    0.038022
 104 H :    0.037989
 105 H :    0.041835

  Mayer bond orders larger than 0.100000
B(  0-C ,  1-C ) :   1.3786 B(  0-C ,  5-C ) :   1.3749 B(  0-C , 81-H ) :   0.9845
B(  1-C ,  2-C ) :   1.3695 B(  1-C , 82-H ) :   0.9867 B(  2-C ,  3-C ) :   1.3686
B(  2-C , 83-H ) :   0.9866 B(  3-C ,  4-C ) :   1.3869 B(  3-C , 84-H ) :   0.9852
B(  4-C ,  5-C ) :   1.3009 B(  4-C , 13-C ) :   1.0106 B(  5-C ,  6-C ) :   1.0141
B(  6-C ,  7-C ) :   1.6690 B(  6-C , 12-C ) :   1.0173 B(  7-C ,  8-C ) :   1.1405
B(  7-C , 10-C ) :   1.1339 B(  8-C ,  9-N ) :   2.9853 B( 10-C , 11-N ) :   2.9882
B( 12-C , 13-C ) :   0.9955 B( 12-C , 19-C ) :   1.6890 B( 13-C , 14-C ) :   1.7171
B( 14-C , 15-C ) :   1.1435 B( 14-C , 17-C ) :   1.1452 B( 15-C , 16-N ) :   2.9864
B( 17-C , 18-N ) :   2.9925 B( 19-C , 20-C ) :   1.1003 B( 19-C , 85-H ) :   0.9235
B( 20-C , 21-N ) :   1.5718 B( 20-C , 22-C ) :   0.1150 B( 20-C , 31-C ) :   1.0224
B( 21-N , 22-C ) :   1.2967 B( 22-C , 23-C ) :   1.0681 B( 22-C , 27-C ) :   1.4432
B( 23-C , 24-C ) :   0.8948 B( 23-C , 31-C ) :   1.5461 B( 24-C , 25-O ) :   2.1349
B( 24-C , 26-C ) :   0.9335 B( 25-O , 89-H ) :   0.1008 B( 26-C , 27-C ) :   1.0616
B( 26-C , 30-C ) :   1.6217 B( 27-C , 28-N ) :   1.3033 B( 28-N , 29-C ) :   1.6661
B( 29-C , 30-C ) :   1.0465 B( 29-C , 86-H ) :   0.9900 B( 30-C , 87-H ) :   1.0101
B( 31-C , 32-C ) :   1.1304 B( 32-C , 33-C ) :   1.7457 B( 32-C , 88-H ) :   0.9574
B( 33-C , 34-C ) :   1.0406 B( 33-C , 89-H ) :   0.8969 B( 34-C , 35-C ) :   1.3151
B( 34-C , 46-C ) :   1.3545 B( 35-C , 36-C ) :   1.3839 B( 35-C , 90-H ) :   1.0138
B( 36-C , 37-C ) :   1.3552 B( 36-C , 41-C ) :   0.8670 B( 37-C , 38-C ) :   0.8714
B( 37-C , 45-C ) :   1.4075 B( 38-C , 39-O ) :   2.2325 B( 38-C , 40-N ) :   1.0652
B( 40-N , 41-C ) :   1.0659 B( 40-N , 43-C ) :   0.9155 B( 41-C , 42-O ) :   2.2372
B( 43-C , 44-C ) :   1.1226 B( 43-C , 91-H ) :   0.9427 B( 43-C , 92-H ) :   0.9429
B( 44-C , 93-H ) :   0.9699 B( 44-C , 94-H ) :   0.9706 B( 44-C , 95-H ) :   0.9698
B( 45-C , 46-C ) :   1.3062 B( 45-C , 96-H ) :   1.0031 B( 46-C , 47-C ) :   1.0041
B( 47-C , 48-N ) :   1.6147 B( 47-C , 49-C ) :   0.1103 B( 47-C , 58-C ) :   1.0337
B( 48-N , 49-C ) :   1.3160 B( 49-C , 50-C ) :   1.0508 B( 49-C , 54-C ) :   1.4318
B( 50-C , 51-C ) :   0.8939 B( 50-C , 58-C ) :   1.5478 B( 51-C , 52-O ) :   2.1468
B( 51-C , 53-C ) :   0.9375 B( 53-C , 54-C ) :   1.0546 B( 53-C , 57-C ) :   1.6056
B( 54-C , 55-N ) :   1.2900 B( 55-N , 56-C ) :   1.6458 B( 56-C , 57-C ) :   1.0693
B( 56-C , 97-H ) :   0.9858 B( 57-C , 98-H ) :   1.0137 B( 58-C , 59-C ) :   1.0938
B( 59-C , 60-C ) :   1.6535 B( 59-C , 99-H ) :   0.9735 B( 60-C , 61-C ) :   1.1218
B( 60-C ,100-H ) :   0.9397 B( 61-C , 62-C ) :   1.6093 B( 61-C ,101-H ) :   0.9547
B( 62-C , 63-C ) :   1.0296 B( 62-C , 75-C ) :   1.0078 B( 63-C , 64-C ) :   1.6594
B( 63-C , 69-C ) :   1.0066 B( 64-C , 65-C ) :   1.1346 B( 64-C , 67-C ) :   1.1393
B( 65-C , 66-N ) :   2.9901 B( 67-C , 68-N ) :   2.9826 B( 69-C , 70-C ) :   1.3099
B( 69-C , 74-C ) :   1.3790 B( 70-C , 71-C ) :   1.3848 B( 70-C , 75-C ) :   1.0128
B( 71-C , 72-C ) :   1.3635 B( 71-C ,102-H ) :   0.9877 B( 72-C , 73-C ) :   1.3748
B( 72-C ,103-H ) :   0.9867 B( 73-C , 74-C ) :   1.3729 B( 73-C ,104-H ) :   0.9870
B( 74-C ,105-H ) :   0.9852 B( 75-C , 76-C ) :   1.6812 B( 76-C , 77-C ) :   1.1434
B( 76-C , 79-C ) :   1.1465 B( 77-C , 78-N ) :   2.9962 B( 79-C , 80-N ) :   2.9997

-----------------------------------------------------------------------------
         ABSORPTION SPECTRUM VIA TRANSITION ELECTRIC DIPOLE MOMENTS
-----------------------------------------------------------------------------
State   Energy  Wavelength   fosc         T2         TX        TY        TZ
        (cm-1)    (nm)                  (au**2)     (au)      (au)      (au)
-----------------------------------------------------------------------------
   0   13886.4    720.1   0.041055253   0.97332  -0.64315   0.63093  -0.40200
   1   15362.6    650.9   0.042547152   0.91176   0.28635  -0.72159  -0.55594
   2   17788.0    562.2   0.149385508   2.76476  -0.71022  -1.38927  -0.57469
   3   19418.1    515.0   0.111484535   1.89009   0.94142  -0.97698   0.22210
   4   20476.8    488.4   0.038554796   0.61986  -0.50647   0.60031  -0.05451
   5   20748.3    482.0   0.071373100   1.13247   0.68068  -0.81704   0.03997
   6   21998.2    454.6   0.019789115   0.29615   0.50989   0.15681   0.10758
   7   22747.4    439.6   0.401856082   5.81586   0.04253  -2.34567  -0.55847
   8   23668.6    422.5   0.026461527   0.36806  -0.25704   0.54364  -0.08031
   9   23908.5    418.3   0.019453277   0.26786   0.41896   0.06550   0.29672
  10   24491.5    408.3   0.215105672   2.89143   0.77697  -1.50934  -0.09819
  11   24850.6    402.4   0.105024643   1.39133  -0.55441   1.03921   0.06325
  12   24905.0    401.5   0.011495770   0.15196  -0.00551  -0.38355   0.06942
  13   25277.3    395.6   0.048762713   0.63509   0.17326   0.74483   0.22426
  14   25412.9    393.5   0.089178765   1.15527  -0.04411   0.76763   0.75104
  15   25574.5    391.0   0.054239120   0.69820   0.60096   0.04111   0.57910
  16   26140.7    382.5   0.136406427   1.71788   0.38573   0.78654   0.97490
  17   26195.8    381.7   0.157231448   1.97599  -0.84628  -0.87293  -0.70555
  18   26220.4    381.4   0.034351717   0.43131   0.34752   0.52154   0.19628
  19   26391.6    378.9   0.062119796   0.77489  -0.43133   0.74455   0.18570
  20   26459.2    377.9   0.013041399   0.16226  -0.05969  -0.36165  -0.16706
  21   26670.8    374.9   0.040143993   0.49552  -0.46490   0.40086   0.34453
  22   27275.7    366.6   0.060760712   0.73337  -0.69278   0.03852  -0.50194
  23   27761.3    360.2   0.049564590   0.58777   0.07387  -0.74306  -0.17373
  24   27962.2    357.6   0.174482074   2.05426  -1.03665   0.60193  -0.78568
  25   29044.8    344.3   0.074269942   0.84182   0.61691   0.49915   0.46054
  26   29708.3    336.6   0.008737557   0.09683   0.00375  -0.28357  -0.12806
  27   29764.2    336.0   0.079662882   0.88112   0.25903   0.81386   0.38944
  28   29817.1    335.4   0.106940685   1.18074  -1.01630   0.33205   0.19396
  29   29900.2    334.4   0.005271448   0.05804   0.06463  -0.20612  -0.10666
  30   30069.1    332.6   0.044930725   0.49193  -0.37212   0.20840  -0.55680
  31   30143.3    331.7   0.555867505   6.07095   1.04301  -0.49813   2.17599
  32   30518.4    327.7   0.042409152   0.45748   0.52954  -0.01589   0.42050
  33   30754.5    325.2   0.063563574   0.68042  -0.38624   0.09563  -0.72256
  34   30909.4    323.5   0.004658129   0.04961  -0.22138  -0.01672   0.01802
  35   31423.8    318.2   0.012999010   0.13618  -0.09248  -0.32375  -0.15105
  36   31685.7    315.6   0.000392428   0.00408   0.01118  -0.00848  -0.06229
  37   31697.8    315.5   0.001425366   0.01480   0.00424  -0.10910  -0.05369
  38   31839.6    314.1   0.027589653   0.28527   0.09262  -0.51143  -0.12299
  39   31973.8    312.8   0.047486585   0.48894   0.56227  -0.35603   0.21455
  40   32246.2    310.1   0.007675735   0.07836  -0.21492   0.08746  -0.15661
  41   32499.9    307.7   0.130352932   1.32043   0.25256   0.80077   0.78448
  42   32545.7    307.3   0.014910903   0.15083   0.28833  -0.25991  -0.01188
  43   32725.2    305.6   0.161051732   1.62017  -0.90606  -0.52462  -0.72387
  44   32855.0    304.4   0.105808117   1.06021   0.70848   0.45966   0.58904
  45   32930.0    303.7   0.319582893   3.19497  -0.57461   0.62325  -1.57364
  46   33188.6    301.3   0.402615554   3.99371   1.44885   0.02659   1.37617
  47   33340.1    299.9   0.048012855   0.47410   0.24311   0.46534   0.44548
  48   33519.0    298.3   0.017526217   0.17214  -0.30542  -0.10653  -0.25982
  49   33849.0    295.4   0.007423889   0.07220   0.19561  -0.12386  -0.13638
  50   34137.7    292.9   0.001657980   0.01599  -0.11677   0.00086  -0.04852
  51   34349.3    291.1   0.021282687   0.20398  -0.14766  -0.41793  -0.08667
  52   34373.5    290.9   0.008665479   0.08299  -0.12875  -0.24330  -0.08497
  53   34651.4    288.6   0.011806306   0.11217   0.11348   0.24048   0.20362
  54   34923.9    286.3   0.334971325   3.15762  -1.34994   1.00943   0.56244
  55   35169.3    284.3   0.006760182   0.06328   0.08044   0.19127   0.14221
  56   35337.2    283.0   0.233005957   2.17076   0.80058   0.73263   0.99653
  57   35403.5    282.5   0.043569792   0.40515  -0.34813   0.36868  -0.38474
  58   35688.7    280.2   0.265855245   2.45240  -1.04018   1.17065  -0.00248
  59   35878.7    278.7   0.061005425   0.55977  -0.16018  -0.52848  -0.50479
  60   35939.8    278.2   0.003672673   0.03364   0.04249   0.12900  -0.12327
  61   36047.7    277.4   0.123567932   1.12850   0.82873  -0.55771   0.36147
  62   36140.5    276.7   0.012750304   0.11615   0.00372   0.32951  -0.08693
  63   36191.0    276.3   0.013163902   0.11975   0.08707  -0.33309  -0.03483
  64   36365.1    275.0   0.012670151   0.11470  -0.19983   0.22337  -0.15772
  65   36443.8    274.4   0.004223421   0.03815  -0.11827   0.13107   0.08358
  66   36668.8    272.7   0.100962534   0.90644  -0.23733  -0.64080  -0.66294
  67   36926.5    270.8   0.056424309   0.50304   0.45058  -0.07981   0.54189
  68   37098.8    269.6   0.011257114   0.09989   0.21788  -0.21555   0.07720
  69   37309.9    268.0   0.048779223   0.43041  -0.58346   0.12352  -0.27338
  70   37360.1    267.7   0.130854046   1.15307  -0.02044   1.04976   0.22505
  71   37619.9    265.8   0.061453175   0.53778   0.07333   0.51259   0.51928
  72   37691.0    265.3   0.059308250   0.51803  -0.47662   0.01270  -0.53916
  73   37793.3    264.6   0.297147289   2.58841   0.73248   0.67689   1.26242
  74   38096.7    262.5   0.304646485   2.63259  -0.00465   1.51858  -0.57139
  75   38174.8    262.0   0.151588936   1.30727   0.55632   0.14007   0.98902
  76   38220.6    261.6   0.016573068   0.14275   0.17651  -0.23294   0.23944
  77   38506.9    259.7   0.074710309   0.63873   0.56919   0.34402   0.44317
  78   38737.8    258.1   0.070544443   0.59952   0.60139   0.02160   0.48722
  79   38843.4    257.4   0.075794607   0.64239  -0.63227   0.20510  -0.44783
  80   38923.8    256.9   0.019738307   0.16694   0.38535   0.00736   0.13563
  81   39052.4    256.1   0.007580132   0.06390   0.22665   0.00958   0.11153
  82   39245.1    254.8   0.001652292   0.01386   0.01776   0.10485  -0.05050
  83   39330.7    254.3   0.077211896   0.64629   0.37893  -0.43652   0.55871
  84   39530.2    253.0   0.047102610   0.39228  -0.06071  -0.50714  -0.36249
  85   39684.9    252.0   0.045762044   0.37963   0.42801  -0.42856  -0.11301
  86   39803.9    251.2   0.124488067   1.02962  -0.96647   0.20884  -0.22790
  87   39842.2    251.0   0.153519468   1.26852  -1.07955   0.32012  -0.02472
  88   39938.3    250.4   0.011567490   0.09535  -0.23038   0.19871  -0.05284
  89   40166.9    249.0   0.075844322   0.62163   0.19337  -0.75865  -0.09321
  90   40234.8    248.5   0.066264661   0.54219  -0.37427  -0.51177  -0.37445

FINAL SINGLE POINT ENERGY     -3461.832266869840

DIPOLE MOMENT
-------------
                                X             Y             Z
Electronic contribution:     -9.02739      -1.07971     -22.17017
Nuclear contribution   :      6.02104      -0.76148      22.38262
                        -----------------------------------------
Total Dipole Moment    :     -3.00635      -1.84119       0.21245
                        -----------------------------------------
Magnitude (a.u.)       :      3.53175
Magnitude (Debye)      :      8.97700

Rotational constants in cm-1:     0.001330     0.000410     0.000330
Rotational constants in MHz :    39.886033    12.291905     9.889476

                             ****ORCA TERMINATED NORMALLY****
TOTAL RUN TIME: 0 days 0 hours 12 minutes 31 seconds 992 msec
