                         Program Version 4.2.0 -  RELEASE  -
|  1> # ORCA input file
|  2> # SCF done       -209.157423209597          0.000412903399
|  3> ! CAM-B3LYP def2-SVP def2/J RIJCOSX Grid4 TightSCF
|  4> %maxcore 5000
|  5> %tddft
|  6>     Mode sTDDFT
|  7>     Ethresh 5.0
|  8>     maxcore 5000
|  9> end
| 10>
| 11> %pal
| 12>   nprocs 6
| 13>   end
| 14> * xyz 0 1
| 15>    C        5.44634        -1.03771         1.47637
| 16>    C        6.05373        -1.47531         2.64430
| 17>    C        5.53663        -2.54221         3.36408
| 18>    C        4.38959        -3.19725         2.94096
| 19>    C        3.77455        -2.76820         1.77704
| 20>    C        4.30546        -1.68914         1.03578
| 21>    C        3.47819        -1.47770        -0.14675
| 22>    C        3.63482        -0.46351        -1.05665
| 23>    C        4.61956         0.54170        -0.95920
| 24>    N        5.39122         1.39202        -0.94622
| 25>    C        2.83547        -0.24209        -2.19701
| 26>    N        2.23824         0.01017        -3.14554
| 27>    C        2.49649        -2.55132        -0.17174
| 28>    C        2.56339        -3.22681         1.11268
| 29>    C        1.55289        -3.93402         1.71363
| 30>    C        0.26542        -4.09532         1.16375
| 31>    N       -0.81457        -4.21150         0.79192
| 32>    C        1.64729        -4.50560         2.99785
| 33>    N        1.67492        -5.01385         4.02717
| 34>    C        1.73332        -2.87136        -1.26943
| 35>    C        1.11244        -4.09257        -1.57861
| 36>    S       -0.08510        -4.12360        -2.85194
| 37>    C       -0.26748        -5.83871        -2.70973
| 38>    C        0.59147        -6.35048        -1.74416
| 39>    C        1.34832        -5.38271        -1.11163
| 40>    C       -1.19334        -6.54759        -3.50611
| 41>    C       -2.05642        -6.04121        -4.46067
| 42>    C       -2.84582        -7.01021        -5.06582
| 43>    C       -2.60854        -8.29008        -4.59184
| 44>    S       -1.37719        -8.27634        -3.36590
| 45>    C       -3.24036        -9.49146        -5.00004
| 46>    S       -2.80592       -11.03598        -4.32051
| 47>    C       -3.97301       -11.86307        -5.30934
| 48>    C       -4.64815       -10.96471        -6.11289
| 49>    C       -4.24029        -9.64485        -5.94104
| 50>    C       -4.10834       -13.27707        -5.20403
| 51>    C       -4.99326       -14.00898        -5.91197
| 52>    N       -5.08450       -15.36505        -5.83641
| 53>    C       -6.07040       -16.13519        -6.42695
| 54>    C       -7.25407       -15.68592        -6.93662
| 55>    S       -8.21006       -16.95968        -7.57963
| 56>    C       -7.01329       -18.12101        -7.17600
| 57>    C       -5.92844       -17.55921        -6.56930
| 58>    N       -4.76639       -18.20758        -6.16571
| 59>    C       -4.63399       -19.53268        -5.84312
| 60>    C       -5.63315       -20.35277        -5.46307
| 61>    C       -5.47135       -21.73570        -5.15830
| 62>    S       -6.85331       -22.64321        -4.62068
| 63>    C       -5.92315       -24.11262        -4.52923
| 64>    C       -4.61297       -23.87713        -4.89631
| 65>    C       -4.36119       -22.55194        -5.24649
| 66>    C       -6.52090       -25.34015        -4.14335
| 67>    C       -5.94308       -26.59765        -4.12121
| 68>    C       -6.81584       -27.60114        -3.71610
| 69>    C       -8.08429       -27.14013        -3.41102
| 70>    S       -8.18071       -25.41551        -3.63792
| 71>    C       -9.20633       -27.88763        -2.97887
| 72>    S      -10.68911       -27.11018        -2.52872
| 73>    C      -11.44418       -28.64562        -2.17708
| 74>    C      -10.55410       -29.68614        -2.41463
| 75>    C       -9.30995       -29.26776        -2.85536
| 76>    C      -12.77179       -28.74630        -1.73084
| 77>    C      -13.59287       -27.67784        -1.50310
| 78>    C      -14.90983       -27.82571        -1.04686
| 79>    C      -15.82924       -26.81904        -0.86423
| 80>    C      -17.00624       -26.91828        -0.01763
| 81>    C      -17.61049       -28.06206         0.43811
| 82>    C      -17.21317       -29.37721         0.12143
| 83>    N      -16.95404       -30.47549        -0.09432
| 84>    C      -18.75300       -28.07909         1.26424
| 85>    N      -19.67942       -28.16916         1.93673
| 86>    C      -17.43540       -25.55428         0.26871
| 87>    C      -16.64003       -24.65944        -0.48202
| 88>    C      -16.82367       -23.29154        -0.37344
| 89>    C      -17.80483       -22.82083         0.48695
| 90>    C      -18.59346       -23.69772         1.21680
| 91>    C      -18.41939       -25.07033         1.11540
| 92>    C      -15.72993       -25.44005        -1.30912
| 93>    C      -15.09356       -24.98680        -2.43682
| 94>    C      -15.05310       -23.63236        -2.82493
| 95>    N      -14.96322       -22.54376        -3.17917
| 96>    C      -14.51485       -25.82212        -3.41602
| 97>    N      -14.08741       -26.44987        -4.27705
| 98>    H        5.86567        -0.20936         0.92989
| 99>    H        6.94508        -0.97687         2.99363
|100>    H        6.03130        -2.86979         4.26571
|101>    H        3.99953        -4.02862         3.50551
|102>    H        1.64686        -2.11920        -2.04244
|103>    H        0.64196        -7.40174        -1.52175
|104>    H        2.08918        -5.60653        -0.36423
|105>    H       -2.09813        -4.99242        -4.69635
|106>    H       -3.57115        -6.79600        -5.82877
|107>    H       -5.41507       -11.25631        -6.80681
|108>    H       -4.66081        -8.81878        -6.48505
|109>    H       -3.44869       -13.77017        -4.50259
|110>    H       -5.66742       -13.54738        -6.61498
|111>    H       -4.46227       -15.83525        -5.19344
|112>    H       -7.63643       -14.68663        -6.95323
|113>    H       -7.16623       -19.14696        -7.43852
|114>    H       -3.91210       -17.69254        -6.31733
|115>    H       -3.61403       -19.88889        -5.87210
|116>    H       -6.63586       -19.96457        -5.36886
|117>    H       -3.86310       -24.64727        -4.90908
|118>    H       -3.39591       -22.20162        -5.56398
|119>    H       -4.92059       -26.77533        -4.39980
|120>    H       -6.53681       -28.63641        -3.64191
|121>    H      -10.82389       -30.71662        -2.26542
|122>    H       -8.50186       -29.93528        -3.09232
|123>    H      -13.15682       -29.74824        -1.58795
|124>    H      -13.18687       -26.68590        -1.64695
|125>    H      -15.19028       -28.82160        -0.73191
|126>    H      -16.21395       -22.59976        -0.93169
|127>    H      -17.95362       -21.75654         0.58820
|128>    H      -19.35318       -23.30967         1.87808
|129>    H      -19.03899       -25.73637         1.69296
|130> *
|131>
|132>                          ****END OF INPUT****

CARTESIAN COORDINATES (ANGSTROEM)
---------------------------------
  C      5.446340   -1.037710    1.476370
  C      6.053730   -1.475310    2.644300
  C      5.536630   -2.542210    3.364080
  C      4.389590   -3.197250    2.940960
  C      3.774550   -2.768200    1.777040
  C      4.305460   -1.689140    1.035780
  C      3.478190   -1.477700   -0.146750
  C      3.634820   -0.463510   -1.056650
  C      4.619560    0.541700   -0.959200
  N      5.391220    1.392020   -0.946220
  C      2.835470   -0.242090   -2.197010
  N      2.238240    0.010170   -3.145540
  C      2.496490   -2.551320   -0.171740
  C      2.563390   -3.226810    1.112680
  C      1.552890   -3.934020    1.713630
  C      0.265420   -4.095320    1.163750
  N     -0.814570   -4.211500    0.791920
  C      1.647290   -4.505600    2.997850
  N      1.674920   -5.013850    4.027170
  C      1.733320   -2.871360   -1.269430
  C      1.112440   -4.092570   -1.578610
  S     -0.085100   -4.123600   -2.851940
  C     -0.267480   -5.838710   -2.709730
  C      0.591470   -6.350480   -1.744160
  C      1.348320   -5.382710   -1.111630
  C     -1.193340   -6.547590   -3.506110
  C     -2.056420   -6.041210   -4.460670
  C     -2.845820   -7.010210   -5.065820
  C     -2.608540   -8.290080   -4.591840
  S     -1.377190   -8.276340   -3.365900
  C     -3.240360   -9.491460   -5.000040
  S     -2.805920  -11.035980   -4.320510
  C     -3.973010  -11.863070   -5.309340
  C     -4.648150  -10.964710   -6.112890
  C     -4.240290   -9.644850   -5.941040
  C     -4.108340  -13.277070   -5.204030
  C     -4.993260  -14.008980   -5.911970
  N     -5.084500  -15.365050   -5.836410
  C     -6.070400  -16.135190   -6.426950
  C     -7.254070  -15.685920   -6.936620
  S     -8.210060  -16.959680   -7.579630
  C     -7.013290  -18.121010   -7.176000
  C     -5.928440  -17.559210   -6.569300
  N     -4.766390  -18.207580   -6.165710
  C     -4.633990  -19.532680   -5.843120
  C     -5.633150  -20.352770   -5.463070
  C     -5.471350  -21.735700   -5.158300
  S     -6.853310  -22.643210   -4.620680
  C     -5.923150  -24.112620   -4.529230
  C     -4.612970  -23.877130   -4.896310
  C     -4.361190  -22.551940   -5.246490
  C     -6.520900  -25.340150   -4.143350
  C     -5.943080  -26.597650   -4.121210
  C     -6.815840  -27.601140   -3.716100
  C     -8.084290  -27.140130   -3.411020
  S     -8.180710  -25.415510   -3.637920
  C     -9.206330  -27.887630   -2.978870
  S    -10.689110  -27.110180   -2.528720
  C    -11.444180  -28.645620   -2.177080
  C    -10.554100  -29.686140   -2.414630
  C     -9.309950  -29.267760   -2.855360
  C    -12.771790  -28.746300   -1.730840
  C    -13.592870  -27.677840   -1.503100
  C    -14.909830  -27.825710   -1.046860
  C    -15.829240  -26.819040   -0.864230
  C    -17.006240  -26.918280   -0.017630
  C    -17.610490  -28.062060    0.438110
  C    -17.213170  -29.377210    0.121430
  N    -16.954040  -30.475490   -0.094320
  C    -18.753000  -28.079090    1.264240
  N    -19.679420  -28.169160    1.936730
  C    -17.435400  -25.554280    0.268710
  C    -16.640030  -24.659440   -0.482020
  C    -16.823670  -23.291540   -0.373440
  C    -17.804830  -22.820830    0.486950
  C    -18.593460  -23.697720    1.216800
  C    -18.419390  -25.070330    1.115400
  C    -15.729930  -25.440050   -1.309120
  C    -15.093560  -24.986800   -2.436820
  C    -15.053100  -23.632360   -2.824930
  N    -14.963220  -22.543760   -3.179170
  C    -14.514850  -25.822120   -3.416020
  N    -14.087410  -26.449870   -4.277050
  H      5.865670   -0.209360    0.929890
  H      6.945080   -0.976870    2.993630
  H      6.031300   -2.869790    4.265710
  H      3.999530   -4.028620    3.505510
  H      1.646860   -2.119200   -2.042440
  H      0.641960   -7.401740   -1.521750
  H      2.089180   -5.606530   -0.364230
  H     -2.098130   -4.992420   -4.696350
  H     -3.571150   -6.796000   -5.828770
  H     -5.415070  -11.256310   -6.806810
  H     -4.660810   -8.818780   -6.485050
  H     -3.448690  -13.770170   -4.502590
  H     -5.667420  -13.547380   -6.614980
  H     -4.462270  -15.835250   -5.193440
  H     -7.636430  -14.686630   -6.953230
  H     -7.166230  -19.146960   -7.438520
  H     -3.912100  -17.692540   -6.317330
  H     -3.614030  -19.888890   -5.872100
  H     -6.635860  -19.964570   -5.368860
  H     -3.863100  -24.647270   -4.909080
  H     -3.395910  -22.201620   -5.563980
  H     -4.920590  -26.775330   -4.399800
  H     -6.536810  -28.636410   -3.641910
  H    -10.823890  -30.716620   -2.265420
  H     -8.501860  -29.935280   -3.092320
  H    -13.156820  -29.748240   -1.587950
  H    -13.186870  -26.685900   -1.646950
  H    -15.190280  -28.821600   -0.731910
  H    -16.213950  -22.599760   -0.931690
  H    -17.953620  -21.756540    0.588200
  H    -19.353180  -23.309670    1.878080
  H    -19.038990  -25.736370    1.692960

 Total Charge           Charge          ....    0
 Multiplicity           Mult            ....    1
 Number of Electrons    NEL             ....  610
 Basis Dimension        Dim             .... 1350

ORBITAL ENERGIES
----------------

  NO   OCC          E(Eh)            E(eV)
   0   2.0000     -88.972803     -2421.0731
   1   2.0000     -88.969611     -2420.9862
   2   2.0000     -88.969510     -2420.9835
   3   2.0000     -88.966548     -2420.9028
   4   2.0000     -88.962174     -2420.7838
   5   2.0000     -88.961664     -2420.7700
   6   2.0000     -88.958689     -2420.6890
   7   2.0000     -14.467253      -393.6740
   8   2.0000     -14.464877      -393.6093
   9   2.0000     -14.417561      -392.3218
  10   2.0000     -14.416701      -392.2984
  11   2.0000     -14.415134      -392.2557
  12   2.0000     -14.415063      -392.2538
  13   2.0000     -14.414522      -392.2391
  14   2.0000     -14.413583      -392.2135
  15   2.0000     -14.411866      -392.1668
  16   2.0000     -14.411485      -392.1564
  17   2.0000     -10.344586      -281.4905
  18   2.0000     -10.343076      -281.4494
  19   2.0000     -10.342977      -281.4467
  20   2.0000     -10.342421      -281.4316
  21   2.0000     -10.342119      -281.4234
  22   2.0000     -10.340501      -281.3793
  23   2.0000     -10.339495      -281.3520
  24   2.0000     -10.338815      -281.3335
  25   2.0000     -10.333326      -281.1841
  26   2.0000     -10.333085      -281.1775
  27   2.0000     -10.330730      -281.1135
  28   2.0000     -10.330665      -281.1117
  29   2.0000     -10.329820      -281.0887
  30   2.0000     -10.328872      -281.0629
  31   2.0000     -10.326082      -280.9870
  32   2.0000     -10.322864      -280.8994
  33   2.0000     -10.320121      -280.8248
  34   2.0000     -10.319771      -280.8152
  35   2.0000     -10.319535      -280.8088
  36   2.0000     -10.317946      -280.7656
  37   2.0000     -10.317858      -280.7632
  38   2.0000     -10.317244      -280.7465
  39   2.0000     -10.316874      -280.7364
  40   2.0000     -10.316408      -280.7237
  41   2.0000     -10.315677      -280.7038
  42   2.0000     -10.315251      -280.6923
  43   2.0000     -10.315060      -280.6871
  44   2.0000     -10.314375      -280.6684
  45   2.0000     -10.314193      -280.6635
  46   2.0000     -10.313964      -280.6572
  47   2.0000     -10.313184      -280.6360
  48   2.0000     -10.312496      -280.6173
  49   2.0000     -10.310401      -280.5603
  50   2.0000     -10.309591      -280.5382
  51   2.0000     -10.308649      -280.5126
  52   2.0000     -10.307938      -280.4933
  53   2.0000     -10.307621      -280.4846
  54   2.0000     -10.306504      -280.4542
  55   2.0000     -10.305248      -280.4201
  56   2.0000     -10.304922      -280.4112
  57   2.0000     -10.304747      -280.4064
  58   2.0000     -10.302289      -280.3395
  59   2.0000     -10.298466      -280.2355
  60   2.0000     -10.297380      -280.2060
  61   2.0000     -10.297003      -280.1957
  62   2.0000     -10.296760      -280.1891
  63   2.0000     -10.296156      -280.1726
  64   2.0000     -10.295794      -280.1628
  65   2.0000     -10.294833      -280.1366
  66   2.0000     -10.294226      -280.1201
  67   2.0000     -10.293951      -280.1126
  68   2.0000     -10.293377      -280.0970
  69   2.0000     -10.292451      -280.0718
  70   2.0000     -10.291323      -280.0411
  71   2.0000     -10.290677      -280.0236
  72   2.0000     -10.289704      -279.9971
  73   2.0000     -10.289671      -279.9962
  74   2.0000     -10.287535      -279.9381
  75   2.0000     -10.283963      -279.8409
  76   2.0000     -10.283504      -279.8284
  77   2.0000     -10.282191      -279.7926
  78   2.0000     -10.281895      -279.7846
  79   2.0000     -10.281757      -279.7808
  80   2.0000     -10.276323      -279.6330
  81   2.0000     -10.275581      -279.6128
  82   2.0000     -10.273840      -279.5654
  83   2.0000      -8.068393      -219.5521
  84   2.0000      -8.065237      -219.4663
  85   2.0000      -8.065038      -219.4609
  86   2.0000      -8.062466      -219.3908
  87   2.0000      -8.057994      -219.2692
  88   2.0000      -8.057626      -219.2592
  89   2.0000      -8.054681      -219.1790
  90   2.0000      -6.037674      -164.2935
  91   2.0000      -6.034474      -164.2064
  92   2.0000      -6.034402      -164.2044
  93   2.0000      -6.033597      -164.1825
  94   2.0000      -6.031814      -164.1340
  95   2.0000      -6.030452      -164.0969
  96   2.0000      -6.030412      -164.0958
  97   2.0000      -6.030309      -164.0931
  98   2.0000      -6.027644      -164.0205
  99   2.0000      -6.027313      -164.0115
 100   2.0000      -6.027298      -164.0111
 101   2.0000      -6.027120      -164.0063
 102   2.0000      -6.026987      -164.0027
 103   2.0000      -6.024415      -163.9327
 104   2.0000      -6.023927      -163.9194
 105   2.0000      -6.023234      -163.9005
 106   2.0000      -6.022738      -163.8870
 107   2.0000      -6.020017      -163.8130
 108   2.0000      -6.019910      -163.8101
 109   2.0000      -6.019548      -163.8002
 110   2.0000      -6.016709      -163.7230
 111   2.0000      -1.080056       -29.3898
 112   2.0000      -1.052048       -28.6277
 113   2.0000      -1.031497       -28.0685
 114   2.0000      -1.027792       -27.9676
 115   2.0000      -1.013995       -27.5922
 116   2.0000      -1.011574       -27.5263
 117   2.0000      -1.010735       -27.5035
 118   2.0000      -1.009984       -27.4831
 119   2.0000      -1.002721       -27.2854
 120   2.0000      -1.000111       -27.2144
 121   2.0000      -0.998391       -27.1676
 122   2.0000      -0.994945       -27.0738
 123   2.0000      -0.993725       -27.0406
 124   2.0000      -0.992934       -27.0191
 125   2.0000      -0.991820       -26.9888
 126   2.0000      -0.991222       -26.9725
 127   2.0000      -0.980213       -26.6730
 128   2.0000      -0.977451       -26.5978
 129   2.0000      -0.975474       -26.5440
 130   2.0000      -0.954168       -25.9642
 131   2.0000      -0.953354       -25.9421
 132   2.0000      -0.934632       -25.4326
 133   2.0000      -0.931954       -25.3598
 134   2.0000      -0.924721       -25.1629
 135   2.0000      -0.908082       -24.7102
 136   2.0000      -0.898105       -24.4387
 137   2.0000      -0.893981       -24.3265
 138   2.0000      -0.888515       -24.1777
 139   2.0000      -0.887068       -24.1383
 140   2.0000      -0.878877       -23.9155
 141   2.0000      -0.868301       -23.6277
 142   2.0000      -0.861782       -23.4503
 143   2.0000      -0.859339       -23.3838
 144   2.0000      -0.858711       -23.3667
 145   2.0000      -0.854242       -23.2451
 146   2.0000      -0.853195       -23.2166
 147   2.0000      -0.846530       -23.0353
 148   2.0000      -0.842022       -22.9126
 149   2.0000      -0.836678       -22.7672
 150   2.0000      -0.831128       -22.6161
 151   2.0000      -0.827889       -22.5280
 152   2.0000      -0.825681       -22.4679
 153   2.0000      -0.816880       -22.2284
 154   2.0000      -0.813882       -22.1468
 155   2.0000      -0.791637       -21.5415
 156   2.0000      -0.789307       -21.4781
 157   2.0000      -0.786702       -21.4073
 158   2.0000      -0.783841       -21.3294
 159   2.0000      -0.767496       -20.8846
 160   2.0000      -0.765051       -20.8181
 161   2.0000      -0.737618       -20.0716
 162   2.0000      -0.730274       -19.8718
 163   2.0000      -0.716757       -19.5040
 164   2.0000      -0.715490       -19.4695
 165   2.0000      -0.711444       -19.3594
 166   2.0000      -0.709432       -19.3046
 167   2.0000      -0.705974       -19.2105
 168   2.0000      -0.705008       -19.1842
 169   2.0000      -0.700653       -19.0657
 170   2.0000      -0.691935       -18.8285
 171   2.0000      -0.687137       -18.6980
 172   2.0000      -0.680642       -18.5212
 173   2.0000      -0.678336       -18.4585
 174   2.0000      -0.672351       -18.2956
 175   2.0000      -0.668405       -18.1882
 176   2.0000      -0.663002       -18.0412
 177   2.0000      -0.660659       -17.9775
 178   2.0000      -0.659615       -17.9490
 179   2.0000      -0.658209       -17.9108
 180   2.0000      -0.653629       -17.7861
 181   2.0000      -0.648563       -17.6483
 182   2.0000      -0.644334       -17.5332
 183   2.0000      -0.638711       -17.3802
 184   2.0000      -0.633119       -17.2280
 185   2.0000      -0.630008       -17.1434
 186   2.0000      -0.628646       -17.1063
 187   2.0000      -0.625406       -17.0182
 188   2.0000      -0.622397       -16.9363
 189   2.0000      -0.616955       -16.7882
 190   2.0000      -0.612414       -16.6646
 191   2.0000      -0.611902       -16.6507
 192   2.0000      -0.607424       -16.5289
 193   2.0000      -0.596937       -16.2435
 194   2.0000      -0.589306       -16.0358
 195   2.0000      -0.584003       -15.8915
 196   2.0000      -0.581820       -15.8321
 197   2.0000      -0.580908       -15.8073
 198   2.0000      -0.578374       -15.7384
 199   2.0000      -0.574092       -15.6218
 200   2.0000      -0.571293       -15.5457
 201   2.0000      -0.563197       -15.3254
 202   2.0000      -0.553927       -15.0731
 203   2.0000      -0.547176       -14.8894
 204   2.0000      -0.544972       -14.8294
 205   2.0000      -0.542380       -14.7589
 206   2.0000      -0.537783       -14.6338
 207   2.0000      -0.535886       -14.5822
 208   2.0000      -0.533829       -14.5262
 209   2.0000      -0.532421       -14.4879
 210   2.0000      -0.531557       -14.4644
 211   2.0000      -0.530909       -14.4468
 212   2.0000      -0.523780       -14.2528
 213   2.0000      -0.518928       -14.1207
 214   2.0000      -0.517943       -14.0940
 215   2.0000      -0.516299       -14.0492
 216   2.0000      -0.515622       -14.0308
 217   2.0000      -0.512189       -13.9374
 218   2.0000      -0.511036       -13.9060
 219   2.0000      -0.509825       -13.8730
 220   2.0000      -0.507660       -13.8141
 221   2.0000      -0.506107       -13.7719
 222   2.0000      -0.502947       -13.6859
 223   2.0000      -0.501859       -13.6563
 224   2.0000      -0.500613       -13.6224
 225   2.0000      -0.499774       -13.5995
 226   2.0000      -0.499318       -13.5871
 227   2.0000      -0.495301       -13.4778
 228   2.0000      -0.493234       -13.4216
 229   2.0000      -0.492039       -13.3891
 230   2.0000      -0.488079       -13.2813
 231   2.0000      -0.485014       -13.1979
 232   2.0000      -0.483825       -13.1655
 233   2.0000      -0.482993       -13.1429
 234   2.0000      -0.478851       -13.0302
 235   2.0000      -0.477904       -13.0044
 236   2.0000      -0.476381       -12.9630
 237   2.0000      -0.472107       -12.8467
 238   2.0000      -0.471203       -12.8221
 239   2.0000      -0.469817       -12.7844
 240   2.0000      -0.464762       -12.6468
 241   2.0000      -0.462182       -12.5766
 242   2.0000      -0.461801       -12.5662
 243   2.0000      -0.459683       -12.5086
 244   2.0000      -0.457775       -12.4567
 245   2.0000      -0.455317       -12.3898
 246   2.0000      -0.454697       -12.3729
 247   2.0000      -0.452339       -12.3088
 248   2.0000      -0.449849       -12.2410
 249   2.0000      -0.449521       -12.2321
 250   2.0000      -0.448481       -12.2038
 251   2.0000      -0.448127       -12.1942
 252   2.0000      -0.446365       -12.1462
 253   2.0000      -0.445730       -12.1289
 254   2.0000      -0.443558       -12.0698
 255   2.0000      -0.443310       -12.0631
 256   2.0000      -0.443017       -12.0551
 257   2.0000      -0.442243       -12.0341
 258   2.0000      -0.441223       -12.0063
 259   2.0000      -0.440973       -11.9995
 260   2.0000      -0.439555       -11.9609
 261   2.0000      -0.439160       -11.9501
 262   2.0000      -0.435956       -11.8630
 263   2.0000      -0.433727       -11.8023
 264   2.0000      -0.429652       -11.6914
 265   2.0000      -0.427297       -11.6273
 266   2.0000      -0.426949       -11.6179
 267   2.0000      -0.425962       -11.5910
 268   2.0000      -0.425604       -11.5813
 269   2.0000      -0.425476       -11.5778
 270   2.0000      -0.424387       -11.5482
 271   2.0000      -0.422802       -11.5050
 272   2.0000      -0.420348       -11.4383
 273   2.0000      -0.418857       -11.3977
 274   2.0000      -0.414881       -11.2895
 275   2.0000      -0.410344       -11.1660
 276   2.0000      -0.409790       -11.1509
 277   2.0000      -0.408514       -11.1162
 278   2.0000      -0.406388       -11.0584
 279   2.0000      -0.405558       -11.0358
 280   2.0000      -0.403223       -10.9723
 281   2.0000      -0.393390       -10.7047
 282   2.0000      -0.382692       -10.4136
 283   2.0000      -0.380867       -10.3639
 284   2.0000      -0.378046       -10.2872
 285   2.0000      -0.370562       -10.0835
 286   2.0000      -0.357208        -9.7201
 287   2.0000      -0.344623        -9.3777
 288   2.0000      -0.343265        -9.3407
 289   2.0000      -0.339939        -9.2502
 290   2.0000      -0.337062        -9.1719
 291   2.0000      -0.335425        -9.1274
 292   2.0000      -0.329856        -8.9758
 293   2.0000      -0.329318        -8.9612
 294   2.0000      -0.328437        -8.9372
 295   2.0000      -0.327213        -8.9039
 296   2.0000      -0.325560        -8.8589
 297   2.0000      -0.315539        -8.5862
 298   2.0000      -0.310331        -8.4445
 299   2.0000      -0.298520        -8.1231
 300   2.0000      -0.293245        -7.9796
 301   2.0000      -0.270307        -7.3554
 302   2.0000      -0.263107        -7.1595
 303   2.0000      -0.234507        -6.3813
 304   2.0000      -0.229254        -6.2383
 305   0.0000      -0.099481        -2.7070
 306   0.0000      -0.099275        -2.7014
 307   0.0000      -0.083601        -2.2749
 308   0.0000      -0.080739        -2.1970
 309   0.0000      -0.047846        -1.3020

MULLIKEN ATOMIC CHARGES
-----------------------
   0 C :   -0.036092
   1 C :    0.046446
   2 C :    0.047650
   3 C :   -0.036198
   4 C :    0.000910
   5 C :    0.012844
   6 C :    0.306116
   7 C :   -0.353797
   8 C :   -0.190075
   9 N :    0.157302
  10 C :   -0.180755
  11 N :    0.146199
  12 C :   -0.079848
  13 C :    0.235709
  14 C :   -0.348030
  15 C :   -0.208006
  16 N :    0.183906
  17 C :   -0.179789
  18 N :    0.158382
  19 C :    0.094059
  20 C :   -0.147000
  21 S :    0.166708
  22 C :   -0.008621
  23 C :   -0.029728
  24 C :    0.077168
  25 C :   -0.049172
  26 C :    0.009104
  27 C :   -0.007631
  28 C :   -0.016001
  29 S :    0.131964
  30 C :   -0.061533
  31 S :    0.117703
  32 C :   -0.069632
  33 C :   -0.005012
  34 C :    0.007778
  35 C :    0.028378
  36 C :    0.067388
  37 N :   -0.060651
  38 C :    0.133481
  39 C :   -0.219375
  40 S :    0.128379
  41 C :   -0.184827
  42 C :    0.121902
  43 N :   -0.083468
  44 C :    0.050445
  45 C :    0.011398
  46 C :   -0.069719
  47 S :    0.121723
  48 C :   -0.058688
  49 C :    0.002155
  50 C :   -0.003412
  51 C :   -0.019265
  52 C :   -0.006496
  53 C :    0.011939
  54 C :   -0.053259
  55 S :    0.137004
  56 C :   -0.018940
  57 S :    0.140528
  58 C :   -0.051318
  59 C :    0.041384
  60 C :   -0.002100
  61 C :    0.049627
  62 C :   -0.028737
  63 C :    0.035769
  64 C :   -0.068620
  65 C :    0.305912
  66 C :   -0.349735
  67 C :   -0.185050
  68 N :    0.145130
  69 C :   -0.188662
  70 N :    0.153410
  71 C :    0.011121
  72 C :    0.007934
  73 C :   -0.035026
  74 C :    0.045108
  75 C :    0.045410
  76 C :   -0.034293
  77 C :    0.242739
  78 C :   -0.337411
  79 C :   -0.179640
  80 N :    0.150068
  81 C :   -0.221629
  82 N :    0.179808
  83 H :    0.004877
  84 H :    0.002036
  85 H :    0.002152
  86 H :    0.004253
  87 H :    0.015133
  88 H :   -0.001737
  89 H :    0.009121
  90 H :   -0.001112
  91 H :   -0.015532
  92 H :   -0.027508
  93 H :   -0.018859
  94 H :   -0.029180
  95 H :    0.012008
  96 H :    0.114910
  97 H :    0.015341
  98 H :    0.027714
  99 H :    0.126816
 100 H :    0.003930
 101 H :   -0.003740
 102 H :   -0.020304
 103 H :   -0.029624
 104 H :   -0.019669
 105 H :   -0.016160
 106 H :   -0.004064
 107 H :   -0.013068
 108 H :    0.014945
 109 H :    0.026045
 110 H :    0.008149
 111 H :    0.004322
 112 H :    0.002174
 113 H :    0.001488
 114 H :    0.004301
Sum of atomic charges:   -0.0000000

LOEWDIN ATOMIC CHARGES
----------------------
   0 C :    0.004024
   1 C :   -0.000286
   2 C :    0.002034
   3 C :   -0.000679
   4 C :   -0.011135
   5 C :   -0.013150
   6 C :    0.078577
   7 C :   -0.140806
   8 C :   -0.019119
   9 N :   -0.052766
  10 C :   -0.021816
  11 N :   -0.050578
  12 C :   -0.073127
  13 C :    0.065956
  14 C :   -0.139458
  15 C :   -0.020831
  16 N :   -0.039955
  17 C :   -0.021349
  18 N :   -0.051761
  19 C :    0.043221
  20 C :   -0.190320
  21 S :    0.471932
  22 C :   -0.140261
  23 C :   -0.062846
  24 C :   -0.001480
  25 C :   -0.201987
  26 C :   -0.033700
  27 C :   -0.060868
  28 C :   -0.160704
  29 S :    0.435761
  30 C :   -0.206679
  31 S :    0.421265
  32 C :   -0.148579
  33 C :   -0.078799
  34 C :   -0.037509
  35 C :   -0.121446
  36 C :    0.052243
  37 N :    0.023666
  38 C :   -0.028977
  39 C :   -0.235623
  40 S :    0.448094
  41 C :   -0.212626
  42 C :   -0.036389
  43 N :    0.010000
  44 C :    0.040296
  45 C :   -0.118762
  46 C :   -0.149667
  47 S :    0.426311
  48 C :   -0.205437
  49 C :   -0.041656
  50 C :   -0.079317
  51 C :   -0.164141
  52 C :   -0.062899
  53 C :   -0.033753
  54 C :   -0.202547
  55 S :    0.431652
  56 C :   -0.149723
  57 S :    0.449546
  58 C :   -0.184905
  59 C :   -0.014137
  60 C :   -0.063951
  61 C :    0.035189
  62 C :   -0.053887
  63 C :    0.061544
  64 C :   -0.073752
  65 C :    0.079349
  66 C :   -0.141167
  67 C :   -0.020438
  68 N :   -0.054277
  69 C :   -0.019156
  70 N :   -0.053700
  71 C :   -0.013324
  72 C :   -0.010137
  73 C :   -0.000513
  74 C :    0.001271
  75 C :   -0.001252
  76 C :    0.003634
  77 C :    0.071520
  78 C :   -0.139180
  79 C :   -0.019193
  80 N :   -0.053096
  81 C :   -0.027452
  82 N :   -0.046436
  83 H :    0.041182
  84 H :    0.036781
  85 H :    0.036639
  86 H :    0.040185
  87 H :    0.045171
  88 H :    0.031048
  89 H :    0.037010
  90 H :    0.031717
  91 H :    0.031316
  92 H :    0.025208
  93 H :    0.030204
  94 H :    0.022638
  95 H :    0.030582
  96 H :    0.080074
  97 H :    0.020797
  98 H :    0.026354
  99 H :    0.080260
 100 H :    0.026857
 101 H :    0.028584
 102 H :    0.029039
 103 H :    0.023921
 104 H :    0.030074
 105 H :    0.031689
 106 H :    0.036999
 107 H :    0.031692
 108 H :    0.046021
 109 H :    0.025489
 110 H :    0.044910
 111 H :    0.040138
 112 H :    0.036434
 113 H :    0.036457
 114 H :    0.040912

  Mayer bond orders larger than 0.100000
B(  0-C ,  1-C ) :   1.3679 B(  0-C ,  5-C ) :   1.3854 B(  0-C , 83-H ) :   0.9832
B(  1-C ,  2-C ) :   1.3806 B(  1-C , 84-H ) :   0.9860 B(  2-C ,  3-C ) :   1.3627
B(  2-C , 85-H ) :   0.9865 B(  3-C ,  4-C ) :   1.3830 B(  3-C , 86-H ) :   0.9874
B(  4-C ,  5-C ) :   1.3173 B(  4-C , 13-C ) :   1.0045 B(  5-C ,  6-C ) :   0.9903
B(  6-C ,  7-C ) :   1.6146 B(  6-C , 12-C ) :   1.0861 B(  7-C ,  8-C ) :   1.1520
B(  7-C , 10-C ) :   1.1396 B(  8-C ,  9-N ) :   2.9741 B( 10-C , 11-N ) :   2.9588
B( 12-C , 13-C ) :   1.0394 B( 12-C , 19-C ) :   1.5585 B( 13-C , 14-C ) :   1.6296
B( 14-C , 15-C ) :   1.1593 B( 14-C , 17-C ) :   1.1420 B( 15-C , 16-N ) :   3.0142
B( 17-C , 18-N ) :   2.9890 B( 19-C , 20-C ) :   1.2276 B( 19-C , 87-H ) :   0.9098
B( 20-C , 21-S ) :   1.0959 B( 20-C , 24-C ) :   1.3865 B( 21-S , 22-C ) :   1.1714
B( 22-C , 23-C ) :   1.4073 B( 22-C , 25-C ) :   1.1898 B( 23-C , 24-C ) :   1.3643
B( 23-C , 88-H ) :   0.9936 B( 24-C , 89-H ) :   0.9893 B( 25-C , 26-C ) :   1.4628
B( 25-C , 28-C ) :   0.1026 B( 25-C , 29-S ) :   1.1012 B( 26-C , 27-C ) :   1.2990
B( 26-C , 90-H ) :   0.9918 B( 27-C , 28-C ) :   1.4890 B( 27-C , 91-H ) :   0.9967
B( 28-C , 29-S ) :   1.1363 B( 28-C , 30-C ) :   1.1316 B( 30-C , 31-S ) :   1.1001
B( 30-C , 32-C ) :   0.1014 B( 30-C , 34-C ) :   1.5061 B( 31-S , 32-C ) :   1.1302
B( 32-C , 33-C ) :   1.4933 B( 32-C , 35-C ) :   1.1345 B( 33-C , 34-C ) :   1.2877
B( 33-C , 92-H ) :   0.9898 B( 34-C , 93-H ) :   0.9944 B( 35-C , 36-C ) :   1.6716
B( 35-C , 94-H ) :   0.9541 B( 36-C , 37-N ) :   1.1700 B( 36-C , 95-H ) :   0.9671
B( 37-N , 38-C ) :   1.1039 B( 37-N , 96-H ) :   0.9182 B( 38-C , 39-C ) :   1.5156
B( 38-C , 42-C ) :   1.2601 B( 39-C , 40-S ) :   1.1460 B( 39-C , 97-H ) :   0.9777
B( 40-S , 41-C ) :   1.1640 B( 41-C , 42-C ) :   1.5284 B( 41-C , 98-H ) :   0.9759
B( 42-C , 43-N ) :   1.0647 B( 43-N , 44-C ) :   1.1581 B( 43-N , 99-H ) :   0.9228
B( 44-C , 45-C ) :   1.7100 B( 44-C ,100-H ) :   0.9626 B( 45-C , 46-C ) :   1.1237
B( 45-C ,101-H ) :   0.9505 B( 46-C , 47-S ) :   1.1367 B( 46-C , 48-C ) :   0.1042
B( 46-C , 50-C ) :   1.4998 B( 47-S , 48-C ) :   1.1037 B( 48-C , 49-C ) :   1.5118
B( 48-C , 51-C ) :   1.1245 B( 49-C , 50-C ) :   1.2807 B( 49-C ,102-H ) :   0.9953
B( 50-C ,103-H ) :   0.9897 B( 51-C , 52-C ) :   1.4956 B( 51-C , 54-C ) :   0.1106
B( 51-C , 55-S ) :   1.1369 B( 52-C , 53-C ) :   1.2902 B( 52-C ,104-H ) :   0.9950
B( 53-C , 54-C ) :   1.4894 B( 53-C ,105-H ) :   0.9953 B( 54-C , 55-S ) :   1.1014
B( 54-C , 56-C ) :   1.1456 B( 56-C , 57-S ) :   1.1585 B( 56-C , 60-C ) :   1.4522
B( 57-S , 58-C ) :   1.0832 B( 58-C , 59-C ) :   1.3969 B( 58-C , 61-C ) :   1.2138
B( 59-C , 60-C ) :   1.3180 B( 59-C ,106-H ) :   1.0013 B( 60-C ,107-H ) :   0.9969
B( 61-C , 62-C ) :   1.5274 B( 61-C ,108-H ) :   0.9878 B( 62-C , 63-C ) :   1.2346
B( 62-C ,109-H ) :   0.9628 B( 63-C , 64-C ) :   1.4920 B( 63-C ,110-H ) :   0.9480
B( 64-C , 65-C ) :   1.0719 B( 64-C , 77-C ) :   1.0456 B( 65-C , 66-C ) :   1.6179
B( 65-C , 71-C ) :   0.9965 B( 66-C , 67-C ) :   1.1414 B( 66-C , 69-C ) :   1.1497
B( 67-C , 68-N ) :   2.9704 B( 69-C , 70-N ) :   2.9736 B( 71-C , 72-C ) :   1.3141
B( 71-C , 76-C ) :   1.3868 B( 72-C , 73-C ) :   1.3880 B( 72-C , 77-C ) :   1.0098
B( 73-C , 74-C ) :   1.3632 B( 73-C ,111-H ) :   0.9852 B( 74-C , 75-C ) :   1.3802
B( 74-C ,112-H ) :   0.9863 B( 75-C , 76-C ) :   1.3679 B( 75-C ,113-H ) :   0.9859
B( 76-C ,114-H ) :   0.9837 B( 77-C , 78-C ) :   1.6205 B( 78-C , 79-C ) :   1.1413
B( 78-C , 81-C ) :   1.1531 B( 79-C , 80-N ) :   2.9861 B( 81-C , 82-N ) :   3.0227

-----------------------------------------------------------------------------
         ABSORPTION SPECTRUM VIA TRANSITION ELECTRIC DIPOLE MOMENTS
-----------------------------------------------------------------------------
State   Energy  Wavelength   fosc         T2         TX        TY        TZ
        (cm-1)    (nm)                  (au**2)     (au)      (au)      (au)
-----------------------------------------------------------------------------
   0   14966.6    668.2   1.838661475  40.44400  -5.40133  -3.34369  -0.29898
   1   15254.8    655.5   0.712487061  15.37607  -0.63448   2.33580   3.08505
   2   19772.1    505.8   0.232402353   3.86958   0.99071   1.65412  -0.38984
   3   20165.4    495.9   0.151164609   2.46785  -0.83194  -1.02030   0.85715
   4   22224.9    449.9   0.285884459   4.23474  -1.17554   1.68842  -0.04546
   5   22607.9    442.3   0.013301417   0.19369  -0.02562   0.26390  -0.35128
   6   23550.4    424.6   0.130053075   1.81802   0.55984  -1.21740   0.15012
   7   23829.5    419.6   0.027984155   0.38661  -0.20878  -0.51091   0.28635
   8   25990.3    384.8   1.048494603  13.28098   0.91848   3.51849  -0.23997
   9   26530.4    376.9   0.185365027   2.30017  -0.88968  -1.21425   0.18501
  10   26696.8    374.6   0.167131381   2.06098   0.61416   0.18966   1.28367
  11   27033.1    369.9   0.083331450   1.01482   0.47656   0.81047  -0.36173
  12   27588.7    362.5   0.111811684   1.33423  -0.91597   0.35136   0.60974
  13   28004.7    357.1   0.114726369   1.34868   0.77867   0.26368   0.82026
  14   28035.3    356.7   0.057235497   0.67210   0.47996   0.43876  -0.49923
  15   28213.5    354.4   0.168162229   1.96222  -0.96197  -1.01063   0.12430
  16   30419.4    328.7   0.004299259   0.04653   0.09747   0.15452   0.11468
  17   30809.3    324.6   0.021997453   0.23505   0.33600   0.33934  -0.08370
  18   31396.5    318.5   0.235491951   2.46928  -0.63380  -1.06607   0.96491
  19   31448.3    318.0   0.161871493   1.69453   0.58187   0.89594  -0.74381
  20   31624.1    316.2   0.071766253   0.74710   0.79393  -0.04967  -0.33810
  21   31760.4    314.9   0.013318000   0.13805  -0.36279   0.03935   0.06989
  22   32243.1    310.1   0.005449416   0.05564  -0.01035   0.00458  -0.23561
  23   32744.1    305.4   0.018008095   0.18105   0.10668   0.41165   0.01488
  24   33279.0    300.5   0.221296798   2.18918   0.32323  -1.26433   0.69726
  25   33404.0    299.4   0.057889459   0.57053  -0.69027   0.19676   0.23526
  26   33436.3    299.1   0.483122515   4.75680  -0.97364  -1.54068   1.19797
  27   33575.9    297.8   0.335046956   3.28514   1.16070   0.88345  -1.07584
  28   33984.4    294.3   0.050845800   0.49255   0.37889  -0.41522   0.42022
  29   34334.5    291.3   0.071939761   0.68978  -0.46203  -0.67665  -0.13587
  30   34558.2    289.4   0.055974642   0.53323   0.25480   0.59554  -0.33710
  31   34745.5    287.8   0.358615735   3.39787   1.08058  -1.22368  -0.85605
  32   34963.4    286.0   0.058410148   0.54998  -0.51931  -0.29246  -0.44132
  33   34971.5    285.9   0.032925895   0.30996   0.22768   0.36943   0.34877
  34   35273.6    283.5   0.100971837   0.94238  -0.27556   0.91957   0.14437
  35   35337.5    283.0   0.321926534   2.99914   1.25788  -0.05292   1.18915
  36   36339.5    275.2   0.052573159   0.47628  -0.26188   0.45123  -0.45177
  37   36458.4    274.3   0.022500493   0.20317   0.06607  -0.44238   0.05579
  38   36650.9    272.8   0.093354716   0.83855   0.19838  -0.87313   0.19192
  39   36754.7    272.1   0.028241381   0.25296   0.25902  -0.33333   0.27342
  40   36870.3    271.2   0.003538756   0.03160  -0.05265   0.16514  -0.03941
  41   37560.8    266.2   0.066291330   0.58103  -0.20152  -0.61691  -0.39980
  42   37724.6    265.1   0.089834852   0.78396  -0.24398  -0.71859  -0.45615
  43   38285.5    261.2   0.063236914   0.54377  -0.22375   0.70137  -0.04231
  44   38547.1    259.4   0.014656639   0.12518   0.07574   0.01876   0.34509
  45   38596.0    259.1   0.090932513   0.77563   0.57443  -0.66711   0.02491
  46   38728.9    258.2   0.040374020   0.34320   0.28433  -0.36427   0.36009
  47   38825.8    257.6   0.045816741   0.38849  -0.45919   0.41749  -0.05772
  48   39321.2    254.3   0.058205760   0.48732   0.55576  -0.33886  -0.25223
  49   39568.1    252.7   0.053825894   0.44784   0.06365   0.49933   0.44097
  50   39787.4    251.3   0.001885977   0.01561  -0.00337  -0.08641   0.09015
  51   40072.9    249.5   0.016511832   0.13565   0.16171   0.30913   0.11806

FINAL SINGLE POINT ENERGY     -5864.086416696810

DIPOLE MOMENT
-------------
                                X             Y             Z
Electronic contribution:     -3.61403      19.75536       7.86257
Nuclear contribution   :      7.10861     -21.75498      -9.29067
                        -----------------------------------------
Total Dipole Moment    :      3.49458      -1.99962      -1.42810
                        -----------------------------------------
Magnitude (a.u.)       :      4.27201
Magnitude (Debye)      :     10.85858

Rotational constants in cm-1:     0.000937     0.000093     0.000090
Rotational constants in MHz :    28.103121     2.773826     2.697487

                             ****ORCA TERMINATED NORMALLY****
TOTAL RUN TIME: 0 days 0 hours 15 minutes 39 seconds 572 msec
