                         Program Version 4.2.0 -  RELEASE  -
|  1> # ORCA input file
|  2> # SCF done       -182.383480906618          0.002014971643
|  3> ! CAM-B3LYP def2-SVP def2/J RIJCOSX Grid4 TightSCF
|  4> %maxcore 5000
|  5> %tddft
|  6>     Mode sTDDFT
|  7>     Ethresh 5.0
|  8>     maxcore 5000
|  9> end
| 10>
| 11> %pal
| 12>   nprocs 6
| 13>   end
| 14> * xyz 0 1
| 15>    C       -9.00558        -9.63881         6.46552
| 16>    C       -9.58262       -10.77114         5.91155
| 17>    C       -9.16221       -11.26107         4.68187
| 18>    C       -8.14951       -10.63579         3.96955
| 19>    C       -7.56332        -9.50357         4.51116
| 20>    C       -7.99506        -9.00071         5.76247
| 21>    C       -7.21400        -7.81953         6.08648
| 22>    C       -7.15042        -7.17204         7.28820
| 23>    C       -7.93497        -7.51477         8.41194
| 24>    N       -8.55436        -7.74099         9.34968
| 25>    C       -6.23200        -6.13922         7.57764
| 26>    N       -5.47349        -5.32775         7.86706
| 27>    C       -6.45746        -7.48102         4.87827
| 28>    C       -6.48022        -8.66571         4.01915
| 29>    C       -5.54137        -9.00695         3.09298
| 30>    C       -4.36667        -8.25648         2.86031
| 31>    N       -3.35989        -7.72759         2.71137
| 32>    C       -5.57469       -10.20980         2.35319
| 33>    N       -5.56102       -11.17643         1.73698
| 34>    C       -6.02511        -6.22497         4.59473
| 35>    C       -5.60377        -5.71020         3.33638
| 36>    N       -5.91760        -6.27859         2.18111
| 37>    C       -5.52550        -5.41622         1.21927
| 38>    C       -4.94286        -4.20918         1.80366
| 39>    C       -4.56346        -3.24328         0.76484
| 40>    O       -4.10655        -2.13024         0.90652
| 41>    C       -4.91014        -3.96507        -0.47588
| 42>    C       -5.49692        -5.28969        -0.14939
| 43>    N       -5.81556        -5.96224        -1.27949
| 44>    C       -5.47197        -5.16744        -2.26189
| 45>    C       -4.89817        -3.90310        -1.82950
| 46>    C       -4.94504        -4.39471         3.16552
| 47>    C       -4.40331        -3.50308         4.12279
| 48>    C       -4.01782        -3.79791         5.39339
| 49>    C       -3.45012        -2.85587         6.28061
| 50>    C       -2.77939        -3.12432         7.45564
| 51>    C       -2.24833        -1.92202         7.98852
| 52>    C       -2.55320        -0.86012         7.15467
| 53>    C       -3.44444        -1.38590         6.12371
| 54>    S       -4.53047        -0.51484         5.26861
| 55>    C       -2.14339         0.48331         7.35194
| 56>    N       -1.79327         0.90208         8.56168
| 57>    C       -1.51305         2.21007         8.43509
| 58>    C       -1.69435         2.66591         7.04688
| 59>    C       -1.39224         4.10489         6.92959
| 60>    O       -1.50282         4.82057         5.96066
| 61>    C       -0.96760         4.45306         8.29758
| 62>    C       -1.07335         3.27420         9.18620
| 63>    N       -0.66600         3.58471        10.43855
| 64>    C       -0.30868         4.84540        10.38362
| 65>    C       -0.45872         5.44487         9.07267
| 66>    C       -2.04752         1.55411         6.32604
| 67>    C       -2.13589         1.37332         4.91750
| 68>    C       -2.15847         2.39296         4.02570
| 69>    C       -2.26794         2.22916         2.61519
| 70>    C       -1.83247         1.20348         1.82931
| 71>    C       -2.30684         0.94930         0.46733
| 72>    C       -3.05092         1.78270        -0.32147
| 73>    C       -3.46380         3.09438        -0.00026
| 74>    N       -3.83797         4.16702         0.16476
| 75>    C       -3.50845         1.44667        -1.61454
| 76>    N       -3.91718         1.24715        -2.66830
| 77>    C       -1.87827        -0.39440         0.11159
| 78>    C       -1.10435        -0.92431         1.16739
| 79>    C       -0.63001        -2.22483         1.11146
| 80>    C       -0.90062        -2.98068        -0.01759
| 81>    C       -1.61966        -2.44563        -1.07691
| 82>    C       -2.12037        -1.15522        -1.02173
| 83>    C       -0.92078         0.11170         2.17067
| 84>    C        0.09561         0.13908         3.08603
| 85>    C        0.97336        -0.94200         3.31610
| 86>    N        1.70272        -1.78956         3.57430
| 87>    C        0.46336         1.24616         3.88111
| 88>    N        0.87221         2.09504         4.53576
| 89>    H       -9.34554        -9.26606         7.41825
| 90>    H      -10.37226       -11.27646         6.44583
| 91>    H       -9.63229       -12.14078         4.27025
| 92>    H       -7.83924       -11.01995         3.01140
| 93>    H       -6.10732        -5.47758         5.37249
| 94>    H       -5.62874        -5.46695        -3.28343
| 95>    H       -4.56558        -3.11846        -2.47895
| 96>    H       -4.23118        -2.50727         3.73531
| 97>    H       -4.05110        -4.81651         5.75644
| 98>    H       -2.65439        -4.09859         7.89038
| 99>    H       -1.66512        -1.83549         8.88652
|100>    H        0.05446         5.34532        11.26473
|101>    H       -0.21366         6.45665         8.81744
|102>    H       -2.17079         0.35372         4.55812
|103>    H       -2.19859         3.41072         4.39338
|104>    H       -2.82485         3.01787         2.12533
|105>    H       -0.07219        -2.65335         1.92823
|106>    H       -0.54406        -3.99794        -0.07220
|107>    H       -1.80208        -3.04956        -1.95311
|108>    H       -2.69430        -0.76338        -1.84438
|109> *
|110>
|111>                          ****END OF INPUT****

CARTESIAN COORDINATES (ANGSTROEM)
---------------------------------
  C     -9.005580   -9.638810    6.465520
  C     -9.582620  -10.771140    5.911550
  C     -9.162210  -11.261070    4.681870
  C     -8.149510  -10.635790    3.969550
  C     -7.563320   -9.503570    4.511160
  C     -7.995060   -9.000710    5.762470
  C     -7.214000   -7.819530    6.086480
  C     -7.150420   -7.172040    7.288200
  C     -7.934970   -7.514770    8.411940
  N     -8.554360   -7.740990    9.349680
  C     -6.232000   -6.139220    7.577640
  N     -5.473490   -5.327750    7.867060
  C     -6.457460   -7.481020    4.878270
  C     -6.480220   -8.665710    4.019150
  C     -5.541370   -9.006950    3.092980
  C     -4.366670   -8.256480    2.860310
  N     -3.359890   -7.727590    2.711370
  C     -5.574690  -10.209800    2.353190
  N     -5.561020  -11.176430    1.736980
  C     -6.025110   -6.224970    4.594730
  C     -5.603770   -5.710200    3.336380
  N     -5.917600   -6.278590    2.181110
  C     -5.525500   -5.416220    1.219270
  C     -4.942860   -4.209180    1.803660
  C     -4.563460   -3.243280    0.764840
  O     -4.106550   -2.130240    0.906520
  C     -4.910140   -3.965070   -0.475880
  C     -5.496920   -5.289690   -0.149390
  N     -5.815560   -5.962240   -1.279490
  C     -5.471970   -5.167440   -2.261890
  C     -4.898170   -3.903100   -1.829500
  C     -4.945040   -4.394710    3.165520
  C     -4.403310   -3.503080    4.122790
  C     -4.017820   -3.797910    5.393390
  C     -3.450120   -2.855870    6.280610
  C     -2.779390   -3.124320    7.455640
  C     -2.248330   -1.922020    7.988520
  C     -2.553200   -0.860120    7.154670
  C     -3.444440   -1.385900    6.123710
  S     -4.530470   -0.514840    5.268610
  C     -2.143390    0.483310    7.351940
  N     -1.793270    0.902080    8.561680
  C     -1.513050    2.210070    8.435090
  C     -1.694350    2.665910    7.046880
  C     -1.392240    4.104890    6.929590
  O     -1.502820    4.820570    5.960660
  C     -0.967600    4.453060    8.297580
  C     -1.073350    3.274200    9.186200
  N     -0.666000    3.584710   10.438550
  C     -0.308680    4.845400   10.383620
  C     -0.458720    5.444870    9.072670
  C     -2.047520    1.554110    6.326040
  C     -2.135890    1.373320    4.917500
  C     -2.158470    2.392960    4.025700
  C     -2.267940    2.229160    2.615190
  C     -1.832470    1.203480    1.829310
  C     -2.306840    0.949300    0.467330
  C     -3.050920    1.782700   -0.321470
  C     -3.463800    3.094380   -0.000260
  N     -3.837970    4.167020    0.164760
  C     -3.508450    1.446670   -1.614540
  N     -3.917180    1.247150   -2.668300
  C     -1.878270   -0.394400    0.111590
  C     -1.104350   -0.924310    1.167390
  C     -0.630010   -2.224830    1.111460
  C     -0.900620   -2.980680   -0.017590
  C     -1.619660   -2.445630   -1.076910
  C     -2.120370   -1.155220   -1.021730
  C     -0.920780    0.111700    2.170670
  C      0.095610    0.139080    3.086030
  C      0.973360   -0.942000    3.316100
  N      1.702720   -1.789560    3.574300
  C      0.463360    1.246160    3.881110
  N      0.872210    2.095040    4.535760
  H     -9.345540   -9.266060    7.418250
  H    -10.372260  -11.276460    6.445830
  H     -9.632290  -12.140780    4.270250
  H     -7.839240  -11.019950    3.011400
  H     -6.107320   -5.477580    5.372490
  H     -5.628740   -5.466950   -3.283430
  H     -4.565580   -3.118460   -2.478950
  H     -4.231180   -2.507270    3.735310
  H     -4.051100   -4.816510    5.756440
  H     -2.654390   -4.098590    7.890380
  H     -1.665120   -1.835490    8.886520
  H      0.054460    5.345320   11.264730
  H     -0.213660    6.456650    8.817440
  H     -2.170790    0.353720    4.558120
  H     -2.198590    3.410720    4.393380
  H     -2.824850    3.017870    2.125330
  H     -0.072190   -2.653350    1.928230
  H     -0.544060   -3.997940   -0.072200
  H     -1.802080   -3.049560   -1.953110
  H     -2.694300   -0.763380   -1.844380

 Total Charge           Charge          ....    0
 Multiplicity           Mult            ....    1
 Number of Electrons    NEL             ....  490
 Basis Dimension        Dim             .... 1140

ORBITAL ENERGIES
----------------

  NO   OCC          E(Eh)            E(eV)
   0   2.0000     -88.950330     -2420.4615
   1   2.0000     -19.235231      -523.4173
   2   2.0000     -19.211673      -522.7762
   3   2.0000     -14.452221      -393.2649
   4   2.0000     -14.445395      -393.0792
   5   2.0000     -14.443685      -393.0327
   6   2.0000     -14.440938      -392.9579
   7   2.0000     -14.438438      -392.8899
   8   2.0000     -14.431554      -392.7026
   9   2.0000     -14.419491      -392.3743
  10   2.0000     -14.418387      -392.3443
  11   2.0000     -14.417805      -392.3284
  12   2.0000     -14.417617      -392.3233
  13   2.0000     -14.409505      -392.1026
  14   2.0000     -14.403383      -391.9360
  15   2.0000     -10.394981      -282.8618
  16   2.0000     -10.381519      -282.4955
  17   2.0000     -10.376584      -282.3612
  18   2.0000     -10.375893      -282.3424
  19   2.0000     -10.373205      -282.2693
  20   2.0000     -10.371310      -282.2177
  21   2.0000     -10.366598      -282.0895
  22   2.0000     -10.364345      -282.0282
  23   2.0000     -10.359755      -281.9033
  24   2.0000     -10.357820      -281.8506
  25   2.0000     -10.356147      -281.8051
  26   2.0000     -10.354283      -281.7544
  27   2.0000     -10.354147      -281.7507
  28   2.0000     -10.349040      -281.6117
  29   2.0000     -10.347934      -281.5816
  30   2.0000     -10.347124      -281.5596
  31   2.0000     -10.346647      -281.5466
  32   2.0000     -10.346390      -281.5396
  33   2.0000     -10.345585      -281.5177
  34   2.0000     -10.344229      -281.4808
  35   2.0000     -10.341064      -281.3946
  36   2.0000     -10.340558      -281.3809
  37   2.0000     -10.335657      -281.2475
  38   2.0000     -10.335284      -281.2374
  39   2.0000     -10.332353      -281.1576
  40   2.0000     -10.328046      -281.0404
  41   2.0000     -10.323301      -280.9113
  42   2.0000     -10.322895      -280.9002
  43   2.0000     -10.322235      -280.8823
  44   2.0000     -10.321941      -280.8743
  45   2.0000     -10.321463      -280.8613
  46   2.0000     -10.320998      -280.8486
  47   2.0000     -10.320428      -280.8331
  48   2.0000     -10.320204      -280.8270
  49   2.0000     -10.319680      -280.8128
  50   2.0000     -10.319189      -280.7994
  51   2.0000     -10.319016      -280.7947
  52   2.0000     -10.318342      -280.7764
  53   2.0000     -10.317295      -280.7479
  54   2.0000     -10.316755      -280.7332
  55   2.0000     -10.316301      -280.7208
  56   2.0000     -10.315387      -280.6960
  57   2.0000     -10.313672      -280.6493
  58   2.0000     -10.312400      -280.6147
  59   2.0000     -10.310203      -280.5549
  60   2.0000     -10.308667      -280.5131
  61   2.0000     -10.307497      -280.4812
  62   2.0000     -10.307467      -280.4804
  63   2.0000     -10.307206      -280.4733
  64   2.0000     -10.304941      -280.4117
  65   2.0000     -10.304866      -280.4096
  66   2.0000     -10.297205      -280.2012
  67   2.0000     -10.296797      -280.1901
  68   2.0000     -10.296564      -280.1837
  69   2.0000     -10.296092      -280.1709
  70   2.0000     -10.295978      -280.1678
  71   2.0000     -10.287889      -279.9477
  72   2.0000     -10.287357      -279.9332
  73   2.0000     -10.286676      -279.9147
  74   2.0000      -8.045567      -218.9310
  75   2.0000      -6.015953      -163.7024
  76   2.0000      -6.013414      -163.6333
  77   2.0000      -6.003918      -163.3749
  78   2.0000      -1.149234       -31.2723
  79   2.0000      -1.126782       -30.6613
  80   2.0000      -1.107723       -30.1427
  81   2.0000      -1.088344       -29.6153
  82   2.0000      -1.079090       -29.3635
  83   2.0000      -1.060743       -28.8643
  84   2.0000      -1.058636       -28.8069
  85   2.0000      -1.042010       -28.3545
  86   2.0000      -1.032432       -28.0939
  87   2.0000      -1.029825       -28.0230
  88   2.0000      -1.025812       -27.9138
  89   2.0000      -1.017518       -27.6881
  90   2.0000      -1.016080       -27.6489
  91   2.0000      -1.014402       -27.6033
  92   2.0000      -1.004858       -27.3436
  93   2.0000      -0.996837       -27.1253
  94   2.0000      -0.996501       -27.1162
  95   2.0000      -0.983143       -26.7527
  96   2.0000      -0.966045       -26.2874
  97   2.0000      -0.962038       -26.1784
  98   2.0000      -0.957331       -26.0503
  99   2.0000      -0.944074       -25.6895
 100   2.0000      -0.937840       -25.5199
 101   2.0000      -0.935577       -25.4583
 102   2.0000      -0.928085       -25.2545
 103   2.0000      -0.922153       -25.0931
 104   2.0000      -0.912979       -24.8434
 105   2.0000      -0.898148       -24.4399
 106   2.0000      -0.893125       -24.3032
 107   2.0000      -0.890647       -24.2357
 108   2.0000      -0.887249       -24.1433
 109   2.0000      -0.884016       -24.0553
 110   2.0000      -0.881671       -23.9915
 111   2.0000      -0.862598       -23.4725
 112   2.0000      -0.860136       -23.4055
 113   2.0000      -0.838564       -22.8185
 114   2.0000      -0.838235       -22.8095
 115   2.0000      -0.832300       -22.6480
 116   2.0000      -0.814189       -22.1552
 117   2.0000      -0.795395       -21.6438
 118   2.0000      -0.791339       -21.5334
 119   2.0000      -0.788737       -21.4626
 120   2.0000      -0.781075       -21.2541
 121   2.0000      -0.771672       -20.9983
 122   2.0000      -0.756496       -20.5853
 123   2.0000      -0.754301       -20.5256
 124   2.0000      -0.746137       -20.3034
 125   2.0000      -0.738613       -20.0987
 126   2.0000      -0.736085       -20.0299
 127   2.0000      -0.723358       -19.6836
 128   2.0000      -0.720890       -19.6164
 129   2.0000      -0.711915       -19.3722
 130   2.0000      -0.710805       -19.3420
 131   2.0000      -0.704339       -19.1660
 132   2.0000      -0.702410       -19.1135
 133   2.0000      -0.690801       -18.7976
 134   2.0000      -0.684845       -18.6356
 135   2.0000      -0.679003       -18.4766
 136   2.0000      -0.673303       -18.3215
 137   2.0000      -0.664001       -18.0684
 138   2.0000      -0.662079       -18.0161
 139   2.0000      -0.661223       -17.9928
 140   2.0000      -0.655024       -17.8241
 141   2.0000      -0.648739       -17.6531
 142   2.0000      -0.643748       -17.5173
 143   2.0000      -0.631557       -17.1856
 144   2.0000      -0.624338       -16.9891
 145   2.0000      -0.620670       -16.8893
 146   2.0000      -0.616646       -16.7798
 147   2.0000      -0.614060       -16.7094
 148   2.0000      -0.611040       -16.6272
 149   2.0000      -0.604882       -16.4597
 150   2.0000      -0.599083       -16.3019
 151   2.0000      -0.594328       -16.1725
 152   2.0000      -0.584835       -15.9142
 153   2.0000      -0.583964       -15.8905
 154   2.0000      -0.581715       -15.8293
 155   2.0000      -0.574127       -15.6228
 156   2.0000      -0.570965       -15.5367
 157   2.0000      -0.569899       -15.5077
 158   2.0000      -0.566032       -15.4025
 159   2.0000      -0.560008       -15.2386
 160   2.0000      -0.558699       -15.2030
 161   2.0000      -0.555673       -15.1206
 162   2.0000      -0.554047       -15.0764
 163   2.0000      -0.549985       -14.9658
 164   2.0000      -0.545890       -14.8544
 165   2.0000      -0.542622       -14.7655
 166   2.0000      -0.539686       -14.6856
 167   2.0000      -0.536474       -14.5982
 168   2.0000      -0.534107       -14.5338
 169   2.0000      -0.532924       -14.5016
 170   2.0000      -0.531188       -14.4544
 171   2.0000      -0.527838       -14.3632
 172   2.0000      -0.526148       -14.3172
 173   2.0000      -0.521629       -14.1942
 174   2.0000      -0.518198       -14.1009
 175   2.0000      -0.515918       -14.0388
 176   2.0000      -0.512984       -13.9590
 177   2.0000      -0.510417       -13.8892
 178   2.0000      -0.508315       -13.8320
 179   2.0000      -0.505217       -13.7477
 180   2.0000      -0.503174       -13.6921
 181   2.0000      -0.501771       -13.6539
 182   2.0000      -0.499927       -13.6037
 183   2.0000      -0.494799       -13.4642
 184   2.0000      -0.491941       -13.3864
 185   2.0000      -0.490176       -13.3384
 186   2.0000      -0.485792       -13.2191
 187   2.0000      -0.484559       -13.1855
 188   2.0000      -0.482335       -13.1250
 189   2.0000      -0.479154       -13.0384
 190   2.0000      -0.477752       -13.0003
 191   2.0000      -0.476697       -12.9716
 192   2.0000      -0.474339       -12.9074
 193   2.0000      -0.472697       -12.8627
 194   2.0000      -0.471406       -12.8276
 195   2.0000      -0.470492       -12.8027
 196   2.0000      -0.468439       -12.7469
 197   2.0000      -0.465187       -12.6584
 198   2.0000      -0.465065       -12.6551
 199   2.0000      -0.461491       -12.5578
 200   2.0000      -0.460443       -12.5293
 201   2.0000      -0.458669       -12.4810
 202   2.0000      -0.457244       -12.4422
 203   2.0000      -0.454725       -12.3737
 204   2.0000      -0.453103       -12.3296
 205   2.0000      -0.452086       -12.3019
 206   2.0000      -0.450721       -12.2647
 207   2.0000      -0.449457       -12.2304
 208   2.0000      -0.448398       -12.2015
 209   2.0000      -0.446808       -12.1583
 210   2.0000      -0.444358       -12.0916
 211   2.0000      -0.443367       -12.0646
 212   2.0000      -0.440326       -11.9819
 213   2.0000      -0.434422       -11.8212
 214   2.0000      -0.433987       -11.8094
 215   2.0000      -0.429774       -11.6947
 216   2.0000      -0.427960       -11.6454
 217   2.0000      -0.423218       -11.5163
 218   2.0000      -0.422165       -11.4877
 219   2.0000      -0.411822       -11.2063
 220   2.0000      -0.408565       -11.1176
 221   2.0000      -0.407404       -11.0860
 222   2.0000      -0.397885       -10.8270
 223   2.0000      -0.394585       -10.7372
 224   2.0000      -0.387709       -10.5501
 225   2.0000      -0.384630       -10.4663
 226   2.0000      -0.377454       -10.2711
 227   2.0000      -0.375630       -10.2214
 228   2.0000      -0.369359       -10.0508
 229   2.0000      -0.362776        -9.8716
 230   2.0000      -0.359961        -9.7950
 231   2.0000      -0.356768        -9.7081
 232   2.0000      -0.355864        -9.6836
 233   2.0000      -0.354097        -9.6355
 234   2.0000      -0.351729        -9.5710
 235   2.0000      -0.346196        -9.4205
 236   2.0000      -0.333079        -9.0635
 237   2.0000      -0.329894        -8.9769
 238   2.0000      -0.329285        -8.9603
 239   2.0000      -0.327782        -8.9194
 240   2.0000      -0.323785        -8.8106
 241   2.0000      -0.318165        -8.6577
 242   2.0000      -0.312239        -8.4964
 243   2.0000      -0.281754        -7.6669
 244   2.0000      -0.273353        -7.4383
 245   0.0000      -0.154884        -4.2146
 246   0.0000      -0.136676        -3.7191
 247   0.0000      -0.108533        -2.9533
 248   0.0000      -0.107381        -2.9220
 249   0.0000      -0.093309        -2.5391

MULLIKEN ATOMIC CHARGES
-----------------------
   0 C :   -0.026794
   1 C :    0.046002
   2 C :    0.053239
   3 C :   -0.027941
   4 C :    0.020312
   5 C :    0.013749
   6 C :    0.258341
   7 C :   -0.315106
   8 C :   -0.184860
   9 N :    0.179319
  10 C :   -0.176586
  11 N :    0.153670
  12 C :   -0.008302
  13 C :    0.228654
  14 C :   -0.255094
  15 C :   -0.176825
  16 N :    0.170071
  17 C :   -0.196726
  18 N :    0.180008
  19 C :   -0.020080
  20 C :    0.012566
  21 N :   -0.052220
  22 C :    0.086831
  23 C :   -0.120613
  24 C :    0.231843
  25 O :   -0.132040
  26 C :   -0.031627
  27 C :   -0.012197
  28 N :   -0.049595
  29 C :    0.104856
  30 C :   -0.094332
  31 C :    0.062838
  32 C :   -0.012472
  33 C :    0.005490
  34 C :    0.092670
  35 C :    0.016155
  36 C :    0.052692
  37 C :    0.006823
  38 C :   -0.088431
  39 S :    0.015900
  40 C :    0.043152
  41 N :   -0.041496
  42 C :    0.088470
  43 C :   -0.146898
  44 C :    0.232263
  45 O :   -0.128812
  46 C :   -0.014916
  47 C :   -0.044208
  48 N :   -0.055372
  49 C :    0.094180
  50 C :   -0.097176
  51 C :    0.042284
  52 C :   -0.009991
  53 C :   -0.000010
  54 C :    0.026994
  55 C :   -0.042694
  56 C :    0.307998
  57 C :   -0.358227
  58 C :   -0.184305
  59 N :    0.164106
  60 C :   -0.187736
  61 N :    0.152073
  62 C :    0.056456
  63 C :    0.001427
  64 C :   -0.035339
  65 C :    0.044277
  66 C :    0.040074
  67 C :   -0.025562
  68 C :    0.228063
  69 C :   -0.338006
  70 C :   -0.188199
  71 N :    0.162448
  72 C :   -0.201299
  73 N :    0.192073
  74 H :    0.010679
  75 H :    0.012195
  76 H :    0.013018
  77 H :    0.013880
  78 H :    0.034175
  79 H :    0.024008
  80 H :    0.005644
  81 H :    0.005517
  82 H :   -0.001973
  83 H :    0.006791
  84 H :    0.023849
  85 H :    0.009902
  86 H :   -0.003538
  87 H :    0.003677
  88 H :    0.030408
  89 H :    0.030492
  90 H :    0.003800
  91 H :    0.003270
  92 H :   -0.006961
  93 H :   -0.005109
Sum of atomic charges:   -0.0000000

LOEWDIN ATOMIC CHARGES
----------------------
   0 C :    0.009352
   1 C :    0.006001
   2 C :    0.014262
   3 C :    0.005958
   4 C :   -0.003448
   5 C :   -0.016924
   6 C :    0.078181
   7 C :   -0.118093
   8 C :   -0.020610
   9 N :   -0.026157
  10 C :   -0.013961
  11 N :   -0.040181
  12 C :    0.012619
  13 C :    0.064004
  14 C :   -0.087298
  15 C :   -0.015680
  16 N :   -0.038413
  17 C :   -0.016794
  18 N :   -0.025023
  19 C :    0.019325
  20 C :    0.060765
  21 N :   -0.079989
  22 C :    0.042359
  23 C :   -0.032893
  24 C :    0.072821
  25 O :   -0.130784
  26 C :   -0.034782
  27 C :    0.048585
  28 N :   -0.091787
  29 C :    0.096973
  30 C :   -0.024980
  31 C :   -0.020548
  32 C :   -0.007238
  33 C :   -0.004164
  34 C :   -0.022205
  35 C :    0.010417
  36 C :    0.091777
  37 C :   -0.092868
  38 C :   -0.114361
  39 S :    0.219880
  40 C :    0.072735
  41 N :   -0.104273
  42 C :    0.044149
  43 C :   -0.017525
  44 C :    0.071725
  45 O :   -0.128284
  46 C :   -0.037684
  47 C :    0.026021
  48 N :   -0.096949
  49 C :    0.077562
  50 C :   -0.034499
  51 C :   -0.033576
  52 C :    0.012296
  53 C :   -0.013743
  54 C :    0.064974
  55 C :   -0.051493
  56 C :    0.082922
  57 C :   -0.131024
  58 C :   -0.024082
  59 N :   -0.040905
  60 C :   -0.013888
  61 N :   -0.054651
  62 C :   -0.003046
  63 C :   -0.006997
  64 C :   -0.000230
  65 C :    0.001826
  66 C :   -0.004805
  67 C :    0.009293
  68 C :    0.067161
  69 C :   -0.131401
  70 C :   -0.020325
  71 N :   -0.047558
  72 C :   -0.019984
  73 N :   -0.032938
  74 H :    0.043042
  75 H :    0.040844
  76 H :    0.041291
  77 H :    0.043914
  78 H :    0.051256
  79 H :    0.030161
  80 H :    0.038127
  81 H :    0.024948
  82 H :    0.033686
  83 H :    0.036954
  84 H :    0.045799
  85 H :    0.024040
  86 H :    0.035100
  87 H :    0.018058
  88 H :    0.041863
  89 H :    0.051637
  90 H :    0.039992
  91 H :    0.037169
  92 H :    0.030730
  93 H :    0.036493

  Mayer bond orders larger than 0.100000
B(  0-C ,  1-C ) :   1.3770 B(  0-C ,  5-C ) :   1.3752 B(  0-C , 74-H ) :   0.9856
B(  1-C ,  2-C ) :   1.3704 B(  1-C , 75-H ) :   0.9864 B(  2-C ,  3-C ) :   1.3690
B(  2-C , 76-H ) :   0.9869 B(  3-C ,  4-C ) :   1.3854 B(  3-C , 77-H ) :   0.9865
B(  4-C ,  5-C ) :   1.2987 B(  4-C , 13-C ) :   1.0123 B(  5-C ,  6-C ) :   1.0198
B(  6-C ,  7-C ) :   1.6669 B(  6-C , 12-C ) :   1.0083 B(  7-C ,  8-C ) :   1.1374
B(  7-C , 10-C ) :   1.1355 B(  8-C ,  9-N ) :   2.9888 B( 10-C , 11-N ) :   2.9772
B( 12-C , 13-C ) :   0.9933 B( 12-C , 19-C ) :   1.6882 B( 13-C , 14-C ) :   1.7178
B( 14-C , 15-C ) :   1.1428 B( 14-C , 17-C ) :   1.1443 B( 15-C , 16-N ) :   2.9868
B( 17-C , 18-N ) :   2.9938 B( 19-C , 20-C ) :   1.0932 B( 19-C , 78-H ) :   0.9325
B( 20-C , 21-N ) :   1.5742 B( 20-C , 22-C ) :   0.1037 B( 20-C , 31-C ) :   1.0111
B( 21-N , 22-C ) :   1.3104 B( 22-C , 23-C ) :   1.0586 B( 22-C , 27-C ) :   1.4248
B( 23-C , 24-C ) :   0.9143 B( 23-C , 31-C ) :   1.5270 B( 24-C , 25-O ) :   2.2078
B( 24-C , 26-C ) :   0.8980 B( 26-C , 27-C ) :   1.0473 B( 26-C , 30-C ) :   1.6333
B( 27-C , 28-N ) :   1.3096 B( 28-N , 29-C ) :   1.6555 B( 29-C , 30-C ) :   1.0501
B( 29-C , 79-H ) :   0.9894 B( 30-C , 80-H ) :   1.0094 B( 31-C , 32-C ) :   1.1574
B( 32-C , 33-C ) :   1.5672 B( 32-C , 81-H ) :   0.9437 B( 33-C , 34-C ) :   1.1799
B( 33-C , 82-H ) :   0.9680 B( 34-C , 35-C ) :   1.5527 B( 34-C , 38-C ) :   0.9723
B( 35-C , 36-C ) :   1.0698 B( 35-C , 83-H ) :   1.0125 B( 36-C , 37-C ) :   1.5506
B( 36-C , 39-S ) :   0.1030 B( 36-C , 84-H ) :   1.0170 B( 37-C , 38-C ) :   1.0523
B( 37-C , 40-C ) :   1.0520 B( 38-C , 39-S ) :   1.7990 B( 40-C , 41-N ) :   1.6303
B( 40-C , 42-C ) :   0.1262 B( 40-C , 51-C ) :   1.0270 B( 41-N , 42-C ) :   1.3550
B( 42-C , 43-C ) :   1.0606 B( 42-C , 47-C ) :   1.4003 B( 43-C , 44-C ) :   0.8805
B( 43-C , 51-C ) :   1.5626 B( 44-C , 45-O ) :   2.2065 B( 44-C , 46-C ) :   0.9264
B( 46-C , 47-C ) :   1.0669 B( 46-C , 50-C ) :   1.6034 B( 47-C , 48-N ) :   1.3250
B( 48-N , 49-C ) :   1.6454 B( 49-C , 50-C ) :   1.0759 B( 49-C , 85-H ) :   0.9890
B( 50-C , 86-H ) :   1.0103 B( 51-C , 52-C ) :   1.1410 B( 52-C , 53-C ) :   1.6669
B( 52-C , 87-H ) :   0.9376 B( 53-C , 54-C ) :   1.1451 B( 53-C , 88-H ) :   0.9346
B( 54-C , 55-C ) :   1.6355 B( 54-C , 89-H ) :   0.9217 B( 55-C , 56-C ) :   1.0517
B( 55-C , 68-C ) :   1.0038 B( 56-C , 57-C ) :   1.6357 B( 56-C , 62-C ) :   1.0043
B( 57-C , 58-C ) :   1.1333 B( 57-C , 60-C ) :   1.1571 B( 58-C , 59-N ) :   2.9743
B( 60-C , 61-N ) :   2.9702 B( 62-C , 63-C ) :   1.3155 B( 62-C , 67-C ) :   1.3766
B( 63-C , 64-C ) :   1.3731 B( 63-C , 68-C ) :   1.0140 B( 64-C , 65-C ) :   1.3710
B( 64-C , 90-H ) :   0.9862 B( 65-C , 66-C ) :   1.3724 B( 65-C , 91-H ) :   0.9865
B( 66-C , 67-C ) :   1.3694 B( 66-C , 92-H ) :   0.9838 B( 67-C , 93-H ) :   0.9772
B( 68-C , 69-C ) :   1.6516 B( 69-C , 70-C ) :   1.1395 B( 69-C , 72-C ) :   1.1525
B( 70-C , 71-N ) :   2.9937 B( 72-C , 73-N ) :   3.0063

-----------------------------------------------------------------------------
         ABSORPTION SPECTRUM VIA TRANSITION ELECTRIC DIPOLE MOMENTS
-----------------------------------------------------------------------------
State   Energy  Wavelength   fosc         T2         TX        TY        TZ
        (cm-1)    (nm)                  (au**2)     (au)      (au)      (au)
-----------------------------------------------------------------------------
   0   10983.7    910.4   0.128753532   3.85910   0.60131   1.10736   1.50708
   1   11486.2    870.6   0.090024158   2.58023  -0.62873  -1.42665  -0.38677
   2   12752.6    784.2   0.004769454   0.12312   0.08778  -0.13567  -0.31147
   3   14883.5    671.9   0.002415067   0.05342   0.12481   0.17921  -0.07567
   4   16186.9    617.8   0.005509354   0.11205   0.12502   0.12473  -0.28436
   5   18968.2    527.2   0.045368453   0.78742   0.05472   0.60915  -0.64293
   6   19416.2    515.0   0.077277906   1.31029   0.70662   0.73921  -0.51433
   7   19910.3    502.3   0.225840499   3.73422   0.39356   1.76291   0.68664
   8   20023.4    499.4   0.406946357   6.69076  -0.29632  -1.01613  -2.36017
   9   20335.1    491.8   0.039511676   0.63967  -0.18696  -0.29866  -0.71799
  10   20983.2    476.6   0.022127008   0.34716  -0.29945  -0.38822  -0.32677
  11   21662.8    461.6   0.014813844   0.22513   0.22870   0.35105  -0.22267
  12   22020.2    454.1   0.150664589   2.25251   1.11815   0.98714   0.16677
  13   22624.4    442.0   0.014755388   0.21471   0.05955   0.28988   0.35656
  14   22876.3    437.1   0.070450195   1.01384  -0.29174  -0.85626  -0.44220
  15   22973.2    435.3   0.011751286   0.16840   0.01084   0.28240   0.29754
  16   23268.4    429.8   0.013767045   0.19478   0.00312   0.09896   0.43009
  17   23355.1    428.2   0.228117480   3.21552   0.34345   1.65346   0.60301
  18   23993.5    416.8   0.040604144   0.55712  -0.16869  -0.68092  -0.25497
  19   24099.3    415.0   0.090595566   1.23759  -0.24142   0.04416   1.08506
  20   24184.1    413.5   0.018512625   0.25201  -0.02297   0.15532   0.47682
  21   24586.1    406.7   0.085482817   1.14463   0.03405   0.24078  -1.04187
  22   24665.2    405.4   0.149323543   1.99306  -0.68048  -0.09777  -1.23306
  23   24813.6    403.0   0.125027078   1.65878  -0.47451  -0.01995  -1.19717
  24   25386.6    393.9   0.030858874   0.40018   0.37853   0.23847  -0.44724
  25   25697.9    389.1   0.206105638   2.64038   0.24673   0.78282  -1.40239
  26   26179.2    382.0   0.015212406   0.19130   0.01735  -0.32132   0.29623
  27   26385.5    379.0   0.012071964   0.15062   0.05847   0.37487   0.08172
  28   26469.5    377.8   0.044276805   0.55069   0.44977   0.43454  -0.39947
  29   26559.4    376.5   0.000964992   0.01196   0.07243   0.02159  -0.07905
  30   26848.8    372.5   0.017632827   0.21621  -0.19746  -0.38970  -0.15923
  31   27051.0    369.7   0.080704891   0.98218  -0.39180  -0.82244   0.39022
  32   27128.4    368.6   0.051162629   0.62088  -0.01467  -0.78780   0.00568
  33   27481.0    363.9   0.387730581   4.64487  -0.44015  -0.69714  -1.99126
  34   27847.4    359.1   0.002871543   0.03395  -0.02976  -0.11009  -0.14471
  35   28280.7    353.6   0.024339535   0.28333  -0.06531  -0.06573  -0.52416
  36   28722.6    348.2   0.085398601   0.97882  -0.09921   0.47665  -0.86127
  37   29227.5    342.1   0.036752830   0.41398   0.15931   0.62006  -0.06425
  38   29524.0    338.7   0.000340734   0.00380   0.00978   0.05119   0.03292
  39   29530.3    338.6   0.009207698   0.10265   0.03733   0.31768   0.01831
  40   29808.4    335.5   0.003986966   0.04403  -0.09548   0.16586  -0.08606
  41   29942.1    334.0   0.009379990   0.10313   0.21512   0.05170   0.23278
  42   30162.6    331.5   0.290237967   3.16782  -0.04413   1.18123   1.33063
  43   30284.5    330.2   0.198888188   2.16204  -0.85664   0.05193   1.19395
  44   30630.4    326.5   0.050860136   0.54664   0.17897   0.28859  -0.65675
  45   30822.2    324.4   0.019074684   0.20374  -0.29134   0.23002  -0.25680
  46   31068.8    321.9   0.044336608   0.46980   0.21827  -0.46096  -0.45790
  47   31174.9    320.8   0.198620722   2.09747  -0.07548  -0.14913  -1.43859
  48   31320.2    319.3   0.008966315   0.09425   0.27801  -0.12287   0.04314
  49   31448.3    318.0   0.087789908   0.91902   0.06410   0.45461  -0.84157
  50   31719.0    315.3   0.012747393   0.13231   0.04399  -0.04942   0.35767
  51   31981.9    312.7   0.107572817   1.10732  -0.31733   0.10492  -0.99780
  52   32064.8    311.9   0.072508667   0.74445   0.79870   0.25828  -0.19956
  53   32248.9    310.1   0.064844184   0.66196   0.41400   0.26100   0.64996
  54   32341.9    309.2   0.372264972   3.78933   1.06387  -0.96539   1.31360
  55   32523.2    307.5   0.067875276   0.68706  -0.69074   0.17736  -0.42247
  56   32700.1    305.8   0.022623625   0.22777   0.33321  -0.33521   0.06612
  57   32864.4    304.3   0.164391254   1.64675  -0.15000   0.23543   1.25253
  58   33057.9    302.5   0.024437065   0.24336  -0.47328  -0.00655   0.13900
  59   33146.3    301.7   0.065726419   0.65280   0.27679   0.43717   0.62054
  60   33391.7    299.5   0.068734368   0.67766   0.35859   0.09633   0.73471
  61   33867.3    295.3   0.077217830   0.75061  -0.06767  -0.60459  -0.61685
  62   34012.8    294.0   0.368615909   3.56785  -0.23444  -1.59637  -0.98208
  63   34115.9    293.1   0.060065692   0.57962   0.13900   0.37336   0.64877
  64   34577.2    289.2   0.015624020   0.14876   0.13997  -0.35885  -0.01979
  65   34744.1    287.8   0.091680030   0.86870   0.77514   0.43354  -0.28267
  66   34968.0    286.0   0.026796813   0.25228   0.41044   0.27984   0.07426
  67   35029.7    285.5   0.188280091   1.76947  -0.46099  -1.24720  -0.03809
  68   35073.5    285.1   0.002606652   0.02447   0.08168   0.08203   0.10520
  69   35144.2    284.5   0.001889609   0.01770   0.10936   0.02803   0.07039
  70   35255.6    283.6   0.009124650   0.08520  -0.16745   0.16330   0.17463
  71   35463.4    282.0   0.115521442   1.07240   0.26617   0.94192   0.33815
  72   35834.0    279.1   0.011209630   0.10298   0.22677   0.03774  -0.22391
  73   35938.8    278.3   0.007542622   0.06909   0.06495  -0.25184  -0.03809
  74   35956.1    278.1   0.015175673   0.13895  -0.18453  -0.20373  -0.25178
  75   36033.3    277.5   0.054699118   0.49975   0.13344  -0.32716  -0.61230
  76   36153.3    276.6   0.009208499   0.08385   0.00075   0.28764  -0.03339
  77   36255.7    275.8   0.044282445   0.40210   0.03465   0.47723  -0.41611
  78   36331.6    275.2   0.017692311   0.16032  -0.00952   0.37243  -0.14669
  79   36466.3    274.2   0.044217017   0.39918  -0.19155  -0.49290   0.34574
  80   36618.7    273.1   0.005330702   0.04792  -0.19349  -0.09334   0.04211
  81   36675.9    272.7   0.004045523   0.03631  -0.05869  -0.17369  -0.05198
  82   36876.4    271.2   0.017604702   0.15717   0.06877  -0.13492  -0.36638
  83   37137.9    269.3   0.033081601   0.29325   0.52851  -0.11805  -0.00085
  84   37202.0    268.8   0.227032534   2.00908   0.31813   1.01290   0.93910
  85   37352.7    267.7   0.058557913   0.51611  -0.02682  -0.71522  -0.06205
  86   37537.6    266.4   0.163807753   1.43662  -0.79616  -0.15219   0.88294
  87   37563.4    266.2   0.031273009   0.27408  -0.37743  -0.06907   0.35617
  88   37710.8    265.2   0.024618673   0.21492   0.38021  -0.00226   0.26525
  89   37877.9    264.0   0.051891037   0.45101  -0.33841  -0.32516   0.48037
  90   38095.4    262.5   0.027365843   0.23649  -0.01174  -0.48221   0.06183
  91   38104.9    262.4   0.027145984   0.23453  -0.20754  -0.36583   0.24006
  92   38180.7    261.9   0.121134464   1.04448  -0.52669  -0.72061   0.49780
  93   38275.4    261.3   0.113620838   0.97727  -0.87267  -0.30876  -0.34695
  94   38414.3    260.3   0.015336837   0.13144  -0.30922   0.08022  -0.17142
  95   38693.6    258.4   0.015259335   0.12983   0.03785   0.35398   0.05564
  96   38770.2    257.9   0.081847606   0.69500  -0.63460  -0.27745  -0.46400
  97   38832.2    257.5   0.028180515   0.23891  -0.33304  -0.25829  -0.24755
  98   39119.7    255.6   0.015725428   0.13234   0.07446   0.34759  -0.07732
  99   39312.1    254.4   0.008815929   0.07383   0.05053   0.23920  -0.11856
 100   39525.8    253.0   0.003847593   0.03205   0.00691   0.08111   0.15944
 101   39546.5    252.9   0.004245797   0.03534  -0.08600   0.05451  -0.15804
 102   39596.0    252.6   0.033092305   0.27514  -0.17624  -0.17401   0.46238
 103   39853.1    250.9   0.037355692   0.30858  -0.40130  -0.38169  -0.04303
 104   39983.7    250.1   0.036350033   0.29929   0.49840   0.16961  -0.14875
 105   40133.3    249.2   0.036893506   0.30264  -0.27336   0.47431   0.05427

FINAL SINGLE POINT ENERGY     -3461.516726765708

DIPOLE MOMENT
-------------
                                X             Y             Z
Electronic contribution:      0.86082       6.60673       2.49044
Nuclear contribution   :     -3.47476     -10.46563      -2.36728
                        -----------------------------------------
Total Dipole Moment    :     -2.61393      -3.85890       0.12316
                        -----------------------------------------
Magnitude (a.u.)       :      4.66250
Magnitude (Debye)      :     11.85113

Rotational constants in cm-1:     0.001351     0.000624     0.000471
Rotational constants in MHz :    40.492956    18.713877    14.135078

                             ****ORCA TERMINATED NORMALLY****
TOTAL RUN TIME: 0 days 0 hours 23 minutes 14 seconds 603 msec
