                         Program Version 4.2.0 -  RELEASE  -
|  1> # ORCA input file
|  2> # SCF done       -200.663822129401          0.000423985191
|  3> ! CAM-B3LYP def2-SVP def2/J RIJCOSX Grid4 TightSCF
|  4> %maxcore 5000
|  5> %tddft
|  6>     Mode sTDDFT
|  7>     Ethresh 5.0
|  8>     maxcore 5000
|  9> end
| 10>
| 11> %pal
| 12>   nprocs 6
| 13>   end
| 14> * xyz 0 1
| 15>    C       -6.29843         3.87583         1.13760
| 16>    C       -6.96381         4.37326         0.02783
| 17>    C       -7.29744         3.54635        -1.03738
| 18>    C       -6.97521         2.19650        -1.02869
| 19>    C       -6.30796         1.68601         0.07189
| 20>    C       -5.96936         2.52889         1.15896
| 21>    C       -5.25003         1.74789         2.14620
| 22>    C       -4.94962         2.10806         3.42854
| 23>    C       -5.32716         3.33409         4.01559
| 24>    N       -5.58303         4.30373         4.57382
| 25>    C       -4.24160         1.31520         4.35918
| 26>    N       -3.65965         0.74620         5.16945
| 27>    C       -4.96048         0.45391         1.52243
| 28>    C       -5.86000         0.33297         0.37426
| 29>    C       -6.34898        -0.82168        -0.15794
| 30>    C       -6.12743        -2.10181         0.40032
| 31>    N       -6.09492        -3.13899         0.89027
| 32>    C       -7.26276        -0.85456        -1.23520
| 33>    N       -8.00513        -0.92288        -2.10608
| 34>    C       -3.91898        -0.32703         1.90441
| 35>    C       -3.39609        -1.49084         1.27809
| 36>    N       -3.67312        -1.86053         0.04038
| 37>    C       -2.97305        -2.99565        -0.17367
| 38>    C       -2.19547        -3.37434         1.01401
| 39>    C       -1.46003        -4.63083         0.77684
| 40>    O       -0.71932        -5.21699         1.53030
| 41>    C       -1.85939        -4.97650        -0.60242
| 42>    C       -2.77509        -3.94097        -1.14637
| 43>    N       -3.14610        -4.24910        -2.41283
| 44>    C       -2.54820        -5.38170        -2.67910
| 45>    C       -1.72908        -5.89444        -1.58900
| 46>    C       -2.44808        -2.41207         1.95699
| 47>    C       -1.98751        -2.25100         3.28908
| 48>    C       -1.11898        -3.07023         3.93121
| 49>    C       -0.68546        -2.77323         5.25086
| 50>    S       -1.23708        -1.35949         6.08044
| 51>    C       -0.25099        -1.69330         7.46351
| 52>    C        0.46820        -2.86916         7.28469
| 53>    C        0.22984        -3.47915         6.03738
| 54>    C        0.81364        -4.67980         5.58004
| 55>    N        1.25411        -5.65660         5.17713
| 56>    C        1.44928        -3.39500         8.29634
| 57>    F        2.25510        -2.43075         8.76201
| 58>    F        0.84850        -3.96918         9.34274
| 59>    F        2.26076        -4.32478         7.77054
| 60>    C       -0.28423        -0.84690         8.61062
| 61>    N        0.04053        -1.31048         9.80180
| 62>    C       -0.13530        -0.28854        10.66311
| 63>    C       -0.63124         0.91022         9.97073
| 64>    C       -0.79992         2.02281        10.92383
| 65>    O       -1.22429         3.13968        10.71395
| 66>    C       -0.34513         1.43252        12.19144
| 67>    C        0.03434         0.01091        11.99132
| 68>    N        0.46500        -0.53335        13.15305
| 69>    C        0.39740         0.43297        14.03341
| 70>    C       -0.09070         1.69315        13.49717
| 71>    C       -0.70939         0.57877         8.63919
| 72>    C       -1.02481         1.39738         7.52194
| 73>    C       -1.46826         2.67381         7.64337
| 74>    C       -1.75013         3.48248         6.51609
| 75>    C       -1.95568         4.83060         6.54782
| 76>    C       -2.60879         5.61256         5.50530
| 77>    C       -2.80591         5.24556         4.20140
| 78>    C       -2.41300         4.02417         3.62287
| 79>    N       -2.18912         3.04141         3.06852
| 80>    C       -3.48906         6.01912         3.23766
| 81>    N       -4.03931         6.55856         2.38694
| 82>    C       -3.04561         6.85201         6.12552
| 83>    C       -2.55990         6.89997         7.45374
| 84>    C       -2.86540         7.97086         8.27667
| 85>    C       -3.65467         8.99173         7.76753
| 86>    C       -4.12538         8.95003         6.46203
| 87>    C       -3.82685         7.88364         5.62800
| 88>    C       -1.73963         5.72102         7.68598
| 89>    C       -0.78003         5.57934         8.64842
| 90>    C       -0.59492         6.49210         9.70996
| 91>    N       -0.40879         7.20449        10.58917
| 92>    C        0.23294         4.59348         8.61926
| 93>    N        1.12831         3.87723         8.58315
| 94>    H       -6.02772         4.53336         1.94829
| 95>    H       -7.21604         5.42147        -0.00888
| 96>    H       -7.81059         3.96006        -1.89181
| 97>    H       -7.22665         1.56961        -1.86876
| 98>    H       -3.36282         0.00588         2.76885
| 99>    H       -2.67974        -5.85369        -3.63731
|100>    H       -1.16347        -6.80457        -1.61112
|101>    H       -2.36213        -1.39081         3.83141
|102>    H       -0.71925        -3.95623         3.45351
|103>    H        0.68396         0.25776        15.05584
|104>    H       -0.20965         2.60269        14.05181
|105>    H       -0.84326         1.00544         6.53141
|106>    H       -1.64224         3.08028         8.63003
|107>    H       -1.87878         2.96187         5.57668
|108>    H       -2.51289         8.00987         9.29459
|109>    H       -3.90742         9.82941         8.39934
|110>    H       -4.73788         9.75695         6.09004
|111>    H       -4.20644         7.85957         4.61967
|112> *
|113>
|114>                          ****END OF INPUT****

CARTESIAN COORDINATES (ANGSTROEM)
---------------------------------
  C     -6.298430    3.875830    1.137600
  C     -6.963810    4.373260    0.027830
  C     -7.297440    3.546350   -1.037380
  C     -6.975210    2.196500   -1.028690
  C     -6.307960    1.686010    0.071890
  C     -5.969360    2.528890    1.158960
  C     -5.250030    1.747890    2.146200
  C     -4.949620    2.108060    3.428540
  C     -5.327160    3.334090    4.015590
  N     -5.583030    4.303730    4.573820
  C     -4.241600    1.315200    4.359180
  N     -3.659650    0.746200    5.169450
  C     -4.960480    0.453910    1.522430
  C     -5.860000    0.332970    0.374260
  C     -6.348980   -0.821680   -0.157940
  C     -6.127430   -2.101810    0.400320
  N     -6.094920   -3.138990    0.890270
  C     -7.262760   -0.854560   -1.235200
  N     -8.005130   -0.922880   -2.106080
  C     -3.918980   -0.327030    1.904410
  C     -3.396090   -1.490840    1.278090
  N     -3.673120   -1.860530    0.040380
  C     -2.973050   -2.995650   -0.173670
  C     -2.195470   -3.374340    1.014010
  C     -1.460030   -4.630830    0.776840
  O     -0.719320   -5.216990    1.530300
  C     -1.859390   -4.976500   -0.602420
  C     -2.775090   -3.940970   -1.146370
  N     -3.146100   -4.249100   -2.412830
  C     -2.548200   -5.381700   -2.679100
  C     -1.729080   -5.894440   -1.589000
  C     -2.448080   -2.412070    1.956990
  C     -1.987510   -2.251000    3.289080
  C     -1.118980   -3.070230    3.931210
  C     -0.685460   -2.773230    5.250860
  S     -1.237080   -1.359490    6.080440
  C     -0.250990   -1.693300    7.463510
  C      0.468200   -2.869160    7.284690
  C      0.229840   -3.479150    6.037380
  C      0.813640   -4.679800    5.580040
  N      1.254110   -5.656600    5.177130
  C      1.449280   -3.395000    8.296340
  F      2.255100   -2.430750    8.762010
  F      0.848500   -3.969180    9.342740
  F      2.260760   -4.324780    7.770540
  C     -0.284230   -0.846900    8.610620
  N      0.040530   -1.310480    9.801800
  C     -0.135300   -0.288540   10.663110
  C     -0.631240    0.910220    9.970730
  C     -0.799920    2.022810   10.923830
  O     -1.224290    3.139680   10.713950
  C     -0.345130    1.432520   12.191440
  C      0.034340    0.010910   11.991320
  N      0.465000   -0.533350   13.153050
  C      0.397400    0.432970   14.033410
  C     -0.090700    1.693150   13.497170
  C     -0.709390    0.578770    8.639190
  C     -1.024810    1.397380    7.521940
  C     -1.468260    2.673810    7.643370
  C     -1.750130    3.482480    6.516090
  C     -1.955680    4.830600    6.547820
  C     -2.608790    5.612560    5.505300
  C     -2.805910    5.245560    4.201400
  C     -2.413000    4.024170    3.622870
  N     -2.189120    3.041410    3.068520
  C     -3.489060    6.019120    3.237660
  N     -4.039310    6.558560    2.386940
  C     -3.045610    6.852010    6.125520
  C     -2.559900    6.899970    7.453740
  C     -2.865400    7.970860    8.276670
  C     -3.654670    8.991730    7.767530
  C     -4.125380    8.950030    6.462030
  C     -3.826850    7.883640    5.628000
  C     -1.739630    5.721020    7.685980
  C     -0.780030    5.579340    8.648420
  C     -0.594920    6.492100    9.709960
  N     -0.408790    7.204490   10.589170
  C      0.232940    4.593480    8.619260
  N      1.128310    3.877230    8.583150
  H     -6.027720    4.533360    1.948290
  H     -7.216040    5.421470   -0.008880
  H     -7.810590    3.960060   -1.891810
  H     -7.226650    1.569610   -1.868760
  H     -3.362820    0.005880    2.768850
  H     -2.679740   -5.853690   -3.637310
  H     -1.163470   -6.804570   -1.611120
  H     -2.362130   -1.390810    3.831410
  H     -0.719250   -3.956230    3.453510
  H      0.683960    0.257760   15.055840
  H     -0.209650    2.602690   14.051810
  H     -0.843260    1.005440    6.531410
  H     -1.642240    3.080280    8.630030
  H     -1.878780    2.961870    5.576680
  H     -2.512890    8.009870    9.294590
  H     -3.907420    9.829410    8.399340
  H     -4.737880    9.756950    6.090040
  H     -4.206440    7.859570    4.619670

 Total Charge           Charge          ....    0
 Multiplicity           Mult            ....    1
 Number of Electrons    NEL             ....  528
 Basis Dimension        Dim             .... 1200

ORBITAL ENERGIES
----------------

  NO   OCC          E(Eh)            E(eV)
   0   2.0000     -89.000604     -2421.8296
   1   2.0000     -24.797032      -674.7615
   2   2.0000     -24.792320      -674.6333
   3   2.0000     -24.789533      -674.5575
   4   2.0000     -19.229719      -523.2673
   5   2.0000     -19.229048      -523.2490
   6   2.0000     -14.449633      -393.1945
   7   2.0000     -14.446085      -393.0980
   8   2.0000     -14.442469      -392.9996
   9   2.0000     -14.438166      -392.8825
  10   2.0000     -14.433976      -392.7685
  11   2.0000     -14.431506      -392.7012
  12   2.0000     -14.428426      -392.6174
  13   2.0000     -14.424703      -392.5161
  14   2.0000     -14.424246      -392.5037
  15   2.0000     -14.424157      -392.5013
  16   2.0000     -14.420704      -392.4073
  17   2.0000     -14.418477      -392.3467
  18   2.0000     -14.412392      -392.1811
  19   2.0000     -10.522608      -286.3347
  20   2.0000     -10.389148      -282.7031
  21   2.0000     -10.388327      -282.6808
  22   2.0000     -10.374671      -282.3092
  23   2.0000     -10.369465      -282.1675
  24   2.0000     -10.367799      -282.1222
  25   2.0000     -10.365287      -282.0538
  26   2.0000     -10.364793      -282.0404
  27   2.0000     -10.359594      -281.8989
  28   2.0000     -10.358876      -281.8793
  29   2.0000     -10.357781      -281.8496
  30   2.0000     -10.356725      -281.8208
  31   2.0000     -10.353572      -281.7350
  32   2.0000     -10.352766      -281.7131
  33   2.0000     -10.352072      -281.6942
  34   2.0000     -10.350824      -281.6602
  35   2.0000     -10.349817      -281.6328
  36   2.0000     -10.347612      -281.5728
  37   2.0000     -10.347422      -281.5677
  38   2.0000     -10.347345      -281.5656
  39   2.0000     -10.346379      -281.5393
  40   2.0000     -10.346313      -281.5375
  41   2.0000     -10.345650      -281.5194
  42   2.0000     -10.343010      -281.4476
  43   2.0000     -10.340806      -281.3876
  44   2.0000     -10.339479      -281.3515
  45   2.0000     -10.338720      -281.3309
  46   2.0000     -10.335664      -281.2477
  47   2.0000     -10.335257      -281.2366
  48   2.0000     -10.334106      -281.2053
  49   2.0000     -10.332082      -281.1502
  50   2.0000     -10.327999      -281.0391
  51   2.0000     -10.327956      -281.0380
  52   2.0000     -10.326642      -281.0022
  53   2.0000     -10.325514      -280.9715
  54   2.0000     -10.325415      -280.9688
  55   2.0000     -10.324484      -280.9435
  56   2.0000     -10.323534      -280.9176
  57   2.0000     -10.323174      -280.9079
  58   2.0000     -10.318366      -280.7770
  59   2.0000     -10.317690      -280.7586
  60   2.0000     -10.316333      -280.7217
  61   2.0000     -10.314949      -280.6840
  62   2.0000     -10.314356      -280.6679
  63   2.0000     -10.313524      -280.6452
  64   2.0000     -10.312751      -280.6242
  65   2.0000     -10.312373      -280.6139
  66   2.0000     -10.311954      -280.6025
  67   2.0000     -10.310516      -280.5634
  68   2.0000     -10.310094      -280.5519
  69   2.0000     -10.309392      -280.5328
  70   2.0000     -10.308838      -280.5177
  71   2.0000     -10.306989      -280.4674
  72   2.0000     -10.306718      -280.4600
  73   2.0000     -10.305444      -280.4254
  74   2.0000     -10.304895      -280.4104
  75   2.0000     -10.303806      -280.3808
  76   2.0000     -10.303772      -280.3799
  77   2.0000     -10.302638      -280.3490
  78   2.0000     -10.301470      -280.3172
  79   2.0000      -8.095442      -220.2882
  80   2.0000      -6.064520      -165.0240
  81   2.0000      -6.060280      -164.9086
  82   2.0000      -6.057930      -164.8447
  83   2.0000      -1.385946       -37.7135
  84   2.0000      -1.287377       -35.0313
  85   2.0000      -1.285621       -34.9835
  86   2.0000      -1.144336       -31.1390
  87   2.0000      -1.143785       -31.1240
  88   2.0000      -1.101374       -29.9699
  89   2.0000      -1.095552       -29.8115
  90   2.0000      -1.080741       -29.4085
  91   2.0000      -1.075063       -29.2539
  92   2.0000      -1.055646       -28.7256
  93   2.0000      -1.044758       -28.4293
  94   2.0000      -1.038530       -28.2598
  95   2.0000      -1.036386       -28.2015
  96   2.0000      -1.029928       -28.0258
  97   2.0000      -1.026093       -27.9214
  98   2.0000      -1.022274       -27.8175
  99   2.0000      -1.015304       -27.6278
 100   2.0000      -1.011676       -27.5291
 101   2.0000      -1.008919       -27.4541
 102   2.0000      -1.000836       -27.2341
 103   2.0000      -0.993503       -27.0346
 104   2.0000      -0.975170       -26.5357
 105   2.0000      -0.966877       -26.3101
 106   2.0000      -0.959417       -26.1071
 107   2.0000      -0.955800       -26.0087
 108   2.0000      -0.954164       -25.9641
 109   2.0000      -0.948263       -25.8036
 110   2.0000      -0.946173       -25.7467
 111   2.0000      -0.940856       -25.6020
 112   2.0000      -0.919239       -25.0138
 113   2.0000      -0.909406       -24.7462
 114   2.0000      -0.908154       -24.7121
 115   2.0000      -0.901466       -24.5301
 116   2.0000      -0.899931       -24.4884
 117   2.0000      -0.892510       -24.2864
 118   2.0000      -0.879292       -23.9267
 119   2.0000      -0.876370       -23.8472
 120   2.0000      -0.873021       -23.7561
 121   2.0000      -0.871690       -23.7199
 122   2.0000      -0.851860       -23.1803
 123   2.0000      -0.847749       -23.0684
 124   2.0000      -0.831068       -22.6145
 125   2.0000      -0.809473       -22.0269
 126   2.0000      -0.807975       -21.9861
 127   2.0000      -0.800883       -21.7931
 128   2.0000      -0.797567       -21.7029
 129   2.0000      -0.791769       -21.5451
 130   2.0000      -0.773739       -21.0545
 131   2.0000      -0.771480       -20.9930
 132   2.0000      -0.765007       -20.8169
 133   2.0000      -0.744663       -20.2633
 134   2.0000      -0.737679       -20.0733
 135   2.0000      -0.736764       -20.0484
 136   2.0000      -0.731321       -19.9003
 137   2.0000      -0.729386       -19.8476
 138   2.0000      -0.728587       -19.8259
 139   2.0000      -0.722843       -19.6696
 140   2.0000      -0.715011       -19.4564
 141   2.0000      -0.706236       -19.2176
 142   2.0000      -0.696096       -18.9417
 143   2.0000      -0.691367       -18.8131
 144   2.0000      -0.686468       -18.6798
 145   2.0000      -0.683396       -18.5962
 146   2.0000      -0.676404       -18.4059
 147   2.0000      -0.675822       -18.3900
 148   2.0000      -0.674027       -18.3412
 149   2.0000      -0.668406       -18.1883
 150   2.0000      -0.667402       -18.1609
 151   2.0000      -0.664336       -18.0775
 152   2.0000      -0.658446       -17.9172
 153   2.0000      -0.653791       -17.7905
 154   2.0000      -0.644477       -17.5371
 155   2.0000      -0.643195       -17.5022
 156   2.0000      -0.638446       -17.3730
 157   2.0000      -0.633503       -17.2385
 158   2.0000      -0.624643       -16.9974
 159   2.0000      -0.619701       -16.8629
 160   2.0000      -0.608940       -16.5701
 161   2.0000      -0.603900       -16.4330
 162   2.0000      -0.602054       -16.3827
 163   2.0000      -0.593586       -16.1523
 164   2.0000      -0.593258       -16.1434
 165   2.0000      -0.587846       -15.9961
 166   2.0000      -0.583794       -15.8859
 167   2.0000      -0.579601       -15.7717
 168   2.0000      -0.573948       -15.6179
 169   2.0000      -0.569131       -15.4868
 170   2.0000      -0.566593       -15.4178
 171   2.0000      -0.565296       -15.3825
 172   2.0000      -0.563160       -15.3244
 173   2.0000      -0.559604       -15.2276
 174   2.0000      -0.557227       -15.1629
 175   2.0000      -0.553408       -15.0590
 176   2.0000      -0.552636       -15.0380
 177   2.0000      -0.548868       -14.9355
 178   2.0000      -0.546022       -14.8580
 179   2.0000      -0.545049       -14.8315
 180   2.0000      -0.544058       -14.8046
 181   2.0000      -0.542693       -14.7674
 182   2.0000      -0.541424       -14.7329
 183   2.0000      -0.536225       -14.5914
 184   2.0000      -0.534134       -14.5345
 185   2.0000      -0.532051       -14.4778
 186   2.0000      -0.530322       -14.4308
 187   2.0000      -0.527009       -14.3407
 188   2.0000      -0.525134       -14.2896
 189   2.0000      -0.521793       -14.1987
 190   2.0000      -0.518068       -14.0974
 191   2.0000      -0.517293       -14.0763
 192   2.0000      -0.515918       -14.0389
 193   2.0000      -0.513473       -13.9723
 194   2.0000      -0.509676       -13.8690
 195   2.0000      -0.507309       -13.8046
 196   2.0000      -0.501049       -13.6342
 197   2.0000      -0.499646       -13.5961
 198   2.0000      -0.498494       -13.5647
 199   2.0000      -0.496507       -13.5106
 200   2.0000      -0.493823       -13.4376
 201   2.0000      -0.492692       -13.4068
 202   2.0000      -0.490501       -13.3472
 203   2.0000      -0.488057       -13.2807
 204   2.0000      -0.484499       -13.1839
 205   2.0000      -0.482599       -13.1322
 206   2.0000      -0.480145       -13.0654
 207   2.0000      -0.479868       -13.0579
 208   2.0000      -0.477855       -13.0031
 209   2.0000      -0.477569       -12.9953
 210   2.0000      -0.476883       -12.9766
 211   2.0000      -0.475324       -12.9342
 212   2.0000      -0.475008       -12.9256
 213   2.0000      -0.471975       -12.8431
 214   2.0000      -0.470769       -12.8103
 215   2.0000      -0.466791       -12.7020
 216   2.0000      -0.463819       -12.6211
 217   2.0000      -0.463590       -12.6149
 218   2.0000      -0.461556       -12.5596
 219   2.0000      -0.461137       -12.5482
 220   2.0000      -0.457329       -12.4445
 221   2.0000      -0.454815       -12.3761
 222   2.0000      -0.454697       -12.3729
 223   2.0000      -0.453985       -12.3535
 224   2.0000      -0.450711       -12.2645
 225   2.0000      -0.449291       -12.2258
 226   2.0000      -0.446608       -12.1528
 227   2.0000      -0.445111       -12.1121
 228   2.0000      -0.443608       -12.0712
 229   2.0000      -0.442205       -12.0330
 230   2.0000      -0.441832       -12.0228
 231   2.0000      -0.438578       -11.9343
 232   2.0000      -0.437429       -11.9030
 233   2.0000      -0.436801       -11.8859
 234   2.0000      -0.433767       -11.8034
 235   2.0000      -0.431679       -11.7466
 236   2.0000      -0.428561       -11.6617
 237   2.0000      -0.425784       -11.5862
 238   2.0000      -0.425419       -11.5763
 239   2.0000      -0.418432       -11.3861
 240   2.0000      -0.413430       -11.2500
 241   2.0000      -0.407126       -11.0785
 242   2.0000      -0.400203       -10.8901
 243   2.0000      -0.391899       -10.6641
 244   2.0000      -0.390618       -10.6293
 245   2.0000      -0.382393       -10.4054
 246   2.0000      -0.377648       -10.2763
 247   2.0000      -0.372861       -10.1461
 248   2.0000      -0.371684       -10.1140
 249   2.0000      -0.368035       -10.0148
 250   2.0000      -0.365889        -9.9563
 251   2.0000      -0.356562        -9.7025
 252   2.0000      -0.353471        -9.6184
 253   2.0000      -0.348930        -9.4949
 254   2.0000      -0.348220        -9.4755
 255   2.0000      -0.346889        -9.4393
 256   2.0000      -0.345593        -9.4041
 257   2.0000      -0.339782        -9.2459
 258   2.0000      -0.339450        -9.2369
 259   2.0000      -0.337349        -9.1797
 260   2.0000      -0.323392        -8.7999
 261   2.0000      -0.315834        -8.5943
 262   2.0000      -0.293802        -7.9948
 263   2.0000      -0.285208        -7.7609
 264   0.0000      -0.147230        -4.0063
 265   0.0000      -0.133257        -3.6261
 266   0.0000      -0.110377        -3.0035
 267   0.0000      -0.098918        -2.6917
 268   0.0000      -0.092250        -2.5102

MULLIKEN ATOMIC CHARGES
-----------------------
   0 C :   -0.027889
   1 C :    0.050895
   2 C :    0.052963
   3 C :   -0.032267
   4 C :    0.019634
   5 C :    0.018893
   6 C :    0.283684
   7 C :   -0.343845
   8 C :   -0.183561
   9 N :    0.162436
  10 C :   -0.153081
  11 N :    0.152059
  12 C :   -0.007242
  13 C :    0.208374
  14 C :   -0.244407
  15 C :   -0.172557
  16 N :    0.166869
  17 C :   -0.195798
  18 N :    0.176835
  19 C :   -0.017150
  20 C :    0.038621
  21 N :   -0.054096
  22 C :    0.094689
  23 C :   -0.153592
  24 C :    0.224916
  25 O :   -0.114673
  26 C :   -0.012333
  27 C :   -0.020120
  28 N :   -0.049341
  29 C :    0.105693
  30 C :   -0.089999
  31 C :    0.086142
  32 C :   -0.059590
  33 C :    0.036391
  34 C :   -0.060710
  35 S :    0.174972
  36 C :   -0.162113
  37 C :   -0.015880
  38 C :   -0.057871
  39 C :   -0.232207
  40 N :    0.184081
  41 C :    0.545788
  42 F :   -0.154205
  43 F :   -0.139962
  44 F :   -0.145450
  45 C :    0.058677
  46 N :   -0.022178
  47 C :    0.080252
  48 C :   -0.155943
  49 C :    0.246393
  50 O :   -0.148461
  51 C :   -0.012950
  52 C :   -0.017804
  53 N :   -0.041648
  54 C :    0.098746
  55 C :   -0.089768
  56 C :    0.046033
  57 C :   -0.016866
  58 C :    0.008075
  59 C :    0.020453
  60 C :   -0.040579
  61 C :    0.329386
  62 C :   -0.363167
  63 C :   -0.170993
  64 N :    0.127061
  65 C :   -0.167633
  66 N :    0.146962
  67 C :    0.010707
  68 C :    0.012164
  69 C :   -0.032465
  70 C :    0.051030
  71 C :    0.046013
  72 C :   -0.022229
  73 C :    0.225579
  74 C :   -0.296616
  75 C :   -0.181645
  76 N :    0.166926
  77 C :   -0.200202
  78 N :    0.173348
  79 H :    0.009087
  80 H :    0.012209
  81 H :    0.010723
  82 H :    0.012659
  83 H :    0.026716
  84 H :    0.021235
  85 H :    0.007467
  86 H :    0.000682
  87 H :    0.039216
  88 H :    0.019424
  89 H :    0.005096
  90 H :    0.006788
  91 H :    0.045123
  92 H :    0.010175
  93 H :    0.008439
  94 H :    0.006630
  95 H :    0.003799
  96 H :    0.003877
Sum of atomic charges:   -0.0000000

LOEWDIN ATOMIC CHARGES
----------------------
   0 C :    0.014340
   1 C :    0.008426
   2 C :    0.014034
   3 C :    0.003102
   4 C :   -0.002629
   5 C :   -0.017921
   6 C :    0.085330
   7 C :   -0.120207
   8 C :   -0.012681
   9 N :   -0.037942
  10 C :   -0.006608
  11 N :   -0.061971
  12 C :    0.017588
  13 C :    0.061495
  14 C :   -0.085364
  15 C :   -0.015852
  16 N :   -0.040246
  17 C :   -0.015859
  18 N :   -0.027177
  19 C :    0.020886
  20 C :    0.057575
  21 N :   -0.071187
  22 C :    0.044643
  23 C :   -0.030838
  24 C :    0.070373
  25 O :   -0.118398
  26 C :   -0.034635
  27 C :    0.048613
  28 N :   -0.091334
  29 C :    0.095840
  30 C :   -0.020316
  31 C :   -0.023419
  32 C :   -0.019028
  33 C :   -0.000651
  34 C :   -0.125456
  35 S :    0.538926
  36 C :   -0.169509
  37 C :   -0.057636
  38 C :   -0.082602
  39 C :   -0.044056
  40 N :   -0.023132
  41 C :    0.165514
  42 F :   -0.050542
  43 F :   -0.041828
  44 F :   -0.042681
  45 C :    0.046234
  46 N :   -0.079283
  47 C :    0.044643
  48 C :   -0.021592
  49 C :    0.079327
  50 O :   -0.137327
  51 C :   -0.036241
  52 C :    0.041666
  53 N :   -0.086649
  54 C :    0.089014
  55 C :   -0.023456
  56 C :   -0.033493
  57 C :    0.011793
  58 C :    0.001879
  59 C :    0.059225
  60 C :   -0.044584
  61 C :    0.089658
  62 C :   -0.138384
  63 C :   -0.006394
  64 N :   -0.066582
  65 C :   -0.013221
  66 N :   -0.058458
  67 C :   -0.013422
  68 C :   -0.004963
  69 C :    0.002736
  70 C :    0.008899
  71 C :    0.001159
  72 C :    0.011234
  73 C :    0.066556
  74 C :   -0.108143
  75 C :   -0.013837
  76 N :   -0.038700
  77 C :   -0.018275
  78 N :   -0.044112
  79 H :    0.042100
  80 H :    0.041798
  81 H :    0.040306
  82 H :    0.043151
  83 H :    0.047789
  84 H :    0.028956
  85 H :    0.039861
  86 H :    0.022211
  87 H :    0.048068
  88 H :    0.028000
  89 H :    0.038707
  90 H :    0.019822
  91 H :    0.034802
  92 H :    0.042356
  93 H :    0.042175
  94 H :    0.038584
  95 H :    0.037716
  96 H :    0.041709

  Mayer bond orders larger than 0.100000
B(  0-C ,  1-C ) :   1.3825 B(  0-C ,  5-C ) :   1.3665 B(  0-C , 79-H ) :   0.9864
B(  1-C ,  2-C ) :   1.3692 B(  1-C , 80-H ) :   0.9868 B(  2-C ,  3-C ) :   1.3639
B(  2-C , 81-H ) :   0.9863 B(  3-C ,  4-C ) :   1.3893 B(  3-C , 82-H ) :   0.9870
B(  4-C ,  5-C ) :   1.2943 B(  4-C , 13-C ) :   1.0087 B(  5-C ,  6-C ) :   1.0170
B(  6-C ,  7-C ) :   1.6709 B(  6-C , 12-C ) :   1.0110 B(  7-C ,  8-C ) :   1.1625
B(  7-C , 10-C ) :   1.1300 B(  8-C ,  9-N ) :   2.9187 B( 10-C , 11-N ) :   2.9422
B( 12-C , 13-C ) :   0.9947 B( 12-C , 19-C ) :   1.6943 B( 13-C , 14-C ) :   1.7247
B( 14-C , 15-C ) :   1.1419 B( 14-C , 17-C ) :   1.1436 B( 15-C , 16-N ) :   2.9751
B( 17-C , 18-N ) :   2.9966 B( 19-C , 20-C ) :   1.1007 B( 19-C , 83-H ) :   0.9208
B( 20-C , 21-N ) :   1.5751 B( 20-C , 22-C ) :   0.1140 B( 20-C , 31-C ) :   1.0238
B( 21-N , 22-C ) :   1.2959 B( 22-C , 23-C ) :   1.0621 B( 22-C , 27-C ) :   1.4332
B( 23-C , 24-C ) :   0.8896 B( 23-C , 31-C ) :   1.5530 B( 24-C , 25-O ) :   2.2228
B( 24-C , 26-C ) :   0.9143 B( 26-C , 27-C ) :   1.0531 B( 26-C , 30-C ) :   1.6337
B( 27-C , 28-N ) :   1.3034 B( 28-N , 29-C ) :   1.6651 B( 29-C , 30-C ) :   1.0447
B( 29-C , 84-H ) :   0.9882 B( 30-C , 85-H ) :   1.0104 B( 31-C , 32-C ) :   1.1238
B( 32-C , 33-C ) :   1.6360 B( 32-C , 86-H ) :   0.9483 B( 33-C , 34-C ) :   1.1614
B( 33-C , 87-H ) :   0.9557 B( 34-C , 35-S ) :   1.1435 B( 34-C , 36-C ) :   0.1002
B( 34-C , 38-C ) :   1.4357 B( 35-S , 36-C ) :   1.1603 B( 36-C , 37-C ) :   1.5056
B( 36-C , 45-C ) :   1.0637 B( 37-C , 38-C ) :   1.3331 B( 37-C , 41-C ) :   0.9262
B( 38-C , 39-C ) :   1.1160 B( 39-C , 40-N ) :   3.0182 B( 41-C , 42-F ) :   1.1692
B( 41-C , 43-F ) :   1.1987 B( 41-C , 44-F ) :   1.1635 B( 45-C , 46-N ) :   1.6277
B( 45-C , 47-C ) :   0.1244 B( 45-C , 56-C ) :   1.0250 B( 46-N , 47-C ) :   1.3412
B( 47-C , 48-C ) :   1.0616 B( 47-C , 52-C ) :   1.4170 B( 48-C , 49-C ) :   0.8882
B( 48-C , 56-C ) :   1.5603 B( 49-C , 50-O ) :   2.1467 B( 49-C , 51-C ) :   0.9376
B( 51-C , 52-C ) :   1.0546 B( 51-C , 55-C ) :   1.6110 B( 52-C , 53-N ) :   1.3151
B( 53-N , 54-C ) :   1.6544 B( 54-C , 55-C ) :   1.0584 B( 54-C , 88-H ) :   0.9888
B( 55-C , 89-H ) :   1.0119 B( 56-C , 57-C ) :   1.0853 B( 57-C , 58-C ) :   1.6585
B( 57-C , 90-H ) :   0.9578 B( 58-C , 59-C ) :   1.1313 B( 58-C , 91-H ) :   0.9393
B( 59-C , 60-C ) :   1.5796 B( 59-C , 92-H ) :   0.9529 B( 60-C , 61-C ) :   1.0507
B( 60-C , 73-C ) :   1.0101 B( 61-C , 62-C ) :   1.6260 B( 61-C , 67-C ) :   1.0113
B( 62-C , 63-C ) :   1.1530 B( 62-C , 65-C ) :   1.1442 B( 63-C , 64-N ) :   2.8988
B( 65-C , 66-N ) :   2.9277 B( 67-C , 68-C ) :   1.3051 B( 67-C , 72-C ) :   1.3797
B( 68-C , 69-C ) :   1.3852 B( 68-C , 73-C ) :   1.0101 B( 69-C , 70-C ) :   1.3655
B( 69-C , 93-H ) :   0.9863 B( 70-C , 71-C ) :   1.3755 B( 70-C , 94-H ) :   0.9859
B( 71-C , 72-C ) :   1.3742 B( 71-C , 95-H ) :   0.9856 B( 72-C , 96-H ) :   0.9829
B( 73-C , 74-C ) :   1.6731 B( 74-C , 75-C ) :   1.1445 B( 74-C , 77-C ) :   1.1508
B( 75-C , 76-N ) :   2.9944 B( 77-C , 78-N ) :   2.9967

-----------------------------------------------------------------------------
         ABSORPTION SPECTRUM VIA TRANSITION ELECTRIC DIPOLE MOMENTS
-----------------------------------------------------------------------------
State   Energy  Wavelength   fosc         T2         TX        TY        TZ
        (cm-1)    (nm)                  (au**2)     (au)      (au)      (au)
-----------------------------------------------------------------------------
   0   14605.8    684.7   0.116897933   2.63486  -0.02222   0.83774   1.39017
   1   17281.4    578.7   0.075437459   1.43709  -0.16374   0.77679  -0.89826
   2   18898.7    529.1   0.352034885   6.13239   0.85715   0.25811   2.30891
   3   19257.1    519.3   0.524806630   8.97191  -0.08711  -1.41742  -2.63728
   4   19954.5    501.1   0.006301709   0.10397  -0.32146   0.01428  -0.02059
   5   20819.9    480.3   0.101047085   1.59779   0.69381  -0.56848  -0.89064
   6   21469.5    465.8   0.022600613   0.34656   0.04486   0.52906   0.25423
   7   21846.5    457.7   0.307585354   4.63511  -0.41190   1.88564  -0.95383
   8   23471.7    426.0   0.011545804   0.16194  -0.17619   0.36119   0.02084
   9   24124.0    414.5   0.262235188   3.57864  -0.59278   0.26624  -1.77662
  10   24393.0    410.0   0.010175509   0.13733   0.12639  -0.21817  -0.27158
  11   24618.8    406.2   0.020154673   0.26952   0.23010  -0.45683   0.08871
  12   24979.6    400.3   0.395431948   5.21149  -0.46098   1.91094   1.16073
  13   25035.2    399.4   0.069654174   0.91595  -0.54236   0.72853   0.30174
  14   25077.2    398.8   0.056984619   0.74809   0.45886   0.34339   0.64778
  15   25550.7    391.4   0.366549655   4.72286  -0.83840   0.67362  -1.88843
  16   25883.2    386.4   0.210179980   2.67331   0.04587  -0.30827  -1.60505
  17   26711.7    374.4   0.079589207   0.98091   0.33421  -0.70522  -0.60982
  18   26824.8    372.8   0.004836353   0.05935  -0.08150   0.05094  -0.22387
  19   26865.9    372.2   0.081820655   1.00262  -0.23046  -0.89460  -0.38626
  20   27154.9    368.3   0.179904713   2.18107   0.99924  -0.94505   0.53804
  21   27683.4    361.2   0.003798988   0.04518   0.17102   0.10903   0.06358
  22   27860.4    358.9   0.061155318   0.72264  -0.27647  -0.27269  -0.75621
  23   28181.0    354.8   0.067172912   0.78472  -0.57136   0.52177   0.43130
  24   28470.5    351.2   0.081286906   0.93994  -0.07549   0.93529   0.24388
  25   28998.2    344.8   0.013263259   0.15058  -0.14021   0.33168  -0.14459
  26   29374.0    340.4   0.002173182   0.02436   0.02164   0.15343   0.01861
  27   29410.7    340.0   0.239186310   2.67736  -0.17253  -1.12481  -1.17575
  28   29641.8    337.4   0.011652890   0.12942   0.03481  -0.32290  -0.15473
  29   29865.4    334.8   0.142709180   1.57311  -0.21998  -0.46223  -1.14502
  30   29947.9    333.9   0.119793392   1.31687   0.29312   0.48000   1.00027
  31   30360.6    329.4   0.122452899   1.32780  -0.61287  -0.38050  -0.89856
  32   30670.5    326.0   0.042188109   0.45284  -0.30117   0.28060  -0.53235
  33   31056.0    322.0   0.010082895   0.10688  -0.14594  -0.01940  -0.29190
  34   31150.2    321.0   0.206016579   2.17730   0.35019   0.83552   1.16472
  35   31372.0    318.8   0.013232859   0.13886   0.24016  -0.28071   0.04887
  36   31568.8    316.8   0.006434303   0.06710  -0.08270   0.24168   0.04301
  37   32279.6    309.8   0.056406947   0.57528   0.31543   0.08274   0.68479
  38   32364.9    309.0   0.078701374   0.80054  -0.71930   0.04633  -0.53010
  39   32534.6    307.4   0.467131898   4.72682  -0.81987  -0.21369  -2.00224
  40   32784.6    305.0   0.025190367   0.25295   0.36708  -0.06579   0.33746
  41   33099.5    302.1   0.127003552   1.26319   0.10429  -1.05366  -0.37699
  42   33492.7    298.6   0.022625791   0.22240  -0.22117   0.41612   0.01792
  43   33978.2    294.3   0.007155218   0.06933   0.00832   0.17810   0.19375
  44   34016.5    294.0   0.003620527   0.03504  -0.04365  -0.09333  -0.15628
  45   34571.1    289.3   0.094321628   0.89820   0.58486  -0.74186   0.07602
  46   34700.8    288.2   0.077256012   0.73294   0.20237  -0.78179   0.28424
  47   34909.4    286.5   0.045772895   0.43166   0.11943  -0.64442   0.04608
  48   35157.3    284.4   0.177056778   1.65796   0.89254  -0.75203   0.54386
  49   35406.3    282.4   0.035250084   0.32776  -0.09416  -0.25909  -0.50176
  50   35556.6    281.2   0.039756241   0.36810   0.24789  -0.43467  -0.34309
  51   35631.2    280.7   0.046108516   0.42602   0.31131  -0.47796  -0.31727
  52   35844.8    279.0   0.087116683   0.80011  -0.56331   0.52475  -0.45544
  53   35976.4    278.0   0.342477694   3.13394  -0.93348   0.24941  -1.48336
  54   36054.6    277.4   0.001815447   0.01658   0.12336  -0.03484   0.01204
  55   36165.3    276.5   0.133343343   1.21382   0.30200  -1.00331  -0.34056
  56   36233.1    276.0   0.001793577   0.01630   0.03009  -0.00191  -0.12404
  57   36594.3    273.3   0.134936770   1.21393  -0.22217   0.98232  -0.44677
  58   36865.2    271.3   0.027081738   0.24184   0.22160  -0.38750  -0.20634
  59   36942.6    270.7   0.005352045   0.04769  -0.13196   0.10455  -0.13910
  60   36994.9    270.3   0.110966468   0.98747  -0.15778  -0.24277  -0.95060
  61   37373.3    267.6   0.123201128   1.08525   0.39887  -0.45863   0.84605
  62   37470.8    266.9   0.069515847   0.61075   0.10866   0.65343   0.41470
  63   37500.9    266.7   0.075243586   0.66055   0.06970  -0.67119  -0.45298
  64   37590.8    266.0   0.094184034   0.82484  -0.23906   0.84332   0.23772
  65   37642.3    265.7   0.016071592   0.14056   0.14063  -0.34625   0.02984
  66   37711.1    265.2   0.032808576   0.28641   0.16284   0.35223   0.36855
  67   37910.0    263.8   0.034826430   0.30243   0.29153  -0.46365   0.04969
  68   38028.9    263.0   0.010126787   0.08767  -0.15788   0.22645   0.10706
  69   38339.9    260.8   0.160639266   1.37936   0.34665   0.64332   0.91941
  70   38450.4    260.1   0.010798443   0.09246  -0.04080   0.12141  -0.27577
  71   38606.0    259.0   0.006718694   0.05729   0.06019  -0.22781   0.04209
  72   38715.4    258.3   0.007603680   0.06466   0.14995  -0.18733   0.08414
  73   38960.5    256.7   0.017809681   0.15049  -0.04983  -0.11716   0.36644
  74   39035.9    256.2   0.043621333   0.36788  -0.44834   0.39142  -0.11692
  75   39226.7    254.9   0.194094767   1.62895  -0.22102   1.21538   0.32085
  76   39376.4    254.0   0.099372726   0.83082   0.06079   0.80860   0.41628
  77   39812.9    251.2   0.130772426   1.08135   0.36935  -0.87770  -0.41782
  78   39842.8    251.0   0.025677298   0.21217   0.18251  -0.41484   0.08222
  79   39884.8    250.7   0.001240794   0.01024  -0.00525  -0.09295   0.03967
  80   39927.4    250.5   0.006283093   0.05181   0.03562  -0.22002   0.04612
  81   40051.9    249.7   0.089655492   0.73694   0.34226  -0.56674  -0.54645
  82   40112.5    249.3   0.009145494   0.07506   0.09612  -0.16762  -0.19422

FINAL SINGLE POINT ENERGY     -3852.354377844226

DIPOLE MOMENT
-------------
                                X             Y             Z
Electronic contribution:     24.42257     -36.97878      17.19449
Nuclear contribution   :    -26.48273      39.91031     -18.33132
                        -----------------------------------------
Total Dipole Moment    :     -2.06017       2.93153      -1.13683
                        -----------------------------------------
Magnitude (a.u.)       :      3.75906
Magnitude (Debye)      :      9.55478

Rotational constants in cm-1:     0.000953     0.000669     0.000417
Rotational constants in MHz :    28.559090    20.043554    12.494683

                             ****ORCA TERMINATED NORMALLY****
TOTAL RUN TIME: 0 days 0 hours 11 minutes 35 seconds 675 msec
