                         Program Version 4.2.0 -  RELEASE  -
|  1> # ORCA input file
|  2> # SCF done       -191.910105273732          0.000518694724
|  3> ! CAM-B3LYP def2-SVP def2/J RIJCOSX Grid4 TightSCF
|  4> %maxcore 5000
|  5> %tddft
|  6>     Mode sTDDFT
|  7>     Ethresh 5.0
|  8>     maxcore 5000
|  9> end
| 10>
| 11> %pal
| 12>   nprocs 6
| 13>   end
| 14> * xyz 0 1
| 15>    C        1.68732         0.85125        -6.98811
| 16>    C        1.40738         0.61503        -8.32522
| 17>    C        0.48307        -0.34964        -8.70504
| 18>    C       -0.19469        -1.10287        -7.75822
| 19>    C        0.07378        -0.87550        -6.41838
| 20>    C        1.02207         0.10114        -6.02972
| 21>    C        1.11905         0.11207        -4.57916
| 22>    C        1.77412         1.02570        -3.80295
| 23>    C        2.50529         2.11791        -4.32150
| 24>    N        3.11368         3.01834        -4.68753
| 25>    C        1.76319         1.02858        -2.38980
| 26>    N        1.77751         1.07793        -1.24330
| 27>    C        0.35206        -1.04385        -4.10582
| 28>    C       -0.49129        -1.47852        -5.22187
| 29>    C       -1.69009        -2.11867        -5.12736
| 30>    C       -2.32160        -2.43296        -3.90242
| 31>    N       -2.91654        -2.62249        -2.94019
| 32>    C       -2.49820        -2.43347        -6.24232
| 33>    N       -3.18946        -2.70157        -7.11694
| 34>    C        0.56163        -1.65621        -2.91324
| 35>    C        0.11998        -2.95340        -2.52399
| 36>    N       -0.22952        -3.88460        -3.39476
| 37>    C       -0.51252        -4.98488        -2.66361
| 38>    C       -0.32721        -4.73719        -1.23214
| 39>    C       -0.66033        -5.94046        -0.45784
| 40>    O       -0.60931        -6.10735         0.74306
| 41>    C       -1.06623        -6.90013        -1.50497
| 42>    C       -0.95010        -6.27422        -2.84073
| 43>    N       -1.31782        -7.14489        -3.81248
| 44>    C       -1.65417        -8.24053        -3.18002
| 45>    C       -1.52313        -8.15543        -1.73372
| 46>    C        0.08599        -3.42740        -1.12113
| 47>    C        0.38532        -2.64163         0.01877
| 48>    C        0.34586        -3.15121         1.27913
| 49>    C        0.62996        -2.42378         2.45331
| 50>    C        0.63697        -2.94208         3.75958
| 51>    C        0.33069        -4.37752         4.05177
| 52>    C        0.36851        -4.73211         5.53275
| 53>    C        0.96066        -1.97611         4.69951
| 54>    C        1.20202        -0.71186         4.16432
| 55>    S        1.02478        -0.73214         2.43573
| 56>    C        1.54742         0.48045         4.82996
| 57>    C        1.74974         0.58105         6.17642
| 58>    C        2.08743         1.79659         6.80487
| 59>    N        2.06968         2.97181         6.17254
| 60>    C        2.36066         3.89923         7.09329
| 61>    C        2.55680         3.28602         8.41714
| 62>    C        2.92376         4.28914         9.42863
| 63>    O        3.17766         4.10063        10.60041
| 64>    C        2.91203         5.53336         8.64742
| 65>    C        2.56180         5.25630         7.23411
| 66>    N        2.57404         6.39611         6.50967
| 67>    C        2.91163         7.34165         7.35814
| 68>    C        3.14505         6.87209         8.70428
| 69>    C        2.41727         1.93989         8.24238
| 70>    C        2.66337         0.96869         9.25966
| 71>    C        3.20700        -0.25241         9.08949
| 72>    C        3.54070        -1.11476        10.18209
| 73>    C        3.98221        -0.73626        11.40885
| 74>    C        3.96270        -1.59424        12.59622
| 75>    C        3.87040        -2.95834        12.62733
| 76>    C        3.81695        -3.80126        11.49663
| 77>    N        3.76778        -4.54581        10.62379
| 78>    C        3.85399        -3.72199        13.81506
| 79>    N        3.83749        -4.40310        14.73831
| 80>    C        4.05129        -0.71224        13.74942
| 81>    C        4.30313         0.60481        13.30129
| 82>    C        4.38945         1.65570        14.19954
| 83>    C        4.23990         1.38126        15.55019
| 84>    C        4.01295         0.08554        15.99574
| 85>    C        3.91284        -0.97180        15.10502
| 86>    C        4.44239         0.58569        11.85456
| 87>    C        5.12426         1.51393        11.12252
| 88>    C        5.69644         2.68301        11.67448
| 89>    N        6.21792         3.62351        12.07193
| 90>    C        5.44454         1.38527         9.75441
| 91>    N        5.78064         1.32164         8.65892
| 92>    H        2.41409         1.59693        -6.70981
| 93>    H        1.92165         1.18802        -9.08129
| 94>    H        0.28930        -0.51889        -9.75303
| 95>    H       -0.90276        -1.85578        -8.06396
| 96>    H        1.20246        -1.16271        -2.19610
| 97>    H       -1.98945        -9.10379        -3.72806
| 98>    H       -1.74954        -8.94216        -1.04168
| 99>    H        0.64960        -1.60222        -0.12786
|100>    H        0.08144        -4.19221         1.41171
|101>    H        1.04647        -5.00488         3.51323
|102>    H       -0.65763        -4.61484         3.64874
|103>    H        1.35839        -4.56224         5.94982
|104>    H        0.12441        -5.78344         5.66045
|105>    H       -0.35727        -4.14562         6.09152
|106>    H        1.01996        -2.16948         5.75389
|107>    H        1.67346         1.37561         4.23659
|108>    H        1.64596        -0.28657         6.81041
|109>    H        2.99350         8.36216         7.02642
|110>    H        3.43585         7.48001         9.53791
|111>    H        2.47445         1.32490        10.26620
|112>    H        3.38266        -0.64428         8.09728
|113>    H        3.37550        -2.16942        10.00478
|114>    H        4.54893         2.66571        13.85851
|115>    H        4.29854         2.18826        16.26427
|116>    H        3.90335        -0.10368        17.05264
|117>    H        3.72226        -1.96846        15.46791
|118> *
|119>
|120>                          ****END OF INPUT****

CARTESIAN COORDINATES (ANGSTROEM)
---------------------------------
  C      1.687320    0.851250   -6.988110
  C      1.407380    0.615030   -8.325220
  C      0.483070   -0.349640   -8.705040
  C     -0.194690   -1.102870   -7.758220
  C      0.073780   -0.875500   -6.418380
  C      1.022070    0.101140   -6.029720
  C      1.119050    0.112070   -4.579160
  C      1.774120    1.025700   -3.802950
  C      2.505290    2.117910   -4.321500
  N      3.113680    3.018340   -4.687530
  C      1.763190    1.028580   -2.389800
  N      1.777510    1.077930   -1.243300
  C      0.352060   -1.043850   -4.105820
  C     -0.491290   -1.478520   -5.221870
  C     -1.690090   -2.118670   -5.127360
  C     -2.321600   -2.432960   -3.902420
  N     -2.916540   -2.622490   -2.940190
  C     -2.498200   -2.433470   -6.242320
  N     -3.189460   -2.701570   -7.116940
  C      0.561630   -1.656210   -2.913240
  C      0.119980   -2.953400   -2.523990
  N     -0.229520   -3.884600   -3.394760
  C     -0.512520   -4.984880   -2.663610
  C     -0.327210   -4.737190   -1.232140
  C     -0.660330   -5.940460   -0.457840
  O     -0.609310   -6.107350    0.743060
  C     -1.066230   -6.900130   -1.504970
  C     -0.950100   -6.274220   -2.840730
  N     -1.317820   -7.144890   -3.812480
  C     -1.654170   -8.240530   -3.180020
  C     -1.523130   -8.155430   -1.733720
  C      0.085990   -3.427400   -1.121130
  C      0.385320   -2.641630    0.018770
  C      0.345860   -3.151210    1.279130
  C      0.629960   -2.423780    2.453310
  C      0.636970   -2.942080    3.759580
  C      0.330690   -4.377520    4.051770
  C      0.368510   -4.732110    5.532750
  C      0.960660   -1.976110    4.699510
  C      1.202020   -0.711860    4.164320
  S      1.024780   -0.732140    2.435730
  C      1.547420    0.480450    4.829960
  C      1.749740    0.581050    6.176420
  C      2.087430    1.796590    6.804870
  N      2.069680    2.971810    6.172540
  C      2.360660    3.899230    7.093290
  C      2.556800    3.286020    8.417140
  C      2.923760    4.289140    9.428630
  O      3.177660    4.100630   10.600410
  C      2.912030    5.533360    8.647420
  C      2.561800    5.256300    7.234110
  N      2.574040    6.396110    6.509670
  C      2.911630    7.341650    7.358140
  C      3.145050    6.872090    8.704280
  C      2.417270    1.939890    8.242380
  C      2.663370    0.968690    9.259660
  C      3.207000   -0.252410    9.089490
  C      3.540700   -1.114760   10.182090
  C      3.982210   -0.736260   11.408850
  C      3.962700   -1.594240   12.596220
  C      3.870400   -2.958340   12.627330
  C      3.816950   -3.801260   11.496630
  N      3.767780   -4.545810   10.623790
  C      3.853990   -3.721990   13.815060
  N      3.837490   -4.403100   14.738310
  C      4.051290   -0.712240   13.749420
  C      4.303130    0.604810   13.301290
  C      4.389450    1.655700   14.199540
  C      4.239900    1.381260   15.550190
  C      4.012950    0.085540   15.995740
  C      3.912840   -0.971800   15.105020
  C      4.442390    0.585690   11.854560
  C      5.124260    1.513930   11.122520
  C      5.696440    2.683010   11.674480
  N      6.217920    3.623510   12.071930
  C      5.444540    1.385270    9.754410
  N      5.780640    1.321640    8.658920
  H      2.414090    1.596930   -6.709810
  H      1.921650    1.188020   -9.081290
  H      0.289300   -0.518890   -9.753030
  H     -0.902760   -1.855780   -8.063960
  H      1.202460   -1.162710   -2.196100
  H     -1.989450   -9.103790   -3.728060
  H     -1.749540   -8.942160   -1.041680
  H      0.649600   -1.602220   -0.127860
  H      0.081440   -4.192210    1.411710
  H      1.046470   -5.004880    3.513230
  H     -0.657630   -4.614840    3.648740
  H      1.358390   -4.562240    5.949820
  H      0.124410   -5.783440    5.660450
  H     -0.357270   -4.145620    6.091520
  H      1.019960   -2.169480    5.753890
  H      1.673460    1.375610    4.236590
  H      1.645960   -0.286570    6.810410
  H      2.993500    8.362160    7.026420
  H      3.435850    7.480010    9.537910
  H      2.474450    1.324900   10.266200
  H      3.382660   -0.644280    8.097280
  H      3.375500   -2.169420   10.004780
  H      4.548930    2.665710   13.858510
  H      4.298540    2.188260   16.264270
  H      3.903350   -0.103680   17.052640
  H      3.722260   -1.968460   15.467910

 Total Charge           Charge          ....    0
 Multiplicity           Mult            ....    1
 Number of Electrons    NEL             ....  514
 Basis Dimension        Dim             .... 1212

ORBITAL ENERGIES
----------------

  NO   OCC          E(Eh)            E(eV)
   0   2.0000     -88.972180     -2421.0561
   1   2.0000     -19.225595      -523.1550
   2   2.0000     -19.211058      -522.7595
   3   2.0000     -14.442189      -392.9919
   4   2.0000     -14.437593      -392.8669
   5   2.0000     -14.433403      -392.7529
   6   2.0000     -14.432988      -392.7416
   7   2.0000     -14.430458      -392.6727
   8   2.0000     -14.426324      -392.5602
   9   2.0000     -14.422739      -392.4627
  10   2.0000     -14.419742      -392.3811
  11   2.0000     -14.419674      -392.3793
  12   2.0000     -14.414429      -392.2366
  13   2.0000     -14.404158      -391.9571
  14   2.0000     -14.399014      -391.8171
  15   2.0000     -10.384753      -282.5835
  16   2.0000     -10.373211      -282.2694
  17   2.0000     -10.370687      -282.2007
  18   2.0000     -10.368305      -282.1359
  19   2.0000     -10.367331      -282.1094
  20   2.0000     -10.361577      -281.9528
  21   2.0000     -10.358419      -281.8669
  22   2.0000     -10.354063      -281.7484
  23   2.0000     -10.352181      -281.6972
  24   2.0000     -10.351467      -281.6777
  25   2.0000     -10.350928      -281.6631
  26   2.0000     -10.346373      -281.5391
  27   2.0000     -10.345902      -281.5263
  28   2.0000     -10.343588      -281.4633
  29   2.0000     -10.342834      -281.4428
  30   2.0000     -10.340636      -281.3830
  31   2.0000     -10.340391      -281.3763
  32   2.0000     -10.338695      -281.3302
  33   2.0000     -10.337965      -281.3103
  34   2.0000     -10.333783      -281.1965
  35   2.0000     -10.332501      -281.1616
  36   2.0000     -10.329873      -281.0901
  37   2.0000     -10.328566      -281.0546
  38   2.0000     -10.328014      -281.0396
  39   2.0000     -10.327687      -281.0306
  40   2.0000     -10.326224      -280.9908
  41   2.0000     -10.325169      -280.9621
  42   2.0000     -10.324939      -280.9559
  43   2.0000     -10.321079      -280.8508
  44   2.0000     -10.320739      -280.8416
  45   2.0000     -10.319181      -280.7992
  46   2.0000     -10.318166      -280.7716
  47   2.0000     -10.317392      -280.7505
  48   2.0000     -10.317292      -280.7478
  49   2.0000     -10.316261      -280.7197
  50   2.0000     -10.314862      -280.6817
  51   2.0000     -10.314834      -280.6809
  52   2.0000     -10.314440      -280.6702
  53   2.0000     -10.313631      -280.6482
  54   2.0000     -10.313051      -280.6324
  55   2.0000     -10.312633      -280.6210
  56   2.0000     -10.311467      -280.5893
  57   2.0000     -10.309997      -280.5493
  58   2.0000     -10.305565      -280.4287
  59   2.0000     -10.305014      -280.4137
  60   2.0000     -10.303412      -280.3701
  61   2.0000     -10.302314      -280.3402
  62   2.0000     -10.302108      -280.3346
  63   2.0000     -10.300922      -280.3023
  64   2.0000     -10.300250      -280.2840
  65   2.0000     -10.300170      -280.2819
  66   2.0000     -10.299914      -280.2749
  67   2.0000     -10.298848      -280.2459
  68   2.0000     -10.298269      -280.2301
  69   2.0000     -10.298216      -280.2287
  70   2.0000     -10.293465      -280.0994
  71   2.0000     -10.293201      -280.0922
  72   2.0000     -10.292565      -280.0749
  73   2.0000     -10.283672      -279.8329
  74   2.0000     -10.282773      -279.8085
  75   2.0000     -10.279360      -279.7156
  76   2.0000     -10.265374      -279.3350
  77   2.0000      -8.067513      -219.5282
  78   2.0000      -6.036511      -164.2618
  79   2.0000      -6.032630      -164.1562
  80   2.0000      -6.029941      -164.0830
  81   2.0000      -1.139316       -31.0024
  82   2.0000      -1.124327       -30.5945
  83   2.0000      -1.096753       -29.8442
  84   2.0000      -1.075915       -29.2771
  85   2.0000      -1.074292       -29.2330
  86   2.0000      -1.053453       -28.6659
  87   2.0000      -1.052050       -28.6277
  88   2.0000      -1.037668       -28.2364
  89   2.0000      -1.033186       -28.1144
  90   2.0000      -1.021578       -27.7985
  91   2.0000      -1.019089       -27.7308
  92   2.0000      -1.017291       -27.6819
  93   2.0000      -1.009643       -27.4738
  94   2.0000      -1.007409       -27.4130
  95   2.0000      -1.004095       -27.3228
  96   2.0000      -1.002565       -27.2812
  97   2.0000      -0.994560       -27.0634
  98   2.0000      -0.975030       -26.5319
  99   2.0000      -0.963063       -26.2063
 100   2.0000      -0.957059       -26.0429
 101   2.0000      -0.950676       -25.8692
 102   2.0000      -0.942368       -25.6431
 103   2.0000      -0.940021       -25.5793
 104   2.0000      -0.935015       -25.4431
 105   2.0000      -0.932061       -25.3627
 106   2.0000      -0.916803       -24.9475
 107   2.0000      -0.911121       -24.7929
 108   2.0000      -0.904090       -24.6015
 109   2.0000      -0.897430       -24.4203
 110   2.0000      -0.890506       -24.2319
 111   2.0000      -0.885860       -24.1055
 112   2.0000      -0.879791       -23.9403
 113   2.0000      -0.872211       -23.7341
 114   2.0000      -0.870492       -23.6873
 115   2.0000      -0.866993       -23.5921
 116   2.0000      -0.851611       -23.1735
 117   2.0000      -0.840747       -22.8779
 118   2.0000      -0.829174       -22.5630
 119   2.0000      -0.822588       -22.3837
 120   2.0000      -0.818684       -22.2775
 121   2.0000      -0.806367       -21.9423
 122   2.0000      -0.793464       -21.5913
 123   2.0000      -0.792095       -21.5540
 124   2.0000      -0.786033       -21.3890
 125   2.0000      -0.771009       -20.9802
 126   2.0000      -0.764670       -20.8077
 127   2.0000      -0.752933       -20.4883
 128   2.0000      -0.735274       -20.0078
 129   2.0000      -0.734766       -19.9940
 130   2.0000      -0.730268       -19.8716
 131   2.0000      -0.726807       -19.7774
 132   2.0000      -0.724278       -19.7086
 133   2.0000      -0.723491       -19.6872
 134   2.0000      -0.715359       -19.4659
 135   2.0000      -0.714410       -19.4401
 136   2.0000      -0.697043       -18.9675
 137   2.0000      -0.691105       -18.8059
 138   2.0000      -0.682617       -18.5749
 139   2.0000      -0.677168       -18.4267
 140   2.0000      -0.675489       -18.3810
 141   2.0000      -0.668820       -18.1995
 142   2.0000      -0.667780       -18.1712
 143   2.0000      -0.665410       -18.1067
 144   2.0000      -0.661418       -17.9981
 145   2.0000      -0.653942       -17.7947
 146   2.0000      -0.650188       -17.6925
 147   2.0000      -0.643572       -17.5125
 148   2.0000      -0.635312       -17.2877
 149   2.0000      -0.632871       -17.2213
 150   2.0000      -0.625519       -17.0212
 151   2.0000      -0.620950       -16.8969
 152   2.0000      -0.611230       -16.6324
 153   2.0000      -0.608307       -16.5529
 154   2.0000      -0.604635       -16.4530
 155   2.0000      -0.602949       -16.4071
 156   2.0000      -0.596420       -16.2294
 157   2.0000      -0.588631       -16.0175
 158   2.0000      -0.588285       -16.0080
 159   2.0000      -0.583800       -15.8860
 160   2.0000      -0.573966       -15.6184
 161   2.0000      -0.572411       -15.5761
 162   2.0000      -0.566530       -15.4161
 163   2.0000      -0.564324       -15.3560
 164   2.0000      -0.562077       -15.2949
 165   2.0000      -0.558852       -15.2071
 166   2.0000      -0.556596       -15.1458
 167   2.0000      -0.552513       -15.0346
 168   2.0000      -0.549009       -14.9393
 169   2.0000      -0.548089       -14.9143
 170   2.0000      -0.546741       -14.8776
 171   2.0000      -0.545357       -14.8399
 172   2.0000      -0.542210       -14.7543
 173   2.0000      -0.539955       -14.6929
 174   2.0000      -0.536222       -14.5913
 175   2.0000      -0.532634       -14.4937
 176   2.0000      -0.527573       -14.3560
 177   2.0000      -0.526022       -14.3138
 178   2.0000      -0.524513       -14.2727
 179   2.0000      -0.522957       -14.2304
 180   2.0000      -0.518773       -14.1165
 181   2.0000      -0.515501       -14.0275
 182   2.0000      -0.514577       -14.0023
 183   2.0000      -0.512492       -13.9456
 184   2.0000      -0.510531       -13.8923
 185   2.0000      -0.507294       -13.8042
 186   2.0000      -0.505824       -13.7642
 187   2.0000      -0.501989       -13.6598
 188   2.0000      -0.497258       -13.5311
 189   2.0000      -0.495902       -13.4942
 190   2.0000      -0.492444       -13.4001
 191   2.0000      -0.487392       -13.2626
 192   2.0000      -0.486405       -13.2358
 193   2.0000      -0.484743       -13.1905
 194   2.0000      -0.484039       -13.1714
 195   2.0000      -0.480861       -13.0849
 196   2.0000      -0.478011       -13.0073
 197   2.0000      -0.477401       -12.9908
 198   2.0000      -0.476532       -12.9671
 199   2.0000      -0.472007       -12.8440
 200   2.0000      -0.470143       -12.7932
 201   2.0000      -0.469410       -12.7733
 202   2.0000      -0.467179       -12.7126
 203   2.0000      -0.465098       -12.6559
 204   2.0000      -0.463706       -12.6181
 205   2.0000      -0.463426       -12.6105
 206   2.0000      -0.459979       -12.5167
 207   2.0000      -0.458058       -12.4644
 208   2.0000      -0.457816       -12.4578
 209   2.0000      -0.456858       -12.4317
 210   2.0000      -0.455312       -12.3897
 211   2.0000      -0.453298       -12.3349
 212   2.0000      -0.451885       -12.2964
 213   2.0000      -0.451098       -12.2750
 214   2.0000      -0.449270       -12.2253
 215   2.0000      -0.448346       -12.2001
 216   2.0000      -0.445936       -12.1345
 217   2.0000      -0.444301       -12.0900
 218   2.0000      -0.442606       -12.0439
 219   2.0000      -0.442200       -12.0329
 220   2.0000      -0.440774       -11.9941
 221   2.0000      -0.437799       -11.9131
 222   2.0000      -0.436146       -11.8681
 223   2.0000      -0.434589       -11.8258
 224   2.0000      -0.433852       -11.8057
 225   2.0000      -0.431613       -11.7448
 226   2.0000      -0.428994       -11.6735
 227   2.0000      -0.426763       -11.6128
 228   2.0000      -0.426365       -11.6020
 229   2.0000      -0.423966       -11.5367
 230   2.0000      -0.416322       -11.3287
 231   2.0000      -0.416093       -11.3225
 232   2.0000      -0.411171       -11.1885
 233   2.0000      -0.400141       -10.8884
 234   2.0000      -0.395378       -10.7588
 235   2.0000      -0.392221       -10.6729
 236   2.0000      -0.388491       -10.5714
 237   2.0000      -0.385341       -10.4857
 238   2.0000      -0.378904       -10.3105
 239   2.0000      -0.367923       -10.0117
 240   2.0000      -0.360173        -9.8008
 241   2.0000      -0.354375        -9.6430
 242   2.0000      -0.352065        -9.5802
 243   2.0000      -0.347969        -9.4687
 244   2.0000      -0.347797        -9.4640
 245   2.0000      -0.347041        -9.4435
 246   2.0000      -0.343829        -9.3561
 247   2.0000      -0.337801        -9.1920
 248   2.0000      -0.335325        -9.1247
 249   2.0000      -0.333409        -9.0725
 250   2.0000      -0.329273        -8.9600
 251   2.0000      -0.328149        -8.9294
 252   2.0000      -0.317229        -8.6322
 253   2.0000      -0.315126        -8.5750
 254   2.0000      -0.306674        -8.3450
 255   2.0000      -0.289597        -7.8803
 256   2.0000      -0.257566        -7.0087
 257   0.0000      -0.144134        -3.9221
 258   0.0000      -0.120093        -3.2679
 259   0.0000      -0.099431        -2.7056
 260   0.0000      -0.097897        -2.6639
 261   0.0000      -0.086588        -2.3562

MULLIKEN ATOMIC CHARGES
-----------------------
   0 C :   -0.030084
   1 C :    0.047143
   2 C :    0.050945
   3 C :   -0.027904
   4 C :    0.018060
   5 C :    0.013380
   6 C :    0.261010
   7 C :   -0.319663
   8 C :   -0.184227
   9 N :    0.175838
  10 C :   -0.177490
  11 N :    0.166040
  12 C :   -0.000274
  13 C :    0.228161
  14 C :   -0.257758
  15 C :   -0.179864
  16 N :    0.177711
  17 C :   -0.196924
  18 N :    0.175323
  19 C :   -0.013005
  20 C :    0.003690
  21 N :   -0.050576
  22 C :    0.086270
  23 C :   -0.159513
  24 C :    0.225175
  25 O :   -0.147097
  26 C :   -0.002929
  27 C :   -0.024111
  28 N :   -0.054804
  29 C :    0.099829
  30 C :   -0.093564
  31 C :    0.084753
  32 C :   -0.052073
  33 C :    0.001145
  34 C :   -0.095903
  35 C :   -0.025248
  36 C :    0.054736
  37 C :    0.027691
  38 C :   -0.033645
  39 C :   -0.052215
  40 S :    0.174218
  41 C :    0.104384
  42 C :   -0.064322
  43 C :    0.051690
  44 N :   -0.046745
  45 C :    0.085927
  46 C :   -0.119983
  47 C :    0.214550
  48 O :   -0.147740
  49 C :   -0.037245
  50 C :   -0.043809
  51 N :   -0.054675
  52 C :    0.090493
  53 C :   -0.089469
  54 C :    0.019291
  55 C :   -0.013509
  56 C :   -0.015786
  57 C :    0.030030
  58 C :   -0.053574
  59 C :    0.285814
  60 C :   -0.337321
  61 C :   -0.182891
  62 N :    0.157292
  63 C :   -0.190723
  64 N :    0.162384
  65 C :    0.017918
  66 C :   -0.003536
  67 C :   -0.020982
  68 C :    0.045834
  69 C :    0.043548
  70 C :   -0.031238
  71 C :    0.212471
  72 C :   -0.310253
  73 C :   -0.178252
  74 N :    0.177194
  75 C :   -0.185647
  76 N :    0.177704
  77 H :    0.010259
  78 H :    0.009663
  79 H :    0.011140
  80 H :    0.013677
  81 H :    0.025922
  82 H :    0.017042
  83 H :    0.001813
  84 H :   -0.006645
  85 H :    0.016814
  86 H :    0.036346
  87 H :    0.040313
  88 H :    0.019780
  89 H :    0.023068
  90 H :    0.017331
  91 H :   -0.014386
  92 H :    0.026043
  93 H :   -0.017627
  94 H :    0.007253
  95 H :   -0.005937
  96 H :    0.038889
  97 H :    0.023645
  98 H :    0.025249
  99 H :    0.019122
 100 H :    0.008581
 101 H :    0.005875
 102 H :    0.005706
Sum of atomic charges:    0.0000000

LOEWDIN ATOMIC CHARGES
----------------------
   0 C :    0.008133
   1 C :    0.004636
   2 C :    0.012426
   3 C :    0.004929
   4 C :   -0.003332
   5 C :   -0.016469
   6 C :    0.076111
   7 C :   -0.116330
   8 C :   -0.019370
   9 N :   -0.028860
  10 C :   -0.018989
  11 N :   -0.036309
  12 C :    0.013235
  13 C :    0.065051
  14 C :   -0.088046
  15 C :   -0.016758
  16 N :   -0.036526
  17 C :   -0.016017
  18 N :   -0.028491
  19 C :    0.023144
  20 C :    0.056780
  21 N :   -0.080205
  22 C :    0.046007
  23 C :   -0.055066
  24 C :    0.073888
  25 O :   -0.142079
  26 C :   -0.035572
  27 C :    0.038980
  28 N :   -0.093442
  29 C :    0.087046
  30 C :   -0.024574
  31 C :   -0.011311
  32 C :   -0.043278
  33 C :    0.008124
  34 C :   -0.166433
  35 C :   -0.030659
  36 C :   -0.030912
  37 C :   -0.051917
  38 C :   -0.034212
  39 C :   -0.172180
  40 S :    0.477711
  41 C :    0.049528
  42 C :   -0.059344
  43 C :    0.075814
  44 N :   -0.112800
  45 C :    0.046733
  46 C :   -0.023351
  47 C :    0.067276
  48 O :   -0.153211
  49 C :   -0.044984
  50 C :    0.018785
  51 N :   -0.096251
  52 C :    0.070820
  53 C :   -0.037756
  54 C :   -0.036656
  55 C :    0.025260
  56 C :   -0.029425
  57 C :    0.055140
  58 C :   -0.040248
  59 C :    0.080168
  60 C :   -0.131434
  61 C :   -0.020690
  62 N :   -0.045671
  63 C :   -0.019136
  64 N :   -0.043767
  65 C :   -0.016181
  66 C :   -0.006738
  67 C :    0.007394
  68 C :    0.008024
  69 C :    0.001383
  70 C :    0.005351
  71 C :    0.061017
  72 C :   -0.110118
  73 C :   -0.017215
  74 N :   -0.036613
  75 C :   -0.015358
  76 N :   -0.038912
  77 H :    0.042737
  78 H :    0.039890
  79 H :    0.040368
  80 H :    0.043630
  81 H :    0.048729
  82 H :    0.027013
  83 H :    0.037201
  84 H :    0.024765
  85 H :    0.038768
  86 H :    0.041541
  87 H :    0.042338
  88 H :    0.025220
  89 H :    0.032972
  90 H :    0.024222
  91 H :    0.030224
  92 H :    0.046931
  93 H :    0.027703
  94 H :    0.022920
  95 H :    0.034486
  96 H :    0.042953
  97 H :    0.038518
  98 H :    0.047241
  99 H :    0.045642
 100 H :    0.038891
 101 H :    0.038071
 102 H :    0.041329

  Mayer bond orders larger than 0.100000
B(  0-C ,  1-C ) :   1.3786 B(  0-C ,  5-C ) :   1.3742 B(  0-C , 77-H ) :   0.9857
B(  1-C ,  2-C ) :   1.3712 B(  1-C , 78-H ) :   0.9862 B(  2-C ,  3-C ) :   1.3673
B(  2-C , 79-H ) :   0.9871 B(  3-C ,  4-C ) :   1.3838 B(  3-C , 80-H ) :   0.9874
B(  4-C ,  5-C ) :   1.3019 B(  4-C , 13-C ) :   1.0106 B(  5-C ,  6-C ) :   1.0165
B(  6-C ,  7-C ) :   1.6739 B(  6-C , 12-C ) :   1.0120 B(  7-C ,  8-C ) :   1.1394
B(  7-C , 10-C ) :   1.1330 B(  8-C ,  9-N ) :   2.9868 B( 10-C , 11-N ) :   2.9851
B( 12-C , 13-C ) :   0.9933 B( 12-C , 19-C ) :   1.6972 B( 13-C , 14-C ) :   1.7190
B( 14-C , 15-C ) :   1.1415 B( 14-C , 17-C ) :   1.1460 B( 15-C , 16-N ) :   2.9903
B( 17-C , 18-N ) :   2.9943 B( 19-C , 20-C ) :   1.0897 B( 19-C , 81-H ) :   0.9267
B( 20-C , 21-N ) :   1.5810 B( 20-C , 22-C ) :   0.1135 B( 20-C , 31-C ) :   1.0182
B( 21-N , 22-C ) :   1.2967 B( 22-C , 23-C ) :   1.0707 B( 22-C , 27-C ) :   1.4326
B( 23-C , 24-C ) :   0.9078 B( 23-C , 31-C ) :   1.5124 B( 24-C , 25-O ) :   2.1682
B( 24-C , 26-C ) :   0.9291 B( 25-O , 85-H ) :   0.1088 B( 26-C , 27-C ) :   1.0613
B( 26-C , 30-C ) :   1.6262 B( 27-C , 28-N ) :   1.3014 B( 28-N , 29-C ) :   1.6687
B( 29-C , 30-C ) :   1.0464 B( 29-C , 82-H ) :   0.9886 B( 30-C , 83-H ) :   1.0111
B( 31-C , 32-C ) :   1.1534 B( 32-C , 33-C ) :   1.6065 B( 32-C , 84-H ) :   0.9578
B( 33-C , 34-C ) :   1.1847 B( 33-C , 85-H ) :   0.9452 B( 34-C , 35-C ) :   1.4078
B( 34-C , 40-S ) :   1.1325 B( 35-C , 36-C ) :   1.0545 B( 35-C , 38-C ) :   1.3595
B( 36-C , 37-C ) :   1.1325 B( 36-C , 86-H ) :   0.9135 B( 36-C , 87-H ) :   0.9136
B( 37-C , 88-H ) :   0.9606 B( 37-C , 89-H ) :   0.9596 B( 37-C , 90-H ) :   0.9617
B( 38-C , 39-C ) :   1.3808 B( 38-C , 91-H ) :   0.9903 B( 39-C , 40-S ) :   1.1254
B( 39-C , 41-C ) :   1.1381 B( 41-C , 42-C ) :   1.5825 B( 41-C , 92-H ) :   0.9770
B( 42-C , 43-C ) :   1.1956 B( 42-C , 93-H ) :   0.9560 B( 43-C , 44-N ) :   1.5530
B( 43-C , 45-C ) :   0.1044 B( 43-C , 54-C ) :   0.9942 B( 44-N , 45-C ) :   1.3978
B( 45-C , 46-C ) :   1.0359 B( 45-C , 50-C ) :   1.3729 B( 46-C , 47-C ) :   0.8888
B( 46-C , 54-C ) :   1.5954 B( 47-C , 48-O ) :   2.2237 B( 47-C , 49-C ) :   0.9211
B( 49-C , 50-C ) :   1.0682 B( 49-C , 53-C ) :   1.5828 B( 50-C , 51-N ) :   1.3423
B( 51-N , 52-C ) :   1.6231 B( 52-C , 53-C ) :   1.0967 B( 52-C , 94-H ) :   0.9894
B( 53-C , 95-H ) :   1.0094 B( 54-C , 55-C ) :   1.1113 B( 55-C , 56-C ) :   1.7199
B( 55-C , 96-H ) :   0.9479 B( 56-C , 57-C ) :   1.1058 B( 56-C , 97-H ) :   0.9474
B( 57-C , 58-C ) :   1.7094 B( 57-C , 98-H ) :   0.9215 B( 58-C , 59-C ) :   1.0357
B( 58-C , 71-C ) :   0.9854 B( 59-C , 60-C ) :   1.6526 B( 59-C , 65-C ) :   1.0076
B( 60-C , 61-C ) :   1.1339 B( 60-C , 63-C ) :   1.1433 B( 61-C , 62-N ) :   2.9787
B( 63-C , 64-N ) :   2.9823 B( 65-C , 66-C ) :   1.3082 B( 65-C , 70-C ) :   1.3734
B( 66-C , 67-C ) :   1.3833 B( 66-C , 71-C ) :   1.0060 B( 67-C , 68-C ) :   1.3692
B( 67-C , 99-H ) :   0.9876 B( 68-C , 69-C ) :   1.3701 B( 68-C ,100-H ) :   0.9873
B( 69-C , 70-C ) :   1.3768 B( 69-C ,101-H ) :   0.9869 B( 70-C ,102-H ) :   0.9850
B( 71-C , 72-C ) :   1.7021 B( 72-C , 73-C ) :   1.1350 B( 72-C , 75-C ) :   1.1551
B( 73-C , 74-N ) :   3.0011 B( 75-C , 76-N ) :   2.9906

-----------------------------------------------------------------------------
         ABSORPTION SPECTRUM VIA TRANSITION ELECTRIC DIPOLE MOMENTS
-----------------------------------------------------------------------------
State   Energy  Wavelength   fosc         T2         TX        TY        TZ
        (cm-1)    (nm)                  (au**2)     (au)      (au)      (au)
-----------------------------------------------------------------------------
   0   10137.8    986.4   0.115384706   3.74698  -0.48779  -1.51967  -1.09529
   1   15949.9    627.0   1.373690002  28.35352   1.19685   3.47906   3.84931
   2   19226.1    520.1   0.116268690   1.99089  -0.14285  -1.39682   0.13917
   3   19755.7    506.2   0.135422637   2.25670  -0.10342   1.46765   0.30331
   4   20618.1    485.0   0.135425808   2.16236  -0.10655   1.27634  -0.72248
   5   20924.0    477.9   0.291388495   4.58463  -0.70227  -0.37463  -1.98774
   6   21376.8    467.8   0.006548725   0.10085  -0.02007  -0.31566  -0.02841
   7   21993.7    454.7   0.002994630   0.04483   0.04205  -0.20233   0.04603
   8   22031.4    453.9   0.005962845   0.08910  -0.14277  -0.20320  -0.16561
   9   23013.7    434.5   0.025167554   0.36002  -0.48807  -0.23991   0.25348
  10   23605.6    423.6   0.249910906   3.48534   0.49822  -1.70960   0.56071
  11   23718.9    421.6   0.025354555   0.35191   0.26748   0.52466  -0.07144
  12   24498.6    408.2   0.043850680   0.58927  -0.09161  -0.73596   0.19807
  13   24534.5    407.6   0.037447232   0.50248   0.18480   0.50247   0.46460
  14   24795.6    403.3   0.003834658   0.05091  -0.16728  -0.15036   0.01801
  15   25297.9    395.3   0.052403606   0.68195   0.04953   0.73716  -0.36890
  16   25347.4    394.5   0.010342860   0.13433   0.06253  -0.33201   0.14211
  17   25458.8    392.8   0.286825835   3.70899  -0.31164  -1.79595   0.62163
  18   26200.0    381.7   0.072398171   0.90971   0.06150   0.65436   0.69119
  19   26360.1    379.4   0.086878939   1.08503   0.36434   0.95058  -0.22066
  20   26637.7    375.4   0.024598707   0.30401  -0.21008  -0.50385  -0.07754
  21   26961.8    370.9   0.057180465   0.69819   0.10941  -0.68542   0.46521
  22   27420.0    364.7   0.039688510   0.47651   0.13564  -0.52771   0.42383
  23   27482.3    363.9   0.149199194   1.78726  -0.31192  -1.23217   0.41439
  24   27563.0    362.8   0.122734254   1.46593  -0.05549  -1.00733   0.66943
  25   27789.0    359.9   0.055349273   0.65571  -0.12513  -0.69593   0.39464
  26   29292.8    341.4   0.080761682   0.90765   0.19183  -0.33096   0.87254
  27   29577.3    338.1   0.006647124   0.07399  -0.11459  -0.24650   0.00964
  28   29721.3    336.5   0.005304017   0.05875  -0.00695  -0.05747  -0.23537
  29   30089.7    332.3   0.428290421   4.68593   1.53420   1.34405   0.72503
  30   30557.0    327.3   0.000979130   0.01055  -0.03571  -0.08794   0.03925
  31   30732.7    325.4   0.098687675   1.05715   0.38026   0.94536  -0.13732
  32   31048.4    322.1   0.033597534   0.35624  -0.14096  -0.14526  -0.56149
  33   31065.6    321.9   0.020219505   0.21427  -0.15110  -0.40433   0.16721
  34   31648.1    316.0   0.035033402   0.36443   0.30259   0.51669  -0.07683
  35   31716.2    315.3   0.142830241   1.48257   0.00389   0.59179  -1.06411
  36   32353.4    309.1   0.081740293   0.83175  -0.42752  -0.08093  -0.80152
  37   32561.3    307.1   0.052501791   0.53082   0.63709   0.22633   0.27151
  38   32700.1    305.8   0.061254878   0.61669   0.24051   0.29482  -0.68697
  39   32873.1    304.2   0.159870049   1.60104  -0.35156  -1.07332   0.57046
  40   32981.2    303.2   0.102388330   1.02202   0.24757   0.81365  -0.54654
  41   33070.6    302.4   0.252555870   2.51415  -0.46032  -1.51393   0.10129
  42   33328.9    300.0   0.007617129   0.07524   0.15321   0.21808  -0.06487
  43   33387.7    299.5   0.120846863   1.19159   0.71536   0.81661   0.11401
  44   33823.3    295.7   0.163772651   1.59404   0.11901   1.25539   0.06234
  45   34364.9    291.0   0.019340539   0.18528  -0.16058  -0.32100  -0.23761
  46   34382.2    290.8   0.030653715   0.29351  -0.06725   0.16494   0.51165
  47   34629.2    288.8   0.010649291   0.10124  -0.28687   0.02071  -0.13608
  48   34926.1    286.3   0.105429441   0.99377   0.29170  -0.00036  -0.95325
  49   34980.7    285.9   0.065726998   0.61857  -0.00680   0.33636   0.71091
  50   35084.9    285.0   0.048955471   0.45936   0.13346   0.47519  -0.46449
  51   35237.3    283.8   0.039923879   0.37300  -0.00503   0.45472  -0.40768
  52   35600.6    280.9   0.068596249   0.63434  -0.00810   0.45375   0.65451
  53   35668.5    280.4   0.312774040   2.88683  -0.39366  -0.55988   1.55512
  54   36103.8    277.0   0.104196430   0.95011  -0.15519   0.19911  -0.94148
  55   36223.2    276.1   0.048753462   0.44309   0.15494  -0.20062   0.61550
  56   36389.0    274.8   0.095062843   0.86004   0.22288   0.67590  -0.59458
  57   36663.1    272.8   0.041162158   0.36961  -0.00720  -0.21919  -0.56702
  58   36751.3    272.1   0.079726926   0.71418  -0.25610  -0.29325   0.75006
  59   36785.1    271.8   0.015275306   0.13671  -0.20794   0.03084   0.30417
  60   36828.9    271.5   0.017658985   0.15785   0.23475   0.05129  -0.31641
  61   37251.6    268.4   0.079581771   0.70331  -0.19854  -0.57584   0.57645
  62   37391.3    267.4   0.159575285   1.40498   0.83214   0.84191   0.06092
  63   37618.2    265.8   0.138165999   1.20915  -0.42900  -1.00518   0.12133
  64   37666.7    265.5   0.072461655   0.63332  -0.20365  -0.75781   0.13260
  65   37795.3    264.6   0.014172491   0.12345  -0.23090  -0.11682  -0.23767
  66   37973.4    263.3   0.044273491   0.38383  -0.14636   0.01184  -0.60189
  67   38202.4    261.8   0.017030120   0.14676  -0.18275  -0.23461   0.24150
  68   38240.4    261.5   0.014967075   0.12885   0.10206   0.14720  -0.31107
  69   38656.4    258.7   0.084370304   0.71853  -0.43110  -0.24871  -0.68617
  70   38780.1    257.9   0.004835957   0.04105  -0.04444   0.18215  -0.07681
  71   38811.4    257.7   0.019128401   0.16225  -0.30346   0.11609  -0.23809
  72   38867.7    257.3   0.095105257   0.80555   0.50632   0.73282   0.11030
  73   39093.0    255.8   0.001027374   0.00865  -0.03355  -0.00303  -0.08670
  74   39229.3    254.9   0.013840092   0.11615  -0.02455  -0.33191  -0.07335
  75   39559.4    252.8   0.072043855   0.59955   0.33828   0.38740  -0.57882
  76   39682.7    252.0   0.029330077   0.24333   0.23663   0.39877   0.16827
  77   39805.1    251.2   0.004246003   0.03512   0.03141  -0.12959  -0.13167
  78   39979.9    250.1   0.078455896   0.64604   0.29626   0.44954   0.59681
  79   40086.5    249.5   0.004319878   0.03548   0.03082  -0.18037   0.04464
  80   40242.6    248.5   0.021380759   0.17491   0.20760   0.24254  -0.27016

FINAL SINGLE POINT ENERGY     -3579.344112301441

DIPOLE MOMENT
-------------
                                X             Y             Z
Electronic contribution:      2.56609      11.68883     -17.31857
Nuclear contribution   :     -3.49105     -12.71116      15.60168
                        -----------------------------------------
Total Dipole Moment    :     -0.92496      -1.02233      -1.71689
                        -----------------------------------------
Magnitude (a.u.)       :      2.20191
Magnitude (Debye)      :      5.59682

Rotational constants in cm-1:     0.001417     0.000295     0.000252
Rotational constants in MHz :    42.483651     8.837174     7.553838

                             ****ORCA TERMINATED NORMALLY****
TOTAL RUN TIME: 0 days 0 hours 10 minutes 45 seconds 581 msec
