                         Program Version 4.2.0 -  RELEASE  -
|  1> # ORCA input file
|  2> # SCF done       -200.410504938738          0.000819019822
|  3> ! CAM-B3LYP def2-SVP def2/J RIJCOSX Grid4 TightSCF
|  4> %maxcore 5000
|  5> %tddft
|  6>     Mode sTDDFT
|  7>     Ethresh 5.0
|  8>     maxcore 5000
|  9> end
| 10>
| 11> %pal
| 12>   nprocs 6
| 13>   end
| 14> * xyz 0 1
| 15>    C        5.38030        -7.07514        -3.60888
| 16>    C        5.29090        -7.37118        -4.96018
| 17>    C        4.22877        -6.90913        -5.72705
| 18>    C        3.22761        -6.12961        -5.16737
| 19>    C        3.30615        -5.82321        -3.81871
| 20>    C        4.38263        -6.30235        -3.03320
| 21>    C        4.20640        -5.84697        -1.66474
| 22>    C        5.11349        -5.91953        -0.64591
| 23>    C        6.39194        -6.50866        -0.76744
| 24>    N        7.43885        -6.97475        -0.80556
| 25>    C        4.91620        -5.36170         0.63568
| 26>    N        4.81424        -4.90948         1.68592
| 27>    C        2.86809        -5.25406        -1.59690
| 28>    C        2.44299        -5.00978        -2.97834
| 29>    C        1.58423        -4.03833        -3.39561
| 30>    C        0.99640        -3.08881        -2.52937
| 31>    N        0.57044        -2.24948        -1.87365
| 32>    C        1.28132        -3.79372        -4.75342
| 33>    N        1.01347        -3.55774        -5.84286
| 34>    C        2.13775        -5.13235        -0.46361
| 35>    C        0.73784        -4.85209        -0.38230
| 36>    N       -0.11588        -5.22311        -1.31707
| 37>    C       -1.33405        -4.82793        -0.87554
| 38>    C       -1.23954        -4.15891         0.42381
| 39>    C       -2.56954        -3.71783         0.87089
| 40>    O       -2.87234        -3.14079         1.89157
| 41>    C       -3.44528        -4.15558        -0.23746
| 42>    C       -2.64444        -4.83507        -1.28065
| 43>    N       -3.43568        -5.23949        -2.30578
| 44>    C       -4.64311        -4.85924        -1.97490
| 45>    C       -4.72054        -4.17283        -0.69372
| 46>    C        0.09340        -4.17401         0.76556
| 47>    C        0.79894        -3.65645         1.88218
| 48>    C        0.18541        -2.94912         2.86711
| 49>    C        0.76139        -2.35737         4.02064
| 50>    S       -0.28351        -1.29165         4.90793
| 51>    C        0.98186        -0.88789         6.03160
| 52>    C        2.14510        -1.61975         5.74982
| 53>    C        2.02842        -2.43143         4.61725
| 54>    C        3.14467        -3.31498         4.14045
| 55>    C        2.79906        -4.78819         4.39144
| 56>    C        4.47000        -2.93608         4.80813
| 57>    C        4.30341        -2.75235         6.30854
| 58>    C        3.38519        -1.56475         6.58312
| 59>    C        0.68791         0.08820         7.00365
| 60>    C        1.55554         0.72900         7.84235
| 61>    C        1.11012         1.70604         8.75572
| 62>    N       -0.16769         2.07344         8.86126
| 63>    C       -0.20674         3.01228         9.81312
| 64>    C        1.13336         3.28827        10.36044
| 65>    C        1.05874         4.31116        11.41941
| 66>    O        1.96879         4.78960        12.06883
| 67>    C       -0.37487         4.60862        11.48106
| 68>    C       -1.11375         3.80815        10.48253
| 69>    N       -2.43493         4.07738        10.53869
| 70>    C       -2.56448         4.97166        11.49562
| 71>    C       -1.32154         5.34323        12.12728
| 72>    C        1.99023         2.44556         9.69603
| 73>    C        3.38664         2.24872         9.86175
| 74>    C        4.12169         2.96082        10.75298
| 75>    C        5.50245         2.73657        10.96004
| 76>    C        6.22805         3.24400        11.99863
| 77>    C        7.68244         3.33558        12.04688
| 78>    C        8.57673         2.61074        11.30583
| 79>    C        8.23028         1.59695        10.38783
| 80>    N        8.01694         0.75982         9.63110
| 81>    C        9.97792         2.75418        11.39205
| 82>    N       11.12350         2.82060        11.41156
| 83>    C        8.00171         4.35340        13.03762
| 84>    C        6.80899         4.76003        13.68053
| 85>    C        6.83363         5.74500        14.65366
| 86>    C        8.05248         6.31776        14.98506
| 87>    C        9.22564         5.91129        14.36452
| 88>    C        9.21417         4.92786        13.38723
| 89>    C        5.70985         3.95977        13.16130
| 90>    C        4.51106         3.73942        13.78008
| 91>    C        4.08141         4.44168        14.92689
| 92>    N        3.69182         4.98551        15.85868
| 93>    C        3.62526         2.68966        13.44620
| 94>    N        2.92996         1.79277        13.27635
| 95>    H        6.20605        -7.44795        -3.02482
| 96>    H        6.05825        -7.97442        -5.42029
| 97>    H        4.17942        -7.16073        -6.77524
| 98>    H        2.40322        -5.78339        -5.76930
| 99>    H        2.62124        -5.32896         0.48380
|100>    H       -5.47503        -5.06218        -2.62672
|101>    H       -5.61552        -3.78472        -0.24945
|102>    H        1.86251        -3.82885         1.89647
|103>    H       -0.88009        -2.77640         2.76392
|104>    H        3.27851        -3.17111         3.06473
|105>    H        1.83301        -5.04218         3.96207
|106>    H        2.75677        -4.99788         5.45672
|107>    H        3.56008        -5.42006         3.94107
|108>    H        4.83758        -2.00306         4.37495
|109>    H        5.20299        -3.71396         4.59503
|110>    H        3.87962        -3.65395         6.75213
|111>    H        5.27213        -2.57597         6.77753
|112>    H        3.92170        -0.63806         6.35226
|113>    H        3.11322        -1.54598         7.64069
|114>    H       -0.34820         0.39669         7.07169
|115>    H        2.61291         0.52994         7.81491
|116>    H       -3.53656         5.36118        11.74345
|117>    H       -1.21109         6.04829        12.92717
|118>    H        3.86222         1.45935         9.29455
|119>    H        3.63567         3.74622        11.31472
|120>    H        6.02180         2.17225        10.19702
|121>    H        5.92773         6.07249        15.13727
|122>    H        8.08660         7.09139        15.73681
|123>    H       10.16288         6.36915        14.64162
|124>    H       10.13330         4.62800        12.91096
|125> *
|126>
|127>                          ****END OF INPUT****

CARTESIAN COORDINATES (ANGSTROEM)
---------------------------------
  C      5.380300   -7.075140   -3.608880
  C      5.290900   -7.371180   -4.960180
  C      4.228770   -6.909130   -5.727050
  C      3.227610   -6.129610   -5.167370
  C      3.306150   -5.823210   -3.818710
  C      4.382630   -6.302350   -3.033200
  C      4.206400   -5.846970   -1.664740
  C      5.113490   -5.919530   -0.645910
  C      6.391940   -6.508660   -0.767440
  N      7.438850   -6.974750   -0.805560
  C      4.916200   -5.361700    0.635680
  N      4.814240   -4.909480    1.685920
  C      2.868090   -5.254060   -1.596900
  C      2.442990   -5.009780   -2.978340
  C      1.584230   -4.038330   -3.395610
  C      0.996400   -3.088810   -2.529370
  N      0.570440   -2.249480   -1.873650
  C      1.281320   -3.793720   -4.753420
  N      1.013470   -3.557740   -5.842860
  C      2.137750   -5.132350   -0.463610
  C      0.737840   -4.852090   -0.382300
  N     -0.115880   -5.223110   -1.317070
  C     -1.334050   -4.827930   -0.875540
  C     -1.239540   -4.158910    0.423810
  C     -2.569540   -3.717830    0.870890
  O     -2.872340   -3.140790    1.891570
  C     -3.445280   -4.155580   -0.237460
  C     -2.644440   -4.835070   -1.280650
  N     -3.435680   -5.239490   -2.305780
  C     -4.643110   -4.859240   -1.974900
  C     -4.720540   -4.172830   -0.693720
  C      0.093400   -4.174010    0.765560
  C      0.798940   -3.656450    1.882180
  C      0.185410   -2.949120    2.867110
  C      0.761390   -2.357370    4.020640
  S     -0.283510   -1.291650    4.907930
  C      0.981860   -0.887890    6.031600
  C      2.145100   -1.619750    5.749820
  C      2.028420   -2.431430    4.617250
  C      3.144670   -3.314980    4.140450
  C      2.799060   -4.788190    4.391440
  C      4.470000   -2.936080    4.808130
  C      4.303410   -2.752350    6.308540
  C      3.385190   -1.564750    6.583120
  C      0.687910    0.088200    7.003650
  C      1.555540    0.729000    7.842350
  C      1.110120    1.706040    8.755720
  N     -0.167690    2.073440    8.861260
  C     -0.206740    3.012280    9.813120
  C      1.133360    3.288270   10.360440
  C      1.058740    4.311160   11.419410
  O      1.968790    4.789600   12.068830
  C     -0.374870    4.608620   11.481060
  C     -1.113750    3.808150   10.482530
  N     -2.434930    4.077380   10.538690
  C     -2.564480    4.971660   11.495620
  C     -1.321540    5.343230   12.127280
  C      1.990230    2.445560    9.696030
  C      3.386640    2.248720    9.861750
  C      4.121690    2.960820   10.752980
  C      5.502450    2.736570   10.960040
  C      6.228050    3.244000   11.998630
  C      7.682440    3.335580   12.046880
  C      8.576730    2.610740   11.305830
  C      8.230280    1.596950   10.387830
  N      8.016940    0.759820    9.631100
  C      9.977920    2.754180   11.392050
  N     11.123500    2.820600   11.411560
  C      8.001710    4.353400   13.037620
  C      6.808990    4.760030   13.680530
  C      6.833630    5.745000   14.653660
  C      8.052480    6.317760   14.985060
  C      9.225640    5.911290   14.364520
  C      9.214170    4.927860   13.387230
  C      5.709850    3.959770   13.161300
  C      4.511060    3.739420   13.780080
  C      4.081410    4.441680   14.926890
  N      3.691820    4.985510   15.858680
  C      3.625260    2.689660   13.446200
  N      2.929960    1.792770   13.276350
  H      6.206050   -7.447950   -3.024820
  H      6.058250   -7.974420   -5.420290
  H      4.179420   -7.160730   -6.775240
  H      2.403220   -5.783390   -5.769300
  H      2.621240   -5.328960    0.483800
  H     -5.475030   -5.062180   -2.626720
  H     -5.615520   -3.784720   -0.249450
  H      1.862510   -3.828850    1.896470
  H     -0.880090   -2.776400    2.763920
  H      3.278510   -3.171110    3.064730
  H      1.833010   -5.042180    3.962070
  H      2.756770   -4.997880    5.456720
  H      3.560080   -5.420060    3.941070
  H      4.837580   -2.003060    4.374950
  H      5.202990   -3.713960    4.595030
  H      3.879620   -3.653950    6.752130
  H      5.272130   -2.575970    6.777530
  H      3.921700   -0.638060    6.352260
  H      3.113220   -1.545980    7.640690
  H     -0.348200    0.396690    7.071690
  H      2.612910    0.529940    7.814910
  H     -3.536560    5.361180   11.743450
  H     -1.211090    6.048290   12.927170
  H      3.862220    1.459350    9.294550
  H      3.635670    3.746220   11.314720
  H      6.021800    2.172250   10.197020
  H      5.927730    6.072490   15.137270
  H      8.086600    7.091390   15.736810
  H     10.162880    6.369150   14.641620
  H     10.133300    4.628000   12.910960

 Total Charge           Charge          ....    0
 Multiplicity           Mult            ....    1
 Number of Electrons    NEL             ....  536
 Basis Dimension        Dim             .... 1274

ORBITAL ENERGIES
----------------

  NO   OCC          E(Eh)            E(eV)
   0   2.0000     -88.966506     -2420.9017
   1   2.0000     -19.223471      -523.0972
   2   2.0000     -19.212465      -522.7977
   3   2.0000     -14.450393      -393.2152
   4   2.0000     -14.441898      -392.9840
   5   2.0000     -14.435948      -392.8221
   6   2.0000     -14.434921      -392.7942
   7   2.0000     -14.433299      -392.7500
   8   2.0000     -14.422728      -392.4624
   9   2.0000     -14.419822      -392.3833
  10   2.0000     -14.419416      -392.3723
  11   2.0000     -14.415909      -392.2768
  12   2.0000     -14.412191      -392.1756
  13   2.0000     -14.401973      -391.8976
  14   2.0000     -14.397920      -391.7873
  15   2.0000     -10.382827      -282.5311
  16   2.0000     -10.377255      -282.3795
  17   2.0000     -10.372436      -282.2483
  18   2.0000     -10.372228      -282.2427
  19   2.0000     -10.371201      -282.2147
  20   2.0000     -10.362554      -281.9794
  21   2.0000     -10.362444      -281.9764
  22   2.0000     -10.353116      -281.7226
  23   2.0000     -10.352697      -281.7112
  24   2.0000     -10.349679      -281.6291
  25   2.0000     -10.348948      -281.6092
  26   2.0000     -10.347044      -281.5574
  27   2.0000     -10.345520      -281.5159
  28   2.0000     -10.343094      -281.4499
  29   2.0000     -10.342640      -281.4375
  30   2.0000     -10.341386      -281.4034
  31   2.0000     -10.340904      -281.3903
  32   2.0000     -10.340852      -281.3889
  33   2.0000     -10.339745      -281.3588
  34   2.0000     -10.336348      -281.2663
  35   2.0000     -10.336299      -281.2650
  36   2.0000     -10.332161      -281.1524
  37   2.0000     -10.331810      -281.1428
  38   2.0000     -10.329654      -281.0842
  39   2.0000     -10.325266      -280.9648
  40   2.0000     -10.321952      -280.8746
  41   2.0000     -10.319004      -280.7944
  42   2.0000     -10.318682      -280.7856
  43   2.0000     -10.318237      -280.7735
  44   2.0000     -10.317769      -280.7608
  45   2.0000     -10.317441      -280.7518
  46   2.0000     -10.316934      -280.7380
  47   2.0000     -10.316506      -280.7264
  48   2.0000     -10.315990      -280.7124
  49   2.0000     -10.315752      -280.7059
  50   2.0000     -10.315536      -280.7000
  51   2.0000     -10.315316      -280.6940
  52   2.0000     -10.314962      -280.6844
  53   2.0000     -10.313871      -280.6547
  54   2.0000     -10.312446      -280.6159
  55   2.0000     -10.310664      -280.5674
  56   2.0000     -10.310358      -280.5591
  57   2.0000     -10.306983      -280.4673
  58   2.0000     -10.304877      -280.4099
  59   2.0000     -10.304474      -280.3990
  60   2.0000     -10.301650      -280.3222
  61   2.0000     -10.301596      -280.3207
  62   2.0000     -10.298993      -280.2498
  63   2.0000     -10.298624      -280.2398
  64   2.0000     -10.297972      -280.2221
  65   2.0000     -10.297476      -280.2086
  66   2.0000     -10.297268      -280.2029
  67   2.0000     -10.296700      -280.1875
  68   2.0000     -10.296612      -280.1850
  69   2.0000     -10.295669      -280.1594
  70   2.0000     -10.291423      -280.0439
  71   2.0000     -10.290408      -280.0162
  72   2.0000     -10.288842      -279.9736
  73   2.0000     -10.282252      -279.7943
  74   2.0000     -10.281558      -279.7754
  75   2.0000     -10.280532      -279.7475
  76   2.0000     -10.278277      -279.6861
  77   2.0000     -10.266145      -279.3560
  78   2.0000     -10.261760      -279.2367
  79   2.0000     -10.256388      -279.0905
  80   2.0000      -8.062274      -219.3856
  81   2.0000      -6.031234      -164.1182
  82   2.0000      -6.027337      -164.0122
  83   2.0000      -6.024698      -163.9404
  84   2.0000      -1.138121       -30.9698
  85   2.0000      -1.125849       -30.6359
  86   2.0000      -1.096949       -29.8495
  87   2.0000      -1.076098       -29.2821
  88   2.0000      -1.073256       -29.2048
  89   2.0000      -1.056538       -28.7499
  90   2.0000      -1.052177       -28.6312
  91   2.0000      -1.038965       -28.2717
  92   2.0000      -1.033363       -28.1192
  93   2.0000      -1.026157       -27.9231
  94   2.0000      -1.022440       -27.8220
  95   2.0000      -1.015425       -27.6311
  96   2.0000      -1.013272       -27.5725
  97   2.0000      -1.003612       -27.3097
  98   2.0000      -1.003557       -27.3082
  99   2.0000      -0.999143       -27.1881
 100   2.0000      -0.992248       -27.0004
 101   2.0000      -0.978914       -26.6376
 102   2.0000      -0.961311       -26.1586
 103   2.0000      -0.958501       -26.0821
 104   2.0000      -0.951036       -25.8790
 105   2.0000      -0.938703       -25.5434
 106   2.0000      -0.937770       -25.5180
 107   2.0000      -0.933757       -25.4088
 108   2.0000      -0.930970       -25.3330
 109   2.0000      -0.926545       -25.2126
 110   2.0000      -0.918416       -24.9914
 111   2.0000      -0.910494       -24.7758
 112   2.0000      -0.903620       -24.5887
 113   2.0000      -0.893091       -24.3022
 114   2.0000      -0.886638       -24.1266
 115   2.0000      -0.883843       -24.0506
 116   2.0000      -0.874958       -23.8088
 117   2.0000      -0.872120       -23.7316
 118   2.0000      -0.863800       -23.5052
 119   2.0000      -0.853587       -23.2273
 120   2.0000      -0.850432       -23.1414
 121   2.0000      -0.837466       -22.7886
 122   2.0000      -0.834407       -22.7054
 123   2.0000      -0.831133       -22.6163
 124   2.0000      -0.816455       -22.2169
 125   2.0000      -0.810461       -22.0538
 126   2.0000      -0.789787       -21.4912
 127   2.0000      -0.787971       -21.4418
 128   2.0000      -0.783239       -21.3130
 129   2.0000      -0.770717       -20.9723
 130   2.0000      -0.769322       -20.9343
 131   2.0000      -0.757956       -20.6250
 132   2.0000      -0.750075       -20.4106
 133   2.0000      -0.736998       -20.0547
 134   2.0000      -0.734250       -19.9800
 135   2.0000      -0.729848       -19.8602
 136   2.0000      -0.727186       -19.7877
 137   2.0000      -0.718347       -19.5472
 138   2.0000      -0.713959       -19.4278
 139   2.0000      -0.713215       -19.4076
 140   2.0000      -0.705718       -19.2036
 141   2.0000      -0.703950       -19.1555
 142   2.0000      -0.696142       -18.9430
 143   2.0000      -0.686692       -18.6858
 144   2.0000      -0.683522       -18.5996
 145   2.0000      -0.679280       -18.4841
 146   2.0000      -0.672702       -18.3051
 147   2.0000      -0.666764       -18.1436
 148   2.0000      -0.665062       -18.0972
 149   2.0000      -0.658238       -17.9116
 150   2.0000      -0.652841       -17.7647
 151   2.0000      -0.650621       -17.7043
 152   2.0000      -0.641603       -17.4589
 153   2.0000      -0.640852       -17.4385
 154   2.0000      -0.632546       -17.2124
 155   2.0000      -0.631487       -17.1836
 156   2.0000      -0.619410       -16.8550
 157   2.0000      -0.615818       -16.7573
 158   2.0000      -0.612141       -16.6572
 159   2.0000      -0.608704       -16.5637
 160   2.0000      -0.607148       -16.5213
 161   2.0000      -0.599855       -16.3229
 162   2.0000      -0.593295       -16.1444
 163   2.0000      -0.589912       -16.0523
 164   2.0000      -0.584451       -15.9037
 165   2.0000      -0.576417       -15.6851
 166   2.0000      -0.574258       -15.6264
 167   2.0000      -0.569420       -15.4947
 168   2.0000      -0.566896       -15.4260
 169   2.0000      -0.563981       -15.3467
 170   2.0000      -0.563082       -15.3222
 171   2.0000      -0.561472       -15.2784
 172   2.0000      -0.558521       -15.1981
 173   2.0000      -0.554584       -15.0910
 174   2.0000      -0.550550       -14.9812
 175   2.0000      -0.548064       -14.9136
 176   2.0000      -0.544523       -14.8172
 177   2.0000      -0.542866       -14.7721
 178   2.0000      -0.541901       -14.7459
 179   2.0000      -0.540603       -14.7106
 180   2.0000      -0.535071       -14.5600
 181   2.0000      -0.532251       -14.4833
 182   2.0000      -0.529595       -14.4110
 183   2.0000      -0.527118       -14.3436
 184   2.0000      -0.524864       -14.2823
 185   2.0000      -0.523600       -14.2479
 186   2.0000      -0.523254       -14.2385
 187   2.0000      -0.519436       -14.1346
 188   2.0000      -0.517377       -14.0785
 189   2.0000      -0.511818       -13.9273
 190   2.0000      -0.510836       -13.9005
 191   2.0000      -0.508059       -13.8250
 192   2.0000      -0.506621       -13.7859
 193   2.0000      -0.502995       -13.6872
 194   2.0000      -0.501825       -13.6553
 195   2.0000      -0.497292       -13.5320
 196   2.0000      -0.495350       -13.4791
 197   2.0000      -0.493222       -13.4212
 198   2.0000      -0.492467       -13.4007
 199   2.0000      -0.488739       -13.2993
 200   2.0000      -0.485644       -13.2150
 201   2.0000      -0.482359       -13.1257
 202   2.0000      -0.481328       -13.0976
 203   2.0000      -0.480489       -13.0748
 204   2.0000      -0.478474       -13.0199
 205   2.0000      -0.476586       -12.9686
 206   2.0000      -0.473396       -12.8818
 207   2.0000      -0.472175       -12.8485
 208   2.0000      -0.469961       -12.7883
 209   2.0000      -0.469163       -12.7666
 210   2.0000      -0.467349       -12.7172
 211   2.0000      -0.466766       -12.7013
 212   2.0000      -0.465515       -12.6673
 213   2.0000      -0.464698       -12.6451
 214   2.0000      -0.461340       -12.5537
 215   2.0000      -0.460244       -12.5239
 216   2.0000      -0.457237       -12.4420
 217   2.0000      -0.456067       -12.4102
 218   2.0000      -0.455093       -12.3837
 219   2.0000      -0.454651       -12.3717
 220   2.0000      -0.451867       -12.2959
 221   2.0000      -0.451755       -12.2929
 222   2.0000      -0.450656       -12.2630
 223   2.0000      -0.449484       -12.2311
 224   2.0000      -0.447357       -12.1732
 225   2.0000      -0.446522       -12.1505
 226   2.0000      -0.445858       -12.1324
 227   2.0000      -0.445503       -12.1227
 228   2.0000      -0.441009       -12.0005
 229   2.0000      -0.440567       -11.9884
 230   2.0000      -0.438363       -11.9285
 231   2.0000      -0.435523       -11.8512
 232   2.0000      -0.432293       -11.7633
 233   2.0000      -0.429631       -11.6909
 234   2.0000      -0.427238       -11.6257
 235   2.0000      -0.425575       -11.5805
 236   2.0000      -0.423871       -11.5341
 237   2.0000      -0.423073       -11.5124
 238   2.0000      -0.417040       -11.3482
 239   2.0000      -0.413033       -11.2392
 240   2.0000      -0.409677       -11.1479
 241   2.0000      -0.404481       -11.0065
 242   2.0000      -0.401908       -10.9365
 243   2.0000      -0.397954       -10.8289
 244   2.0000      -0.394847       -10.7443
 245   2.0000      -0.391458       -10.6521
 246   2.0000      -0.389018       -10.5857
 247   2.0000      -0.387118       -10.5340
 248   2.0000      -0.382433       -10.4065
 249   2.0000      -0.379766       -10.3340
 250   2.0000      -0.367716       -10.0061
 251   2.0000      -0.358361        -9.7515
 252   2.0000      -0.356296        -9.6953
 253   2.0000      -0.351684        -9.5698
 254   2.0000      -0.351307        -9.5595
 255   2.0000      -0.347475        -9.4553
 256   2.0000      -0.345467        -9.4006
 257   2.0000      -0.343088        -9.3359
 258   2.0000      -0.340389        -9.2625
 259   2.0000      -0.331942        -9.0326
 260   2.0000      -0.328748        -8.9457
 261   2.0000      -0.327299        -8.9063
 262   2.0000      -0.321171        -8.7395
 263   2.0000      -0.318489        -8.6665
 264   2.0000      -0.313615        -8.5339
 265   2.0000      -0.305612        -8.3161
 266   2.0000      -0.280491        -7.6325
 267   2.0000      -0.257327        -7.0022
 268   0.0000      -0.142387        -3.8745
 269   0.0000      -0.120732        -3.2853
 270   0.0000      -0.103921        -2.8278
 271   0.0000      -0.098585        -2.6826
 272   0.0000      -0.087160        -2.3718

MULLIKEN ATOMIC CHARGES
-----------------------
   0 C :   -0.029300
   1 C :    0.048182
   2 C :    0.052923
   3 C :   -0.029213
   4 C :    0.019698
   5 C :    0.014521
   6 C :    0.267613
   7 C :   -0.329884
   8 C :   -0.185851
   9 N :    0.177167
  10 C :   -0.174731
  11 N :    0.174937
  12 C :   -0.015436
  13 C :    0.233902
  14 C :   -0.265553
  15 C :   -0.184612
  16 N :    0.180942
  17 C :   -0.193594
  18 N :    0.176955
  19 C :   -0.008310
  20 C :   -0.032293
  21 N :   -0.033536
  22 C :    0.087398
  23 C :   -0.156464
  24 C :    0.225913
  25 O :   -0.132814
  26 C :   -0.006769
  27 C :   -0.033707
  28 N :   -0.054556
  29 C :    0.097952
  30 C :   -0.090274
  31 C :    0.090622
  32 C :   -0.040861
  33 C :    0.084124
  34 C :   -0.137856
  35 S :    0.178084
  36 C :   -0.127029
  37 C :   -0.074653
  38 C :   -0.006056
  39 C :   -0.075377
  40 C :    0.066597
  41 C :    0.060224
  42 C :    0.052251
  43 C :    0.081766
  44 C :    0.100906
  45 C :   -0.077547
  46 C :    0.054699
  47 N :   -0.040521
  48 C :    0.065982
  49 C :   -0.147657
  50 C :    0.237024
  51 O :   -0.162264
  52 C :   -0.009593
  53 C :   -0.043957
  54 N :   -0.053455
  55 C :    0.088661
  56 C :   -0.095930
  57 C :    0.054347
  58 C :   -0.024548
  59 C :    0.004567
  60 C :    0.027063
  61 C :   -0.048182
  62 C :    0.295860
  63 C :   -0.339233
  64 C :   -0.182189
  65 N :    0.148382
  66 C :   -0.188815
  67 N :    0.159169
  68 C :    0.010416
  69 C :    0.011927
  70 C :   -0.029099
  71 C :    0.044946
  72 C :    0.046336
  73 C :   -0.030728
  74 C :    0.225507
  75 C :   -0.290804
  76 C :   -0.178620
  77 N :    0.161046
  78 C :   -0.203676
  79 N :    0.171818
  80 H :    0.010281
  81 H :    0.010657
  82 H :    0.012840
  83 H :    0.014800
  84 H :    0.041109
  85 H :    0.017969
  86 H :    0.002465
  87 H :   -0.035391
  88 H :    0.001982
  89 H :    0.027023
  90 H :    0.008132
  91 H :    0.001969
  92 H :    0.019775
  93 H :   -0.002151
  94 H :    0.008496
  95 H :    0.006270
  96 H :    0.010036
  97 H :    0.032995
  98 H :    0.028223
  99 H :    0.022795
 100 H :   -0.029777
 101 H :    0.005641
 102 H :   -0.005474
 103 H :   -0.006166
 104 H :    0.046084
 105 H :    0.011928
 106 H :    0.008096
 107 H :    0.006474
 108 H :    0.003015
 109 H :    0.005022
Sum of atomic charges:   -0.0000000

LOEWDIN ATOMIC CHARGES
----------------------
   0 C :    0.009036
   1 C :    0.005560
   2 C :    0.014135
   3 C :    0.006281
   4 C :   -0.002243
   5 C :   -0.016477
   6 C :    0.080036
   7 C :   -0.121117
   8 C :   -0.020446
   9 N :   -0.028685
  10 C :   -0.008835
  11 N :   -0.035946
  12 C :    0.006766
  13 C :    0.069235
  14 C :   -0.091982
  15 C :   -0.017719
  16 N :   -0.033561
  17 C :   -0.016795
  18 N :   -0.027855
  19 C :    0.028818
  20 C :    0.053098
  21 N :   -0.084836
  22 C :    0.043174
  23 C :   -0.051401
  24 C :    0.072594
  25 O :   -0.132579
  26 C :   -0.034419
  27 C :    0.039868
  28 N :   -0.094426
  29 C :    0.087953
  30 C :   -0.023645
  31 C :   -0.011671
  32 C :   -0.041252
  33 C :    0.003639
  34 C :   -0.157698
  35 S :    0.482583
  36 C :   -0.182138
  37 C :   -0.024965
  38 C :   -0.033135
  39 C :   -0.030148
  40 C :   -0.046045
  41 C :   -0.019099
  42 C :   -0.026271
  43 C :   -0.029978
  44 C :    0.048490
  45 C :   -0.070464
  46 C :    0.075524
  47 N :   -0.115003
  48 C :    0.047851
  49 C :   -0.018099
  50 C :    0.075644
  51 O :   -0.152443
  52 C :   -0.043204
  53 C :    0.015935
  54 N :   -0.096574
  55 C :    0.069095
  56 C :   -0.038212
  57 C :   -0.035025
  58 C :    0.020742
  59 C :   -0.005406
  60 C :    0.056422
  61 C :   -0.047241
  62 C :    0.079700
  63 C :   -0.133332
  64 C :   -0.018770
  65 N :   -0.051400
  66 C :   -0.019380
  67 N :   -0.046380
  68 C :   -0.015731
  69 C :   -0.006349
  70 C :    0.002397
  71 C :    0.005802
  72 C :   -0.000221
  73 C :    0.005193
  74 C :    0.066351
  75 C :   -0.108483
  76 C :   -0.013014
  77 N :   -0.041466
  78 C :   -0.018064
  79 N :   -0.044392
  80 H :    0.042879
  81 H :    0.040397
  82 H :    0.041152
  83 H :    0.044262
  84 H :    0.049837
  85 H :    0.027210
  86 H :    0.037693
  87 H :    0.026929
  88 H :    0.034081
  89 H :    0.027514
  90 H :    0.020889
  91 H :    0.021680
  92 H :    0.023949
  93 H :    0.022552
  94 H :    0.028901
  95 H :    0.021843
  96 H :    0.029951
  97 H :    0.036284
  98 H :    0.035817
  99 H :    0.044487
 100 H :    0.026734
 101 H :    0.022446
 102 H :    0.034337
 103 H :    0.033205
 104 H :    0.034554
 105 H :    0.044252
 106 H :    0.041926
 107 H :    0.037942
 108 H :    0.037205
 109 H :    0.041188

  Mayer bond orders larger than 0.100000
B(  0-C ,  1-C ) :   1.3788 B(  0-C ,  5-C ) :   1.3738 B(  0-C , 80-H ) :   0.9857
B(  1-C ,  2-C ) :   1.3694 B(  1-C , 81-H ) :   0.9862 B(  2-C ,  3-C ) :   1.3694
B(  2-C , 82-H ) :   0.9864 B(  3-C ,  4-C ) :   1.3829 B(  3-C , 83-H ) :   0.9869
B(  4-C ,  5-C ) :   1.2989 B(  4-C , 13-C ) :   1.0143 B(  5-C ,  6-C ) :   1.0177
B(  6-C ,  7-C ) :   1.6710 B(  6-C , 12-C ) :   1.0048 B(  7-C ,  8-C ) :   1.1386
B(  7-C , 10-C ) :   1.1364 B(  8-C ,  9-N ) :   2.9891 B( 10-C , 11-N ) :   2.9693
B( 12-C , 13-C ) :   0.9896 B( 12-C , 19-C ) :   1.7331 B( 13-C , 14-C ) :   1.7186
B( 14-C , 15-C ) :   1.1439 B( 14-C , 17-C ) :   1.1419 B( 15-C , 16-N ) :   2.9949
B( 17-C , 18-N ) :   2.9974 B( 19-C , 20-C ) :   1.0532 B( 19-C , 84-H ) :   0.9241
B( 20-C , 21-N ) :   1.6034 B( 20-C , 22-C ) :   0.1164 B( 20-C , 31-C ) :   1.0212
B( 21-N , 22-C ) :   1.2858 B( 22-C , 23-C ) :   1.0736 B( 22-C , 27-C ) :   1.4449
B( 23-C , 24-C ) :   0.8994 B( 23-C , 31-C ) :   1.5096 B( 24-C , 25-O ) :   2.1911
B( 24-C , 26-C ) :   0.9238 B( 25-O , 88-H ) :   0.1040 B( 26-C , 27-C ) :   1.0575
B( 26-C , 30-C ) :   1.6329 B( 27-C , 28-N ) :   1.2986 B( 28-N , 29-C ) :   1.6726
B( 29-C , 30-C ) :   1.0445 B( 29-C , 85-H ) :   0.9886 B( 30-C , 86-H ) :   1.0106
B( 31-C , 32-C ) :   1.1639 B( 32-C , 33-C ) :   1.6293 B( 32-C , 87-H ) :   0.9465
B( 33-C , 34-C ) :   1.1462 B( 33-C , 88-H ) :   0.9233 B( 34-C , 35-S ) :   1.1655
B( 34-C , 38-C ) :   1.4071 B( 35-S , 36-C ) :   1.1173 B( 36-C , 37-C ) :   1.4014
B( 36-C , 44-C ) :   1.1594 B( 37-C , 38-C ) :   1.3994 B( 37-C , 43-C ) :   1.0582
B( 38-C , 39-C ) :   0.9928 B( 39-C , 40-C ) :   1.0719 B( 39-C , 41-C ) :   1.0641
B( 39-C , 89-H ) :   0.8905 B( 40-C , 90-H ) :   0.9609 B( 40-C , 91-H ) :   0.9536
B( 40-C , 92-H ) :   0.9599 B( 41-C , 42-C ) :   1.0681 B( 41-C , 93-H ) :   0.9414
B( 41-C , 94-H ) :   0.9334 B( 42-C , 43-C ) :   1.0773 B( 42-C , 95-H ) :   0.9433
B( 42-C , 96-H ) :   0.9302 B( 43-C , 97-H ) :   0.8972 B( 43-C , 98-H ) :   0.9138
B( 44-C , 45-C ) :   1.5713 B( 44-C , 99-H ) :   0.9564 B( 45-C , 46-C ) :   1.2082
B( 45-C ,100-H ) :   0.9462 B( 46-C , 47-N ) :   1.5361 B( 46-C , 48-C ) :   0.1115
B( 46-C , 57-C ) :   0.9929 B( 47-N , 48-C ) :   1.4096 B( 48-C , 49-C ) :   1.0546
B( 48-C , 53-C ) :   1.3616 B( 49-C , 50-C ) :   0.8927 B( 49-C , 57-C ) :   1.5544
B( 50-C , 51-O ) :   2.1283 B( 50-C , 52-C ) :   0.9522 B( 51-O ,104-H ) :   0.1095
B( 52-C , 53-C ) :   1.0795 B( 52-C , 56-C ) :   1.5621 B( 53-C , 54-N ) :   1.3485
B( 54-N , 55-C ) :   1.6180 B( 55-C , 56-C ) :   1.0992 B( 55-C ,101-H ) :   0.9901
B( 56-C ,102-H ) :   1.0130 B( 57-C , 58-C ) :   1.1007 B( 58-C , 59-C ) :   1.6458
B( 58-C ,103-H ) :   0.9796 B( 59-C , 60-C ) :   1.1264 B( 59-C ,104-H ) :   0.9333
B( 60-C , 61-C ) :   1.5866 B( 60-C ,105-H ) :   0.9538 B( 61-C , 62-C ) :   1.0420
B( 61-C , 74-C ) :   1.0123 B( 62-C , 63-C ) :   1.6406 B( 62-C , 68-C ) :   1.0077
B( 63-C , 64-C ) :   1.1374 B( 63-C , 66-C ) :   1.1437 B( 64-C , 65-N ) :   2.9786
B( 66-C , 67-N ) :   2.9790 B( 68-C , 69-C ) :   1.3086 B( 68-C , 73-C ) :   1.3794
B( 69-C , 70-C ) :   1.3851 B( 69-C , 74-C ) :   1.0111 B( 70-C , 71-C ) :   1.3647
B( 70-C ,106-H ) :   0.9867 B( 71-C , 72-C ) :   1.3744 B( 71-C ,107-H ) :   0.9875
B( 72-C , 73-C ) :   1.3736 B( 72-C ,108-H ) :   0.9865 B( 73-C ,109-H ) :   0.9842
B( 74-C , 75-C ) :   1.6700 B( 75-C , 76-C ) :   1.1433 B( 75-C , 78-C ) :   1.1507
B( 76-C , 77-N ) :   2.9911 B( 78-C , 79-N ) :   3.0022

-----------------------------------------------------------------------------
         ABSORPTION SPECTRUM VIA TRANSITION ELECTRIC DIPOLE MOMENTS
-----------------------------------------------------------------------------
State   Energy  Wavelength   fosc         T2         TX        TY        TZ
        (cm-1)    (nm)                  (au**2)     (au)      (au)      (au)
-----------------------------------------------------------------------------
   0   10736.9    931.4   0.104541455   3.20541   0.94777   0.82504   1.27533
   1   15956.1    626.7   1.247929880  25.74773  -0.13382   3.18889   3.94472
   2   18282.0    547.0   0.234418081   4.22127  -1.73374   0.98115   0.50275
   3   19841.0    504.0   0.019772949   0.32808   0.40946  -0.08220  -0.39201
   4   20256.9    493.7   0.575183287   9.34780   1.35891   1.27208   2.42548
   5   20702.8    483.0   0.187943024   2.98864   1.45185   0.61189   0.71159
   6   21088.2    474.2   0.047171533   0.73641   0.84681   0.12954  -0.05030
   7   21632.4    462.3   0.064261859   0.97796  -0.82804  -0.33947  -0.42080
   8   21656.0    461.8   0.014988328   0.22785  -0.41516  -0.10370  -0.21151
   9   22555.2    443.4   0.101351908   1.47932  -1.19338  -0.00520  -0.23483
  10   23160.9    431.8   0.091071523   1.29450   0.76267  -0.78359  -0.31437
  11   23694.3    422.0   0.065864345   0.91513  -0.85941   0.38310  -0.17256
  12   23934.0    417.8   0.017281445   0.23771  -0.13969  -0.24915  -0.39512
  13   24117.8    414.6   0.007959316   0.10865  -0.11549  -0.30675   0.03481
  14   24631.4    406.0   0.148183531   1.98055  -1.08754   0.47216   0.75820
  15   24773.6    403.7   0.057286054   0.76126   0.86945  -0.05768  -0.04471
  16   25196.7    396.9   0.001163642   0.01520  -0.08424  -0.01850  -0.08812
  17   25349.4    394.5   0.004886443   0.06346  -0.07621   0.19938   0.13379
  18   26119.9    382.9   0.186869680   2.35529   1.50277   0.09636  -0.29610
  19   26229.4    381.3   0.024144054   0.30304  -0.53254   0.13731  -0.02415
  20   26752.1    373.8   0.004402823   0.05418   0.09030   0.21444   0.00649
  21   26847.5    372.5   0.138116554   1.69363   1.14410   0.15834   0.59966
  22   26993.6    370.5   0.149003543   1.81724  -1.28594   0.17264   0.36578
  23   27176.8    368.0   0.251793877   3.05016  -1.72779   0.21171  -0.14172
  24   27951.9    357.8   0.024701599   0.29093   0.49293  -0.04081  -0.21515
  25   28191.1    354.7   0.195085819   2.27819  -1.45009   0.40839  -0.09296
  26   28800.7    347.2   0.053902990   0.61615  -0.75278   0.04137  -0.21856
  27   29672.4    337.0   0.008293241   0.09201  -0.22489  -0.12277  -0.16237
  28   29928.9    334.1   0.241247478   2.65368   1.26722  -0.48514   0.90137
  29   30148.2    331.7   0.025198922   0.27517  -0.01112  -0.45057  -0.26839
  30   30291.9    330.1   0.211008984   2.29324  -1.11993   0.48132  -0.89852
  31   30691.1    325.8   0.000944246   0.01013  -0.06218  -0.07560  -0.02339
  32   30914.7    323.5   0.038079771   0.40551   0.60636   0.07551  -0.17926
  33   30965.6    322.9   0.003459787   0.03678   0.13169   0.06890   0.12122
  34   31066.8    321.9   0.072813731   0.77160   0.81860  -0.17647   0.26525
  35   31383.9    318.6   0.011369956   0.11927   0.02540   0.28501   0.19337
  36   31817.8    314.3   0.007314918   0.07569   0.01048   0.01296   0.27461
  37   31976.1    312.7   0.067325702   0.69316  -0.64706   0.32561   0.41042
  38   32605.1    306.7   0.088313788   0.89170   0.02014   0.31708  -0.88924
  39   32816.0    304.7   0.581999876   5.83865  -2.26918   0.68442   0.47014
  40   33042.1    302.6   0.152681409   1.52123   0.72337  -0.11123  -0.99277
  41   33447.4    299.0   0.034287894   0.33748  -0.14155   0.19313  -0.52929
  42   33489.7    298.6   0.000802760   0.00789   0.07092  -0.05349   0.00063
  43   33609.9    297.5   0.000158436   0.00155  -0.02965  -0.02437  -0.00890
  44   33784.4    296.0   0.132721976   1.29331  -1.02832   0.48214  -0.05828
  45   34123.9    293.0   0.284611321   2.74580  -0.15678  -0.90006  -1.38243
  46   34389.4    290.8   0.004419976   0.04231  -0.19844   0.04856  -0.02399
  47   34710.5    288.1   0.009975791   0.09462   0.06039  -0.18934  -0.23478
  48   34835.4    287.1   0.063556076   0.60064   0.10215   0.66029   0.39271
  49   35012.6    285.6   0.098504101   0.92620   0.45764   0.59917   0.59813
  50   35130.8    284.7   0.230809705   2.16293  -1.39273   0.01664   0.47217
  51   35297.8    283.3   0.202445326   1.88815   0.19237   1.05531   0.85875
  52   35384.2    282.6   0.067772520   0.63055  -0.23731   0.42791   0.62540
  53   35409.4    282.4   0.040480168   0.37636   0.35065   0.42121   0.27565
  54   35757.4    279.7   0.016736045   0.15409   0.36431  -0.12545  -0.07500
  55   36121.0    276.8   0.042199244   0.38461   0.32059  -0.11680  -0.51787
  56   36154.6    276.6   0.012128587   0.11044  -0.15987   0.08363   0.27908
  57   36340.2    275.2   0.005227120   0.04735  -0.03906   0.04429   0.20944
  58   36663.1    272.8   0.041117530   0.36921   0.30693  -0.19898   0.48519
  59   36773.6    271.9   0.287813561   2.57662  -0.83869   0.92823   1.00579
  60   37157.2    269.1   0.001430324   0.01267  -0.03140   0.08395   0.06811
  61   37303.6    268.1   0.001589142   0.01402  -0.01011   0.02876  -0.11444
  62   37327.2    267.9   0.042428924   0.37421  -0.24910   0.24592   0.50168
  63   37427.7    267.2   0.011511131   0.10125   0.30692   0.07620   0.03527
  64   37579.6    266.1   0.074440946   0.65213   0.55451  -0.32780  -0.48703
  65   37644.6    265.6   0.022591796   0.19757  -0.31447   0.31341  -0.02130
  66   37728.2    265.1   0.067478654   0.58881  -0.75511   0.03466   0.13198
  67   37999.2    263.2   0.019621282   0.16999  -0.41185   0.00239   0.01911
  68   38042.3    262.9   0.115202205   0.99694   0.14376   0.33954   0.92789
  69   38140.4    262.2   0.017956700   0.15499   0.36112   0.08252   0.13333
  70   38364.8    260.7   0.063592876   0.54570  -0.48745   0.50940   0.22045
  71   38612.1    259.0   0.028700842   0.24471  -0.38013  -0.04769  -0.31294
  72   38913.6    257.0   0.036641047   0.30999   0.19728   0.17830   0.48916
  73   38996.7    256.4   0.060717961   0.51258   0.57732  -0.33212   0.26265
  74   39093.7    255.8   0.033257750   0.28007  -0.37310   0.37353   0.03654
  75   39423.6    253.7   0.007433651   0.06208  -0.15857   0.07549   0.17673
  76   39451.3    253.5   0.040564075   0.33850   0.44066  -0.07606  -0.37220
  77   39527.0    253.0   0.004184337   0.03485   0.04879  -0.11461   0.13905
  78   39577.2    252.7   0.123725513   1.02918   0.70812  -0.01386   0.72632
  79   39811.7    251.2   0.012450732   0.10296   0.03598   0.15393   0.27923
  80   40180.2    248.9   0.011358481   0.09306  -0.28317   0.07795   0.08249
  81   40318.6    248.0   0.042797557   0.34945  -0.03437   0.46166   0.36761

FINAL SINGLE POINT ENERGY     -3695.948923840295

DIPOLE MOMENT
-------------
                                X             Y             Z
Electronic contribution:    -14.01303      10.00347      -8.05890
Nuclear contribution   :     14.09553     -11.66154       5.01491
                        -----------------------------------------
Total Dipole Moment    :      0.08250      -1.65808      -3.04399
                        -----------------------------------------
Magnitude (a.u.)       :      3.46726
Magnitude (Debye)      :      8.81308

Rotational constants in cm-1:     0.001301     0.000268     0.000230
Rotational constants in MHz :    38.989637     8.049291     6.895971

                             ****ORCA TERMINATED NORMALLY****
TOTAL RUN TIME: 0 days 0 hours 12 minutes 16 seconds 973 msec
