                         Program Version 4.2.0 -  RELEASE  -
|  1> # ORCA input file
|  2> # SCF done       -193.109137801009          0.000281567081
|  3> ! CAM-B3LYP def2-SVP def2/J RIJCOSX Grid4 TightSCF
|  4> %maxcore 5000
|  5> %tddft
|  6>     Mode sTDDFT
|  7>     Ethresh 5.0
|  8>     maxcore 5000
|  9> end
| 10>
| 11> %pal
| 12>   nprocs 6
| 13>   end
| 14> * xyz 0 1
| 15>    C       -0.29731        -0.22543        -5.78995
| 16>    C       -0.98249        -0.22124        -6.99713
| 17>    C       -2.09911        -1.02032        -7.18966
| 18>    C       -2.56961        -1.84378        -6.17640
| 19>    C       -1.89195        -1.85773        -4.97044
| 20>    C       -0.74891        -1.05072        -4.77371
| 21>    C       -0.23741        -1.28205        -3.42650
| 22>    C        0.79185        -0.59439        -2.83258
| 23>    C        1.50984         0.44781        -3.45392
| 24>    N        2.13769         1.30309        -3.89340
| 25>    C        1.25123        -0.78368        -1.51446
| 26>    N        1.67254        -0.87192        -0.44839
| 27>    C       -1.01982        -2.36741        -2.86157
| 28>    C       -2.15809        -2.57665        -3.73351
| 29>    C       -3.37502        -3.09036        -3.35474
| 30>    C       -3.68168        -3.44896        -2.02711
| 31>    N       -3.97671        -3.69717        -0.94470
| 32>    C       -4.48063        -3.21313        -4.21695
| 33>    N       -5.40840        -3.35514        -4.87874
| 34>    C       -0.66283        -3.07837        -1.73651
| 35>    C       -1.03121        -4.38079        -1.34829
| 36>    C       -0.80847        -4.80271        -0.04616
| 37>    C       -1.14544        -6.04382         0.45776
| 38>    C       -1.76068        -7.07091        -0.38453
| 39>    C       -2.00409        -6.92013        -1.70386
| 40>    S       -1.65697        -5.48779        -2.57737
| 41>    C       -2.00249        -8.17016         0.48348
| 42>    C       -1.57748        -7.86409         1.78171
| 43>    C       -1.78022        -8.95358         2.66151
| 44>    C       -2.34338       -10.01539         2.02988
| 45>    S       -2.65023        -9.75107         0.34637
| 46>    C       -1.03522        -6.53226         1.78832
| 47>    C       -0.48984        -5.79800         2.85665
| 48>    C       -0.54848        -6.12480         4.18021
| 49>    C        0.01484        -5.34217         5.20973
| 50>    N       -0.21301        -5.63955         6.54163
| 51>    C        0.42689        -4.71820         7.30899
| 52>    C        0.66759        -4.31432         8.61037
| 53>    C        1.49372        -3.17572         8.50991
| 54>    N        1.74341        -2.90054         7.18361
| 55>    C        1.10458        -3.82041         6.42876
| 56>    C        0.84151        -4.20868         5.12360
| 57>    C        2.03986        -2.33961         9.50378
| 58>    C        1.89023        -2.47731        10.85028
| 59>    C        2.46342        -1.61608        11.82177
| 60>    C        3.13416        -0.43717        11.54180
| 61>    C        3.74580         0.37270        12.48272
| 62>    C        3.76326         0.02562        13.90119
| 63>    C        3.13393        -1.05335        14.42107
| 64>    S        2.26160        -2.18117        13.47059
| 65>    C        4.55954         1.02551        14.52588
| 66>    C        5.03344         1.93177        13.57588
| 67>    C        5.80745         2.95157        14.17356
| 68>    C        5.90627         2.78654        15.51934
| 69>    S        5.06696         1.40168        16.12245
| 70>    C        4.52123         1.55120        12.27876
| 71>    C        4.72005         2.15516        11.03795
| 72>    C        5.67541         3.11279        10.75783
| 73>    C        5.86917         3.80790         9.56996
| 74>    C        5.29049         3.69465         8.30415
| 75>    C        5.18278         4.82925         7.40459
| 76>    C        5.67913         6.09850         7.58136
| 77>    C        6.40068         6.58064         8.69231
| 78>    N        6.97636         7.08249         9.55191
| 79>    C        5.53552         7.14228         6.64399
| 80>    N        5.46869         8.04341         5.93472
| 81>    C        4.37407         4.40452         6.26552
| 82>    C        4.03711         3.04539         6.44000
| 83>    C        3.25344         2.38945         5.50699
| 84>    C        2.80628         3.09399         4.39812
| 85>    C        3.14378         4.42598         4.22141
| 86>    C        3.92961         5.09426         5.15067
| 87>    C        4.68767         2.56643         7.65389
| 88>    C        4.86607         1.22589         7.95345
| 89>    C        4.16317         0.18253         7.34780
| 90>    N        3.56569        -0.73082         6.97503
| 91>    C        5.79792         0.73807         8.88678
| 92>    N        6.55779         0.27539         9.61409
| 93>    H        0.56908         0.40205        -5.66053
| 94>    H       -0.63570         0.41447        -7.79753
| 95>    H       -2.61143        -1.00410        -8.13956
| 96>    H       -3.43636        -2.46460        -6.33649
| 97>    H        0.05798        -2.61231        -1.07777
| 98>    H       -0.38477        -4.06473         0.62159
| 99>    H       -2.44466        -7.69549        -2.31046
|100>    H       -1.51799        -8.97546         3.70304
|101>    H       -2.60505       -10.96570         2.45262
|102>    H       -0.00648        -4.86840         2.59351
|103>    H       -1.08782        -7.00914         4.48718
|104>    H       -0.79621        -6.39166         6.86544
|105>    H        0.31296        -4.75370         9.52040
|106>    H        2.35460        -2.14746         6.87829
|107>    H        1.19844        -3.75668         4.22130
|108>    H        2.64053        -1.52869         9.11706
|109>    H        1.32342        -3.31423        11.23346
|110>    H        3.19118        -0.14421        10.50445
|111>    H        3.14708        -1.28492        15.47409
|112>    H        6.26503         3.77652        13.65997
|113>    H        6.43234         3.40820        16.21713
|114>    H        4.04345         1.85090        10.25083
|115>    H        6.33153         3.39708        11.56633
|116>    H        6.53733         4.65385         9.67080
|117>    H        2.98142         1.35371         5.62952
|118>    H        2.19229         2.59388         3.66472
|119>    H        2.79344         4.95544         3.34864
|120>    H        4.18386         6.12871         4.99132
|121> *
|122>
|123>                          ****END OF INPUT****

CARTESIAN COORDINATES (ANGSTROEM)
---------------------------------
  C     -0.297310   -0.225430   -5.789950
  C     -0.982490   -0.221240   -6.997130
  C     -2.099110   -1.020320   -7.189660
  C     -2.569610   -1.843780   -6.176400
  C     -1.891950   -1.857730   -4.970440
  C     -0.748910   -1.050720   -4.773710
  C     -0.237410   -1.282050   -3.426500
  C      0.791850   -0.594390   -2.832580
  C      1.509840    0.447810   -3.453920
  N      2.137690    1.303090   -3.893400
  C      1.251230   -0.783680   -1.514460
  N      1.672540   -0.871920   -0.448390
  C     -1.019820   -2.367410   -2.861570
  C     -2.158090   -2.576650   -3.733510
  C     -3.375020   -3.090360   -3.354740
  C     -3.681680   -3.448960   -2.027110
  N     -3.976710   -3.697170   -0.944700
  C     -4.480630   -3.213130   -4.216950
  N     -5.408400   -3.355140   -4.878740
  C     -0.662830   -3.078370   -1.736510
  C     -1.031210   -4.380790   -1.348290
  C     -0.808470   -4.802710   -0.046160
  C     -1.145440   -6.043820    0.457760
  C     -1.760680   -7.070910   -0.384530
  C     -2.004090   -6.920130   -1.703860
  S     -1.656970   -5.487790   -2.577370
  C     -2.002490   -8.170160    0.483480
  C     -1.577480   -7.864090    1.781710
  C     -1.780220   -8.953580    2.661510
  C     -2.343380  -10.015390    2.029880
  S     -2.650230   -9.751070    0.346370
  C     -1.035220   -6.532260    1.788320
  C     -0.489840   -5.798000    2.856650
  C     -0.548480   -6.124800    4.180210
  C      0.014840   -5.342170    5.209730
  N     -0.213010   -5.639550    6.541630
  C      0.426890   -4.718200    7.308990
  C      0.667590   -4.314320    8.610370
  C      1.493720   -3.175720    8.509910
  N      1.743410   -2.900540    7.183610
  C      1.104580   -3.820410    6.428760
  C      0.841510   -4.208680    5.123600
  C      2.039860   -2.339610    9.503780
  C      1.890230   -2.477310   10.850280
  C      2.463420   -1.616080   11.821770
  C      3.134160   -0.437170   11.541800
  C      3.745800    0.372700   12.482720
  C      3.763260    0.025620   13.901190
  C      3.133930   -1.053350   14.421070
  S      2.261600   -2.181170   13.470590
  C      4.559540    1.025510   14.525880
  C      5.033440    1.931770   13.575880
  C      5.807450    2.951570   14.173560
  C      5.906270    2.786540   15.519340
  S      5.066960    1.401680   16.122450
  C      4.521230    1.551200   12.278760
  C      4.720050    2.155160   11.037950
  C      5.675410    3.112790   10.757830
  C      5.869170    3.807900    9.569960
  C      5.290490    3.694650    8.304150
  C      5.182780    4.829250    7.404590
  C      5.679130    6.098500    7.581360
  C      6.400680    6.580640    8.692310
  N      6.976360    7.082490    9.551910
  C      5.535520    7.142280    6.643990
  N      5.468690    8.043410    5.934720
  C      4.374070    4.404520    6.265520
  C      4.037110    3.045390    6.440000
  C      3.253440    2.389450    5.506990
  C      2.806280    3.093990    4.398120
  C      3.143780    4.425980    4.221410
  C      3.929610    5.094260    5.150670
  C      4.687670    2.566430    7.653890
  C      4.866070    1.225890    7.953450
  C      4.163170    0.182530    7.347800
  N      3.565690   -0.730820    6.975030
  C      5.797920    0.738070    8.886780
  N      6.557790    0.275390    9.614090
  H      0.569080    0.402050   -5.660530
  H     -0.635700    0.414470   -7.797530
  H     -2.611430   -1.004100   -8.139560
  H     -3.436360   -2.464600   -6.336490
  H      0.057980   -2.612310   -1.077770
  H     -0.384770   -4.064730    0.621590
  H     -2.444660   -7.695490   -2.310460
  H     -1.517990   -8.975460    3.703040
  H     -2.605050  -10.965700    2.452620
  H     -0.006480   -4.868400    2.593510
  H     -1.087820   -7.009140    4.487180
  H     -0.796210   -6.391660    6.865440
  H      0.312960   -4.753700    9.520400
  H      2.354600   -2.147460    6.878290
  H      1.198440   -3.756680    4.221300
  H      2.640530   -1.528690    9.117060
  H      1.323420   -3.314230   11.233460
  H      3.191180   -0.144210   10.504450
  H      3.147080   -1.284920   15.474090
  H      6.265030    3.776520   13.659970
  H      6.432340    3.408200   16.217130
  H      4.043450    1.850900   10.250830
  H      6.331530    3.397080   11.566330
  H      6.537330    4.653850    9.670800
  H      2.981420    1.353710    5.629520
  H      2.192290    2.593880    3.664720
  H      2.793440    4.955440    3.348640
  H      4.183860    6.128710    4.991320

 Total Charge           Charge          ....    0
 Multiplicity           Mult            ....    1
 Number of Electrons    NEL             ....  546
 Basis Dimension        Dim             .... 1248

ORBITAL ENERGIES
----------------

  NO   OCC          E(Eh)            E(eV)
   0   2.0000     -88.995692     -2421.6959
   1   2.0000     -88.977241     -2421.1938
   2   2.0000     -88.972647     -2421.0688
   3   2.0000     -88.966432     -2420.8997
   4   2.0000     -14.469201      -393.7270
   5   2.0000     -14.450790      -393.2260
   6   2.0000     -14.428234      -392.6122
   7   2.0000     -14.418845      -392.3567
   8   2.0000     -14.413852      -392.2209
   9   2.0000     -14.412804      -392.1923
  10   2.0000     -14.411085      -392.1456
  11   2.0000     -14.406793      -392.0288
  12   2.0000     -14.404362      -391.9626
  13   2.0000     -14.401714      -391.8906
  14   2.0000     -10.347741      -281.5763
  15   2.0000     -10.341815      -281.4151
  16   2.0000     -10.341266      -281.4002
  17   2.0000     -10.341213      -281.3987
  18   2.0000     -10.341162      -281.3973
  19   2.0000     -10.339890      -281.3627
  20   2.0000     -10.336502      -281.2705
  21   2.0000     -10.336254      -281.2638
  22   2.0000     -10.332103      -281.1508
  23   2.0000     -10.329476      -281.0793
  24   2.0000     -10.328463      -281.0518
  25   2.0000     -10.328051      -281.0406
  26   2.0000     -10.327647      -281.0296
  27   2.0000     -10.322089      -280.8783
  28   2.0000     -10.321241      -280.8553
  29   2.0000     -10.320958      -280.8475
  30   2.0000     -10.318169      -280.7717
  31   2.0000     -10.316536      -280.7272
  32   2.0000     -10.316184      -280.7176
  33   2.0000     -10.315970      -280.7118
  34   2.0000     -10.315228      -280.6916
  35   2.0000     -10.314610      -280.6748
  36   2.0000     -10.314048      -280.6595
  37   2.0000     -10.310976      -280.5759
  38   2.0000     -10.309924      -280.5473
  39   2.0000     -10.308681      -280.5135
  40   2.0000     -10.308162      -280.4994
  41   2.0000     -10.307648      -280.4854
  42   2.0000     -10.307204      -280.4733
  43   2.0000     -10.306957      -280.4666
  44   2.0000     -10.305825      -280.4357
  45   2.0000     -10.305601      -280.4297
  46   2.0000     -10.305590      -280.4293
  47   2.0000     -10.304858      -280.4094
  48   2.0000     -10.304536      -280.4007
  49   2.0000     -10.304355      -280.3957
  50   2.0000     -10.304335      -280.3952
  51   2.0000     -10.304271      -280.3935
  52   2.0000     -10.303779      -280.3801
  53   2.0000     -10.302645      -280.3492
  54   2.0000     -10.299721      -280.2696
  55   2.0000     -10.298331      -280.2318
  56   2.0000     -10.295310      -280.1496
  57   2.0000     -10.295136      -280.1449
  58   2.0000     -10.294689      -280.1327
  59   2.0000     -10.294274      -280.1214
  60   2.0000     -10.293918      -280.1118
  61   2.0000     -10.293594      -280.1029
  62   2.0000     -10.293061      -280.0884
  63   2.0000     -10.291749      -280.0527
  64   2.0000     -10.291637      -280.0497
  65   2.0000     -10.290856      -280.0284
  66   2.0000     -10.290265      -280.0123
  67   2.0000     -10.289148      -279.9819
  68   2.0000     -10.287216      -279.9294
  69   2.0000     -10.287111      -279.9265
  70   2.0000     -10.286919      -279.9213
  71   2.0000     -10.284420      -279.8533
  72   2.0000     -10.284218      -279.8478
  73   2.0000     -10.282977      -279.8140
  74   2.0000     -10.282303      -279.7957
  75   2.0000     -10.277927      -279.6766
  76   2.0000     -10.275810      -279.6190
  77   2.0000     -10.274524      -279.5840
  78   2.0000      -8.090977      -220.1667
  79   2.0000      -8.072144      -219.6542
  80   2.0000      -8.068246      -219.5481
  81   2.0000      -8.061841      -219.3739
  82   2.0000      -6.060297      -164.9091
  83   2.0000      -6.055796      -164.7866
  84   2.0000      -6.053338      -164.7197
  85   2.0000      -6.041859      -164.4073
  86   2.0000      -6.037627      -164.2922
  87   2.0000      -6.037261      -164.2822
  88   2.0000      -6.033744      -164.1865
  89   2.0000      -6.033352      -164.1758
  90   2.0000      -6.031266      -164.1191
  91   2.0000      -6.030335      -164.0938
  92   2.0000      -6.026972      -164.0022
  93   2.0000      -6.023952      -163.9201
  94   2.0000      -1.098375       -29.8883
  95   2.0000      -1.060511       -28.8580
  96   2.0000      -1.029726       -28.0203
  97   2.0000      -1.024435       -27.8763
  98   2.0000      -1.021028       -27.7836
  99   2.0000      -1.020165       -27.7601
 100   2.0000      -1.011999       -27.5379
 101   2.0000      -1.011164       -27.5152
 102   2.0000      -1.000720       -27.2310
 103   2.0000      -0.996103       -27.1053
 104   2.0000      -0.993843       -27.0438
 105   2.0000      -0.992175       -26.9985
 106   2.0000      -0.990216       -26.9451
 107   2.0000      -0.987968       -26.8840
 108   2.0000      -0.981756       -26.7149
 109   2.0000      -0.981467       -26.7071
 110   2.0000      -0.953231       -25.9387
 111   2.0000      -0.946170       -25.7466
 112   2.0000      -0.941733       -25.6259
 113   2.0000      -0.941245       -25.6126
 114   2.0000      -0.932043       -25.3622
 115   2.0000      -0.925365       -25.1805
 116   2.0000      -0.924424       -25.1549
 117   2.0000      -0.917175       -24.9576
 118   2.0000      -0.904573       -24.6147
 119   2.0000      -0.902401       -24.5556
 120   2.0000      -0.889073       -24.1929
 121   2.0000      -0.886971       -24.1357
 122   2.0000      -0.880044       -23.9472
 123   2.0000      -0.871216       -23.7070
 124   2.0000      -0.867271       -23.5996
 125   2.0000      -0.865890       -23.5621
 126   2.0000      -0.861932       -23.4544
 127   2.0000      -0.859114       -23.3777
 128   2.0000      -0.851852       -23.1801
 129   2.0000      -0.850956       -23.1557
 130   2.0000      -0.838005       -22.8033
 131   2.0000      -0.826757       -22.4972
 132   2.0000      -0.820611       -22.3300
 133   2.0000      -0.813947       -22.1486
 134   2.0000      -0.804386       -21.8884
 135   2.0000      -0.789259       -21.4768
 136   2.0000      -0.783802       -21.3283
 137   2.0000      -0.778673       -21.1888
 138   2.0000      -0.776341       -21.1253
 139   2.0000      -0.762054       -20.7366
 140   2.0000      -0.754365       -20.5273
 141   2.0000      -0.734966       -19.9994
 142   2.0000      -0.727634       -19.7999
 143   2.0000      -0.718832       -19.5604
 144   2.0000      -0.711312       -19.3558
 145   2.0000      -0.706919       -19.2362
 146   2.0000      -0.705317       -19.1926
 147   2.0000      -0.702572       -19.1180
 148   2.0000      -0.701004       -19.0753
 149   2.0000      -0.698763       -19.0143
 150   2.0000      -0.688868       -18.7450
 151   2.0000      -0.681457       -18.5434
 152   2.0000      -0.675975       -18.3942
 153   2.0000      -0.672387       -18.2966
 154   2.0000      -0.665588       -18.1116
 155   2.0000      -0.663989       -18.0681
 156   2.0000      -0.661004       -17.9868
 157   2.0000      -0.659124       -17.9357
 158   2.0000      -0.656357       -17.8604
 159   2.0000      -0.652451       -17.7541
 160   2.0000      -0.648196       -17.6383
 161   2.0000      -0.645285       -17.5591
 162   2.0000      -0.635367       -17.2892
 163   2.0000      -0.634387       -17.2626
 164   2.0000      -0.630430       -17.1549
 165   2.0000      -0.622412       -16.9367
 166   2.0000      -0.612671       -16.6716
 167   2.0000      -0.602747       -16.4016
 168   2.0000      -0.601053       -16.3555
 169   2.0000      -0.590160       -16.0591
 170   2.0000      -0.587657       -15.9910
 171   2.0000      -0.581061       -15.8115
 172   2.0000      -0.577937       -15.7265
 173   2.0000      -0.577638       -15.7183
 174   2.0000      -0.573948       -15.6179
 175   2.0000      -0.569929       -15.5085
 176   2.0000      -0.568486       -15.4693
 177   2.0000      -0.567806       -15.4508
 178   2.0000      -0.561272       -15.2730
 179   2.0000      -0.552292       -15.0286
 180   2.0000      -0.550189       -14.9714
 181   2.0000      -0.547733       -14.9046
 182   2.0000      -0.543935       -14.8012
 183   2.0000      -0.539111       -14.6700
 184   2.0000      -0.535670       -14.5763
 185   2.0000      -0.533663       -14.5217
 186   2.0000      -0.531142       -14.4531
 187   2.0000      -0.530535       -14.4366
 188   2.0000      -0.529827       -14.4173
 189   2.0000      -0.528076       -14.3697
 190   2.0000      -0.527025       -14.3411
 191   2.0000      -0.525704       -14.3051
 192   2.0000      -0.524397       -14.2696
 193   2.0000      -0.523387       -14.2421
 194   2.0000      -0.523011       -14.2318
 195   2.0000      -0.520002       -14.1500
 196   2.0000      -0.513179       -13.9643
 197   2.0000      -0.509647       -13.8682
 198   2.0000      -0.507340       -13.8054
 199   2.0000      -0.504317       -13.7232
 200   2.0000      -0.500925       -13.6309
 201   2.0000      -0.499892       -13.6028
 202   2.0000      -0.497192       -13.5293
 203   2.0000      -0.487684       -13.2705
 204   2.0000      -0.487278       -13.2595
 205   2.0000      -0.485918       -13.2225
 206   2.0000      -0.485289       -13.2054
 207   2.0000      -0.481023       -13.0893
 208   2.0000      -0.478222       -13.0131
 209   2.0000      -0.475811       -12.9475
 210   2.0000      -0.472869       -12.8674
 211   2.0000      -0.471523       -12.8308
 212   2.0000      -0.466782       -12.7018
 213   2.0000      -0.463748       -12.6192
 214   2.0000      -0.459815       -12.5122
 215   2.0000      -0.457755       -12.4562
 216   2.0000      -0.455587       -12.3972
 217   2.0000      -0.454104       -12.3568
 218   2.0000      -0.453563       -12.3421
 219   2.0000      -0.451544       -12.2871
 220   2.0000      -0.450773       -12.2661
 221   2.0000      -0.450002       -12.2452
 222   2.0000      -0.446865       -12.1598
 223   2.0000      -0.446512       -12.1502
 224   2.0000      -0.443679       -12.0731
 225   2.0000      -0.442923       -12.0526
 226   2.0000      -0.442678       -12.0459
 227   2.0000      -0.441747       -12.0205
 228   2.0000      -0.440199       -11.9784
 229   2.0000      -0.438445       -11.9307
 230   2.0000      -0.437755       -11.9119
 231   2.0000      -0.436894       -11.8885
 232   2.0000      -0.435289       -11.8448
 233   2.0000      -0.435008       -11.8372
 234   2.0000      -0.433244       -11.7892
 235   2.0000      -0.432742       -11.7755
 236   2.0000      -0.430495       -11.7144
 237   2.0000      -0.427852       -11.6424
 238   2.0000      -0.427358       -11.6290
 239   2.0000      -0.426422       -11.6035
 240   2.0000      -0.424630       -11.5548
 241   2.0000      -0.423453       -11.5228
 242   2.0000      -0.422319       -11.4919
 243   2.0000      -0.419489       -11.4149
 244   2.0000      -0.418357       -11.3841
 245   2.0000      -0.415069       -11.2946
 246   2.0000      -0.413334       -11.2474
 247   2.0000      -0.412559       -11.2263
 248   2.0000      -0.408357       -11.1120
 249   2.0000      -0.406054       -11.0493
 250   2.0000      -0.403568       -10.9816
 251   2.0000      -0.392765       -10.6877
 252   2.0000      -0.392727       -10.6866
 253   2.0000      -0.385902       -10.5009
 254   2.0000      -0.378746       -10.3062
 255   2.0000      -0.377175       -10.2635
 256   2.0000      -0.374157       -10.1813
 257   2.0000      -0.370945       -10.0939
 258   2.0000      -0.352563        -9.5937
 259   2.0000      -0.347268        -9.4496
 260   2.0000      -0.338318        -9.2061
 261   2.0000      -0.331386        -9.0175
 262   2.0000      -0.326771        -8.8919
 263   2.0000      -0.320100        -8.7104
 264   2.0000      -0.316424        -8.6103
 265   2.0000      -0.306039        -8.3278
 266   2.0000      -0.300030        -8.1642
 267   2.0000      -0.295982        -8.0541
 268   2.0000      -0.291610        -7.9351
 269   2.0000      -0.283020        -7.7014
 270   2.0000      -0.265726        -7.2308
 271   2.0000      -0.242751        -6.6056
 272   2.0000      -0.217432        -5.9166
 273   0.0000      -0.113566        -3.0903
 274   0.0000      -0.096057        -2.6139
 275   0.0000      -0.081828        -2.2267
 276   0.0000      -0.077771        -2.1163
 277   0.0000      -0.054635        -1.4867

MULLIKEN ATOMIC CHARGES
-----------------------
   0 C :   -0.038038
   1 C :    0.044867
   2 C :    0.049197
   3 C :   -0.038109
   4 C :    0.008568
   5 C :    0.008352
   6 C :    0.305541
   7 C :   -0.350402
   8 C :   -0.189893
   9 N :    0.153294
  10 C :   -0.179052
  11 N :    0.135100
  12 C :   -0.066335
  13 C :    0.222492
  14 C :   -0.331526
  15 C :   -0.206727
  16 N :    0.171592
  17 C :   -0.182673
  18 N :    0.156495
  19 C :    0.010557
  20 C :   -0.098684
  21 C :   -0.010187
  22 C :    0.063446
  23 C :    0.074847
  24 C :   -0.113287
  25 S :    0.133892
  26 C :   -0.094273
  27 C :    0.038483
  28 C :    0.001481
  29 C :   -0.065679
  30 S :    0.148017
  31 C :    0.139114
  32 C :   -0.048085
  33 C :    0.017980
  34 C :    0.100497
  35 N :   -0.038177
  36 C :    0.119198
  37 C :   -0.172633
  38 C :    0.093356
  39 N :   -0.014728
  40 C :    0.133528
  41 C :   -0.164743
  42 C :    0.050337
  43 C :    0.011394
  44 C :   -0.050404
  45 C :   -0.037501
  46 C :    0.099156
  47 C :    0.060424
  48 C :   -0.131465
  49 S :    0.168635
  50 C :   -0.121628
  51 C :    0.070894
  52 C :   -0.005054
  53 C :   -0.061942
  54 S :    0.136915
  55 C :    0.061651
  56 C :    0.035413
  57 C :   -0.006611
  58 C :    0.012219
  59 C :   -0.078926
  60 C :    0.318850
  61 C :   -0.371036
  62 C :   -0.194277
  63 N :    0.150386
  64 C :   -0.189055
  65 N :    0.146367
  66 C :    0.003463
  67 C :    0.006211
  68 C :   -0.046795
  69 C :    0.045032
  70 C :    0.044379
  71 C :   -0.035075
  72 C :    0.278436
  73 C :   -0.408770
  74 C :   -0.089489
  75 N :    0.072608
  76 C :   -0.243789
  77 N :    0.182875
  78 H :    0.004210
  79 H :    0.000887
  80 H :    0.001162
  81 H :    0.003961
  82 H :    0.016564
  83 H :    0.000709
  84 H :    0.039584
  85 H :   -0.015834
  86 H :    0.030068
  87 H :   -0.025384
  88 H :   -0.043745
  89 H :    0.122359
  90 H :   -0.034021
  91 H :    0.114878
  92 H :   -0.017861
  93 H :   -0.020359
  94 H :   -0.017676
  95 H :   -0.026499
  96 H :    0.041959
  97 H :   -0.001090
  98 H :    0.032588
  99 H :   -0.005402
 100 H :   -0.025642
 101 H :    0.021704
 102 H :   -0.011842
 103 H :    0.001513
 104 H :    0.000055
 105 H :    0.002664
Sum of atomic charges:   -0.0000000

LOEWDIN ATOMIC CHARGES
----------------------
   0 C :    0.003789
   1 C :   -0.003251
   2 C :    0.002294
   3 C :   -0.002345
   4 C :   -0.008021
   5 C :   -0.015519
   6 C :    0.081903
   7 C :   -0.144251
   8 C :   -0.019820
   9 N :   -0.053970
  10 C :   -0.018071
  11 N :   -0.061105
  12 C :   -0.080561
  13 C :    0.053708
  14 C :   -0.146409
  15 C :   -0.036853
  16 N :   -0.056119
  17 C :   -0.020137
  18 N :   -0.053590
  19 C :    0.029373
  20 C :   -0.185479
  21 C :    0.042826
  22 C :   -0.037707
  23 C :   -0.057717
  24 C :   -0.125224
  25 S :    0.470512
  26 C :   -0.173110
  27 C :   -0.048113
  28 C :   -0.062327
  29 C :   -0.162209
  30 S :    0.440862
  31 C :    0.002206
  32 C :   -0.023101
  33 C :   -0.017938
  34 C :    0.007440
  35 N :    0.064991
  36 C :   -0.011129
  37 C :   -0.083322
  38 C :   -0.001672
  39 N :    0.083987
  40 C :   -0.001757
  41 C :   -0.080359
  42 C :    0.016610
  43 C :   -0.080374
  44 C :   -0.124650
  45 C :   -0.031260
  46 C :    0.037655
  47 C :   -0.044025
  48 C :   -0.148113
  49 S :    0.488385
  50 C :   -0.204803
  51 C :   -0.028985
  52 C :   -0.060204
  53 C :   -0.158295
  54 S :    0.431757
  55 C :   -0.063093
  56 C :    0.067251
  57 C :   -0.067691
  58 C :    0.055905
  59 C :   -0.099097
  60 C :    0.079345
  61 C :   -0.145132
  62 C :   -0.024446
  63 N :   -0.058589
  64 C :   -0.018168
  65 N :   -0.060136
  66 C :   -0.012844
  67 C :   -0.014209
  68 C :   -0.010019
  69 C :   -0.002493
  70 C :   -0.002858
  71 C :    0.002503
  72 C :    0.073965
  73 C :   -0.191853
  74 C :    0.034003
  75 N :   -0.099912
  76 C :   -0.027613
  77 N :   -0.054441
  78 H :    0.040804
  79 H :    0.036276
  80 H :    0.036241
  81 H :    0.040006
  82 H :    0.047728
  83 H :    0.044897
  84 H :    0.038698
  85 H :    0.027950
  86 H :    0.025676
  87 H :    0.030174
  88 H :    0.026580
  89 H :    0.089107
  90 H :    0.023818
  91 H :    0.061467
  92 H :    0.028974
  93 H :    0.033925
  94 H :    0.024611
  95 H :    0.037016
  96 H :    0.038770
  97 H :    0.034006
  98 H :    0.026745
  99 H :    0.032295
 100 H :    0.033116
 101 H :    0.047498
 102 H :    0.034202
 103 H :    0.036179
 104 H :    0.036030
 105 H :    0.040428

  Mayer bond orders larger than 0.100000
B(  0-C ,  1-C ) :   1.3632 B(  0-C ,  5-C ) :   1.3872 B(  0-C , 78-H ) :   0.9846
B(  1-C ,  2-C ) :   1.3836 B(  1-C , 79-H ) :   0.9863 B(  2-C ,  3-C ) :   1.3565
B(  2-C , 80-H ) :   0.9866 B(  3-C ,  4-C ) :   1.3896 B(  3-C , 81-H ) :   0.9876
B(  4-C ,  5-C ) :   1.3149 B(  4-C , 13-C ) :   1.0096 B(  5-C ,  6-C ) :   0.9904
B(  6-C ,  7-C ) :   1.6110 B(  6-C , 12-C ) :   1.0949 B(  7-C ,  8-C ) :   1.1490
B(  7-C , 10-C ) :   1.1427 B(  8-C ,  9-N ) :   2.9746 B( 10-C , 11-N ) :   2.9563
B( 12-C , 13-C ) :   1.0519 B( 12-C , 19-C ) :   1.4620 B( 13-C , 14-C ) :   1.6144
B( 14-C , 15-C ) :   1.1531 B( 14-C , 17-C ) :   1.1526 B( 15-C , 16-N ) :   3.0215
B( 17-C , 18-N ) :   2.9908 B( 19-C , 20-C ) :   1.2538 B( 19-C , 82-H ) :   0.9370
B( 20-C , 21-C ) :   1.4011 B( 20-C , 25-S ) :   1.0299 B( 21-C , 22-C ) :   1.2926
B( 21-C , 83-H ) :   0.9774 B( 22-C , 23-C ) :   1.0415 B( 22-C , 31-C ) :   1.2900
B( 23-C , 24-C ) :   1.6041 B( 23-C , 26-C ) :   1.1806 B( 24-C , 25-S ) :   1.1488
B( 24-C , 84-H ) :   0.9420 B( 26-C , 27-C ) :   1.4276 B( 26-C , 30-S ) :   1.1022
B( 27-C , 28-C ) :   1.2021 B( 27-C , 31-C ) :   1.1015 B( 28-C , 29-C ) :   1.6033
B( 28-C , 85-H ) :   0.9984 B( 29-C , 30-S ) :   1.1448 B( 29-C , 86-H ) :   0.9649
B( 31-C , 32-C ) :   1.2129 B( 32-C , 33-C ) :   1.5743 B( 32-C , 87-H ) :   0.9627
B( 33-C , 34-C ) :   1.1404 B( 33-C , 88-H ) :   0.9688 B( 34-C , 35-N ) :   1.1614
B( 34-C , 41-C ) :   1.3726 B( 35-N , 36-C ) :   1.1586 B( 35-N , 89-H ) :   0.9364
B( 36-C , 37-C ) :   1.3157 B( 36-C , 40-C ) :   1.2560 B( 37-C , 38-C ) :   1.3316
B( 37-C , 90-H ) :   1.0306 B( 38-C , 39-N ) :   1.1999 B( 38-C , 42-C ) :   1.1799
B( 39-N , 40-C ) :   1.2109 B( 39-N , 91-H ) :   0.8760 B( 40-C , 41-C ) :   1.2744
B( 41-C , 92-H ) :   1.0318 B( 42-C , 43-C ) :   1.6013 B( 42-C , 93-H ) :   0.9456
B( 43-C , 44-C ) :   1.1562 B( 43-C , 94-H ) :   0.9640 B( 44-C , 45-C ) :   1.4275
B( 44-C , 49-S ) :   1.1071 B( 45-C , 46-C ) :   1.3528 B( 45-C , 95-H ) :   0.9624
B( 46-C , 47-C ) :   1.0854 B( 46-C , 55-C ) :   1.2196 B( 47-C , 48-C ) :   1.5879
B( 47-C , 50-C ) :   1.1657 B( 48-C , 49-S ) :   1.1471 B( 48-C , 96-H ) :   0.9401
B( 50-C , 51-C ) :   1.4625 B( 50-C , 54-S ) :   1.0826 B( 51-C , 52-C ) :   1.2283
B( 51-C , 55-C ) :   1.0535 B( 52-C , 53-C ) :   1.5815 B( 52-C , 97-H ) :   0.9995
B( 53-C , 54-S ) :   1.1600 B( 53-C , 98-H ) :   0.9647 B( 55-C , 56-C ) :   1.4011
B( 56-C , 57-C ) :   1.3395 B( 56-C , 99-H ) :   0.9329 B( 57-C , 58-C ) :   1.4554
B( 57-C ,100-H ) :   0.9606 B( 58-C , 59-C ) :   1.2978 B( 58-C ,101-H ) :   0.9250
B( 59-C , 60-C ) :   1.1257 B( 59-C , 72-C ) :   1.1681 B( 60-C , 61-C ) :   1.5831
B( 60-C , 66-C ) :   0.9738 B( 61-C , 62-C ) :   1.1432 B( 61-C , 64-C ) :   1.1560
B( 62-C , 63-N ) :   2.9708 B( 64-C , 65-N ) :   2.9673 B( 66-C , 67-C ) :   1.3206
B( 66-C , 71-C ) :   1.3974 B( 67-C , 68-C ) :   1.3866 B( 67-C , 72-C ) :   1.0033
B( 68-C , 69-C ) :   1.3545 B( 68-C ,102-H ) :   0.9849 B( 69-C , 70-C ) :   1.3947
B( 69-C ,103-H ) :   0.9862 B( 70-C , 71-C ) :   1.3535 B( 70-C ,104-H ) :   0.9860
B( 71-C ,105-H ) :   0.9820 B( 72-C , 73-C ) :   1.4649 B( 73-C , 74-C ) :   1.1833
B( 73-C , 76-C ) :   1.1801 B( 74-C , 75-N ) :   2.8184 B( 75-N , 91-H ) :   0.1488
B( 76-C , 77-N ) :   2.9990

-----------------------------------------------------------------------------
         ABSORPTION SPECTRUM VIA TRANSITION ELECTRIC DIPOLE MOMENTS
-----------------------------------------------------------------------------
State   Energy  Wavelength   fosc         T2         TX        TY        TZ
        (cm-1)    (nm)                  (au**2)     (au)      (au)      (au)
-----------------------------------------------------------------------------
   0    8826.6   1132.9   0.806891758  30.09518  -2.34477  -1.93320  -4.56727
   1   12679.5    788.7   0.852971913  22.14672   0.48914   2.69820  -3.82455
   2   16409.2    609.4   0.265608342   5.32879   0.32816  -0.54465   2.21911
   3   16568.0    603.6   0.119406709   2.37265   0.86107   1.03358  -0.75028
   4   16902.4    591.6   0.230286133   4.48534   0.49351   1.85056   0.90400
   5   18729.2    533.9   0.509437318   8.95462   0.55915   2.56370   1.43855
   6   20406.4    490.0   0.109908210   1.77313   0.26677   0.19820   1.28945
   7   21291.9    469.7   0.114595965   1.77186   0.04132   0.26518   1.30378
   8   21960.9    455.4   0.102670773   1.53912  -0.07302   0.64953  -1.05447
   9   22024.7    454.0   0.021080205   0.31509  -0.15028  -0.08866  -0.53353
  10   22432.1    445.8   0.079884745   1.17238  -0.22383  -0.65090   0.83582
  11   23528.7    425.0   0.643256320   9.00038   0.81651   1.49030   2.47238
  12   24050.8    415.8   0.052121824   0.71345   0.33267   0.76236  -0.14696
  13   25115.3    398.2   0.149785699   1.96339  -1.03394  -0.92585  -0.19279
  14   25761.1    388.2   0.079622055   1.01752   0.11282   0.99986  -0.07127
  15   25899.0    386.1   0.196623570   2.49936   0.04979  -0.60333   1.46044
  16   26090.9    383.3   0.085988830   1.08500  -0.14396  -0.54798   0.87406
  17   26641.5    375.4   0.000239839   0.00296  -0.04114   0.01233  -0.03345
  18   27175.4    368.0   0.027717654   0.33578   0.05912  -0.11729  -0.56438
  19   27806.9    359.6   0.289923048   3.43247   1.25421   1.36125  -0.08015
  20   28412.0    352.0   0.030634456   0.35496  -0.23810  -0.53692  -0.09995
  21   28703.6    348.4   0.057300862   0.65720  -0.13104  -0.79640   0.07605
  22   29064.0    344.1   0.133664839   1.51404   0.23841   1.13610  -0.40802
  23   29339.3    340.8   0.018167626   0.20386  -0.00912  -0.31840  -0.31999
  24   30206.6    331.1   0.083523857   0.91030  -0.71469  -0.41127  -0.47997
  25   30323.8    329.8   0.093022051   1.00990   0.07256   0.72689  -0.69012
  26   30439.0    328.5   0.008127172   0.08790   0.15563  -0.22493  -0.11440
  27   30588.2    326.9   0.015952506   0.17169  -0.17643  -0.34043   0.15708
  28   30752.5    325.2   0.011551267   0.12366  -0.18356  -0.25104  -0.16415
  29   31328.9    319.2   0.052313578   0.54972  -0.48080  -0.56116   0.06043
  30   31430.5    318.2   0.101336052   1.06142  -0.70780  -0.71629   0.21764
  31   31764.7    314.8   0.477808594   4.95205   0.07963   2.15584  -0.54594
  32   32385.2    308.8   0.035569079   0.36158   0.37125   0.44507   0.16019
  33   32541.5    307.3   0.159952972   1.61819  -1.14591  -0.13712  -0.53506
  34   32785.8    305.0   0.253917896   2.54967  -1.28395  -0.94850   0.03858
  35   33009.8    302.9   0.014058033   0.14020  -0.13768   0.15601  -0.31130
  36   33567.8    297.9   0.073668077   0.72249   0.20352   0.27539   0.77797
  37   33694.3    296.8   0.204189176   1.99504  -0.56811   0.04359  -1.29243
  38   34255.7    291.9   0.473099692   4.54670  -0.73734   0.48937  -1.93999
  39   34448.2    290.3   0.045378072   0.43367  -0.07063   0.29406  -0.58499
  40   34560.0    289.4   0.028476905   0.27127   0.19291   0.13261   0.46526
  41   34938.5    286.2   0.182020801   1.71511   0.20142  -0.73323   1.06626
  42   35387.7    282.6   0.008474283   0.07884  -0.06579  -0.23188  -0.14402
  43   35450.4    282.1   0.012505357   0.11613   0.11713   0.06384  -0.31359
  44   35641.0    280.6   0.024713186   0.22827   0.30626   0.34587   0.12187
  45   35882.5    278.7   0.048462279   0.44463  -0.34536  -0.50206   0.27071
  46   36213.3    276.1   0.006350420   0.05773   0.06901  -0.07861  -0.21631
  47   36441.8    274.4   0.117596128   1.06235   0.12170   0.54667  -0.86527
  48   36593.3    273.3   0.015210531   0.13684   0.07585  -0.15148  -0.32885
  49   36736.1    272.2   0.005028638   0.04506   0.15739   0.05513   0.13136
  50   36859.9    271.3   0.004521585   0.04038  -0.10636  -0.08959   0.14507
  51   36972.5    270.5   0.014298716   0.12732   0.11476   0.11923  -0.31612
  52   37134.5    269.3   0.062555750   0.55458   0.00474  -0.13088   0.73310
  53   37363.7    267.6   0.003652955   0.03219  -0.02917  -0.16946   0.05117
  54   37716.1    265.1   0.028451882   0.24835  -0.20545  -0.14980  -0.42860
  55   38102.9    262.4   0.059822350   0.51687  -0.10222  -0.56836   0.42823
  56   38242.7    261.5   0.161917718   1.39387   0.41244   0.32594   1.05713
  57   38292.9    261.1   0.066825776   0.57451  -0.37922  -0.56812   0.32855
  58   38619.8    258.9   0.037681294   0.32121   0.04495   0.52748   0.20239
  59   38863.2    257.3   0.119685409   1.01386  -0.64848  -0.43930  -0.63273
  60   38956.3    256.7   0.214074716   1.80910  -0.78238  -0.76135  -0.78570
  61   39300.1    254.5   0.095928965   0.80359   0.51348  -0.08122   0.73029
  62   39598.5    252.5   0.120542585   1.00216  -0.36312  -0.77511   0.51914
  63   39871.2    250.8   0.056370873   0.46545  -0.53043  -0.36807  -0.22048
  64   40121.2    249.2   0.027406163   0.22488   0.05212  -0.10419   0.45968
  65   40199.7    248.8   0.148954381   1.21985   0.30060   0.78979  -0.71114

FINAL SINGLE POINT ENERGY     -4591.337242883020

DIPOLE MOMENT
-------------
                                X             Y             Z
Electronic contribution:     -1.82498      -2.09699      -4.96060
Nuclear contribution   :     -0.46762      -3.46822       7.21965
                        -----------------------------------------
Total Dipole Moment    :     -2.29260      -5.56521       2.25905
                        -----------------------------------------
Magnitude (a.u.)       :      6.42891
Magnitude (Debye)      :     16.34100

Rotational constants in cm-1:     0.001008     0.000288     0.000229
Rotational constants in MHz :    30.208046     8.629051     6.879597

                             ****ORCA TERMINATED NORMALLY****
TOTAL RUN TIME: 0 days 0 hours 19 minutes 31 seconds 901 msec
