                         Program Version 4.2.0 -  RELEASE  -
|  1> # ORCA input file
|  2> # SCF done       -195.080463632528          0.000652951015
|  3> ! CAM-B3LYP def2-SVP def2/J RIJCOSX Grid4 TightSCF
|  4> %maxcore 5000
|  5> %tddft
|  6>     Mode sTDDFT
|  7>     Ethresh 5.0
|  8>     maxcore 5000
|  9> end
| 10>
| 11> %pal
| 12>   nprocs 6
| 13>   end
| 14> * xyz 0 1
| 15>    C      -14.71437        -4.79668         5.14033
| 16>    C      -15.00507        -5.95579         5.84549
| 17>    C      -14.08787        -6.99230         5.92695
| 18>    C      -12.84862        -6.89640         5.31043
| 19>    C      -12.54946        -5.74592         4.60132
| 20>    C      -13.48509        -4.69176         4.51009
| 21>    C      -12.91377        -3.62602         3.69308
| 22>    C      -13.50670        -2.41610         3.43723
| 23>    C      -14.75959        -2.02375         3.95283
| 24>    N      -15.77141        -1.63598         4.33299
| 25>    C      -12.96351        -1.37537         2.65586
| 26>    N      -12.59892        -0.48060         2.03440
| 27>    C      -11.63508        -4.11287         3.19986
| 28>    C      -11.33972        -5.34458         3.89541
| 29>    C      -10.09679        -5.91033         4.06915
| 30>    C       -8.88822        -5.28898         3.70128
| 31>    N       -7.87431        -4.80499         3.46403
| 32>    C       -9.87048        -7.13504         4.72378
| 33>    N       -9.62533        -8.15421         5.19435
| 34>    C      -10.92042        -3.51712         2.17934
| 35>    C       -9.96380        -4.09636         1.34420
| 36>    S       -8.95564        -3.06162         0.32959
| 37>    C       -9.63317        -5.41634         1.06512
| 38>    N      -10.02766        -6.66469         1.49086
| 39>    C       -9.24605        -7.62609         0.72127
| 40>    O       -8.35369        -6.89640        -0.10519
| 41>    C       -8.60365        -5.57147         0.12579
| 42>    C       -8.08918        -4.40538        -0.38747
| 43>    C       -7.01914        -4.21499        -1.32150
| 44>    C       -6.33429        -5.30318        -1.81620
| 45>    C       -5.24770        -5.10401        -2.68882
| 46>    C       -4.38352        -6.01138        -3.28757
| 47>    C       -4.46460        -7.49597        -3.17406
| 48>    C       -5.06522        -8.14871        -4.43822
| 49>    N       -4.28928        -7.84340        -5.63257
| 50>    C       -3.12434        -8.16632        -2.82807
| 51>    N       -3.38376        -9.45867        -2.21343
| 52>    C       -3.42576        -5.23262        -4.03800
| 53>    C       -2.35661        -5.59849        -4.76845
| 54>    C       -1.49875        -4.59160        -5.46042
| 55>    C       -1.93271        -3.17359        -5.28672
| 56>    C       -2.98916        -2.82268        -4.53206
| 57>    C       -3.76758        -3.81093        -3.88033
| 58>    C       -4.87167        -3.74370        -3.05817
| 59>    C       -5.61814        -2.65123        -2.55353
| 60>    C       -6.65461        -2.88392        -1.71316
| 61>    C       -1.38393        -5.03504        -6.89640
| 62>    C       -1.88674        -4.37518        -7.94281
| 63>    C       -1.78126        -4.85064        -9.28955
| 64>    S       -2.10064        -3.79285       -10.64539
| 65>    C       -1.43034        -6.08998        -9.76378
| 66>    N       -1.03114        -7.31304        -9.22743
| 67>    C       -0.83924        -8.19352       -10.37486
| 68>    O       -1.04703        -7.43053       -11.56307
| 69>    C       -1.42142        -6.19436       -11.16629
| 70>    C       -1.77861        -5.04421       -11.84488
| 71>    C       -1.84247        -4.71364       -13.20937
| 72>    C       -1.82140        -5.54475       -14.29924
| 73>    C       -1.43643        -5.10864       -15.63950
| 74>    C       -1.39407        -3.82825       -16.12031
| 75>    C       -1.77035        -2.66784       -15.41006
| 76>    N       -2.06265        -1.67922       -14.90450
| 77>    C       -1.00115        -3.48921       -17.43327
| 78>    N       -0.69396        -3.14048       -18.48272
| 79>    C       -1.09911        -6.31208       -16.38942
| 80>    C       -1.41118        -7.44249       -15.60140
| 81>    C       -1.17198        -8.72116       -16.07514
| 82>    C       -0.61731        -8.86685       -17.33817
| 83>    C       -0.31602        -7.75869       -18.11642
| 84>    C       -0.55401        -6.47297       -17.65359
| 85>    C       -1.99791        -6.98312       -14.35105
| 86>    C       -2.77442        -7.74255       -13.51439
| 87>    C       -2.90776        -9.14229       -13.60734
| 88>    N       -3.03415       -10.28339       -13.59069
| 89>    C       -3.58538        -7.22148       -12.48874
| 90>    N       -4.26532        -6.85501       -11.63891
| 91>    H      -15.44017        -4.00221         5.09019
| 92>    H      -15.96184        -6.04850         6.33628
| 93>    H      -14.33729        -7.88660         6.47746
| 94>    H      -12.14353        -7.70888         5.38098
| 95>    H      -11.15301        -2.48746         1.94402
| 96>    H      -11.00212        -6.86459         1.65500
| 97>    H       -9.87835        -8.27018         0.09116
| 98>    H       -8.65936        -8.25871         1.40442
| 99>    H       -6.62267        -6.29900        -1.51775
|100>    H       -5.15751        -7.72631        -2.35756
|101>    H       -6.11770        -7.83425        -4.52268
|102>    H       -5.03523        -9.22956        -4.28420
|103>    H       -4.43916        -6.87554        -5.90152
|104>    H       -4.60854        -8.42533        -6.39976
|105>    H       -2.53402        -7.48825        -2.18861
|106>    H       -2.56716        -8.35412        -3.74693
|107>    H       -3.83655        -9.33637        -1.31306
|108>    H       -2.51502        -9.95712        -2.05568
|109>    H       -2.09646        -6.63557        -4.91191
|110>    H       -0.48753        -4.68627        -5.02802
|111>    H       -1.32726        -2.43066        -5.78332
|112>    H       -3.26018        -1.78382        -4.41282
|113>    H       -5.34830        -1.64503        -2.83701
|114>    H       -7.23310        -2.06689        -1.30746
|115>    H       -0.86720        -5.97201        -7.04825
|116>    H       -2.37963        -3.42250        -7.81383
|117>    H       -1.60342        -7.68414        -8.48082
|118>    H       -1.53075        -9.04855       -10.38123
|119>    H        0.19379        -8.56900       -10.39357
|120>    H       -1.83468        -3.64813       -13.39819
|121>    H       -1.39682        -9.58911       -15.47668
|122>    H       -0.41749        -9.85727       -17.71776
|123>    H        0.11346        -7.89521       -19.09710
|124>    H       -0.30983        -5.62459       -18.27124
|125> *
|126>
|127>                          ****END OF INPUT****

CARTESIAN COORDINATES (ANGSTROEM)
---------------------------------
  C    -14.714370   -4.796680    5.140330
  C    -15.005070   -5.955790    5.845490
  C    -14.087870   -6.992300    5.926950
  C    -12.848620   -6.896400    5.310430
  C    -12.549460   -5.745920    4.601320
  C    -13.485090   -4.691760    4.510090
  C    -12.913770   -3.626020    3.693080
  C    -13.506700   -2.416100    3.437230
  C    -14.759590   -2.023750    3.952830
  N    -15.771410   -1.635980    4.332990
  C    -12.963510   -1.375370    2.655860
  N    -12.598920   -0.480600    2.034400
  C    -11.635080   -4.112870    3.199860
  C    -11.339720   -5.344580    3.895410
  C    -10.096790   -5.910330    4.069150
  C     -8.888220   -5.288980    3.701280
  N     -7.874310   -4.804990    3.464030
  C     -9.870480   -7.135040    4.723780
  N     -9.625330   -8.154210    5.194350
  C    -10.920420   -3.517120    2.179340
  C     -9.963800   -4.096360    1.344200
  S     -8.955640   -3.061620    0.329590
  C     -9.633170   -5.416340    1.065120
  N    -10.027660   -6.664690    1.490860
  C     -9.246050   -7.626090    0.721270
  O     -8.353690   -6.896400   -0.105190
  C     -8.603650   -5.571470    0.125790
  C     -8.089180   -4.405380   -0.387470
  C     -7.019140   -4.214990   -1.321500
  C     -6.334290   -5.303180   -1.816200
  C     -5.247700   -5.104010   -2.688820
  C     -4.383520   -6.011380   -3.287570
  C     -4.464600   -7.495970   -3.174060
  C     -5.065220   -8.148710   -4.438220
  N     -4.289280   -7.843400   -5.632570
  C     -3.124340   -8.166320   -2.828070
  N     -3.383760   -9.458670   -2.213430
  C     -3.425760   -5.232620   -4.038000
  C     -2.356610   -5.598490   -4.768450
  C     -1.498750   -4.591600   -5.460420
  C     -1.932710   -3.173590   -5.286720
  C     -2.989160   -2.822680   -4.532060
  C     -3.767580   -3.810930   -3.880330
  C     -4.871670   -3.743700   -3.058170
  C     -5.618140   -2.651230   -2.553530
  C     -6.654610   -2.883920   -1.713160
  C     -1.383930   -5.035040   -6.896400
  C     -1.886740   -4.375180   -7.942810
  C     -1.781260   -4.850640   -9.289550
  S     -2.100640   -3.792850  -10.645390
  C     -1.430340   -6.089980   -9.763780
  N     -1.031140   -7.313040   -9.227430
  C     -0.839240   -8.193520  -10.374860
  O     -1.047030   -7.430530  -11.563070
  C     -1.421420   -6.194360  -11.166290
  C     -1.778610   -5.044210  -11.844880
  C     -1.842470   -4.713640  -13.209370
  C     -1.821400   -5.544750  -14.299240
  C     -1.436430   -5.108640  -15.639500
  C     -1.394070   -3.828250  -16.120310
  C     -1.770350   -2.667840  -15.410060
  N     -2.062650   -1.679220  -14.904500
  C     -1.001150   -3.489210  -17.433270
  N     -0.693960   -3.140480  -18.482720
  C     -1.099110   -6.312080  -16.389420
  C     -1.411180   -7.442490  -15.601400
  C     -1.171980   -8.721160  -16.075140
  C     -0.617310   -8.866850  -17.338170
  C     -0.316020   -7.758690  -18.116420
  C     -0.554010   -6.472970  -17.653590
  C     -1.997910   -6.983120  -14.351050
  C     -2.774420   -7.742550  -13.514390
  C     -2.907760   -9.142290  -13.607340
  N     -3.034150  -10.283390  -13.590690
  C     -3.585380   -7.221480  -12.488740
  N     -4.265320   -6.855010  -11.638910
  H    -15.440170   -4.002210    5.090190
  H    -15.961840   -6.048500    6.336280
  H    -14.337290   -7.886600    6.477460
  H    -12.143530   -7.708880    5.380980
  H    -11.153010   -2.487460    1.944020
  H    -11.002120   -6.864590    1.655000
  H     -9.878350   -8.270180    0.091160
  H     -8.659360   -8.258710    1.404420
  H     -6.622670   -6.299000   -1.517750
  H     -5.157510   -7.726310   -2.357560
  H     -6.117700   -7.834250   -4.522680
  H     -5.035230   -9.229560   -4.284200
  H     -4.439160   -6.875540   -5.901520
  H     -4.608540   -8.425330   -6.399760
  H     -2.534020   -7.488250   -2.188610
  H     -2.567160   -8.354120   -3.746930
  H     -3.836550   -9.336370   -1.313060
  H     -2.515020   -9.957120   -2.055680
  H     -2.096460   -6.635570   -4.911910
  H     -0.487530   -4.686270   -5.028020
  H     -1.327260   -2.430660   -5.783320
  H     -3.260180   -1.783820   -4.412820
  H     -5.348300   -1.645030   -2.837010
  H     -7.233100   -2.066890   -1.307460
  H     -0.867200   -5.972010   -7.048250
  H     -2.379630   -3.422500   -7.813830
  H     -1.603420   -7.684140   -8.480820
  H     -1.530750   -9.048550  -10.381230
  H      0.193790   -8.569000  -10.393570
  H     -1.834680   -3.648130  -13.398190
  H     -1.396820   -9.589110  -15.476680
  H     -0.417490   -9.857270  -17.717760
  H      0.113460   -7.895210  -19.097100
  H     -0.309830   -5.624590  -18.271240

 Total Charge           Charge          ....    0
 Multiplicity           Mult            ....    1
 Number of Electrons    NEL             ....  526
 Basis Dimension        Dim             .... 1242

ORBITAL ENERGIES
----------------

  NO   OCC          E(Eh)            E(eV)
   0   2.0000     -88.967350     -2420.9247
   1   2.0000     -88.962915     -2420.8040
   2   2.0000     -19.296936      -525.0963
   3   2.0000     -19.279515      -524.6223
   4   2.0000     -14.474071      -393.8595
   5   2.0000     -14.454788      -393.3348
   6   2.0000     -14.422466      -392.4552
   7   2.0000     -14.421671      -392.4336
   8   2.0000     -14.421483      -392.4285
   9   2.0000     -14.419402      -392.3719
  10   2.0000     -14.418361      -392.3435
  11   2.0000     -14.418314      -392.3423
  12   2.0000     -14.415072      -392.2541
  13   2.0000     -14.415070      -392.2540
  14   2.0000     -14.389996      -391.5717
  15   2.0000     -14.383394      -391.3921
  16   2.0000     -10.389674      -282.7174
  17   2.0000     -10.388733      -282.6918
  18   2.0000     -10.366930      -282.0985
  19   2.0000     -10.348855      -281.6066
  20   2.0000     -10.348141      -281.5872
  21   2.0000     -10.347493      -281.5696
  22   2.0000     -10.346845      -281.5520
  23   2.0000     -10.346600      -281.5453
  24   2.0000     -10.345856      -281.5250
  25   2.0000     -10.344662      -281.4926
  26   2.0000     -10.342666      -281.4382
  27   2.0000     -10.340734      -281.3857
  28   2.0000     -10.335678      -281.2481
  29   2.0000     -10.330748      -281.1139
  30   2.0000     -10.330330      -281.1026
  31   2.0000     -10.326046      -280.9860
  32   2.0000     -10.325241      -280.9641
  33   2.0000     -10.325208      -280.9632
  34   2.0000     -10.324886      -280.9544
  35   2.0000     -10.323755      -280.9237
  36   2.0000     -10.323295      -280.9111
  37   2.0000     -10.322993      -280.9029
  38   2.0000     -10.322747      -280.8962
  39   2.0000     -10.322674      -280.8943
  40   2.0000     -10.321127      -280.8522
  41   2.0000     -10.320610      -280.8381
  42   2.0000     -10.318125      -280.7705
  43   2.0000     -10.316413      -280.7239
  44   2.0000     -10.315730      -280.7053
  45   2.0000     -10.310031      -280.5502
  46   2.0000     -10.309996      -280.5493
  47   2.0000     -10.309611      -280.5388
  48   2.0000     -10.307426      -280.4793
  49   2.0000     -10.307326      -280.4766
  50   2.0000     -10.306083      -280.4428
  51   2.0000     -10.304608      -280.4026
  52   2.0000     -10.300651      -280.2950
  53   2.0000     -10.298842      -280.2457
  54   2.0000     -10.298639      -280.2402
  55   2.0000     -10.298496      -280.2363
  56   2.0000     -10.298222      -280.2289
  57   2.0000     -10.296448      -280.1806
  58   2.0000     -10.296237      -280.1749
  59   2.0000     -10.296161      -280.1728
  60   2.0000     -10.295654      -280.1590
  61   2.0000     -10.293420      -280.0982
  62   2.0000     -10.291888      -280.0565
  63   2.0000     -10.283232      -279.8210
  64   2.0000     -10.282827      -279.8099
  65   2.0000     -10.279136      -279.7095
  66   2.0000     -10.278934      -279.7040
  67   2.0000     -10.277229      -279.6576
  68   2.0000     -10.275831      -279.6196
  69   2.0000     -10.275334      -279.6061
  70   2.0000     -10.274194      -279.5750
  71   2.0000     -10.269536      -279.4483
  72   2.0000     -10.268944      -279.4322
  73   2.0000     -10.267519      -279.3934
  74   2.0000     -10.267220      -279.3853
  75   2.0000     -10.267116      -279.3824
  76   2.0000      -8.062667      -219.3963
  77   2.0000      -8.057756      -219.2627
  78   2.0000      -6.032456      -164.1515
  79   2.0000      -6.028415      -164.0415
  80   2.0000      -6.027611      -164.0196
  81   2.0000      -6.023624      -163.9111
  82   2.0000      -6.023532      -163.9086
  83   2.0000      -6.018686      -163.7768
  84   2.0000      -1.217778       -33.1374
  85   2.0000      -1.204318       -32.7712
  86   2.0000      -1.055567       -28.7234
  87   2.0000      -1.044369       -28.4187
  88   2.0000      -1.034381       -28.1469
  89   2.0000      -1.029530       -28.0149
  90   2.0000      -1.018394       -27.7119
  91   2.0000      -1.014103       -27.5951
  92   2.0000      -1.007284       -27.4096
  93   2.0000      -1.003649       -27.3107
  94   2.0000      -1.002522       -27.2800
  95   2.0000      -0.998925       -27.1821
  96   2.0000      -0.998355       -27.1666
  97   2.0000      -0.995362       -27.0852
  98   2.0000      -0.994757       -27.0687
  99   2.0000      -0.993999       -27.0481
 100   2.0000      -0.988627       -26.9019
 101   2.0000      -0.971607       -26.4388
 102   2.0000      -0.957170       -26.0459
 103   2.0000      -0.955808       -26.0089
 104   2.0000      -0.955009       -25.9871
 105   2.0000      -0.951065       -25.8798
 106   2.0000      -0.938453       -25.5366
 107   2.0000      -0.934632       -25.4326
 108   2.0000      -0.925497       -25.1840
 109   2.0000      -0.909028       -24.7359
 110   2.0000      -0.897902       -24.4332
 111   2.0000      -0.892853       -24.2958
 112   2.0000      -0.888371       -24.1738
 113   2.0000      -0.884035       -24.0558
 114   2.0000      -0.872955       -23.7543
 115   2.0000      -0.864325       -23.5195
 116   2.0000      -0.861601       -23.4454
 117   2.0000      -0.859970       -23.4010
 118   2.0000      -0.856511       -23.3068
 119   2.0000      -0.848276       -23.0828
 120   2.0000      -0.841264       -22.8920
 121   2.0000      -0.833872       -22.6908
 122   2.0000      -0.825060       -22.4510
 123   2.0000      -0.807236       -21.9660
 124   2.0000      -0.790263       -21.5042
 125   2.0000      -0.786966       -21.4144
 126   2.0000      -0.785057       -21.3625
 127   2.0000      -0.773512       -21.0483
 128   2.0000      -0.769599       -20.9419
 129   2.0000      -0.768480       -20.9114
 130   2.0000      -0.761974       -20.7344
 131   2.0000      -0.744186       -20.2503
 132   2.0000      -0.727886       -19.8068
 133   2.0000      -0.723352       -19.6834
 134   2.0000      -0.718793       -19.5594
 135   2.0000      -0.717625       -19.5276
 136   2.0000      -0.714211       -19.4347
 137   2.0000      -0.710332       -19.3291
 138   2.0000      -0.707802       -19.2603
 139   2.0000      -0.706015       -19.2117
 140   2.0000      -0.701719       -19.0948
 141   2.0000      -0.698988       -19.0204
 142   2.0000      -0.682878       -18.5821
 143   2.0000      -0.677367       -18.4321
 144   2.0000      -0.670388       -18.2422
 145   2.0000      -0.666955       -18.1488
 146   2.0000      -0.664467       -18.0811
 147   2.0000      -0.663627       -18.0582
 148   2.0000      -0.660999       -17.9867
 149   2.0000      -0.653668       -17.7872
 150   2.0000      -0.651468       -17.7274
 151   2.0000      -0.640554       -17.4304
 152   2.0000      -0.633560       -17.2400
 153   2.0000      -0.626154       -17.0385
 154   2.0000      -0.624451       -16.9922
 155   2.0000      -0.619897       -16.8683
 156   2.0000      -0.607606       -16.5338
 157   2.0000      -0.602384       -16.3917
 158   2.0000      -0.599687       -16.3183
 159   2.0000      -0.593036       -16.1373
 160   2.0000      -0.589050       -16.0289
 161   2.0000      -0.584637       -15.9088
 162   2.0000      -0.584094       -15.8940
 163   2.0000      -0.580193       -15.7878
 164   2.0000      -0.577822       -15.7233
 165   2.0000      -0.575587       -15.6625
 166   2.0000      -0.572377       -15.5752
 167   2.0000      -0.569727       -15.5030
 168   2.0000      -0.568344       -15.4654
 169   2.0000      -0.558612       -15.2006
 170   2.0000      -0.552459       -15.0332
 171   2.0000      -0.548261       -14.9189
 172   2.0000      -0.546652       -14.8752
 173   2.0000      -0.545174       -14.8349
 174   2.0000      -0.544706       -14.8222
 175   2.0000      -0.542373       -14.7587
 176   2.0000      -0.540709       -14.7134
 177   2.0000      -0.538885       -14.6638
 178   2.0000      -0.536155       -14.5895
 179   2.0000      -0.534500       -14.5445
 180   2.0000      -0.532899       -14.5009
 181   2.0000      -0.527441       -14.3524
 182   2.0000      -0.524066       -14.2606
 183   2.0000      -0.522848       -14.2274
 184   2.0000      -0.520240       -14.1564
 185   2.0000      -0.517435       -14.0801
 186   2.0000      -0.516646       -14.0587
 187   2.0000      -0.512413       -13.9435
 188   2.0000      -0.510738       -13.8979
 189   2.0000      -0.510172       -13.8825
 190   2.0000      -0.507273       -13.8036
 191   2.0000      -0.503643       -13.7048
 192   2.0000      -0.502556       -13.6752
 193   2.0000      -0.500712       -13.6251
 194   2.0000      -0.493025       -13.4159
 195   2.0000      -0.487062       -13.2536
 196   2.0000      -0.484071       -13.1722
 197   2.0000      -0.483376       -13.1533
 198   2.0000      -0.481132       -13.0923
 199   2.0000      -0.476421       -12.9641
 200   2.0000      -0.473868       -12.8946
 201   2.0000      -0.471323       -12.8254
 202   2.0000      -0.467654       -12.7255
 203   2.0000      -0.465300       -12.6614
 204   2.0000      -0.464320       -12.6348
 205   2.0000      -0.463123       -12.6022
 206   2.0000      -0.459617       -12.5068
 207   2.0000      -0.457923       -12.4607
 208   2.0000      -0.456415       -12.4197
 209   2.0000      -0.454837       -12.3768
 210   2.0000      -0.454091       -12.3565
 211   2.0000      -0.453045       -12.3280
 212   2.0000      -0.452414       -12.3108
 213   2.0000      -0.451015       -12.2727
 214   2.0000      -0.449374       -12.2281
 215   2.0000      -0.449184       -12.2229
 216   2.0000      -0.448244       -12.1973
 217   2.0000      -0.446810       -12.1583
 218   2.0000      -0.444651       -12.0996
 219   2.0000      -0.444322       -12.0906
 220   2.0000      -0.443043       -12.0558
 221   2.0000      -0.437515       -11.9054
 222   2.0000      -0.435995       -11.8640
 223   2.0000      -0.435146       -11.8409
 224   2.0000      -0.434065       -11.8115
 225   2.0000      -0.432594       -11.7715
 226   2.0000      -0.429873       -11.6974
 227   2.0000      -0.428393       -11.6572
 228   2.0000      -0.427688       -11.6380
 229   2.0000      -0.426498       -11.6056
 230   2.0000      -0.426248       -11.5988
 231   2.0000      -0.425329       -11.5738
 232   2.0000      -0.424701       -11.5567
 233   2.0000      -0.422250       -11.4900
 234   2.0000      -0.415841       -11.3156
 235   2.0000      -0.415036       -11.2937
 236   2.0000      -0.411978       -11.2105
 237   2.0000      -0.411438       -11.1958
 238   2.0000      -0.410922       -11.1818
 239   2.0000      -0.407184       -11.0800
 240   2.0000      -0.402121       -10.9423
 241   2.0000      -0.397907       -10.8276
 242   2.0000      -0.394572       -10.7369
 243   2.0000      -0.393724       -10.7138
 244   2.0000      -0.389201       -10.5907
 245   2.0000      -0.383146       -10.4259
 246   2.0000      -0.381219       -10.3735
 247   2.0000      -0.372461       -10.1352
 248   2.0000      -0.368712       -10.0332
 249   2.0000      -0.350519        -9.5381
 250   2.0000      -0.338795        -9.2191
 251   2.0000      -0.332311        -9.0426
 252   2.0000      -0.330324        -8.9886
 253   2.0000      -0.325961        -8.8698
 254   2.0000      -0.314166        -8.5489
 255   2.0000      -0.311330        -8.4717
 256   2.0000      -0.307008        -8.3541
 257   2.0000      -0.303989        -8.2720
 258   2.0000      -0.289462        -7.8767
 259   2.0000      -0.283517        -7.7149
 260   2.0000      -0.272144        -7.4054
 261   2.0000      -0.270552        -7.3621
 262   2.0000      -0.227243        -6.1836
 263   0.0000      -0.095268        -2.5924
 264   0.0000      -0.091803        -2.4981
 265   0.0000      -0.084035        -2.2867
 266   0.0000      -0.082966        -2.2576
 267   0.0000      -0.067024        -1.8238

MULLIKEN ATOMIC CHARGES
-----------------------
   0 C :   -0.041153
   1 C :    0.046361
   2 C :    0.050805
   3 C :   -0.053567
   4 C :    0.016282
   5 C :    0.004693
   6 C :    0.317367
   7 C :   -0.358539
   8 C :   -0.189295
   9 N :    0.158711
  10 C :   -0.179500
  11 N :    0.152736
  12 C :   -0.084788
  13 C :    0.174187
  14 C :   -0.328962
  15 C :   -0.214970
  16 N :    0.188330
  17 C :   -0.186956
  18 N :    0.149564
  19 C :    0.093061
  20 C :   -0.234603
  21 S :    0.136265
  22 C :    0.126459
  23 N :   -0.160967
  24 C :    0.343062
  25 O :   -0.312001
  26 C :    0.172249
  27 C :   -0.147935
  28 C :    0.150174
  29 C :   -0.120243
  30 C :    0.062399
  31 C :   -0.046274
  32 C :   -0.021494
  33 C :    0.142933
  34 N :   -0.247412
  35 C :    0.116875
  36 N :   -0.220696
  37 C :    0.057234
  38 C :   -0.116444
  39 C :    0.193693
  40 C :   -0.059369
  41 C :    0.018894
  42 C :    0.011957
  43 C :    0.033696
  44 C :    0.001154
  45 C :   -0.041483
  46 C :   -0.131048
  47 C :    0.090740
  48 C :   -0.190376
  49 S :    0.152088
  50 C :    0.126557
  51 N :   -0.207416
  52 C :    0.331387
  53 O :   -0.291742
  54 C :    0.180880
  55 C :   -0.229793
  56 C :    0.120466
  57 C :   -0.075563
  58 C :    0.295899
  59 C :   -0.350236
  60 C :   -0.181144
  61 N :    0.159000
  62 C :   -0.188222
  63 N :    0.160971
  64 C :    0.005591
  65 C :    0.011249
  66 C :   -0.039658
  67 C :    0.047138
  68 C :    0.046833
  69 C :   -0.033725
  70 C :    0.249110
  71 C :   -0.303119
  72 C :   -0.194961
  73 N :    0.153138
  74 C :   -0.226847
  75 N :    0.173271
  76 H :    0.005049
  77 H :    0.000085
  78 H :    0.000099
  79 H :   -0.000906
  80 H :    0.004870
  81 H :    0.153617
  82 H :    0.037134
  83 H :    0.048193
  84 H :   -0.021103
  85 H :   -0.026794
  86 H :   -0.011120
  87 H :    0.004379
  88 H :    0.105140
  89 H :    0.097459
  90 H :   -0.006167
  91 H :    0.004149
  92 H :    0.091278
  93 H :    0.091039
  94 H :   -0.000599
  95 H :    0.044509
  96 H :   -0.004325
  97 H :   -0.033399
  98 H :   -0.033176
  99 H :   -0.010465
 100 H :   -0.001879
 101 H :   -0.003038
 102 H :    0.148506
 103 H :    0.045292
 104 H :    0.042666
 105 H :    0.005369
 106 H :    0.002534
 107 H :    0.001720
 108 H :    0.001656
 109 H :    0.005262
Sum of atomic charges:   -0.0000000

LOEWDIN ATOMIC CHARGES
----------------------
   0 C :    0.004900
   1 C :   -0.005407
   2 C :    0.001378
   3 C :   -0.009819
   4 C :   -0.012087
   5 C :   -0.018828
   6 C :    0.078783
   7 C :   -0.137370
   8 C :   -0.018558
   9 N :   -0.051120
  10 C :   -0.022323
  11 N :   -0.047047
  12 C :   -0.079506
  13 C :    0.035484
  14 C :   -0.136166
  15 C :   -0.021292
  16 N :   -0.045002
  17 C :   -0.021613
  18 N :   -0.060412
  19 C :    0.036732
  20 C :   -0.204827
  21 S :    0.436638
  22 C :    0.004633
  23 N :   -0.006721
  24 C :    0.168198
  25 O :   -0.101235
  26 C :    0.005966
  27 C :   -0.151757
  28 C :   -0.045357
  29 C :    0.002478
  30 C :   -0.021795
  31 C :   -0.030862
  32 C :   -0.039506
  33 C :    0.030370
  34 N :   -0.119473
  35 C :    0.022655
  36 N :   -0.117707
  37 C :   -0.025863
  38 C :    0.076272
  39 C :   -0.030164
  40 C :   -0.038451
  41 C :   -0.011845
  42 C :   -0.037323
  43 C :   -0.029485
  44 C :   -0.002995
  45 C :   -0.033381
  46 C :    0.000084
  47 C :   -0.043122
  48 C :   -0.173881
  49 S :    0.437454
  50 C :   -0.032851
  51 N :   -0.064006
  52 C :    0.167591
  53 O :   -0.066077
  54 C :    0.039156
  55 C :   -0.210122
  56 C :    0.042389
  57 C :   -0.063356
  58 C :    0.081057
  59 C :   -0.134504
  60 C :   -0.022710
  61 N :   -0.044371
  62 C :   -0.018604
  63 N :   -0.047870
  64 C :   -0.016626
  65 C :   -0.007304
  66 C :   -0.003125
  67 C :    0.003455
  68 C :   -0.002419
  69 C :    0.005331
  70 C :    0.062898
  71 C :   -0.130623
  72 C :   -0.019104
  73 N :   -0.056646
  74 C :   -0.021705
  75 N :   -0.053825
  76 H :    0.040902
  77 H :    0.036120
  78 H :    0.035879
  79 H :    0.038053
  80 H :    0.045903
  81 H :    0.090417
  82 H :    0.019385
  83 H :    0.024843
  84 H :    0.026057
  85 H :    0.027455
  86 H :    0.002055
  87 H :    0.019462
  88 H :    0.052517
  89 H :    0.057101
  90 H :   -0.000224
  91 H :    0.014903
  92 H :    0.051786
  93 H :    0.054754
  94 H :    0.028165
  95 H :    0.065340
  96 H :    0.025865
  97 H :    0.031255
  98 H :    0.029392
  99 H :    0.021136
 100 H :    0.023565
 101 H :    0.033882
 102 H :    0.082963
 103 H :    0.022437
 104 H :    0.022165
 105 H :    0.046732
 106 H :    0.039600
 107 H :    0.036499
 108 H :    0.036735
 109 H :    0.041149

  Mayer bond orders larger than 0.100000
B(  0-C ,  1-C ) :   1.3649 B(  0-C ,  5-C ) :   1.3865 B(  0-C , 76-H ) :   0.9827
B(  1-C ,  2-C ) :   1.3855 B(  1-C , 77-H ) :   0.9851 B(  2-C ,  3-C ) :   1.3565
B(  2-C , 78-H ) :   0.9857 B(  3-C ,  4-C ) :   1.3900 B(  3-C , 79-H ) :   0.9868
B(  4-C ,  5-C ) :   1.3177 B(  4-C , 13-C ) :   1.0034 B(  5-C ,  6-C ) :   0.9864
B(  6-C ,  7-C ) :   1.6158 B(  6-C , 12-C ) :   1.0836 B(  7-C ,  8-C ) :   1.1548
B(  7-C , 10-C ) :   1.1383 B(  8-C ,  9-N ) :   2.9723 B( 10-C , 11-N ) :   2.9598
B( 12-C , 13-C ) :   1.0879 B( 12-C , 19-C ) :   1.4886 B( 13-C , 14-C ) :   1.5904
B( 14-C , 15-C ) :   1.1649 B( 14-C , 17-C ) :   1.1459 B( 15-C , 16-N ) :   3.0184
B( 17-C , 18-N ) :   2.9798 B( 19-C , 20-C ) :   1.3205 B( 19-C , 80-H ) :   0.9087
B( 20-C , 21-S ) :   1.0553 B( 20-C , 22-C ) :   1.3669 B( 21-S , 27-C ) :   1.0783
B( 22-C , 23-N ) :   1.1847 B( 22-C , 26-C ) :   1.2681 B( 23-N , 24-C ) :   0.9889
B( 23-N , 81-H ) :   0.9049 B( 24-C , 25-O ) :   0.9760 B( 24-C , 82-H ) :   0.9578
B( 24-C , 83-H ) :   0.9548 B( 25-O , 26-C ) :   1.0815 B( 26-C , 27-C ) :   1.5405
B( 27-C , 28-C ) :   1.0947 B( 28-C , 29-C ) :   1.5228 B( 28-C , 45-C ) :   1.0901
B( 29-C , 30-C ) :   1.1351 B( 29-C , 84-H ) :   0.9853 B( 30-C , 31-C ) :   1.4894
B( 30-C , 43-C ) :   1.1153 B( 31-C , 32-C ) :   1.0183 B( 31-C , 37-C ) :   1.0946
B( 32-C , 33-C ) :   1.0322 B( 32-C , 35-C ) :   1.0306 B( 32-C , 85-H ) :   0.8895
B( 33-C , 34-N ) :   1.0895 B( 33-C , 86-H ) :   0.9420 B( 33-C , 87-H ) :   0.9319
B( 34-N , 88-H ) :   0.9557 B( 34-N , 89-H ) :   0.9685 B( 35-C , 36-N ) :   1.0876
B( 35-C , 90-H ) :   0.9560 B( 35-C , 91-H ) :   0.9210 B( 36-N , 92-H ) :   0.9704
B( 36-N , 93-H ) :   0.9679 B( 37-C , 38-C ) :   1.6897 B( 37-C , 42-C ) :   1.0524
B( 38-C , 39-C ) :   0.9485 B( 38-C , 94-H ) :   0.9525 B( 39-C , 40-C ) :   1.0110
B( 39-C , 46-C ) :   0.9423 B( 39-C , 95-H ) :   0.8422 B( 40-C , 41-C ) :   1.7193
B( 40-C , 96-H ) :   0.9668 B( 41-C , 42-C ) :   1.1245 B( 41-C , 97-H ) :   0.9921
B( 42-C , 43-C ) :   1.4431 B( 43-C , 44-C ) :   1.1372 B( 44-C , 45-C ) :   1.6278
B( 44-C , 98-H ) :   0.9915 B( 45-C , 99-H ) :   0.9813 B( 46-C , 47-C ) :   1.8415
B( 46-C ,100-H ) :   0.9675 B( 47-C , 48-C ) :   1.0756 B( 47-C ,101-H ) :   0.9407
B( 48-C , 49-S ) :   1.0791 B( 48-C , 50-C ) :   1.5364 B( 49-S , 55-C ) :   1.0756
B( 50-C , 51-N ) :   1.1155 B( 50-C , 54-C ) :   1.2635 B( 51-N , 52-C ) :   1.0218
B( 51-N ,102-H ) :   0.9078 B( 52-C , 53-O ) :   0.9408 B( 52-C ,103-H ) :   0.9566
B( 52-C ,104-H ) :   0.9599 B( 53-O , 54-C ) :   1.1345 B( 54-C , 55-C ) :   1.4367
B( 55-C , 56-C ) :   1.2489 B( 56-C , 57-C ) :   1.5655 B( 56-C ,105-H ) :   0.9096
B( 57-C , 58-C ) :   1.0600 B( 57-C , 70-C ) :   1.0552 B( 58-C , 59-C ) :   1.6366
B( 58-C , 64-C ) :   0.9977 B( 59-C , 60-C ) :   1.1358 B( 59-C , 62-C ) :   1.1474
B( 60-C , 61-N ) :   2.9722 B( 62-C , 63-N ) :   2.9782 B( 64-C , 65-C ) :   1.3138
B( 64-C , 69-C ) :   1.3804 B( 65-C , 66-C ) :   1.3857 B( 65-C , 70-C ) :   1.0087
B( 66-C , 67-C ) :   1.3613 B( 66-C ,106-H ) :   0.9864 B( 67-C , 68-C ) :   1.3815
B( 67-C ,107-H ) :   0.9866 B( 68-C , 69-C ) :   1.3690 B( 68-C ,108-H ) :   0.9854
B( 69-C ,109-H ) :   0.9840 B( 70-C , 71-C ) :   1.6246 B( 71-C , 72-C ) :   1.1482
B( 71-C , 74-C ) :   1.1620 B( 72-C , 73-N ) :   2.9848 B( 74-C , 75-N ) :   3.0054

-----------------------------------------------------------------------------
         ABSORPTION SPECTRUM VIA TRANSITION ELECTRIC DIPOLE MOMENTS
-----------------------------------------------------------------------------
State   Energy  Wavelength   fosc         T2         TX        TY        TZ
        (cm-1)    (nm)                  (au**2)     (au)      (au)      (au)
-----------------------------------------------------------------------------
   0   13977.2    715.5   0.148296057   3.49289  -1.07293   0.92046   1.22249
   1   17575.4    569.0   0.536703363  10.05322  -2.26470  -0.29417   2.19951
   2   18878.3    529.7   0.234691868   4.09270   0.99912   0.23909  -1.74279
   3   19290.5    518.4   0.054174717   0.92455   0.68311  -0.66731   0.11230
   4   21709.7    460.6   0.631615636   9.57798  -0.66595   0.85151   2.89990
   5   22274.5    448.9   0.090877864   1.34315  -0.85389  -0.24219   0.74523
   6   22344.6    447.5   0.122261634   1.80133  -1.26337   0.05982   0.44906
   7   23320.6    428.8   0.191331888   2.70099   0.93347  -0.85255  -1.05013
   8   23758.6    420.9   0.125729803   1.74218   0.42103   1.16210  -0.46308
   9   24258.4    412.2   0.343735091   4.66485  -0.68373  -0.30648   2.02569
  10   24613.3    406.3   0.240923197   3.22244   0.60543  -0.24169   1.67257
  11   25876.9    386.4   0.033923114   0.43158  -0.06309   0.32707   0.56623
  12   25991.3    384.7   0.197517998   2.50181  -1.26051   0.93931   0.17495
  13   27135.7    368.5   0.011895283   0.14431   0.36589  -0.01462  -0.10113
  14   27865.7    358.9   0.055515701   0.65588   0.75076  -0.06655  -0.29632
  15   28856.2    346.5   0.099812571   1.13873  -0.16531   0.71912   0.77089
  16   29291.5    341.4   0.067924480   0.76341  -0.46405  -0.48286   0.56117
  17   30179.5    331.4   0.035746878   0.38994   0.05062  -0.62039  -0.05001
  18   30349.2    329.5   0.006207620   0.06734   0.02800   0.19935   0.16374
  19   30567.5    327.1   0.001378184   0.01484  -0.07686   0.09138   0.02422
  20   31350.7    319.0   0.007788579   0.08179   0.10980  -0.22523   0.13785
  21   31762.7    314.8   0.581207895   6.02406   0.89231   1.50296  -1.72306
  22   32002.9    312.5   0.383060517   3.94053  -1.60613   1.15957   0.12757
  23   32071.4    311.8   0.144738195   1.48573   0.85439  -0.84360   0.20996
  24   32638.6    306.4   0.003917551   0.03951  -0.16837   0.10562   0.00312
  25   32911.5    303.8   0.329783103   3.29880  -1.28808  -0.23197   1.25930
  26   33243.5    300.8   0.027504691   0.27238  -0.32979  -0.32419   0.24191
  27   33532.3    298.2   0.001345399   0.01321  -0.05803  -0.05790   0.08055
  28   33780.4    296.0   0.238279785   2.32219  -0.79780  -0.79819   1.02402
  29   34568.6    289.3   0.366005302   3.48563  -0.09673  -1.86442   0.01485
  30   34834.6    287.1   0.004491725   0.04245  -0.05368   0.09120   0.17678
  31   34952.4    286.1   0.014826145   0.13965   0.32716  -0.09606  -0.15293
  32   35019.0    285.6   0.261284564   2.45632   1.22797  -0.97264   0.04900
  33   35261.6    283.6   0.249331851   2.32783  -0.56182  -0.13135   1.41242
  34   35446.2    282.1   0.292881772   2.72018  -1.50309  -0.25928   0.62744
  35   35717.5    280.0   0.003427853   0.03159   0.00843   0.16377   0.06859
  36   36588.9    273.3   0.003099930   0.02789  -0.13679   0.04508   0.08455
  37   36660.0    272.8   0.015696187   0.14095   0.20668   0.31030  -0.04416
  38   36970.8    270.5   0.017657745   0.15724  -0.05655   0.39223  -0.01395
  39   37280.9    268.2   0.000917465   0.00810  -0.04458  -0.07079  -0.03321
  40   37317.2    268.0   0.007611671   0.06715  -0.16732  -0.18205  -0.07753
  41   37791.3    264.6   0.006638651   0.05783  -0.00075   0.19866  -0.13552
  42   37984.5    263.3   0.010521485   0.09119   0.27781   0.06314  -0.10013
  43   38876.6    257.2   0.055389872   0.46905   0.43866  -0.01842  -0.52563
  44   39045.7    256.1   0.007159167   0.06036   0.14617  -0.13096  -0.14780
  45   39159.6    255.4   0.169195911   1.42242   0.09480  -0.89651  -0.78084
  46   39209.0    255.0   0.029020739   0.24367  -0.40093  -0.03085   0.28631
  47   39317.1    254.3   0.060277546   0.50472   0.09611  -0.36006  -0.60484
  48   39373.2    254.0   0.127549611   1.06648  -0.36229   0.53999   0.80227
  49   39589.1    252.6   0.044902391   0.37340   0.43381   0.08894  -0.42106
  50   39807.6    251.2   0.053765137   0.44464  -0.18511   0.38179   0.51440
  51   39978.7    250.1   0.151552078   1.24798  -0.35292   0.49640   0.93649
  52   40003.8    250.0   0.055903097   0.46006  -0.35072  -0.34878   0.46411
  53   40225.9    248.6   0.120019779   0.98225   0.26511  -0.17947  -0.93796

FINAL SINGLE POINT ENERGY     -3906.197491612177

DIPOLE MOMENT
-------------
                                X             Y             Z
Electronic contribution:    -22.46046      33.03281     -11.26993
Nuclear contribution   :     24.38160     -37.22739      11.28855
                        -----------------------------------------
Total Dipole Moment    :      1.92114      -4.19458       0.01862
                        -----------------------------------------
Magnitude (a.u.)       :      4.61364
Magnitude (Debye)      :     11.72693

Rotational constants in cm-1:     0.002147     0.000212     0.000208
Rotational constants in MHz :    64.354629     6.359727     6.228076

                             ****ORCA TERMINATED NORMALLY****
TOTAL RUN TIME: 0 days 0 hours 13 minutes 30 seconds 663 msec
