                         Program Version 4.2.0 -  RELEASE  -
|  1> # ORCA input file
|  2> # SCF done       -211.322251109257          0.000788786361
|  3> ! CAM-B3LYP def2-SVP def2/J RIJCOSX Grid4 TightSCF
|  4> %maxcore 5000
|  5> %tddft
|  6>     Mode sTDDFT
|  7>     Ethresh 5.0
|  8>     maxcore 5000
|  9> end
| 10>
| 11> %pal
| 12>   nprocs 6
| 13>   end
| 14> * xyz 0 1
| 15>    C      -10.50972         1.40281         3.34414
| 16>    C      -10.31093         1.93654         4.60887
| 17>    C       -9.91556         1.13573         5.67068
| 18>    C       -9.71433        -0.22582         5.49991
| 19>    C       -9.90899        -0.76949         4.24125
| 20>    C      -10.30348         0.04531         3.15617
| 21>    C      -10.40884        -0.78127         1.96005
| 22>    C      -10.89714        -0.37388         0.74712
| 23>    C      -11.37541         0.92782         0.48506
| 24>    N      -11.77997         1.96373         0.20107
| 25>    C      -11.04210        -1.18562        -0.39783
| 26>    N      -11.19383        -1.77997        -1.36877
| 27>    C       -9.90084        -2.10136         2.31655
| 28>    C       -9.80394        -2.14154         3.76835
| 29>    C       -9.88182        -3.26051         4.55514
| 30>    C      -10.08290        -4.56224         4.05233
| 31>    N      -10.29447        -5.63225         3.69538
| 32>    C       -9.86124        -3.23361         5.96446
| 33>    N       -9.82354        -3.27199         7.11108
| 34>    C       -9.50144        -3.03749         1.39969
| 35>    C       -8.64000        -4.13907         1.57198
| 36>    S       -8.59109        -5.35250         0.31881
| 37>    C       -7.34356        -6.22619         1.13624
| 38>    C       -6.97090        -5.57794         2.30702
| 39>    C       -7.69370        -4.42273         2.54987
| 40>    C       -6.81616        -7.43208         0.60892
| 41>    C       -5.88465        -8.28104         1.17896
| 42>    C       -5.57199        -9.37540         0.37897
| 43>    C       -6.25395        -9.39020        -0.82279
| 44>    S       -7.31298        -8.01823        -0.95236
| 45>    C       -6.15545       -10.33141        -1.87892
| 46>    S       -5.08957       -11.69957        -1.78537
| 47>    C       -5.53851       -12.21837        -3.38632
| 48>    C       -6.47757       -11.35910        -3.93107
| 49>    C       -6.82280       -10.30855        -3.09005
| 50>    C       -4.92907       -13.37272        -3.94303
| 51>    C       -5.12396       -13.79045        -5.21796
| 52>    C       -4.51674       -14.91763        -5.82860
| 53>    S       -4.79279       -15.18531        -7.52689
| 54>    C       -3.78483       -16.60491        -7.55884
| 55>    C       -3.27016       -16.85661        -6.29162
| 56>    C       -3.68141       -15.90446        -5.31684
| 57>    C       -3.26256       -16.00214        -3.97993
| 58>    N       -2.90385       -16.11238        -2.89556
| 59>    C       -2.42128       -17.92353        -5.95521
| 60>    N       -1.72805       -18.78421        -5.64591
| 61>    C       -3.60809       -17.27556        -8.79592
| 62>    C       -2.87704       -18.39946        -8.99835
| 63>    C       -2.70500       -19.01445       -10.26533
| 64>    S       -1.78283       -20.48762       -10.38704
| 65>    C       -2.01944       -20.54933       -12.10646
| 66>    C       -2.77457       -19.47438       -12.53868
| 67>    C       -3.15861       -18.62021       -11.51258
| 68>    C       -1.47970       -21.59623       -12.89618
| 69>    C       -0.76465       -22.70318       -12.48411
| 70>    C       -0.39022       -23.54129       -13.53075
| 71>    C       -0.80499       -23.09294       -14.76927
| 72>    S       -1.68429       -21.59601       -14.62433
| 73>    C       -0.59957       -23.68715       -16.03834
| 74>    S        0.20346       -25.21424       -16.21040
| 75>    C        0.02506       -25.16735       -17.94672
| 76>    C       -0.62951       -24.00782       -18.33529
| 77>    C       -0.97827       -23.18687       -17.27426
| 78>    C        0.54913       -26.21802       -18.72820
| 79>    C        0.44822       -26.30381       -20.08462
| 80>    C        0.93033       -27.36012       -20.88887
| 81>    C        1.90968       -28.28530       -20.63362
| 82>    C        2.01644       -29.55878       -21.33851
| 83>    C        1.43720       -29.90670       -22.53012
| 84>    C        0.64476       -29.06982       -23.34414
| 85>    N       -0.00173       -28.45715       -24.06938
| 86>    C        1.59544       -31.16629       -23.14699
| 87>    N        1.68038       -32.16475       -23.70682
| 88>    C        2.87390       -30.41727       -20.53117
| 89>    C        3.41152       -29.65463       -19.47052
| 90>    C        4.24642       -30.23903       -18.53266
| 91>    C        4.54550       -31.58707       -18.66137
| 92>    C        4.02697       -32.33559       -19.70818
| 93>    C        3.18791       -31.76177       -20.65173
| 94>    C        2.94410       -28.28261       -19.60733
| 95>    C        3.55987       -27.18664       -19.06216
| 96>    C        4.62795       -27.25926       -18.14445
| 97>    N        5.48309       -27.25336       -17.37862
| 98>    C        3.26204       -25.85103       -19.39990
| 99>    N        3.09294       -24.74388       -19.65110
|100>    H      -10.81212         2.04174         2.53102
|101>    H      -10.46388         2.99342         4.76505
|102>    H       -9.76031         1.57579         6.64380
|103>    H       -9.40106        -0.83747         6.33051
|104>    H       -9.82489        -2.88804         0.37775
|105>    H       -6.19441        -5.94161         2.95445
|106>    H       -7.50474        -3.77641         3.38882
|107>    H       -5.45206        -8.10910         2.14730
|108>    H       -4.86864       -10.14229         0.65095
|109>    H       -6.90216       -11.49455        -4.90886
|110>    H       -7.53340        -9.54046        -3.34004
|111>    H       -4.25902       -13.91852        -3.29465
|112>    H       -5.77677       -13.22286        -5.86704
|113>    H       -4.11494       -16.81606        -9.63353
|114>    H       -2.38159       -18.87630        -8.16509
|115>    H       -3.03018       -19.33121       -13.57388
|116>    H       -3.74638       -17.73499       -11.67267
|117>    H       -0.53103       -22.88451       -11.45008
|118>    H        0.17055       -24.45072       -13.40674
|119>    H       -0.83684       -23.76997       -19.36210
|120>    H       -1.48829       -22.24529       -17.37747
|121>    H        1.02868       -27.01784       -18.17814
|122>    H       -0.12931       -25.55298       -20.60466
|123>    H        0.39329       -27.48246       -21.82068
|124>    H        4.64866       -29.67009       -17.71023
|125>    H        5.18931       -32.05807       -17.93444
|126>    H        4.27469       -33.38282       -19.79025
|127>    H        2.78938       -32.36106       -21.45345
|128> *
|129>
|130>                          ****END OF INPUT****

CARTESIAN COORDINATES (ANGSTROEM)
---------------------------------
  C    -10.509720    1.402810    3.344140
  C    -10.310930    1.936540    4.608870
  C     -9.915560    1.135730    5.670680
  C     -9.714330   -0.225820    5.499910
  C     -9.908990   -0.769490    4.241250
  C    -10.303480    0.045310    3.156170
  C    -10.408840   -0.781270    1.960050
  C    -10.897140   -0.373880    0.747120
  C    -11.375410    0.927820    0.485060
  N    -11.779970    1.963730    0.201070
  C    -11.042100   -1.185620   -0.397830
  N    -11.193830   -1.779970   -1.368770
  C     -9.900840   -2.101360    2.316550
  C     -9.803940   -2.141540    3.768350
  C     -9.881820   -3.260510    4.555140
  C    -10.082900   -4.562240    4.052330
  N    -10.294470   -5.632250    3.695380
  C     -9.861240   -3.233610    5.964460
  N     -9.823540   -3.271990    7.111080
  C     -9.501440   -3.037490    1.399690
  C     -8.640000   -4.139070    1.571980
  S     -8.591090   -5.352500    0.318810
  C     -7.343560   -6.226190    1.136240
  C     -6.970900   -5.577940    2.307020
  C     -7.693700   -4.422730    2.549870
  C     -6.816160   -7.432080    0.608920
  C     -5.884650   -8.281040    1.178960
  C     -5.571990   -9.375400    0.378970
  C     -6.253950   -9.390200   -0.822790
  S     -7.312980   -8.018230   -0.952360
  C     -6.155450  -10.331410   -1.878920
  S     -5.089570  -11.699570   -1.785370
  C     -5.538510  -12.218370   -3.386320
  C     -6.477570  -11.359100   -3.931070
  C     -6.822800  -10.308550   -3.090050
  C     -4.929070  -13.372720   -3.943030
  C     -5.123960  -13.790450   -5.217960
  C     -4.516740  -14.917630   -5.828600
  S     -4.792790  -15.185310   -7.526890
  C     -3.784830  -16.604910   -7.558840
  C     -3.270160  -16.856610   -6.291620
  C     -3.681410  -15.904460   -5.316840
  C     -3.262560  -16.002140   -3.979930
  N     -2.903850  -16.112380   -2.895560
  C     -2.421280  -17.923530   -5.955210
  N     -1.728050  -18.784210   -5.645910
  C     -3.608090  -17.275560   -8.795920
  C     -2.877040  -18.399460   -8.998350
  C     -2.705000  -19.014450  -10.265330
  S     -1.782830  -20.487620  -10.387040
  C     -2.019440  -20.549330  -12.106460
  C     -2.774570  -19.474380  -12.538680
  C     -3.158610  -18.620210  -11.512580
  C     -1.479700  -21.596230  -12.896180
  C     -0.764650  -22.703180  -12.484110
  C     -0.390220  -23.541290  -13.530750
  C     -0.804990  -23.092940  -14.769270
  S     -1.684290  -21.596010  -14.624330
  C     -0.599570  -23.687150  -16.038340
  S      0.203460  -25.214240  -16.210400
  C      0.025060  -25.167350  -17.946720
  C     -0.629510  -24.007820  -18.335290
  C     -0.978270  -23.186870  -17.274260
  C      0.549130  -26.218020  -18.728200
  C      0.448220  -26.303810  -20.084620
  C      0.930330  -27.360120  -20.888870
  C      1.909680  -28.285300  -20.633620
  C      2.016440  -29.558780  -21.338510
  C      1.437200  -29.906700  -22.530120
  C      0.644760  -29.069820  -23.344140
  N     -0.001730  -28.457150  -24.069380
  C      1.595440  -31.166290  -23.146990
  N      1.680380  -32.164750  -23.706820
  C      2.873900  -30.417270  -20.531170
  C      3.411520  -29.654630  -19.470520
  C      4.246420  -30.239030  -18.532660
  C      4.545500  -31.587070  -18.661370
  C      4.026970  -32.335590  -19.708180
  C      3.187910  -31.761770  -20.651730
  C      2.944100  -28.282610  -19.607330
  C      3.559870  -27.186640  -19.062160
  C      4.627950  -27.259260  -18.144450
  N      5.483090  -27.253360  -17.378620
  C      3.262040  -25.851030  -19.399900
  N      3.092940  -24.743880  -19.651100
  H    -10.812120    2.041740    2.531020
  H    -10.463880    2.993420    4.765050
  H     -9.760310    1.575790    6.643800
  H     -9.401060   -0.837470    6.330510
  H     -9.824890   -2.888040    0.377750
  H     -6.194410   -5.941610    2.954450
  H     -7.504740   -3.776410    3.388820
  H     -5.452060   -8.109100    2.147300
  H     -4.868640  -10.142290    0.650950
  H     -6.902160  -11.494550   -4.908860
  H     -7.533400   -9.540460   -3.340040
  H     -4.259020  -13.918520   -3.294650
  H     -5.776770  -13.222860   -5.867040
  H     -4.114940  -16.816060   -9.633530
  H     -2.381590  -18.876300   -8.165090
  H     -3.030180  -19.331210  -13.573880
  H     -3.746380  -17.734990  -11.672670
  H     -0.531030  -22.884510  -11.450080
  H      0.170550  -24.450720  -13.406740
  H     -0.836840  -23.769970  -19.362100
  H     -1.488290  -22.245290  -17.377470
  H      1.028680  -27.017840  -18.178140
  H     -0.129310  -25.552980  -20.604660
  H      0.393290  -27.482460  -21.820680
  H      4.648660  -29.670090  -17.710230
  H      5.189310  -32.058070  -17.934440
  H      4.274690  -33.382820  -19.790250
  H      2.789380  -32.361060  -21.453450

 Total Charge           Charge          ....    0
 Multiplicity           Mult            ....    1
 Number of Electrons    NEL             ....  618
 Basis Dimension        Dim             .... 1358

ORBITAL ENERGIES
----------------

  NO   OCC          E(Eh)            E(eV)
   0   2.0000     -88.990149     -2421.5451
   1   2.0000     -88.980278     -2421.2765
   2   2.0000     -88.977747     -2421.2076
   3   2.0000     -88.977158     -2421.1916
   4   2.0000     -88.975143     -2421.1367
   5   2.0000     -88.974257     -2421.1126
   6   2.0000     -88.973137     -2421.0821
   7   2.0000     -14.423622      -392.4867
   8   2.0000     -14.423036      -392.4708
   9   2.0000     -14.421533      -392.4299
  10   2.0000     -14.421062      -392.4171
  11   2.0000     -14.421046      -392.4166
  12   2.0000     -14.420947      -392.4139
  13   2.0000     -14.419666      -392.3791
  14   2.0000     -14.418545      -392.3485
  15   2.0000     -14.418415      -392.3450
  16   2.0000     -14.418025      -392.3344
  17   2.0000     -10.352251      -281.6991
  18   2.0000     -10.350195      -281.6431
  19   2.0000     -10.350118      -281.6410
  20   2.0000     -10.349249      -281.6174
  21   2.0000     -10.348987      -281.6102
  22   2.0000     -10.348214      -281.5892
  23   2.0000     -10.347881      -281.5802
  24   2.0000     -10.347016      -281.5566
  25   2.0000     -10.344100      -281.4773
  26   2.0000     -10.343948      -281.4731
  27   2.0000     -10.338712      -281.3307
  28   2.0000     -10.333061      -281.1769
  29   2.0000     -10.333009      -281.1755
  30   2.0000     -10.332656      -281.1659
  31   2.0000     -10.332360      -281.1578
  32   2.0000     -10.328976      -281.0657
  33   2.0000     -10.326353      -280.9944
  34   2.0000     -10.326050      -280.9861
  35   2.0000     -10.325809      -280.9796
  36   2.0000     -10.325584      -280.9734
  37   2.0000     -10.325450      -280.9698
  38   2.0000     -10.325017      -280.9580
  39   2.0000     -10.324977      -280.9569
  40   2.0000     -10.324511      -280.9442
  41   2.0000     -10.323617      -280.9199
  42   2.0000     -10.323372      -280.9132
  43   2.0000     -10.323104      -280.9059
  44   2.0000     -10.322573      -280.8915
  45   2.0000     -10.322488      -280.8892
  46   2.0000     -10.321916      -280.8736
  47   2.0000     -10.320936      -280.8469
  48   2.0000     -10.320917      -280.8464
  49   2.0000     -10.320492      -280.8349
  50   2.0000     -10.319510      -280.8081
  51   2.0000     -10.318743      -280.7873
  52   2.0000     -10.318453      -280.7794
  53   2.0000     -10.318316      -280.7757
  54   2.0000     -10.318227      -280.7732
  55   2.0000     -10.315983      -280.7122
  56   2.0000     -10.314262      -280.6653
  57   2.0000     -10.313909      -280.6557
  58   2.0000     -10.312740      -280.6239
  59   2.0000     -10.312328      -280.6127
  60   2.0000     -10.308233      -280.5013
  61   2.0000     -10.307944      -280.4934
  62   2.0000     -10.307017      -280.4682
  63   2.0000     -10.305692      -280.4321
  64   2.0000     -10.304838      -280.4089
  65   2.0000     -10.302587      -280.3477
  66   2.0000     -10.301966      -280.3307
  67   2.0000     -10.301406      -280.3155
  68   2.0000     -10.301257      -280.3114
  69   2.0000     -10.300536      -280.2918
  70   2.0000     -10.300441      -280.2892
  71   2.0000     -10.300065      -280.2790
  72   2.0000     -10.299909      -280.2748
  73   2.0000     -10.299183      -280.2550
  74   2.0000     -10.298679      -280.2413
  75   2.0000     -10.297375      -280.2058
  76   2.0000     -10.297303      -280.2039
  77   2.0000     -10.295230      -280.1474
  78   2.0000     -10.295203      -280.1467
  79   2.0000     -10.294156      -280.1182
  80   2.0000     -10.293808      -280.1088
  81   2.0000     -10.293413      -280.0980
  82   2.0000     -10.293201      -280.0922
  83   2.0000     -10.292763      -280.0803
  84   2.0000     -10.292537      -280.0742
  85   2.0000      -8.086056      -220.0328
  86   2.0000      -8.076066      -219.7609
  87   2.0000      -8.073439      -219.6894
  88   2.0000      -8.072841      -219.6732
  89   2.0000      -8.070652      -219.6136
  90   2.0000      -8.069794      -219.5902
  91   2.0000      -8.068755      -219.5620
  92   2.0000      -6.055239      -164.7714
  93   2.0000      -6.051212      -164.6619
  94   2.0000      -6.048151      -164.5785
  95   2.0000      -6.045277      -164.5003
  96   2.0000      -6.042670      -164.4294
  97   2.0000      -6.042184      -164.4162
  98   2.0000      -6.041159      -164.3883
  99   2.0000      -6.040038      -164.3578
 100   2.0000      -6.039020      -164.3301
 101   2.0000      -6.038634      -164.3196
 102   2.0000      -6.038229      -164.3086
 103   2.0000      -6.038062      -164.3040
 104   2.0000      -6.037995      -164.3022
 105   2.0000      -6.035938      -164.2462
 106   2.0000      -6.035540      -164.2354
 107   2.0000      -6.034970      -164.2199
 108   2.0000      -6.034807      -164.2154
 109   2.0000      -6.033928      -164.1915
 110   2.0000      -6.032534      -164.1536
 111   2.0000      -6.031957      -164.1379
 112   2.0000      -6.030874      -164.1084
 113   2.0000      -1.038055       -28.2469
 114   2.0000      -1.035468       -28.1765
 115   2.0000      -1.032777       -28.1033
 116   2.0000      -1.021221       -27.7888
 117   2.0000      -1.018927       -27.7264
 118   2.0000      -1.018159       -27.7055
 119   2.0000      -1.017387       -27.6845
 120   2.0000      -1.008841       -27.4520
 121   2.0000      -1.007792       -27.4234
 122   2.0000      -1.007212       -27.4076
 123   2.0000      -1.005391       -27.3581
 124   2.0000      -1.000108       -27.2143
 125   2.0000      -0.999831       -27.2068
 126   2.0000      -0.999683       -27.2028
 127   2.0000      -0.999197       -27.1895
 128   2.0000      -0.997754       -27.1503
 129   2.0000      -0.996650       -27.1202
 130   2.0000      -0.988920       -26.9099
 131   2.0000      -0.987168       -26.8622
 132   2.0000      -0.960422       -26.1344
 133   2.0000      -0.960263       -26.1301
 134   2.0000      -0.941398       -25.6167
 135   2.0000      -0.939716       -25.5710
 136   2.0000      -0.936715       -25.4893
 137   2.0000      -0.929647       -25.2970
 138   2.0000      -0.917559       -24.9681
 139   2.0000      -0.910203       -24.7679
 140   2.0000      -0.896498       -24.3950
 141   2.0000      -0.895479       -24.3672
 142   2.0000      -0.893117       -24.3029
 143   2.0000      -0.890535       -24.2327
 144   2.0000      -0.881747       -23.9936
 145   2.0000      -0.871584       -23.7170
 146   2.0000      -0.867721       -23.6119
 147   2.0000      -0.866315       -23.5736
 148   2.0000      -0.864973       -23.5371
 149   2.0000      -0.858653       -23.3651
 150   2.0000      -0.857956       -23.3462
 151   2.0000      -0.852643       -23.2016
 152   2.0000      -0.847070       -23.0500
 153   2.0000      -0.844667       -22.9846
 154   2.0000      -0.844515       -22.9804
 155   2.0000      -0.831538       -22.6273
 156   2.0000      -0.822492       -22.3812
 157   2.0000      -0.806914       -21.9572
 158   2.0000      -0.799703       -21.7610
 159   2.0000      -0.792859       -21.5748
 160   2.0000      -0.791478       -21.5372
 161   2.0000      -0.778457       -21.1829
 162   2.0000      -0.777836       -21.1660
 163   2.0000      -0.759826       -20.6759
 164   2.0000      -0.745771       -20.2935
 165   2.0000      -0.735742       -20.0206
 166   2.0000      -0.723568       -19.6893
 167   2.0000      -0.719722       -19.5846
 168   2.0000      -0.716415       -19.4946
 169   2.0000      -0.714906       -19.4536
 170   2.0000      -0.713945       -19.4274
 171   2.0000      -0.712867       -19.3981
 172   2.0000      -0.709370       -19.3029
 173   2.0000      -0.704798       -19.1785
 174   2.0000      -0.689814       -18.7708
 175   2.0000      -0.684225       -18.6187
 176   2.0000      -0.679981       -18.5032
 177   2.0000      -0.676167       -18.3994
 178   2.0000      -0.669948       -18.2302
 179   2.0000      -0.667208       -18.1556
 180   2.0000      -0.665660       -18.1135
 181   2.0000      -0.664126       -18.0718
 182   2.0000      -0.656781       -17.8719
 183   2.0000      -0.650947       -17.7132
 184   2.0000      -0.646820       -17.6009
 185   2.0000      -0.644191       -17.5293
 186   2.0000      -0.639908       -17.4128
 187   2.0000      -0.638872       -17.3846
 188   2.0000      -0.631153       -17.1745
 189   2.0000      -0.630787       -17.1646
 190   2.0000      -0.629678       -17.1344
 191   2.0000      -0.624951       -17.0058
 192   2.0000      -0.623442       -16.9647
 193   2.0000      -0.614472       -16.7206
 194   2.0000      -0.610913       -16.6238
 195   2.0000      -0.603938       -16.4340
 196   2.0000      -0.595091       -16.1932
 197   2.0000      -0.587509       -15.9869
 198   2.0000      -0.585829       -15.9412
 199   2.0000      -0.583493       -15.8777
 200   2.0000      -0.580094       -15.7852
 201   2.0000      -0.576442       -15.6858
 202   2.0000      -0.569951       -15.5092
 203   2.0000      -0.566383       -15.4121
 204   2.0000      -0.558022       -15.1846
 205   2.0000      -0.550041       -14.9674
 206   2.0000      -0.548377       -14.9221
 207   2.0000      -0.547555       -14.8997
 208   2.0000      -0.542437       -14.7605
 209   2.0000      -0.540850       -14.7173
 210   2.0000      -0.540166       -14.6987
 211   2.0000      -0.538183       -14.6447
 212   2.0000      -0.537699       -14.6315
 213   2.0000      -0.535563       -14.5734
 214   2.0000      -0.532257       -14.4835
 215   2.0000      -0.526449       -14.3254
 216   2.0000      -0.524006       -14.2589
 217   2.0000      -0.523230       -14.2378
 218   2.0000      -0.520022       -14.1505
 219   2.0000      -0.519946       -14.1484
 220   2.0000      -0.518731       -14.1154
 221   2.0000      -0.515263       -14.0210
 222   2.0000      -0.510742       -13.8980
 223   2.0000      -0.509365       -13.8605
 224   2.0000      -0.508748       -13.8437
 225   2.0000      -0.506637       -13.7863
 226   2.0000      -0.502899       -13.6846
 227   2.0000      -0.502625       -13.6771
 228   2.0000      -0.501870       -13.6566
 229   2.0000      -0.500661       -13.6237
 230   2.0000      -0.499263       -13.5856
 231   2.0000      -0.493636       -13.4325
 232   2.0000      -0.491473       -13.3737
 233   2.0000      -0.489113       -13.3095
 234   2.0000      -0.485918       -13.2225
 235   2.0000      -0.485367       -13.2075
 236   2.0000      -0.482150       -13.1200
 237   2.0000      -0.479995       -13.0613
 238   2.0000      -0.479540       -13.0489
 239   2.0000      -0.477141       -12.9837
 240   2.0000      -0.474779       -12.9194
 241   2.0000      -0.471476       -12.8295
 242   2.0000      -0.468078       -12.7371
 243   2.0000      -0.467278       -12.7153
 244   2.0000      -0.465911       -12.6781
 245   2.0000      -0.465434       -12.6651
 246   2.0000      -0.460800       -12.5390
 247   2.0000      -0.460108       -12.5202
 248   2.0000      -0.459260       -12.4971
 249   2.0000      -0.458557       -12.4780
 250   2.0000      -0.455935       -12.4066
 251   2.0000      -0.455263       -12.3883
 252   2.0000      -0.454539       -12.3686
 253   2.0000      -0.454136       -12.3577
 254   2.0000      -0.452760       -12.3202
 255   2.0000      -0.452029       -12.3003
 256   2.0000      -0.451521       -12.2865
 257   2.0000      -0.449233       -12.2243
 258   2.0000      -0.448994       -12.2177
 259   2.0000      -0.447865       -12.1870
 260   2.0000      -0.447589       -12.1795
 261   2.0000      -0.446067       -12.1381
 262   2.0000      -0.445967       -12.1354
 263   2.0000      -0.444274       -12.0893
 264   2.0000      -0.442962       -12.0536
 265   2.0000      -0.442552       -12.0425
 266   2.0000      -0.436817       -11.8864
 267   2.0000      -0.436010       -11.8644
 268   2.0000      -0.433691       -11.8013
 269   2.0000      -0.433466       -11.7952
 270   2.0000      -0.433195       -11.7878
 271   2.0000      -0.431888       -11.7523
 272   2.0000      -0.431464       -11.7407
 273   2.0000      -0.429711       -11.6930
 274   2.0000      -0.428018       -11.6470
 275   2.0000      -0.425567       -11.5803
 276   2.0000      -0.424954       -11.5636
 277   2.0000      -0.424544       -11.5524
 278   2.0000      -0.423819       -11.5327
 279   2.0000      -0.416867       -11.3435
 280   2.0000      -0.416785       -11.3413
 281   2.0000      -0.414704       -11.2847
 282   2.0000      -0.413007       -11.2385
 283   2.0000      -0.412703       -11.2302
 284   2.0000      -0.410774       -11.1777
 285   2.0000      -0.409986       -11.1563
 286   2.0000      -0.398666       -10.8483
 287   2.0000      -0.387927       -10.5560
 288   2.0000      -0.386420       -10.5150
 289   2.0000      -0.384771       -10.4701
 290   2.0000      -0.374499       -10.1906
 291   2.0000      -0.359894        -9.7932
 292   2.0000      -0.351622        -9.5681
 293   2.0000      -0.349392        -9.5075
 294   2.0000      -0.344367        -9.3707
 295   2.0000      -0.344202        -9.3662
 296   2.0000      -0.344040        -9.3618
 297   2.0000      -0.342929        -9.3316
 298   2.0000      -0.338225        -9.2036
 299   2.0000      -0.337710        -9.1895
 300   2.0000      -0.335772        -9.1368
 301   2.0000      -0.334388        -9.0992
 302   2.0000      -0.326976        -8.8975
 303   2.0000      -0.316210        -8.6045
 304   2.0000      -0.307566        -8.3693
 305   2.0000      -0.292115        -7.9489
 306   2.0000      -0.275159        -7.4875
 307   2.0000      -0.254196        -6.9170
 308   2.0000      -0.240947        -6.5565
 309   0.0000      -0.108026        -2.9395
 310   0.0000      -0.105597        -2.8734
 311   0.0000      -0.088972        -2.4210
 312   0.0000      -0.087427        -2.3790
 313   0.0000      -0.083615        -2.2753

MULLIKEN ATOMIC CHARGES
-----------------------
   0 C :   -0.033017
   1 C :    0.045585
   2 C :    0.048589
   3 C :   -0.033503
   4 C :    0.004715
   5 C :    0.012992
   6 C :    0.299065
   7 C :   -0.352379
   8 C :   -0.189382
   9 N :    0.161370
  10 C :   -0.178626
  11 N :    0.153401
  12 C :   -0.077310
  13 C :    0.225501
  14 C :   -0.340011
  15 C :   -0.205733
  16 N :    0.188555
  17 C :   -0.181693
  18 N :    0.162174
  19 C :    0.104645
  20 C :   -0.145746
  21 S :    0.171888
  22 C :   -0.010286
  23 C :   -0.018950
  24 C :    0.071171
  25 C :   -0.039324
  26 C :    0.015051
  27 C :   -0.010392
  28 C :   -0.025403
  29 S :    0.138434
  30 C :   -0.048246
  31 S :    0.155423
  32 C :   -0.086511
  33 C :    0.022291
  34 C :   -0.007260
  35 C :    0.062548
  36 C :    0.039454
  37 C :   -0.094581
  38 S :    0.161930
  39 C :   -0.092396
  40 C :   -0.018932
  41 C :   -0.018446
  42 C :   -0.255750
  43 N :    0.191259
  44 C :   -0.255526
  45 N :    0.188600
  46 C :    0.039296
  47 C :    0.062623
  48 C :   -0.086837
  49 S :    0.155151
  50 C :   -0.049307
  51 C :   -0.004989
  52 C :    0.022499
  53 C :   -0.029848
  54 C :   -0.004664
  55 C :    0.002861
  56 C :   -0.036495
  57 S :    0.125953
  58 C :   -0.036452
  59 S :    0.148460
  60 C :   -0.106799
  61 C :    0.052844
  62 C :   -0.007833
  63 C :    0.106394
  64 C :   -0.019843
  65 C :    0.044419
  66 C :   -0.062584
  67 C :    0.297328
  68 C :   -0.348949
  69 C :   -0.180475
  70 N :    0.156808
  71 C :   -0.190411
  72 N :    0.156496
  73 C :    0.014032
  74 C :    0.002497
  75 C :   -0.034655
  76 C :    0.045965
  77 C :    0.046746
  78 C :   -0.034535
  79 C :    0.225891
  80 C :   -0.345797
  81 C :   -0.182086
  82 N :    0.163896
  83 C :   -0.200817
  84 N :    0.184321
  85 H :    0.006353
  86 H :    0.004945
  87 H :    0.004019
  88 H :    0.005352
  89 H :    0.013106
  90 H :   -0.008345
  91 H :    0.008339
  92 H :   -0.008959
  93 H :   -0.001869
  94 H :   -0.010831
  95 H :   -0.003089
  96 H :    0.006380
  97 H :   -0.019967
  98 H :   -0.021945
  99 H :    0.004960
 100 H :   -0.007598
 101 H :   -0.011952
 102 H :   -0.003085
 103 H :   -0.003434
 104 H :   -0.001367
 105 H :   -0.003106
 106 H :    0.011523
 107 H :    0.003654
 108 H :    0.019481
 109 H :    0.005746
 110 H :    0.004554
 111 H :    0.004458
 112 H :    0.006334
Sum of atomic charges:   -0.0000000

LOEWDIN ATOMIC CHARGES
----------------------
   0 C :    0.005112
   1 C :    0.001519
   2 C :    0.003967
   3 C :    0.000440
   4 C :   -0.011008
   5 C :   -0.013047
   6 C :    0.079130
   7 C :   -0.136878
   8 C :   -0.019329
   9 N :   -0.048338
  10 C :   -0.022047
  11 N :   -0.046659
  12 C :   -0.066062
  13 C :    0.066282
  14 C :   -0.135556
  15 C :   -0.021109
  16 N :   -0.035945
  17 C :   -0.021547
  18 N :   -0.046729
  19 C :    0.041608
  20 C :   -0.188738
  21 S :    0.470187
  22 C :   -0.150508
  23 C :   -0.049537
  24 C :   -0.006025
  25 C :   -0.191847
  26 C :   -0.031437
  27 C :   -0.056550
  28 C :   -0.169589
  29 S :    0.444136
  30 C :   -0.182584
  31 S :    0.457828
  32 C :   -0.171299
  33 C :   -0.041618
  34 C :   -0.053477
  35 C :   -0.009131
  36 C :   -0.055731
  37 C :   -0.133056
  38 S :    0.470810
  39 C :   -0.131868
  40 C :   -0.091652
  41 C :   -0.090721
  42 C :   -0.029217
  43 N :   -0.042134
  44 C :   -0.029027
  45 N :   -0.042521
  46 C :   -0.057864
  47 C :   -0.007670
  48 C :   -0.173551
  49 S :    0.457087
  50 C :   -0.180505
  51 C :   -0.056858
  52 C :   -0.041342
  53 C :   -0.174168
  54 C :   -0.054216
  55 C :   -0.045088
  56 C :   -0.186161
  57 S :    0.444384
  58 C :   -0.162931
  59 S :    0.453313
  60 C :   -0.178910
  61 C :   -0.014071
  62 C :   -0.058398
  63 C :    0.026738
  64 C :   -0.045027
  65 C :    0.059276
  66 C :   -0.065264
  67 C :    0.078756
  68 C :   -0.136214
  69 C :   -0.022730
  70 N :   -0.046305
  71 C :   -0.018893
  72 N :   -0.049238
  73 C :   -0.013002
  74 C :   -0.011604
  75 C :    0.000198
  76 C :    0.003244
  77 C :    0.001410
  78 C :    0.004732
  79 C :    0.064809
  80 C :   -0.137930
  81 C :   -0.021406
  82 N :   -0.048652
  83 C :   -0.019393
  84 N :   -0.036941
  85 H :    0.041711
  86 H :    0.037839
  87 H :    0.037537
  88 H :    0.040629
  89 H :    0.045446
  90 H :    0.034623
  91 H :    0.036931
  92 H :    0.034543
  93 H :    0.031795
  94 H :    0.031373
  95 H :    0.029669
  96 H :    0.038748
  97 H :    0.028282
  98 H :    0.027816
  99 H :    0.038675
 100 H :    0.028012
 101 H :    0.030887
 102 H :    0.031364
 103 H :    0.031295
 104 H :    0.036981
 105 H :    0.030018
 106 H :    0.034209
 107 H :    0.037202
 108 H :    0.048927
 109 H :    0.040501
 110 H :    0.037518
 111 H :    0.037706
 112 H :    0.041650

  Mayer bond orders larger than 0.100000
B(  0-C ,  1-C ) :   1.3697 B(  0-C ,  5-C ) :   1.3850 B(  0-C , 85-H ) :   0.9828
B(  1-C ,  2-C ) :   1.3795 B(  1-C , 86-H ) :   0.9860 B(  2-C ,  3-C ) :   1.3651
B(  2-C , 87-H ) :   0.9862 B(  3-C ,  4-C ) :   1.3833 B(  3-C , 88-H ) :   0.9863
B(  4-C ,  5-C ) :   1.3144 B(  4-C , 13-C ) :   1.0083 B(  5-C ,  6-C ) :   0.9947
B(  6-C ,  7-C ) :   1.6298 B(  6-C , 12-C ) :   1.0688 B(  7-C ,  8-C ) :   1.1503
B(  7-C , 10-C ) :   1.1367 B(  8-C ,  9-N ) :   2.9775 B( 10-C , 11-N ) :   2.9672
B( 12-C , 13-C ) :   1.0263 B( 12-C , 19-C ) :   1.5967 B( 13-C , 14-C ) :   1.6448
B( 14-C , 15-C ) :   1.1576 B( 14-C , 17-C ) :   1.1384 B( 15-C , 16-N ) :   3.0161
B( 17-C , 18-N ) :   2.9933 B( 19-C , 20-C ) :   1.2023 B( 19-C , 89-H ) :   0.9093
B( 20-C , 21-S ) :   1.1078 B( 20-C , 22-C ) :   0.1021 B( 20-C , 24-C ) :   1.4001
B( 21-S , 22-C ) :   1.1657 B( 22-C , 23-C ) :   1.4444 B( 22-C , 25-C ) :   1.1297
B( 23-C , 24-C ) :   1.3499 B( 23-C , 90-H ) :   0.9982 B( 24-C , 91-H ) :   0.9888
B( 25-C , 26-C ) :   1.4996 B( 25-C , 28-C ) :   0.1056 B( 25-C , 29-S ) :   1.1103
B( 26-C , 27-C ) :   1.2868 B( 26-C , 92-H ) :   0.9960 B( 27-C , 28-C ) :   1.4806
B( 27-C , 93-H ) :   0.9938 B( 28-C , 29-S ) :   1.1384 B( 28-C , 30-C ) :   1.1618
B( 30-C , 31-S ) :   1.1390 B( 30-C , 34-C ) :   1.4670 B( 31-S , 32-C ) :   1.1225
B( 32-C , 33-C ) :   1.4743 B( 32-C , 35-C ) :   1.1363 B( 33-C , 34-C ) :   1.3045
B( 33-C , 94-H ) :   0.9912 B( 34-C , 95-H ) :   0.9919 B( 35-C , 36-C ) :   1.6894
B( 35-C , 96-H ) :   0.9491 B( 36-C , 37-C ) :   1.1598 B( 36-C , 97-H ) :   0.9409
B( 37-C , 38-S ) :   1.1223 B( 37-C , 41-C ) :   1.4673 B( 38-S , 39-C ) :   1.1229
B( 39-C , 40-C ) :   1.4653 B( 39-C , 46-C ) :   1.1615 B( 40-C , 41-C ) :   1.3310
B( 40-C , 44-C ) :   1.1662 B( 41-C , 42-C ) :   1.1648 B( 42-C , 43-N ) :   2.9449
B( 44-C , 45-N ) :   2.9411 B( 46-C , 47-C ) :   1.6850 B( 46-C , 98-H ) :   0.9408
B( 47-C , 48-C ) :   1.1379 B( 47-C , 99-H ) :   0.9496 B( 48-C , 49-S ) :   1.1203
B( 48-C , 52-C ) :   1.4747 B( 49-S , 50-C ) :   1.1413 B( 50-C , 51-C ) :   1.4692
B( 50-C , 53-C ) :   1.1587 B( 51-C , 52-C ) :   1.3035 B( 51-C ,100-H ) :   0.9912
B( 52-C ,101-H ) :   0.9912 B( 53-C , 54-C ) :   1.4919 B( 53-C , 57-S ) :   1.1289
B( 54-C , 55-C ) :   1.2820 B( 54-C ,102-H ) :   0.9941 B( 55-C , 56-C ) :   1.4871
B( 55-C ,103-H ) :   0.9934 B( 56-C , 57-S ) :   1.1172 B( 56-C , 58-C ) :   1.1669
B( 58-C , 59-S ) :   1.1574 B( 58-C , 62-C ) :   1.4429 B( 59-S , 60-C ) :   1.0985
B( 60-C , 61-C ) :   1.4495 B( 60-C , 63-C ) :   1.1968 B( 61-C , 62-C ) :   1.3254
B( 61-C ,104-H ) :   0.9904 B( 62-C ,105-H ) :   0.9906 B( 63-C , 64-C ) :   1.6003
B( 63-C ,106-H ) :   0.9489 B( 64-C , 65-C ) :   1.2342 B( 64-C ,107-H ) :   0.9546
B( 65-C , 66-C ) :   1.5648 B( 65-C ,108-H ) :   0.9219 B( 66-C , 67-C ) :   1.0671
B( 66-C , 79-C ) :   1.0266 B( 67-C , 68-C ) :   1.6295 B( 67-C , 73-C ) :   0.9940
B( 68-C , 69-C ) :   1.1355 B( 68-C , 71-C ) :   1.1496 B( 69-C , 70-N ) :   2.9724
B( 71-C , 72-N ) :   2.9757 B( 73-C , 74-C ) :   1.3144 B( 73-C , 78-C ) :   1.3817
B( 74-C , 75-C ) :   1.3823 B( 74-C , 79-C ) :   1.0061 B( 75-C , 76-C ) :   1.3657
B( 75-C ,109-H ) :   0.9868 B( 76-C , 77-C ) :   1.3777 B( 76-C ,110-H ) :   0.9869
B( 77-C , 78-C ) :   1.3704 B( 77-C ,111-H ) :   0.9858 B( 78-C ,112-H ) :   0.9837
B( 79-C , 80-C ) :   1.6421 B( 80-C , 81-C ) :   1.1391 B( 80-C , 83-C ) :   1.1620
B( 81-C , 82-N ) :   2.9933 B( 83-C , 84-N ) :   3.0053

-----------------------------------------------------------------------------
         ABSORPTION SPECTRUM VIA TRANSITION ELECTRIC DIPOLE MOMENTS
-----------------------------------------------------------------------------
State   Energy  Wavelength   fosc         T2         TX        TY        TZ
        (cm-1)    (nm)                  (au**2)     (au)      (au)      (au)
-----------------------------------------------------------------------------
   0   15291.4    654.0   3.218852328  69.29947   3.09736  -5.75623  -5.15477
   1   16550.0    604.2   0.587648603  11.68946  -1.22127   2.91556   1.30288
   2   20251.4    493.8   0.658742339  10.70871  -0.05203  -2.12654  -2.48673
   3   21044.6    475.2   0.089401737   1.39856   0.55036  -0.36734   0.98017
   4   21456.2    466.1   0.114467406   1.75632  -0.19134   0.53908  -1.19545
   5   23170.6    431.6   0.005984232   0.08503   0.17364  -0.08112  -0.21976
   6   23980.1    417.0   0.139234795   1.91150  -0.73153   0.90945   0.74112
   7   24636.5    405.9   0.010774288   0.14397   0.19107   0.21616  -0.24646
   8   26182.0    381.9   0.040435055   0.50843  -0.18092   0.68828   0.04436
   9   26614.0    375.7   0.129561222   1.60266   0.00373  -1.06272  -0.68794
  10   27755.9    360.3   0.006142113   0.07285   0.17595   0.03487   0.20168
  11   28290.4    353.5   0.035883330   0.41757  -0.37479   0.46620  -0.24445
  12   28433.4    351.7   0.092929643   1.07597   0.36505   0.79696   0.55458
  13   28518.0    350.7   0.106465118   1.22904  -0.36049   0.45069  -0.94655
  14   28875.5    346.3   0.009839492   0.11218  -0.14395   0.30241  -0.00310
  15   29380.3    340.4   0.049156521   0.55081   0.11425   0.24099   0.69259
  16   30818.2    324.5   0.154098903   1.64615   0.47086  -0.80755  -0.87881
  17   31101.1    321.5   0.100048085   1.05903   0.54636   0.07191   0.86911
  18   31146.2    321.1   0.163176929   1.72476  -0.25962   0.98621  -0.82749
  19   31799.4    314.5   0.132562532   1.37239  -0.13558   0.93828   0.68822
  20   32283.5    309.8   0.003314166   0.03380  -0.14677  -0.04175  -0.10252
  21   32490.0    307.8   0.023730976   0.24046  -0.47013   0.13527  -0.03376
  22   32636.7    306.4   0.120340318   1.21389  -0.22118  -0.75291  -0.77337
  23   32743.4    305.4   0.001928945   0.01939   0.03408  -0.10696  -0.08242
  24   33156.8    301.6   0.138875151   1.37888   0.22345   0.80037   0.82967
  25   33725.6    296.5   0.458230299   4.47301   1.01739   0.99016   1.56765
  26   33861.1    295.3   0.588081904   5.71758  -0.19120   1.84124  -1.51356
  27   33878.0    295.2   0.053769997   0.52251  -0.04244   0.70417   0.15765
  28   34617.8    288.9   0.209290519   1.99033  -0.71674   0.72938  -0.97191
  29   34785.8    287.5   0.101620089   0.96173   0.05324  -0.93504  -0.29084
  30   35215.5    284.0   0.336175698   3.14274  -0.31003  -1.03377  -1.40639
  31   35380.3    282.6   0.033468621   0.31142   0.14309  -0.29347   0.45257
  32   36149.1    276.6   0.108020873   0.98375   0.37428  -0.91688   0.05471
  33   36457.1    274.3   0.020263796   0.18298  -0.20886   0.36087  -0.09557
  34   36793.2    271.8   0.086101316   0.77040  -0.22059   0.80633   0.26752
  35   37180.9    269.0   0.028198765   0.24968  -0.10214  -0.20954  -0.44198
  36   37312.5    268.0   0.000908983   0.00802   0.00601   0.08663   0.02190
  37   37479.4    266.8   0.023997866   0.21079  -0.20698  -0.07332  -0.40321
  38   37544.6    266.3   0.000684448   0.00600  -0.06095   0.03221   0.03534
  39   37780.8    264.7   0.043410302   0.37827   0.09343   0.28146   0.53881
  40   38099.0    262.5   0.084641476   0.73138  -0.38087   0.57801  -0.50223
  41   38390.0    260.5   0.009169795   0.07864   0.06762  -0.24257  -0.12338
  42   38771.5    257.9   0.023191460   0.19692  -0.00833  -0.22177  -0.38428
  43   39639.6    252.3   0.019923980   0.16547   0.28561  -0.28927   0.01491
  44   39771.8    251.4   0.034374295   0.28453   0.17891  -0.50202  -0.02230
  45   39953.5    250.3   0.059946734   0.49395  -0.14500  -0.20292  -0.65708

FINAL SINGLE POINT ENERGY     -5937.761081844616

DIPOLE MOMENT
-------------
                                X             Y             Z
Electronic contribution:     -8.83985      10.74458       7.71253
Nuclear contribution   :      8.77898      -9.68904      -6.60611
                        -----------------------------------------
Total Dipole Moment    :     -0.06087       1.05554       1.10642
                        -----------------------------------------
Magnitude (a.u.)       :      1.53037
Magnitude (Debye)      :      3.88990

Rotational constants in cm-1:     0.002814     0.000066     0.000065
Rotational constants in MHz :    84.368654     1.972485     1.941630

                             ****ORCA TERMINATED NORMALLY****
TOTAL RUN TIME: 0 days 0 hours 12 minutes 57 seconds 773 msec
