                         Program Version 4.2.0 -  RELEASE  -
|  1> # ORCA input file
|  2> # SCF done       -205.926351664952          0.000676240400
|  3> ! CAM-B3LYP def2-SVP def2/J RIJCOSX Grid4 TightSCF
|  4> %maxcore 5000
|  5> %tddft
|  6>     Mode sTDDFT
|  7>     Ethresh 5.0
|  8>     maxcore 5000
|  9> end
| 10>
| 11> %pal
| 12>   nprocs 6
| 13>   end
| 14> * xyz 0 1
| 15>    C       -5.61070         2.40250        -1.66360
| 16>    C       -6.00039         2.42476        -2.99439
| 17>    C       -6.61100         1.32515        -3.58073
| 18>    C       -6.85893         0.17302        -2.84973
| 19>    C       -6.47766         0.14059        -1.51868
| 20>    C       -5.84472         1.25461        -0.92266
| 21>    C       -5.53193         0.93100         0.46305
| 22>    C       -5.05783         1.80613         1.40329
| 23>    C       -4.79559         3.16991         1.15052
| 24>    N       -4.56228         4.28561         1.01625
| 25>    C       -4.81182         1.50391         2.75982
| 26>    N       -4.59620         1.34294         3.87616
| 27>    C       -5.83168        -0.48648         0.64249
| 28>    C       -6.62526        -0.89902        -0.51066
| 29>    C       -7.54366        -1.91190        -0.55246
| 30>    C       -7.86213        -2.75357         0.53436
| 31>    N       -8.21097        -3.43869         1.38618
| 32>    C       -8.36223        -2.18173        -1.67000
| 33>    N       -9.04942        -2.45054        -2.54880
| 34>    C       -5.33368        -1.24926         1.66352
| 35>    C       -5.22028        -2.65506         1.74645
| 36>    C       -5.21384        -3.59792         0.73710
| 37>    C       -5.02038        -4.88727         1.30837
| 38>    C       -4.88053        -4.65594         2.74524
| 39>    C       -4.97959        -3.34512         3.01556
| 40>    F       -4.67851        -5.63958         3.62742
| 41>    C       -5.02919        -6.10357         0.66031
| 42>    C       -4.89260        -7.40179         1.21130
| 43>    C       -5.01494        -8.34143         0.20132
| 44>    C       -5.23433        -7.62601        -1.06363
| 45>    C       -5.23708        -6.31746        -0.77972
| 46>    F       -5.40302        -5.31871        -1.65384
| 47>    C       -4.95533        -9.73634         0.36510
| 48>    C       -5.10544       -10.63928        -0.64998
| 49>    C       -5.07014       -12.03469        -0.49114
| 50>    S       -4.74505       -12.77048         1.05491
| 51>    C       -4.81851       -14.36886         0.36807
| 52>    C       -5.08694       -14.31240        -1.00472
| 53>    C       -5.25352       -13.01263        -1.48011
| 54>    C       -5.57531       -12.71632        -2.91036
| 55>    S       -7.01213       -11.56494        -3.08272
| 56>    C       -5.85977       -13.98183        -3.71595
| 57>    C       -4.88504       -15.09148        -3.34416
| 58>    C       -5.12779       -15.51211        -1.89703
| 59>    C       -4.63126       -15.52649         1.14333
| 60>    C       -4.32177       -15.53207         2.47444
| 61>    C       -4.12568       -16.69195         3.24511
| 62>    C       -3.73516       -16.72419         4.57416
| 63>    C       -3.61472       -18.07152         4.99411
| 64>    C       -3.98557       -18.87378         3.81990
| 65>    C       -4.28271       -18.07672         2.78461
| 66>    F       -4.01858       -20.20936         3.81963
| 67>    C       -3.20961       -18.56134         6.21926
| 68>    C       -3.04735       -19.91735         6.60984
| 69>    C       -2.57840       -19.95861         7.91102
| 70>    C       -2.44612       -18.58125         8.39160
| 71>    C       -2.82142       -17.77100         7.39032
| 72>    F       -2.85408       -16.43391         7.41762
| 73>    C       -2.22377       -21.08487         8.68250
| 74>    C       -2.42496       -22.38227         8.30620
| 75>    C       -2.10107       -23.52106         9.07656
| 76>    C       -1.13427       -23.65892        10.03931
| 77>    C       -1.14335       -24.68702        11.07374
| 78>    C       -1.90038       -25.82818        11.10969
| 79>    C       -2.80303       -26.25603        10.11304
| 80>    N       -3.54945       -26.68098         9.35064
| 81>    C       -1.85129       -26.77684        12.15380
| 82>    N       -1.86728       -27.58864        12.96512
| 83>    C       -0.18958       -24.26837        12.09337
| 84>    C        0.49037       -23.11666        11.63728
| 85>    C        1.44154       -22.49682        12.43078
| 86>    C        1.71536       -23.03542        13.67896
| 87>    C        1.05732       -24.17292        14.12436
| 88>    C        0.10027       -24.79976        13.34035
| 89>    C        0.02238       -22.80847        10.29417
| 90>    C        0.71166       -22.06887         9.37007
| 91>    C        1.88602       -21.34461         9.66226
| 92>    N        2.83406       -20.72408         9.84522
| 93>    C        0.39553       -22.00382         7.99685
| 94>    N        0.23317       -21.94314         6.86251
| 95>    H       -5.13023         3.26290        -1.22790
| 96>    H       -5.81943         3.31168        -3.58212
| 97>    H       -6.89620         1.36354        -4.62089
| 98>    H       -7.32482        -0.67858        -3.31824
| 99>    H       -4.90219        -0.72060         2.50420
|100>    H       -5.28922        -3.40606        -0.31527
|101>    H       -4.93096        -2.86398         3.97259
|102>    H       -4.73016        -7.61648         2.24926
|103>    H       -5.37487        -8.07481        -2.02661
|104>    H       -4.79221       -10.10191         1.37176
|105>    H       -5.27537       -10.27622        -1.65203
|106>    H       -4.75245       -12.15259        -3.36240
|107>    H       -7.88595       -12.32924        -2.43199
|108>    H       -5.79871       -13.74843        -4.77937
|109>    H       -6.87753       -14.32238        -3.50781
|110>    H       -3.85876       -14.73582        -3.45680
|111>    H       -5.02342       -15.94586        -4.00718
|112>    H       -4.37152       -16.23461        -1.58547
|113>    H       -6.10572       -15.99777        -1.81379
|114>    H       -4.74129       -16.46788         0.62511
|115>    H       -4.20059       -14.58399         2.98389
|116>    H       -3.53723       -15.86632         5.18629
|117>    H       -4.58838       -18.38623         1.80511
|118>    H       -3.23186       -20.76080         5.97567
|119>    H       -2.10846       -18.29926         9.36994
|120>    H       -1.79246       -20.88060         9.65573
|121>    H       -2.97525       -22.57106         7.39541
|122>    H       -2.74705       -24.37397         8.91184
|123>    H        1.95397       -21.60859        12.09869
|124>    H        2.45028       -22.56049        14.31063
|125>    H        1.28864       -24.57711        15.09792
|126>    H       -0.40406       -25.67852        13.70653
|127> *
|128>
|129>                          ****END OF INPUT****

CARTESIAN COORDINATES (ANGSTROEM)
---------------------------------
  C     -5.610700    2.402500   -1.663600
  C     -6.000390    2.424760   -2.994390
  C     -6.611000    1.325150   -3.580730
  C     -6.858930    0.173020   -2.849730
  C     -6.477660    0.140590   -1.518680
  C     -5.844720    1.254610   -0.922660
  C     -5.531930    0.931000    0.463050
  C     -5.057830    1.806130    1.403290
  C     -4.795590    3.169910    1.150520
  N     -4.562280    4.285610    1.016250
  C     -4.811820    1.503910    2.759820
  N     -4.596200    1.342940    3.876160
  C     -5.831680   -0.486480    0.642490
  C     -6.625260   -0.899020   -0.510660
  C     -7.543660   -1.911900   -0.552460
  C     -7.862130   -2.753570    0.534360
  N     -8.210970   -3.438690    1.386180
  C     -8.362230   -2.181730   -1.670000
  N     -9.049420   -2.450540   -2.548800
  C     -5.333680   -1.249260    1.663520
  C     -5.220280   -2.655060    1.746450
  C     -5.213840   -3.597920    0.737100
  C     -5.020380   -4.887270    1.308370
  C     -4.880530   -4.655940    2.745240
  C     -4.979590   -3.345120    3.015560
  F     -4.678510   -5.639580    3.627420
  C     -5.029190   -6.103570    0.660310
  C     -4.892600   -7.401790    1.211300
  C     -5.014940   -8.341430    0.201320
  C     -5.234330   -7.626010   -1.063630
  C     -5.237080   -6.317460   -0.779720
  F     -5.403020   -5.318710   -1.653840
  C     -4.955330   -9.736340    0.365100
  C     -5.105440  -10.639280   -0.649980
  C     -5.070140  -12.034690   -0.491140
  S     -4.745050  -12.770480    1.054910
  C     -4.818510  -14.368860    0.368070
  C     -5.086940  -14.312400   -1.004720
  C     -5.253520  -13.012630   -1.480110
  C     -5.575310  -12.716320   -2.910360
  S     -7.012130  -11.564940   -3.082720
  C     -5.859770  -13.981830   -3.715950
  C     -4.885040  -15.091480   -3.344160
  C     -5.127790  -15.512110   -1.897030
  C     -4.631260  -15.526490    1.143330
  C     -4.321770  -15.532070    2.474440
  C     -4.125680  -16.691950    3.245110
  C     -3.735160  -16.724190    4.574160
  C     -3.614720  -18.071520    4.994110
  C     -3.985570  -18.873780    3.819900
  C     -4.282710  -18.076720    2.784610
  F     -4.018580  -20.209360    3.819630
  C     -3.209610  -18.561340    6.219260
  C     -3.047350  -19.917350    6.609840
  C     -2.578400  -19.958610    7.911020
  C     -2.446120  -18.581250    8.391600
  C     -2.821420  -17.771000    7.390320
  F     -2.854080  -16.433910    7.417620
  C     -2.223770  -21.084870    8.682500
  C     -2.424960  -22.382270    8.306200
  C     -2.101070  -23.521060    9.076560
  C     -1.134270  -23.658920   10.039310
  C     -1.143350  -24.687020   11.073740
  C     -1.900380  -25.828180   11.109690
  C     -2.803030  -26.256030   10.113040
  N     -3.549450  -26.680980    9.350640
  C     -1.851290  -26.776840   12.153800
  N     -1.867280  -27.588640   12.965120
  C     -0.189580  -24.268370   12.093370
  C      0.490370  -23.116660   11.637280
  C      1.441540  -22.496820   12.430780
  C      1.715360  -23.035420   13.678960
  C      1.057320  -24.172920   14.124360
  C      0.100270  -24.799760   13.340350
  C      0.022380  -22.808470   10.294170
  C      0.711660  -22.068870    9.370070
  C      1.886020  -21.344610    9.662260
  N      2.834060  -20.724080    9.845220
  C      0.395530  -22.003820    7.996850
  N      0.233170  -21.943140    6.862510
  H     -5.130230    3.262900   -1.227900
  H     -5.819430    3.311680   -3.582120
  H     -6.896200    1.363540   -4.620890
  H     -7.324820   -0.678580   -3.318240
  H     -4.902190   -0.720600    2.504200
  H     -5.289220   -3.406060   -0.315270
  H     -4.930960   -2.863980    3.972590
  H     -4.730160   -7.616480    2.249260
  H     -5.374870   -8.074810   -2.026610
  H     -4.792210  -10.101910    1.371760
  H     -5.275370  -10.276220   -1.652030
  H     -4.752450  -12.152590   -3.362400
  H     -7.885950  -12.329240   -2.431990
  H     -5.798710  -13.748430   -4.779370
  H     -6.877530  -14.322380   -3.507810
  H     -3.858760  -14.735820   -3.456800
  H     -5.023420  -15.945860   -4.007180
  H     -4.371520  -16.234610   -1.585470
  H     -6.105720  -15.997770   -1.813790
  H     -4.741290  -16.467880    0.625110
  H     -4.200590  -14.583990    2.983890
  H     -3.537230  -15.866320    5.186290
  H     -4.588380  -18.386230    1.805110
  H     -3.231860  -20.760800    5.975670
  H     -2.108460  -18.299260    9.369940
  H     -1.792460  -20.880600    9.655730
  H     -2.975250  -22.571060    7.395410
  H     -2.747050  -24.373970    8.911840
  H      1.953970  -21.608590   12.098690
  H      2.450280  -22.560490   14.310630
  H      1.288640  -24.577110   15.097920
  H     -0.404060  -25.678520   13.706530

 Total Charge           Charge          ....    0
 Multiplicity           Mult            ....    1
 Number of Electrons    NEL             ....  552
 Basis Dimension        Dim             .... 1288

ORBITAL ENERGIES
----------------

  NO   OCC          E(Eh)            E(eV)
   0   2.0000     -88.975593     -2421.1490
   1   2.0000     -88.932030     -2419.9636
   2   2.0000     -24.804347      -674.9606
   3   2.0000     -24.803582      -674.9398
   4   2.0000     -24.794948      -674.7048
   5   2.0000     -24.791946      -674.6231
   6   2.0000     -14.422719      -392.4621
   7   2.0000     -14.422101      -392.4453
   8   2.0000     -14.421736      -392.4354
   9   2.0000     -14.421170      -392.4200
  10   2.0000     -14.420607      -392.4047
  11   2.0000     -14.419804      -392.3828
  12   2.0000     -14.419494      -392.3744
  13   2.0000     -14.419428      -392.3726
  14   2.0000     -10.371343      -282.2186
  15   2.0000     -10.371259      -282.2163
  16   2.0000     -10.360402      -281.9209
  17   2.0000     -10.357962      -281.8545
  18   2.0000     -10.351532      -281.6795
  19   2.0000     -10.351370      -281.6751
  20   2.0000     -10.350556      -281.6530
  21   2.0000     -10.350346      -281.6472
  22   2.0000     -10.348815      -281.6056
  23   2.0000     -10.348513      -281.5974
  24   2.0000     -10.348347      -281.5928
  25   2.0000     -10.347117      -281.5594
  26   2.0000     -10.328714      -281.0586
  27   2.0000     -10.326137      -280.9885
  28   2.0000     -10.324875      -280.9541
  29   2.0000     -10.324346      -280.9397
  30   2.0000     -10.324226      -280.9365
  31   2.0000     -10.324203      -280.9359
  32   2.0000     -10.324149      -280.9344
  33   2.0000     -10.323309      -280.9115
  34   2.0000     -10.322637      -280.8932
  35   2.0000     -10.322547      -280.8908
  36   2.0000     -10.322525      -280.8902
  37   2.0000     -10.322073      -280.8779
  38   2.0000     -10.321962      -280.8749
  39   2.0000     -10.321031      -280.8495
  40   2.0000     -10.320510      -280.8353
  41   2.0000     -10.319451      -280.8065
  42   2.0000     -10.319146      -280.7982
  43   2.0000     -10.314174      -280.6630
  44   2.0000     -10.313853      -280.6542
  45   2.0000     -10.313303      -280.6393
  46   2.0000     -10.312977      -280.6304
  47   2.0000     -10.312069      -280.6057
  48   2.0000     -10.311852      -280.5998
  49   2.0000     -10.311233      -280.5829
  50   2.0000     -10.310986      -280.5762
  51   2.0000     -10.308495      -280.5084
  52   2.0000     -10.308098      -280.4976
  53   2.0000     -10.307994      -280.4948
  54   2.0000     -10.306357      -280.4502
  55   2.0000     -10.305168      -280.4179
  56   2.0000     -10.302292      -280.3396
  57   2.0000     -10.301739      -280.3246
  58   2.0000     -10.301560      -280.3197
  59   2.0000     -10.301389      -280.3150
  60   2.0000     -10.301170      -280.3091
  61   2.0000     -10.301169      -280.3091
  62   2.0000     -10.300398      -280.2881
  63   2.0000     -10.300355      -280.2869
  64   2.0000     -10.299680      -280.2686
  65   2.0000     -10.299533      -280.2645
  66   2.0000     -10.299358      -280.2598
  67   2.0000     -10.299094      -280.2526
  68   2.0000     -10.296790      -280.1899
  69   2.0000     -10.294828      -280.1365
  70   2.0000     -10.289296      -279.9860
  71   2.0000     -10.288340      -279.9600
  72   2.0000     -10.288135      -279.9544
  73   2.0000     -10.288117      -279.9539
  74   2.0000     -10.286371      -279.9064
  75   2.0000     -10.281693      -279.7791
  76   2.0000     -10.279695      -279.7247
  77   2.0000     -10.277393      -279.6621
  78   2.0000     -10.276110      -279.6272
  79   2.0000     -10.275205      -279.6025
  80   2.0000      -8.070908      -219.6206
  81   2.0000      -8.027350      -218.4353
  82   2.0000      -6.039972      -164.3560
  83   2.0000      -6.036233      -164.2542
  84   2.0000      -6.033072      -164.1682
  85   2.0000      -5.997947      -163.2124
  86   2.0000      -5.993855      -163.1011
  87   2.0000      -5.986835      -162.9101
  88   2.0000      -1.316943       -35.8358
  89   2.0000      -1.316676       -35.8286
  90   2.0000      -1.307488       -35.5786
  91   2.0000      -1.304892       -35.5079
  92   2.0000      -1.036816       -28.2132
  93   2.0000      -1.036249       -28.1978
  94   2.0000      -1.018694       -27.7201
  95   2.0000      -1.017947       -27.6997
  96   2.0000      -1.015881       -27.6435
  97   2.0000      -1.008222       -27.4351
  98   2.0000      -1.007387       -27.4124
  99   2.0000      -1.002085       -27.2681
 100   2.0000      -1.000937       -27.2369
 101   2.0000      -0.999456       -27.1966
 102   2.0000      -0.999198       -27.1896
 103   2.0000      -0.998902       -27.1815
 104   2.0000      -0.997392       -27.1404
 105   2.0000      -0.982157       -26.7259
 106   2.0000      -0.981772       -26.7154
 107   2.0000      -0.961563       -26.1655
 108   2.0000      -0.958043       -26.0697
 109   2.0000      -0.949395       -25.8343
 110   2.0000      -0.940925       -25.6039
 111   2.0000      -0.940182       -25.5837
 112   2.0000      -0.934353       -25.4250
 113   2.0000      -0.925318       -25.1792
 114   2.0000      -0.906054       -24.6550
 115   2.0000      -0.899669       -24.4812
 116   2.0000      -0.895272       -24.3616
 117   2.0000      -0.893585       -24.3157
 118   2.0000      -0.888628       -24.1808
 119   2.0000      -0.876011       -23.8375
 120   2.0000      -0.867411       -23.6034
 121   2.0000      -0.866589       -23.5811
 122   2.0000      -0.859871       -23.3983
 123   2.0000      -0.853989       -23.2382
 124   2.0000      -0.846318       -23.0295
 125   2.0000      -0.838617       -22.8199
 126   2.0000      -0.820620       -22.3302
 127   2.0000      -0.818389       -22.2695
 128   2.0000      -0.815029       -22.1781
 129   2.0000      -0.809094       -22.0166
 130   2.0000      -0.801005       -21.7964
 131   2.0000      -0.795416       -21.6444
 132   2.0000      -0.792606       -21.5679
 133   2.0000      -0.791555       -21.5393
 134   2.0000      -0.777677       -21.1617
 135   2.0000      -0.766204       -20.8495
 136   2.0000      -0.755193       -20.5499
 137   2.0000      -0.738986       -20.1088
 138   2.0000      -0.727314       -19.7912
 139   2.0000      -0.723847       -19.6969
 140   2.0000      -0.718101       -19.5405
 141   2.0000      -0.716031       -19.4842
 142   2.0000      -0.714595       -19.4451
 143   2.0000      -0.714106       -19.4318
 144   2.0000      -0.710730       -19.3399
 145   2.0000      -0.707271       -19.2458
 146   2.0000      -0.689821       -18.7710
 147   2.0000      -0.684117       -18.6158
 148   2.0000      -0.678780       -18.4705
 149   2.0000      -0.676721       -18.4145
 150   2.0000      -0.671514       -18.2728
 151   2.0000      -0.668679       -18.1957
 152   2.0000      -0.668310       -18.1856
 153   2.0000      -0.667201       -18.1555
 154   2.0000      -0.665781       -18.1168
 155   2.0000      -0.664823       -18.0907
 156   2.0000      -0.660635       -17.9768
 157   2.0000      -0.650613       -17.7041
 158   2.0000      -0.648546       -17.6478
 159   2.0000      -0.647181       -17.6107
 160   2.0000      -0.634907       -17.2767
 161   2.0000      -0.634532       -17.2665
 162   2.0000      -0.626064       -17.0361
 163   2.0000      -0.624114       -16.9830
 164   2.0000      -0.622756       -16.9460
 165   2.0000      -0.614836       -16.7305
 166   2.0000      -0.605912       -16.4877
 167   2.0000      -0.591329       -16.0909
 168   2.0000      -0.587982       -15.9998
 169   2.0000      -0.587187       -15.9782
 170   2.0000      -0.586527       -15.9602
 171   2.0000      -0.582497       -15.8506
 172   2.0000      -0.573460       -15.6046
 173   2.0000      -0.572384       -15.5754
 174   2.0000      -0.572246       -15.5716
 175   2.0000      -0.567444       -15.4409
 176   2.0000      -0.564930       -15.3725
 177   2.0000      -0.562446       -15.3049
 178   2.0000      -0.561345       -15.2750
 179   2.0000      -0.560390       -15.2490
 180   2.0000      -0.559137       -15.2149
 181   2.0000      -0.556782       -15.1508
 182   2.0000      -0.555511       -15.1162
 183   2.0000      -0.553262       -15.0550
 184   2.0000      -0.548581       -14.9277
 185   2.0000      -0.545891       -14.8544
 186   2.0000      -0.545129       -14.8337
 187   2.0000      -0.544078       -14.8051
 188   2.0000      -0.541753       -14.7418
 189   2.0000      -0.539777       -14.6881
 190   2.0000      -0.537928       -14.6378
 191   2.0000      -0.534585       -14.5468
 192   2.0000      -0.533201       -14.5091
 193   2.0000      -0.531363       -14.4591
 194   2.0000      -0.526864       -14.3367
 195   2.0000      -0.521713       -14.1965
 196   2.0000      -0.519550       -14.1377
 197   2.0000      -0.515825       -14.0363
 198   2.0000      -0.514712       -14.0060
 199   2.0000      -0.510948       -13.9036
 200   2.0000      -0.509803       -13.8724
 201   2.0000      -0.508915       -13.8483
 202   2.0000      -0.506984       -13.7957
 203   2.0000      -0.506491       -13.7823
 204   2.0000      -0.503385       -13.6978
 205   2.0000      -0.500822       -13.6281
 206   2.0000      -0.491505       -13.3745
 207   2.0000      -0.490162       -13.3380
 208   2.0000      -0.488857       -13.3025
 209   2.0000      -0.485318       -13.2062
 210   2.0000      -0.484043       -13.1715
 211   2.0000      -0.481564       -13.1040
 212   2.0000      -0.479753       -13.0547
 213   2.0000      -0.477940       -13.0054
 214   2.0000      -0.475440       -12.9374
 215   2.0000      -0.473130       -12.8745
 216   2.0000      -0.472572       -12.8593
 217   2.0000      -0.470363       -12.7992
 218   2.0000      -0.467196       -12.7130
 219   2.0000      -0.466003       -12.6806
 220   2.0000      -0.463226       -12.6050
 221   2.0000      -0.461892       -12.5687
 222   2.0000      -0.459215       -12.4959
 223   2.0000      -0.458698       -12.4818
 224   2.0000      -0.457689       -12.4543
 225   2.0000      -0.455058       -12.3828
 226   2.0000      -0.454417       -12.3653
 227   2.0000      -0.453923       -12.3519
 228   2.0000      -0.453394       -12.3375
 229   2.0000      -0.452933       -12.3249
 230   2.0000      -0.452787       -12.3210
 231   2.0000      -0.452294       -12.3075
 232   2.0000      -0.448724       -12.2104
 233   2.0000      -0.447596       -12.1797
 234   2.0000      -0.447122       -12.1668
 235   2.0000      -0.446097       -12.1389
 236   2.0000      -0.445918       -12.1340
 237   2.0000      -0.438504       -11.9323
 238   2.0000      -0.436614       -11.8809
 239   2.0000      -0.434007       -11.8099
 240   2.0000      -0.432433       -11.7671
 241   2.0000      -0.431996       -11.7552
 242   2.0000      -0.430790       -11.7224
 243   2.0000      -0.429909       -11.6984
 244   2.0000      -0.428147       -11.6505
 245   2.0000      -0.427290       -11.6271
 246   2.0000      -0.426458       -11.6045
 247   2.0000      -0.426051       -11.5934
 248   2.0000      -0.424217       -11.5435
 249   2.0000      -0.423043       -11.5116
 250   2.0000      -0.421482       -11.4691
 251   2.0000      -0.415630       -11.3099
 252   2.0000      -0.415086       -11.2951
 253   2.0000      -0.413084       -11.2406
 254   2.0000      -0.411877       -11.2078
 255   2.0000      -0.411198       -11.1893
 256   2.0000      -0.400751       -10.9050
 257   2.0000      -0.393105       -10.6969
 258   2.0000      -0.386204       -10.5092
 259   2.0000      -0.385215       -10.4822
 260   2.0000      -0.380761       -10.3610
 261   2.0000      -0.364342        -9.9143
 262   2.0000      -0.348515        -9.4836
 263   2.0000      -0.338241        -9.2040
 264   2.0000      -0.335488        -9.1291
 265   2.0000      -0.334723        -9.1083
 266   2.0000      -0.331680        -9.0255
 267   2.0000      -0.322436        -8.7739
 268   2.0000      -0.319035        -8.6814
 269   2.0000      -0.313351        -8.5267
 270   2.0000      -0.310040        -8.4366
 271   2.0000      -0.307835        -8.3766
 272   2.0000      -0.292294        -7.9537
 273   2.0000      -0.280831        -7.6418
 274   2.0000      -0.269322        -7.3286
 275   2.0000      -0.243306        -6.6207
 276   0.0000      -0.137534        -3.7425
 277   0.0000      -0.120752        -3.2858
 278   0.0000      -0.088710        -2.4139
 279   0.0000      -0.086708        -2.3595
 280   0.0000      -0.085193        -2.3182

MULLIKEN ATOMIC CHARGES
-----------------------
   0 C :   -0.034538
   1 C :    0.046545
   2 C :    0.047386
   3 C :   -0.030984
   4 C :    0.001600
   5 C :    0.016535
   6 C :    0.290972
   7 C :   -0.349382
   8 C :   -0.186726
   9 N :    0.160139
  10 C :   -0.178411
  11 N :    0.160022
  12 C :   -0.052273
  13 C :    0.227604
  14 C :   -0.324118
  15 C :   -0.201040
  16 N :    0.191357
  17 C :   -0.183524
  18 N :    0.162759
  19 C :    0.041225
  20 C :    0.040458
  21 C :   -0.050594
  22 C :   -0.010635
  23 C :    0.265290
  24 C :   -0.063583
  25 F :   -0.175203
  26 C :    0.035237
  27 C :   -0.088690
  28 C :    0.121947
  29 C :   -0.071750
  30 C :    0.259947
  31 F :   -0.171487
  32 C :   -0.012750
  33 C :    0.013307
  34 C :   -0.068185
  35 S :    0.122359
  36 C :   -0.068679
  37 C :   -0.078469
  38 C :    0.048910
  39 C :   -0.193012
  40 S :   -0.030988
  41 C :    0.104444
  42 C :    0.019293
  43 C :    0.114407
  44 C :   -0.016559
  45 C :   -0.005959
  46 C :    0.120033
  47 C :   -0.089236
  48 C :    0.023393
  49 C :    0.264526
  50 C :   -0.077355
  51 F :   -0.168099
  52 C :   -0.003193
  53 C :   -0.047873
  54 C :    0.070177
  55 C :   -0.074257
  56 C :    0.257414
  57 F :   -0.176840
  58 C :    0.044636
  59 C :   -0.002796
  60 C :    0.041788
  61 C :   -0.060064
  62 C :    0.298747
  63 C :   -0.347123
  64 C :   -0.182489
  65 N :    0.155099
  66 C :   -0.189370
  67 N :    0.161706
  68 C :    0.017537
  69 C :   -0.003839
  70 C :   -0.029478
  71 C :    0.044246
  72 C :    0.048946
  73 C :   -0.034853
  74 C :    0.228064
  75 C :   -0.333790
  76 C :   -0.183300
  77 N :    0.162403
  78 C :   -0.196792
  79 N :    0.182515
  80 H :    0.006404
  81 H :    0.004414
  82 H :    0.004782
  83 H :    0.006805
  84 H :    0.013127
  85 H :    0.009121
  86 H :   -0.003906
  87 H :   -0.008934
  88 H :   -0.009253
  89 H :   -0.004846
  90 H :    0.004920
  91 H :    0.059434
  92 H :    0.057125
  93 H :    0.017120
  94 H :   -0.000176
  95 H :    0.013428
  96 H :    0.011821
  97 H :    0.023652
  98 H :    0.021034
  99 H :   -0.005894
 100 H :   -0.003922
 101 H :   -0.010763
 102 H :   -0.016409
 103 H :   -0.002268
 104 H :   -0.016687
 105 H :    0.005435
 106 H :    0.012203
 107 H :    0.025900
 108 H :    0.005709
 109 H :    0.005794
 110 H :    0.004120
 111 H :    0.006019
Sum of atomic charges:   -0.0000000

LOEWDIN ATOMIC CHARGES
----------------------
   0 C :    0.005026
   1 C :    0.001471
   2 C :    0.004489
   3 C :    0.001437
   4 C :   -0.009911
   5 C :   -0.013264
   6 C :    0.078170
   7 C :   -0.132350
   8 C :   -0.018707
   9 N :   -0.046643
  10 C :   -0.022366
  11 N :   -0.043533
  12 C :   -0.048289
  13 C :    0.065782
  14 C :   -0.124961
  15 C :   -0.018745
  16 N :   -0.031990
  17 C :   -0.019344
  18 N :   -0.044914
  19 C :    0.062468
  20 C :   -0.031508
  21 C :    0.000651
  22 C :   -0.013704
  23 C :    0.077908
  24 C :   -0.046225
  25 F :   -0.050697
  26 C :    0.027389
  27 C :   -0.060518
  28 C :    0.020006
  29 C :   -0.051129
  30 C :    0.088002
  31 F :   -0.047459
  32 C :   -0.020580
  33 C :   -0.014032
  34 C :   -0.157984
  35 S :    0.449157
  36 C :   -0.166016
  37 C :   -0.041135
  38 C :   -0.066005
  39 C :   -0.118951
  40 S :    0.183387
  41 C :   -0.038479
  42 C :   -0.027259
  43 C :   -0.026873
  44 C :   -0.017992
  45 C :   -0.019044
  46 C :    0.013550
  47 C :   -0.060214
  48 C :    0.018599
  49 C :    0.088829
  50 C :   -0.058380
  51 F :   -0.044801
  52 C :   -0.011274
  53 C :   -0.013620
  54 C :   -0.021440
  55 C :   -0.056863
  56 C :    0.075745
  57 F :   -0.052250
  58 C :    0.039618
  59 C :   -0.021465
  60 C :    0.058369
  61 C :   -0.057692
  62 C :    0.077119
  63 C :   -0.133182
  64 C :   -0.022211
  65 N :   -0.044078
  66 C :   -0.018993
  67 N :   -0.047142
  68 C :   -0.012968
  69 C :   -0.011499
  70 C :    0.001146
  71 C :    0.003943
  72 C :    0.002278
  73 C :    0.004936
  74 C :    0.064368
  75 C :   -0.131882
  76 C :   -0.020805
  77 N :   -0.046778
  78 C :   -0.018758
  79 N :   -0.036035
  80 H :    0.041582
  81 H :    0.037691
  82 H :    0.037707
  83 H :    0.040988
  84 H :    0.049013
  85 H :    0.024426
  86 H :    0.036114
  87 H :    0.026853
  88 H :    0.032622
  89 H :    0.028306
  90 H :    0.024018
  91 H :    0.035628
  92 H :   -0.030928
  93 H :    0.031167
  94 H :    0.020714
  95 H :    0.025386
  96 H :    0.029349
  97 H :    0.033478
  98 H :    0.035872
  99 H :    0.034234
 100 H :    0.029484
 101 H :    0.026000
 102 H :    0.029342
 103 H :    0.025931
 104 H :    0.030895
 105 H :    0.034510
 106 H :    0.041006
 107 H :    0.049554
 108 H :    0.040801
 109 H :    0.037928
 110 H :    0.037780
 111 H :    0.041642

  Mayer bond orders larger than 0.100000
B(  0-C ,  1-C ) :   1.3723 B(  0-C ,  5-C ) :   1.3810 B(  0-C , 80-H ) :   0.9837
B(  1-C ,  2-C ) :   1.3776 B(  1-C , 81-H ) :   0.9857 B(  2-C ,  3-C ) :   1.3653
B(  2-C , 82-H ) :   0.9865 B(  3-C ,  4-C ) :   1.3846 B(  3-C , 83-H ) :   0.9865
B(  4-C ,  5-C ) :   1.3135 B(  4-C , 13-C ) :   1.0039 B(  5-C ,  6-C ) :   0.9983
B(  6-C ,  7-C ) :   1.6404 B(  6-C , 12-C ) :   1.0548 B(  7-C ,  8-C ) :   1.1474
B(  7-C , 10-C ) :   1.1356 B(  8-C ,  9-N ) :   2.9781 B( 10-C , 11-N ) :   2.9760
B( 12-C , 13-C ) :   1.0166 B( 12-C , 19-C ) :   1.5922 B( 13-C , 14-C ) :   1.6646
B( 14-C , 15-C ) :   1.1565 B( 14-C , 17-C ) :   1.1372 B( 15-C , 16-N ) :   3.0101
B( 17-C , 18-N ) :   2.9952 B( 19-C , 20-C ) :   1.1535 B( 19-C , 84-H ) :   0.9278
B( 20-C , 21-C ) :   1.4822 B( 20-C , 24-C ) :   1.0298 B( 21-C , 22-C ) :   1.1490
B( 21-C , 85-H ) :   1.0027 B( 22-C , 23-C ) :   1.0391 B( 22-C , 26-C ) :   1.4312
B( 23-C , 24-C ) :   1.6412 B( 23-C , 25-F ) :   1.1272 B( 24-C , 86-H ) :   1.0209
B( 26-C , 27-C ) :   1.1581 B( 26-C , 30-C ) :   1.0028 B( 27-C , 28-C ) :   1.4608
B( 27-C , 87-H ) :   1.0245 B( 28-C , 29-C ) :   1.0021 B( 28-C , 32-C ) :   1.1883
B( 29-C , 30-C ) :   1.6875 B( 29-C , 88-H ) :   1.0126 B( 30-C , 31-F ) :   1.1249
B( 32-C , 33-C ) :   1.5480 B( 32-C , 89-H ) :   0.9799 B( 33-C , 34-C ) :   1.2080
B( 33-C , 90-H ) :   0.9607 B( 34-C , 35-S ) :   1.1135 B( 34-C , 38-C ) :   1.4078
B( 35-S , 36-C ) :   1.1064 B( 36-C , 37-C ) :   1.4231 B( 36-C , 44-C ) :   1.2031
B( 37-C , 38-C ) :   1.3856 B( 37-C , 43-C ) :   1.0494 B( 38-C , 39-C ) :   0.9463
B( 39-C , 40-S ) :   1.0452 B( 39-C , 41-C ) :   1.0314 B( 39-C , 91-H ) :   0.9012
B( 40-S , 92-H ) :   0.9537 B( 41-C , 42-C ) :   1.0685 B( 41-C , 93-H ) :   0.9321
B( 41-C , 94-H ) :   0.9360 B( 42-C , 43-C ) :   1.0852 B( 42-C , 95-H ) :   0.9479
B( 42-C , 96-H ) :   0.9330 B( 43-C , 97-H ) :   0.9168 B( 43-C , 98-H ) :   0.9066
B( 44-C , 45-C ) :   1.5457 B( 44-C , 99-H ) :   0.9719 B( 45-C , 46-C ) :   1.1833
B( 45-C ,100-H ) :   0.9804 B( 46-C , 47-C ) :   1.4632 B( 46-C , 50-C ) :   1.0068
B( 47-C , 48-C ) :   1.1564 B( 47-C ,101-H ) :   1.0245 B( 48-C , 49-C ) :   1.0072
B( 48-C , 52-C ) :   1.4269 B( 49-C , 50-C ) :   1.6832 B( 49-C , 51-F ) :   1.1312
B( 50-C ,102-H ) :   1.0113 B( 52-C , 53-C ) :   1.1457 B( 52-C , 56-C ) :   1.0300
B( 53-C , 54-C ) :   1.5115 B( 53-C ,103-H ) :   1.0045 B( 54-C , 55-C ) :   1.0188
B( 54-C , 58-C ) :   1.1727 B( 55-C , 56-C ) :   1.6506 B( 55-C ,104-H ) :   1.0200
B( 56-C , 57-F ) :   1.1242 B( 58-C , 59-C ) :   1.5942 B( 58-C ,105-H ) :   0.9663
B( 59-C , 60-C ) :   1.1987 B( 59-C ,106-H ) :   0.9540 B( 60-C , 61-C ) :   1.5840
B( 60-C ,107-H ) :   0.9209 B( 61-C , 62-C ) :   1.0652 B( 61-C , 74-C ) :   1.0213
B( 62-C , 63-C ) :   1.6306 B( 62-C , 68-C ) :   0.9955 B( 63-C , 64-C ) :   1.1379
B( 63-C , 66-C ) :   1.1489 B( 64-C , 65-N ) :   2.9682 B( 66-C , 67-N ) :   2.9765
B( 68-C , 69-C ) :   1.3146 B( 68-C , 73-C ) :   1.3774 B( 69-C , 70-C ) :   1.3804
B( 69-C , 74-C ) :   1.0050 B( 70-C , 71-C ) :   1.3658 B( 70-C ,108-H ) :   0.9880
B( 71-C , 72-C ) :   1.3755 B( 71-C ,109-H ) :   0.9871 B( 72-C , 73-C ) :   1.3724
B( 72-C ,110-H ) :   0.9861 B( 73-C ,111-H ) :   0.9844 B( 74-C , 75-C ) :   1.6530
B( 75-C , 76-C ) :   1.1390 B( 75-C , 78-C ) :   1.1521 B( 76-C , 77-N ) :   2.9917
B( 78-C , 79-N ) :   3.0059

-----------------------------------------------------------------------------
         ABSORPTION SPECTRUM VIA TRANSITION ELECTRIC DIPOLE MOMENTS
-----------------------------------------------------------------------------
State   Energy  Wavelength   fosc         T2         TX        TY        TZ
        (cm-1)    (nm)                  (au**2)     (au)      (au)      (au)
-----------------------------------------------------------------------------
   0    9534.8   1048.8   1.717979816  59.31737  -1.54299   6.91497  -3.01988
   1   13033.7    767.2   0.304384999   7.68834  -0.71173  -1.09503  -2.44595
   2   14984.0    667.4   0.005562484   0.12221   0.22489  -0.16636  -0.20968
   3   15595.1    641.2   0.007443307   0.15713   0.35130  -0.12650   0.13309
   4   18233.7    548.4   0.002827928   0.05106  -0.10979  -0.13571   0.14349
   5   19923.4    501.9   0.548780555   9.06800  -0.81120   2.70042  -1.05722
   6   20169.7    495.8   0.136115169   2.22169  -0.86192  -1.19726   0.21298
   7   21490.9    465.3   0.063403321   0.97126   0.67012   0.11121   0.71402
   8   21653.1    461.8   0.132484503   2.01428   0.01053  -0.88614   1.10857
   9   22372.9    447.0   0.179323228   2.63870   0.01157   1.46839   0.69456
  10   22808.4    438.4   0.018409619   0.26572   0.40468  -0.14219  -0.28590
  11   23881.0    418.7   0.069625535   0.95982   0.02196  -0.95674   0.20973
  12   24294.7    411.6   0.007892851   0.10695   0.04674   0.27923   0.16370
  13   24929.4    401.1   0.065272698   0.86198   0.19619   0.79390   0.43956
  14   25106.9    398.3   0.165871745   2.17498   0.38609  -0.70422   1.23693
  15   25555.1    391.3   0.041589242   0.53577   0.03655  -0.13883   0.71775
  16   26132.2    382.7   0.035703471   0.44979   0.26745  -0.42638   0.44323
  17   26579.9    376.2   0.237697910   2.94406  -0.64407   0.26358  -1.56836
  18   26865.0    372.2   0.100153085   1.22731  -0.01289  -0.99416  -0.48865
  19   27204.6    367.6   0.303846544   3.67694   0.12478  -1.89793   0.24340
  20   27808.2    359.6   0.044138597   0.52254   0.29035   0.33407  -0.57152
  21   28200.3    354.6   0.006030706   0.07040  -0.17939   0.01009  -0.19524
  22   28958.8    345.3   0.013173915   0.14976   0.01031   0.38672   0.01032
  23   29227.0    342.1   0.011716113   0.13197  -0.15255  -0.27016   0.18898
  24   29382.0    340.3   0.012579584   0.14095  -0.06164  -0.25074   0.27254
  25   29661.9    337.1   0.034911309   0.38747  -0.01876   0.31602   0.53596
  26   30651.9    326.2   0.062133250   0.66733   0.30558  -0.09886   0.75112
  27   30886.6    323.8   0.023349550   0.24888  -0.27416  -0.40655   0.09181
  28   31247.2    320.0   0.068589324   0.72264   0.27399   0.52904  -0.60637
  29   31673.2    315.7   0.159472172   1.65756  -0.01346   0.06932  -1.28552
  30   31800.2    314.5   0.062282756   0.64478   0.07125   0.45211   0.65978
  31   31906.6    313.4   0.861707822   8.89110   1.77717   2.39431  -0.00729
  32   32142.9    311.1   0.119012575   1.21894   0.55008   0.83149   0.47432
  33   32392.5    308.7   0.007434467   0.07556  -0.18474  -0.18010  -0.09484
  34   32829.3    304.6   0.168149476   1.68620  -0.60974  -0.96518  -0.61875
  35   33077.4    302.3   0.004347063   0.04327   0.13536  -0.01519  -0.15720
  36   33805.4    295.8   0.018804144   0.18312   0.15524   0.35733  -0.17703
  37   34037.3    293.8   0.029461088   0.28495   0.33679   0.28904  -0.29661
  38   34209.3    292.3   0.005617790   0.05406  -0.08290  -0.16105  -0.14579
  39   34348.3    291.1   0.050186377   0.48101   0.50730   0.33872   0.33004
  40   34616.0    288.9   0.044035618   0.41880  -0.28270  -0.56870   0.12432
  41   34698.3    288.2   0.078529342   0.74507   0.25861  -0.15264   0.80926
  42   35061.9    285.2   0.280714176   2.63575   0.54687  -0.21193   1.51386
  43   35200.3    284.1   0.046941271   0.43902   0.09820   0.45249  -0.47395
  44   35797.7    279.3   0.039777887   0.36582   0.04545  -0.18471   0.57414
  45   35944.0    278.2   0.262940221   2.40828   0.08784   1.13603  -1.05356
  46   36100.7    277.0   0.021308567   0.19432  -0.00637   0.17208  -0.40579
  47   36231.8    276.0   0.006458879   0.05869   0.14308   0.10209   0.16671
  48   36662.4    272.8   0.043255360   0.38841  -0.30861  -0.39502   0.37032
  49   36823.2    271.6   0.008830351   0.07895  -0.17413  -0.19372  -0.10534
  50   36988.9    270.4   0.086517147   0.77003   0.33542   0.47187   0.65944
  51   37822.8    264.4   0.128735707   1.12052   0.34526  -0.12138   0.99327
  52   38002.2    263.1   0.006645257   0.05757   0.06996  -0.00918   0.22932
  53   38406.8    260.4   0.002487588   0.02132  -0.11159  -0.06049   0.07219
  54   38476.6    259.9   0.011896809   0.10179  -0.08195   0.30207  -0.06187
  55   38583.5    259.2   0.006610084   0.05640   0.14187   0.19028  -0.00809
  56   38654.2    258.7   0.013325289   0.11349  -0.32577  -0.06231  -0.05903
  57   38898.6    257.1   0.047705958   0.40375   0.17092   0.00138  -0.61199
  58   39267.5    254.7   0.137921521   1.15631  -0.14645   0.03365  -1.06477
  59   39857.8    250.9   0.214208637   1.76929  -0.46503   0.04961  -1.24522
  60   40044.4    249.7   0.038624876   0.31754  -0.12430   0.02617  -0.54900
  61   40273.7    248.3   0.119557116   0.97730  -0.45893  -0.87561   0.00223

FINAL SINGLE POINT ENERGY     -4163.191764038809

DIPOLE MOMENT
-------------
                                X             Y             Z
Electronic contribution:      2.01984      22.07745      30.27196
Nuclear contribution   :     -1.74155     -22.82988     -33.11441
                        -----------------------------------------
Total Dipole Moment    :      0.27829      -0.75243      -2.84245
                        -----------------------------------------
Magnitude (a.u.)       :      2.95350
Magnitude (Debye)      :      7.50719

Rotational constants in cm-1:     0.001376     0.000144     0.000133
Rotational constants in MHz :    41.265943     4.304789     3.977877

                             ****ORCA TERMINATED NORMALLY****
TOTAL RUN TIME: 0 days 0 hours 14 minutes 42 seconds 939 msec
