                         Program Version 4.2.0 -  RELEASE  -
|  1> # ORCA input file
|  2> # SCF done       -204.382849321762          0.002359400879
|  3> ! CAM-B3LYP def2-SVP def2/J RIJCOSX Grid4 TightSCF
|  4> %maxcore 5000
|  5> %tddft
|  6>     Mode sTDDFT
|  7>     Ethresh 5.0
|  8>     maxcore 5000
|  9> end
| 10>
| 11> %pal
| 12>   nprocs 6
| 13>   end
| 14> * xyz 0 1
| 15>    C       -5.99456        -0.85178         6.80547
| 16>    C       -5.08069         0.19004         6.75922
| 17>    C       -4.55738         0.63212         5.55165
| 18>    C       -4.93743         0.04794         4.35324
| 19>    C       -5.84983        -0.99439         4.38617
| 20>    C       -6.37989        -1.45062         5.61561
| 21>    C       -7.29934        -2.54896         5.35738
| 22>    C       -8.12285        -3.14615         6.26701
| 23>    C       -8.18770        -2.78431         7.63175
| 24>    N       -8.28741        -2.53990         8.74809
| 25>    C       -9.05231        -4.17042         5.97642
| 26>    N       -9.83161        -4.99610         5.81019
| 27>    C       -7.17001        -2.87504         3.93220
| 28>    C       -6.45587        -1.75901         3.31090
| 29>    C       -6.53444        -1.38232         1.99923
| 30>    C       -7.39353        -1.98964         1.05758
| 31>    N       -8.11183        -2.42728         0.27697
| 32>    C       -5.81254        -0.30460         1.44355
| 33>    N       -5.21785         0.53000         0.92831
| 34>    C       -7.53125        -4.06165         3.38261
| 35>    C       -7.15509        -4.59635         2.09930
| 36>    C       -7.99047        -5.41167         1.40796
| 37>    C       -7.73056        -5.92046         0.10220
| 38>    C       -8.63191        -6.79503        -0.49728
| 39>    C       -8.38257        -7.34206        -1.76536
| 40>    N       -8.14939        -7.79430        -2.79621
| 41>    C       -9.80812        -7.22233         0.13765
| 42>    N      -10.76965        -7.57746         0.65673
| 43>    C       -6.56899        -5.50597        -0.61301
| 44>    C       -5.53792        -4.78055        -0.11814
| 45>    S       -5.52473        -4.23747         1.55066
| 46>    C       -4.36359        -4.41028        -0.89122
| 47>    C       -3.98761        -5.15452        -1.98737
| 48>    C       -2.84234        -4.80350        -2.72649
| 49>    C       -2.25934        -5.37211        -3.85456
| 50>    C       -2.73922        -6.44304        -4.76719
| 51>    C       -3.41005        -7.63882        -4.07235
| 52>    N       -3.17797        -8.83650        -4.86213
| 53>    C       -3.69032        -5.82122        -5.82575
| 54>    N       -3.01794        -4.76980        -6.56530
| 55>    C       -1.09591        -4.57128        -4.16098
| 56>    C       -0.18462        -4.69391        -5.14425
| 57>    C        0.84483        -3.63974        -5.36456
| 58>    C        0.93590        -2.61241        -4.27919
| 59>    C        0.05259        -2.54772        -3.26476
| 60>    C       -1.00061        -3.48917        -3.17671
| 61>    C       -2.05963        -3.64736        -2.30223
| 62>    C       -2.47129        -2.90222        -1.17609
| 63>    C       -3.58532        -3.27581        -0.49695
| 64>    C        0.36684        -2.96269        -6.62617
| 65>    C        1.05927        -2.87085        -7.75848
| 66>    C        0.50298        -2.25972        -8.95239
| 67>    C       -0.80211        -2.35419        -9.28682
| 68>    C       -1.41289        -1.75420       -10.43004
| 69>    C       -2.75335        -2.00313       -10.70212
| 70>    C       -3.42121        -1.43806       -11.80088
| 71>    N       -3.96968        -0.98249       -12.70116
| 72>    C       -3.51475        -2.85172        -9.88629
| 73>    N       -4.12366        -3.54974        -9.20449
| 74>    C       -0.66318        -0.86852       -11.25690
| 75>    C        0.64794        -0.55951       -11.08570
| 76>    S        1.67202        -1.39908        -9.92733
| 77>    C        1.29337         0.42739       -11.91103
| 78>    C        2.28268         1.28913       -11.56060
| 79>    C        3.10933         2.03161       -12.51814
| 80>    C        2.81838         2.29723       -13.82560
| 81>    C        1.62660         1.92947       -14.48911
| 82>    N        0.68385         1.66869       -15.08881
| 83>    C        3.66583         3.02593       -14.69028
| 84>    N        4.30551         3.61014       -15.44224
| 85>    C        4.30469         2.44871       -11.80003
| 86>    C        4.14678         2.14306       -10.42832
| 87>    C        5.15293         2.43015        -9.52024
| 88>    C        6.31535         3.02499        -9.98688
| 89>    C        6.46956         3.33262       -11.33151
| 90>    C        5.47011         3.04929       -12.25052
| 91>    C        2.82675         1.56936       -10.23202
| 92>    C        2.14466         1.52341        -9.04710
| 93>    C        2.71979         1.81699        -7.79221
| 94>    N        3.13220         2.00735        -6.73801
| 95>    C        0.76710         1.24350        -8.92729
| 96>    N       -0.35601         1.05813        -8.77698
| 97>    H       -6.38648        -1.18449         7.75234
| 98>    H       -4.77153         0.66165         7.67925
| 99>    H       -3.84405         1.44181         5.54308
|100>    H       -4.52045         0.39503         3.42181
|101>    H       -8.13995        -4.72968         3.97814
|102>    H       -8.95580        -5.63636         1.84415
|103>    H       -6.53267        -5.78723        -1.65631
|104>    H       -4.54754        -6.03029        -2.26907
|105>    H       -1.87679        -6.84212        -5.30827
|106>    H       -4.48093        -7.43141        -3.91509
|107>    H       -2.94099        -7.79851        -3.09753
|108>    H       -3.65264        -8.76769        -5.75601
|109>    H       -3.54639        -9.65117        -4.38446
|110>    H       -4.60013        -5.47678        -5.30896
|111>    H       -3.97272        -6.60106        -6.53586
|112>    H       -2.98564        -3.92009        -6.01079
|113>    H       -3.52156        -4.55974        -7.42312
|114>    H       -0.22284        -5.49487        -5.86718
|115>    H        1.82738        -4.08709        -5.55136
|116>    H        1.73158        -1.89071        -4.37893
|117>    H        0.13787        -1.78117        -2.50880
|118>    H       -1.90167        -2.03876        -0.86795
|119>    H       -3.91236        -2.69784         0.35513
|120>    H       -0.62741        -2.54568        -6.55778
|121>    H        2.08292        -3.21543        -7.82342
|122>    H       -1.43943        -2.94594        -8.64362
|123>    H       -1.20382        -0.34221       -12.03378
|124>    H        0.95333         0.43786       -12.93819
|125>    H        5.04657         2.18950        -8.47501
|126>    H        7.10996         3.25043        -9.29243
|127>    H        7.38187         3.79776       -11.67155
|128>    H        5.61008         3.29066       -13.29116
|129> *
|130>
|131>                          ****END OF INPUT****

CARTESIAN COORDINATES (ANGSTROEM)
---------------------------------
  C     -5.994560   -0.851780    6.805470
  C     -5.080690    0.190040    6.759220
  C     -4.557380    0.632120    5.551650
  C     -4.937430    0.047940    4.353240
  C     -5.849830   -0.994390    4.386170
  C     -6.379890   -1.450620    5.615610
  C     -7.299340   -2.548960    5.357380
  C     -8.122850   -3.146150    6.267010
  C     -8.187700   -2.784310    7.631750
  N     -8.287410   -2.539900    8.748090
  C     -9.052310   -4.170420    5.976420
  N     -9.831610   -4.996100    5.810190
  C     -7.170010   -2.875040    3.932200
  C     -6.455870   -1.759010    3.310900
  C     -6.534440   -1.382320    1.999230
  C     -7.393530   -1.989640    1.057580
  N     -8.111830   -2.427280    0.276970
  C     -5.812540   -0.304600    1.443550
  N     -5.217850    0.530000    0.928310
  C     -7.531250   -4.061650    3.382610
  C     -7.155090   -4.596350    2.099300
  C     -7.990470   -5.411670    1.407960
  C     -7.730560   -5.920460    0.102200
  C     -8.631910   -6.795030   -0.497280
  C     -8.382570   -7.342060   -1.765360
  N     -8.149390   -7.794300   -2.796210
  C     -9.808120   -7.222330    0.137650
  N    -10.769650   -7.577460    0.656730
  C     -6.568990   -5.505970   -0.613010
  C     -5.537920   -4.780550   -0.118140
  S     -5.524730   -4.237470    1.550660
  C     -4.363590   -4.410280   -0.891220
  C     -3.987610   -5.154520   -1.987370
  C     -2.842340   -4.803500   -2.726490
  C     -2.259340   -5.372110   -3.854560
  C     -2.739220   -6.443040   -4.767190
  C     -3.410050   -7.638820   -4.072350
  N     -3.177970   -8.836500   -4.862130
  C     -3.690320   -5.821220   -5.825750
  N     -3.017940   -4.769800   -6.565300
  C     -1.095910   -4.571280   -4.160980
  C     -0.184620   -4.693910   -5.144250
  C      0.844830   -3.639740   -5.364560
  C      0.935900   -2.612410   -4.279190
  C      0.052590   -2.547720   -3.264760
  C     -1.000610   -3.489170   -3.176710
  C     -2.059630   -3.647360   -2.302230
  C     -2.471290   -2.902220   -1.176090
  C     -3.585320   -3.275810   -0.496950
  C      0.366840   -2.962690   -6.626170
  C      1.059270   -2.870850   -7.758480
  C      0.502980   -2.259720   -8.952390
  C     -0.802110   -2.354190   -9.286820
  C     -1.412890   -1.754200  -10.430040
  C     -2.753350   -2.003130  -10.702120
  C     -3.421210   -1.438060  -11.800880
  N     -3.969680   -0.982490  -12.701160
  C     -3.514750   -2.851720   -9.886290
  N     -4.123660   -3.549740   -9.204490
  C     -0.663180   -0.868520  -11.256900
  C      0.647940   -0.559510  -11.085700
  S      1.672020   -1.399080   -9.927330
  C      1.293370    0.427390  -11.911030
  C      2.282680    1.289130  -11.560600
  C      3.109330    2.031610  -12.518140
  C      2.818380    2.297230  -13.825600
  C      1.626600    1.929470  -14.489110
  N      0.683850    1.668690  -15.088810
  C      3.665830    3.025930  -14.690280
  N      4.305510    3.610140  -15.442240
  C      4.304690    2.448710  -11.800030
  C      4.146780    2.143060  -10.428320
  C      5.152930    2.430150   -9.520240
  C      6.315350    3.024990   -9.986880
  C      6.469560    3.332620  -11.331510
  C      5.470110    3.049290  -12.250520
  C      2.826750    1.569360  -10.232020
  C      2.144660    1.523410   -9.047100
  C      2.719790    1.816990   -7.792210
  N      3.132200    2.007350   -6.738010
  C      0.767100    1.243500   -8.927290
  N     -0.356010    1.058130   -8.776980
  H     -6.386480   -1.184490    7.752340
  H     -4.771530    0.661650    7.679250
  H     -3.844050    1.441810    5.543080
  H     -4.520450    0.395030    3.421810
  H     -8.139950   -4.729680    3.978140
  H     -8.955800   -5.636360    1.844150
  H     -6.532670   -5.787230   -1.656310
  H     -4.547540   -6.030290   -2.269070
  H     -1.876790   -6.842120   -5.308270
  H     -4.480930   -7.431410   -3.915090
  H     -2.940990   -7.798510   -3.097530
  H     -3.652640   -8.767690   -5.756010
  H     -3.546390   -9.651170   -4.384460
  H     -4.600130   -5.476780   -5.308960
  H     -3.972720   -6.601060   -6.535860
  H     -2.985640   -3.920090   -6.010790
  H     -3.521560   -4.559740   -7.423120
  H     -0.222840   -5.494870   -5.867180
  H      1.827380   -4.087090   -5.551360
  H      1.731580   -1.890710   -4.378930
  H      0.137870   -1.781170   -2.508800
  H     -1.901670   -2.038760   -0.867950
  H     -3.912360   -2.697840    0.355130
  H     -0.627410   -2.545680   -6.557780
  H      2.082920   -3.215430   -7.823420
  H     -1.439430   -2.945940   -8.643620
  H     -1.203820   -0.342210  -12.033780
  H      0.953330    0.437860  -12.938190
  H      5.046570    2.189500   -8.475010
  H      7.109960    3.250430   -9.292430
  H      7.381870    3.797760  -11.671550
  H      5.610080    3.290660  -13.291160

 Total Charge           Charge          ....    0
 Multiplicity           Mult            ....    1
 Number of Electrons    NEL             ....  558
 Basis Dimension        Dim             .... 1316

ORBITAL ENERGIES
----------------

  NO   OCC          E(Eh)            E(eV)
   0   2.0000     -88.999743     -2421.8061
   1   2.0000     -88.985291     -2421.4129
   2   2.0000     -14.446429      -393.1073
   3   2.0000     -14.445314      -393.0770
   4   2.0000     -14.444572      -393.0568
   5   2.0000     -14.442775      -393.0079
   6   2.0000     -14.438475      -392.8909
   7   2.0000     -14.437011      -392.8511
   8   2.0000     -14.435455      -392.8087
   9   2.0000     -14.434085      -392.7714
  10   2.0000     -14.422253      -392.4495
  11   2.0000     -14.412949      -392.1963
  12   2.0000     -14.403924      -391.9507
  13   2.0000     -14.400803      -391.8658
  14   2.0000     -14.376780      -391.2121
  15   2.0000     -14.376533      -391.2054
  16   2.0000     -10.379976      -282.4535
  17   2.0000     -10.378624      -282.4167
  18   2.0000     -10.373585      -282.2796
  19   2.0000     -10.371934      -282.2347
  20   2.0000     -10.370768      -282.2029
  21   2.0000     -10.370138      -282.1858
  22   2.0000     -10.369136      -282.1585
  23   2.0000     -10.365373      -282.0561
  24   2.0000     -10.362237      -281.9708
  25   2.0000     -10.358338      -281.8647
  26   2.0000     -10.356847      -281.8241
  27   2.0000     -10.356144      -281.8050
  28   2.0000     -10.355268      -281.7812
  29   2.0000     -10.350649      -281.6555
  30   2.0000     -10.347262      -281.5633
  31   2.0000     -10.346725      -281.5487
  32   2.0000     -10.345713      -281.5212
  33   2.0000     -10.345516      -281.5158
  34   2.0000     -10.345498      -281.5153
  35   2.0000     -10.345345      -281.5111
  36   2.0000     -10.343801      -281.4691
  37   2.0000     -10.341001      -281.3929
  38   2.0000     -10.339256      -281.3455
  39   2.0000     -10.337646      -281.3016
  40   2.0000     -10.336822      -281.2792
  41   2.0000     -10.336505      -281.2706
  42   2.0000     -10.336466      -281.2695
  43   2.0000     -10.336041      -281.2580
  44   2.0000     -10.334785      -281.2238
  45   2.0000     -10.334062      -281.2041
  46   2.0000     -10.328646      -281.0567
  47   2.0000     -10.328281      -281.0468
  48   2.0000     -10.326595      -281.0009
  49   2.0000     -10.326237      -280.9912
  50   2.0000     -10.322555      -280.8910
  51   2.0000     -10.322470      -280.8887
  52   2.0000     -10.322320      -280.8846
  53   2.0000     -10.320950      -280.8473
  54   2.0000     -10.319828      -280.8168
  55   2.0000     -10.318566      -280.7825
  56   2.0000     -10.315768      -280.7063
  57   2.0000     -10.315033      -280.6863
  58   2.0000     -10.315009      -280.6857
  59   2.0000     -10.314915      -280.6831
  60   2.0000     -10.314619      -280.6750
  61   2.0000     -10.313863      -280.6545
  62   2.0000     -10.312568      -280.6192
  63   2.0000     -10.312158      -280.6081
  64   2.0000     -10.311259      -280.5836
  65   2.0000     -10.306546      -280.4554
  66   2.0000     -10.303293      -280.3669
  67   2.0000     -10.300635      -280.2945
  68   2.0000     -10.299892      -280.2743
  69   2.0000     -10.290867      -280.0287
  70   2.0000     -10.284998      -279.8690
  71   2.0000     -10.284829      -279.8644
  72   2.0000     -10.282762      -279.8082
  73   2.0000     -10.282341      -279.7967
  74   2.0000     -10.282258      -279.7945
  75   2.0000     -10.282023      -279.7881
  76   2.0000     -10.281636      -279.7775
  77   2.0000     -10.277025      -279.6521
  78   2.0000     -10.275405      -279.6080
  79   2.0000     -10.274375      -279.5800
  80   2.0000     -10.271827      -279.5106
  81   2.0000     -10.264935      -279.3231
  82   2.0000      -8.094865      -220.2725
  83   2.0000      -8.080132      -219.8716
  84   2.0000      -6.064723      -165.0295
  85   2.0000      -6.060157      -164.9052
  86   2.0000      -6.056113      -164.7952
  87   2.0000      -6.050006      -164.6290
  88   2.0000      -6.045428      -164.5045
  89   2.0000      -6.041366      -164.3939
  90   2.0000      -1.062862       -28.9219
  91   2.0000      -1.054025       -28.6815
  92   2.0000      -1.042280       -28.3619
  93   2.0000      -1.033688       -28.1281
  94   2.0000      -1.031329       -28.0639
  95   2.0000      -1.028686       -27.9920
  96   2.0000      -1.022883       -27.8341
  97   2.0000      -1.021619       -27.7997
  98   2.0000      -1.021208       -27.7885
  99   2.0000      -1.017817       -27.6962
 100   2.0000      -1.013883       -27.5892
 101   2.0000      -1.010275       -27.4910
 102   2.0000      -1.009086       -27.4586
 103   2.0000      -0.997571       -27.1453
 104   2.0000      -0.994894       -27.0724
 105   2.0000      -0.993408       -27.0320
 106   2.0000      -0.983429       -26.7605
 107   2.0000      -0.980599       -26.6835
 108   2.0000      -0.975220       -26.5371
 109   2.0000      -0.967628       -26.3305
 110   2.0000      -0.965817       -26.2812
 111   2.0000      -0.964766       -26.2526
 112   2.0000      -0.957318       -26.0500
 113   2.0000      -0.952205       -25.9108
 114   2.0000      -0.950170       -25.8554
 115   2.0000      -0.949775       -25.8447
 116   2.0000      -0.938169       -25.5289
 117   2.0000      -0.935221       -25.4487
 118   2.0000      -0.919785       -25.0286
 119   2.0000      -0.912071       -24.8187
 120   2.0000      -0.905494       -24.6398
 121   2.0000      -0.894609       -24.3435
 122   2.0000      -0.888543       -24.1785
 123   2.0000      -0.883648       -24.0453
 124   2.0000      -0.880978       -23.9726
 125   2.0000      -0.878508       -23.9054
 126   2.0000      -0.865766       -23.5587
 127   2.0000      -0.858610       -23.3640
 128   2.0000      -0.854523       -23.2528
 129   2.0000      -0.846738       -23.0409
 130   2.0000      -0.835608       -22.7381
 131   2.0000      -0.824678       -22.4406
 132   2.0000      -0.817254       -22.2386
 133   2.0000      -0.816357       -22.2142
 134   2.0000      -0.810593       -22.0574
 135   2.0000      -0.807559       -21.9748
 136   2.0000      -0.773012       -21.0347
 137   2.0000      -0.769500       -20.9391
 138   2.0000      -0.765180       -20.8216
 139   2.0000      -0.753443       -20.5022
 140   2.0000      -0.748413       -20.3653
 141   2.0000      -0.740410       -20.1476
 142   2.0000      -0.737004       -20.0549
 143   2.0000      -0.732032       -19.9196
 144   2.0000      -0.731225       -19.8976
 145   2.0000      -0.722934       -19.6720
 146   2.0000      -0.721296       -19.6275
 147   2.0000      -0.715998       -19.4833
 148   2.0000      -0.701528       -19.0896
 149   2.0000      -0.697502       -18.9800
 150   2.0000      -0.690159       -18.7802
 151   2.0000      -0.689367       -18.7586
 152   2.0000      -0.686126       -18.6704
 153   2.0000      -0.682708       -18.5774
 154   2.0000      -0.681576       -18.5466
 155   2.0000      -0.680242       -18.5103
 156   2.0000      -0.674476       -18.3534
 157   2.0000      -0.666122       -18.1261
 158   2.0000      -0.655930       -17.8488
 159   2.0000      -0.655175       -17.8282
 160   2.0000      -0.653604       -17.7855
 161   2.0000      -0.640932       -17.4406
 162   2.0000      -0.638695       -17.3798
 163   2.0000      -0.621729       -16.9181
 164   2.0000      -0.615341       -16.7443
 165   2.0000      -0.611148       -16.6302
 166   2.0000      -0.610062       -16.6006
 167   2.0000      -0.604520       -16.4498
 168   2.0000      -0.603541       -16.4232
 169   2.0000      -0.602212       -16.3870
 170   2.0000      -0.596909       -16.2427
 171   2.0000      -0.591357       -16.0917
 172   2.0000      -0.589299       -16.0356
 173   2.0000      -0.588935       -16.0257
 174   2.0000      -0.581088       -15.8122
 175   2.0000      -0.577224       -15.7071
 176   2.0000      -0.569705       -15.5025
 177   2.0000      -0.569183       -15.4882
 178   2.0000      -0.566333       -15.4107
 179   2.0000      -0.564202       -15.3527
 180   2.0000      -0.562210       -15.2985
 181   2.0000      -0.561187       -15.2707
 182   2.0000      -0.560581       -15.2542
 183   2.0000      -0.557169       -15.1613
 184   2.0000      -0.555874       -15.1261
 185   2.0000      -0.551824       -15.0159
 186   2.0000      -0.551250       -15.0003
 187   2.0000      -0.545700       -14.8493
 188   2.0000      -0.542387       -14.7591
 189   2.0000      -0.534971       -14.5573
 190   2.0000      -0.533312       -14.5122
 191   2.0000      -0.532711       -14.4958
 192   2.0000      -0.531938       -14.4748
 193   2.0000      -0.530280       -14.4297
 194   2.0000      -0.526977       -14.3398
 195   2.0000      -0.523953       -14.2575
 196   2.0000      -0.522598       -14.2206
 197   2.0000      -0.515886       -14.0380
 198   2.0000      -0.513657       -13.9773
 199   2.0000      -0.512130       -13.9358
 200   2.0000      -0.509182       -13.8555
 201   2.0000      -0.507657       -13.8141
 202   2.0000      -0.506942       -13.7946
 203   2.0000      -0.498134       -13.5549
 204   2.0000      -0.496410       -13.5080
 205   2.0000      -0.494438       -13.4543
 206   2.0000      -0.489271       -13.3137
 207   2.0000      -0.485867       -13.2211
 208   2.0000      -0.483979       -13.1697
 209   2.0000      -0.483640       -13.1605
 210   2.0000      -0.478718       -13.0266
 211   2.0000      -0.477007       -12.9800
 212   2.0000      -0.476826       -12.9751
 213   2.0000      -0.475701       -12.9445
 214   2.0000      -0.475580       -12.9412
 215   2.0000      -0.473502       -12.8847
 216   2.0000      -0.472005       -12.8439
 217   2.0000      -0.470257       -12.7963
 218   2.0000      -0.468607       -12.7514
 219   2.0000      -0.467786       -12.7291
 220   2.0000      -0.467004       -12.7078
 221   2.0000      -0.466465       -12.6931
 222   2.0000      -0.465232       -12.6596
 223   2.0000      -0.463533       -12.6134
 224   2.0000      -0.461504       -12.5582
 225   2.0000      -0.460556       -12.5324
 226   2.0000      -0.459734       -12.5100
 227   2.0000      -0.456889       -12.4326
 228   2.0000      -0.456050       -12.4097
 229   2.0000      -0.453084       -12.3290
 230   2.0000      -0.452488       -12.3128
 231   2.0000      -0.451145       -12.2763
 232   2.0000      -0.449245       -12.2246
 233   2.0000      -0.448621       -12.2076
 234   2.0000      -0.447963       -12.1897
 235   2.0000      -0.445778       -12.1302
 236   2.0000      -0.444489       -12.0952
 237   2.0000      -0.443643       -12.0721
 238   2.0000      -0.441985       -12.0270
 239   2.0000      -0.440441       -11.9850
 240   2.0000      -0.439015       -11.9462
 241   2.0000      -0.438524       -11.9328
 242   2.0000      -0.435442       -11.8490
 243   2.0000      -0.434310       -11.8182
 244   2.0000      -0.432081       -11.7575
 245   2.0000      -0.431322       -11.7369
 246   2.0000      -0.430513       -11.7149
 247   2.0000      -0.430357       -11.7106
 248   2.0000      -0.427172       -11.6239
 249   2.0000      -0.423755       -11.5309
 250   2.0000      -0.420636       -11.4461
 251   2.0000      -0.419534       -11.4161
 252   2.0000      -0.416943       -11.3456
 253   2.0000      -0.416025       -11.3206
 254   2.0000      -0.414827       -11.2880
 255   2.0000      -0.412026       -11.2118
 256   2.0000      -0.409266       -11.1367
 257   2.0000      -0.403375       -10.9764
 258   2.0000      -0.401631       -10.9289
 259   2.0000      -0.401076       -10.9138
 260   2.0000      -0.399779       -10.8785
 261   2.0000      -0.395010       -10.7488
 262   2.0000      -0.393832       -10.7167
 263   2.0000      -0.384567       -10.4646
 264   2.0000      -0.379922       -10.3382
 265   2.0000      -0.371492       -10.1088
 266   2.0000      -0.359272        -9.7763
 267   2.0000      -0.356558        -9.7024
 268   2.0000      -0.352480        -9.5915
 269   2.0000      -0.348694        -9.4884
 270   2.0000      -0.335961        -9.1420
 271   2.0000      -0.326304        -8.8792
 272   2.0000      -0.320824        -8.7301
 273   2.0000      -0.315430        -8.5833
 274   2.0000      -0.304122        -8.2756
 275   2.0000      -0.298497        -8.1225
 276   2.0000      -0.290494        -7.9047
 277   2.0000      -0.276856        -7.5336
 278   2.0000      -0.233693        -6.3591
 279   0.0000      -0.129850        -3.5334
 280   0.0000      -0.119734        -3.2581
 281   0.0000      -0.110413        -3.0045
 282   0.0000      -0.102170        -2.7802
 283   0.0000      -0.088049        -2.3959

MULLIKEN ATOMIC CHARGES
-----------------------
   0 C :   -0.027787
   1 C :    0.048757
   2 C :    0.046366
   3 C :   -0.031397
   4 C :    0.018444
   5 C :    0.013274
   6 C :    0.277882
   7 C :   -0.321513
   8 C :   -0.186090
   9 N :    0.172968
  10 C :   -0.190734
  11 N :    0.176741
  12 C :   -0.042839
  13 C :    0.226557
  14 C :   -0.320623
  15 C :   -0.178177
  16 N :    0.193865
  17 C :   -0.190180
  18 N :    0.177619
  19 C :    0.037553
  20 C :   -0.098257
  21 C :   -0.022808
  22 C :    0.279137
  23 C :   -0.335217
  24 C :   -0.165105
  25 N :    0.125543
  26 C :   -0.171916
  27 N :    0.143502
  28 C :   -0.086602
  29 C :   -0.010232
  30 S :    0.118792
  31 C :    0.125853
  32 C :   -0.078077
  33 C :    0.027139
  34 C :   -0.053276
  35 C :   -0.002152
  36 C :    0.090689
  37 N :   -0.203081
  38 C :    0.138541
  39 N :   -0.251126
  40 C :    0.065905
  41 C :   -0.082458
  42 C :    0.096669
  43 C :   -0.038250
  44 C :    0.027341
  45 C :    0.015369
  46 C :    0.039867
  47 C :    0.000163
  48 C :   -0.027001
  49 C :    0.010729
  50 C :    0.029818
  51 C :   -0.044929
  52 C :   -0.054859
  53 C :    0.275526
  54 C :   -0.335552
  55 C :   -0.170196
  56 N :    0.151543
  57 C :   -0.121933
  58 N :    0.111147
  59 C :   -0.019333
  60 C :   -0.108691
  61 S :    0.141964
  62 C :    0.038498
  63 C :   -0.041547
  64 C :    0.278427
  65 C :   -0.324172
  66 C :   -0.188988
  67 N :    0.181785
  68 C :   -0.185108
  69 N :    0.175925
  70 C :    0.013923
  71 C :    0.017096
  72 C :   -0.035578
  73 C :    0.051166
  74 C :    0.051593
  75 C :   -0.031130
  76 C :    0.226999
  77 C :   -0.315386
  78 C :   -0.186998
  79 N :    0.175831
  80 C :   -0.180768
  81 N :    0.189360
  82 H :    0.009566
  83 H :    0.009160
  84 H :    0.010972
  85 H :    0.007298
  86 H :    0.047014
  87 H :    0.038841
  88 H :    0.026055
  89 H :   -0.033558
  90 H :   -0.015260
  91 H :    0.015797
  92 H :    0.000855
  93 H :    0.089115
  94 H :    0.095097
  95 H :   -0.006624
  96 H :   -0.004566
  97 H :    0.104404
  98 H :    0.111918
  99 H :    0.013334
 100 H :    0.021007
 101 H :   -0.003104
 102 H :   -0.027993
 103 H :   -0.030387
 104 H :   -0.019153
 105 H :    0.032496
 106 H :    0.007933
 107 H :    0.018357
 108 H :    0.041487
 109 H :    0.049701
 110 H :    0.010574
 111 H :    0.011916
 112 H :    0.010920
 113 H :    0.011027
Sum of atomic charges:   -0.0000000

LOEWDIN ATOMIC CHARGES
----------------------
   0 C :    0.008309
   1 C :    0.005589
   2 C :    0.009328
   3 C :    0.002235
   4 C :   -0.008629
   5 C :   -0.014281
   6 C :    0.075388
   7 C :   -0.116012
   8 C :   -0.018418
   9 N :   -0.032030
  10 C :   -0.025258
  11 N :   -0.025121
  12 C :   -0.031295
  13 C :    0.054400
  14 C :   -0.121566
  15 C :   -0.034688
  16 N :   -0.029983
  17 C :   -0.019599
  18 N :   -0.032320
  19 C :    0.037010
  20 C :   -0.145644
  21 C :    0.016380
  22 C :    0.046250
  23 C :   -0.152202
  24 C :   -0.024093
  25 N :   -0.066051
  26 C :   -0.032703
  27 N :   -0.055921
  28 C :   -0.040732
  29 C :   -0.099224
  30 S :    0.455432
  31 C :   -0.059033
  32 C :    0.020402
  33 C :   -0.030429
  34 C :   -0.011455
  35 C :   -0.042509
  36 C :    0.023981
  37 N :   -0.116016
  38 C :    0.036309
  39 N :   -0.123168
  40 C :   -0.023105
  41 C :    0.093811
  42 C :   -0.026300
  43 C :   -0.037572
  44 C :   -0.007916
  45 C :   -0.045419
  46 C :   -0.027329
  47 C :    0.000076
  48 C :   -0.044926
  49 C :    0.052950
  50 C :   -0.068843
  51 C :   -0.113377
  52 C :   -0.036467
  53 C :    0.051215
  54 C :   -0.149552
  55 C :   -0.032773
  56 N :   -0.047352
  57 C :   -0.000205
  58 N :   -0.059985
  59 C :    0.012970
  60 C :   -0.140477
  61 S :    0.449121
  62 C :    0.034456
  63 C :   -0.027305
  64 C :    0.073889
  65 C :   -0.113429
  66 C :   -0.025403
  67 N :   -0.022800
  68 C :   -0.018537
  69 N :   -0.028437
  70 C :   -0.014111
  71 C :   -0.009379
  72 C :    0.002858
  73 C :    0.010787
  74 C :    0.007809
  75 C :    0.008938
  76 C :    0.054848
  77 C :   -0.119595
  78 C :   -0.018174
  79 N :   -0.031762
  80 C :   -0.032662
  81 N :   -0.033099
  82 H :    0.042774
  83 H :    0.039854
  84 H :    0.039989
  85 H :    0.041555
  86 H :    0.056460
  87 H :    0.054763
  88 H :    0.046601
  89 H :    0.029438
  90 H :    0.028497
  91 H :    0.003423
  92 H :    0.018987
  93 H :    0.050917
  94 H :    0.057506
  95 H :    0.004615
  96 H :    0.017128
  97 H :    0.051075
  98 H :    0.046271
  99 H :    0.036495
 100 H :    0.049156
 101 H :    0.027312
 102 H :    0.032661
 103 H :    0.030986
 104 H :    0.015831
 105 H :    0.038838
 106 H :    0.031165
 107 H :    0.047388
 108 H :    0.055796
 109 H :    0.057267
 110 H :    0.042290
 111 H :    0.040808
 112 H :    0.040763
 113 H :    0.043322

  Mayer bond orders larger than 0.100000
B(  0-C ,  1-C ) :   1.3764 B(  0-C ,  5-C ) :   1.3757 B(  0-C , 82-H ) :   0.9849
B(  1-C ,  2-C ) :   1.3703 B(  1-C , 83-H ) :   0.9867 B(  2-C ,  3-C ) :   1.3696
B(  2-C , 84-H ) :   0.9875 B(  3-C ,  4-C ) :   1.3777 B(  3-C , 85-H ) :   0.9877
B(  4-C ,  5-C ) :   1.3026 B(  4-C , 13-C ) :   1.0235 B(  5-C ,  6-C ) :   1.0120
B(  6-C ,  7-C ) :   1.6758 B(  6-C , 12-C ) :   1.0168 B(  7-C ,  8-C ) :   1.1419
B(  7-C , 10-C ) :   1.1280 B(  8-C ,  9-N ) :   2.9820 B( 10-C , 11-N ) :   2.9866
B( 12-C , 13-C ) :   0.9920 B( 12-C , 19-C ) :   1.7036 B( 13-C , 14-C ) :   1.6722
B( 14-C , 15-C ) :   1.1485 B( 14-C , 17-C ) :   1.1468 B( 15-C , 16-N ) :   3.0002
B( 17-C , 18-N ) :   2.9838 B( 19-C , 20-C ) :   1.0524 B( 19-C , 86-H ) :   0.9353
B( 20-C , 21-C ) :   1.5981 B( 20-C , 30-S ) :   1.0662 B( 21-C , 22-C ) :   1.0981
B( 21-C , 87-H ) :   0.9784 B( 22-C , 23-C ) :   1.5287 B( 22-C , 28-C ) :   1.1257
B( 23-C , 24-C ) :   1.1386 B( 23-C , 26-C ) :   1.1313 B( 24-C , 25-N ) :   2.9899
B( 26-C , 27-N ) :   3.0009 B( 28-C , 29-C ) :   1.6254 B( 28-C , 88-H ) :   0.9606
B( 29-C , 30-S ) :   1.0492 B( 29-C , 31-C ) :   1.0305 B( 31-C , 32-C ) :   1.5153
B( 31-C , 48-C ) :   1.1165 B( 32-C , 33-C ) :   1.1610 B( 32-C , 89-H ) :   0.9850
B( 33-C , 34-C ) :   1.4340 B( 33-C , 46-C ) :   1.1256 B( 34-C , 35-C ) :   1.0556
B( 34-C , 40-C ) :   1.1330 B( 35-C , 36-C ) :   1.0296 B( 35-C , 38-C ) :   1.0089
B( 35-C , 90-H ) :   0.8646 B( 36-C , 37-N ) :   1.1099 B( 36-C , 91-H ) :   0.9202
B( 36-C , 92-H ) :   0.9487 B( 37-N , 93-H ) :   0.9691 B( 37-N , 94-H ) :   0.9668
B( 38-C , 39-N ) :   1.1160 B( 38-C , 95-H ) :   0.9367 B( 38-C , 96-H ) :   0.9425
B( 39-N , 97-H ) :   0.9556 B( 39-N , 98-H ) :   0.9284 B( 40-C , 41-C ) :   1.6483
B( 40-C , 45-C ) :   1.0482 B( 41-C , 42-C ) :   0.9785 B( 41-C , 99-H ) :   0.9581
B( 42-C , 43-C ) :   0.9854 B( 42-C , 49-C ) :   0.9584 B( 42-C ,100-H ) :   0.8918
B( 43-C , 44-C ) :   1.7163 B( 43-C ,101-H ) :   0.9734 B( 44-C , 45-C ) :   1.1346
B( 44-C ,102-H ) :   0.9894 B( 45-C , 46-C ) :   1.4224 B( 46-C , 47-C ) :   1.1516
B( 47-C , 48-C ) :   1.6181 B( 47-C ,103-H ) :   0.9921 B( 48-C ,104-H ) :   0.9724
B( 49-C , 50-C ) :   1.8493 B( 49-C ,105-H ) :   0.9537 B( 50-C , 51-C ) :   1.0073
B( 50-C ,106-H ) :   0.9588 B( 51-C , 52-C ) :   1.6557 B( 51-C , 61-S ) :   1.0510
B( 52-C , 53-C ) :   1.1213 B( 52-C ,107-H ) :   0.9590 B( 53-C , 54-C ) :   1.5385
B( 53-C , 59-C ) :   1.1016 B( 54-C , 55-C ) :   1.1244 B( 54-C , 57-C ) :   1.1522
B( 55-C , 56-N ) :   3.0052 B( 57-C , 58-N ) :   2.9228 B( 59-C , 60-C ) :   1.6025
B( 59-C ,108-H ) :   0.9759 B( 60-C , 61-S ) :   1.0725 B( 60-C , 62-C ) :   1.0447
B( 62-C , 63-C ) :   1.7110 B( 62-C ,109-H ) :   0.9335 B( 63-C , 64-C ) :   1.0181
B( 63-C , 76-C ) :   0.9891 B( 64-C , 65-C ) :   1.6792 B( 64-C , 70-C ) :   1.0086
B( 65-C , 66-C ) :   1.1290 B( 65-C , 68-C ) :   1.1426 B( 66-C , 67-N ) :   2.9834
B( 68-C , 69-N ) :   2.9821 B( 70-C , 71-C ) :   1.3019 B( 70-C , 75-C ) :   1.3772
B( 71-C , 72-C ) :   1.3753 B( 71-C , 76-C ) :   1.0220 B( 72-C , 73-C ) :   1.3709
B( 72-C ,110-H ) :   0.9868 B( 73-C , 74-C ) :   1.3706 B( 73-C ,111-H ) :   0.9866
B( 74-C , 75-C ) :   1.3768 B( 74-C ,112-H ) :   0.9858 B( 75-C ,113-H ) :   0.9843
B( 76-C , 77-C ) :   1.6727 B( 77-C , 78-C ) :   1.1481 B( 77-C , 80-C ) :   1.1494
B( 78-C , 79-N ) :   2.9913 B( 80-C , 81-N ) :   2.9967

-----------------------------------------------------------------------------
         ABSORPTION SPECTRUM VIA TRANSITION ELECTRIC DIPOLE MOMENTS
-----------------------------------------------------------------------------
State   Energy  Wavelength   fosc         T2         TX        TY        TZ
        (cm-1)    (nm)                  (au**2)     (au)      (au)      (au)
-----------------------------------------------------------------------------
   0   11163.0    895.8   0.036198804   1.06755  -0.61078   0.06436   0.83088
   1   11621.5    860.5   0.020949634   0.59346   0.68429   0.06282  -0.34823
   2   13679.3    731.0   0.033187344   0.79870  -0.41587  -0.66855  -0.42284
   3   17020.2    587.5   0.011245895   0.21752   0.37004   0.28357  -0.01361
   4   17355.1    576.2   0.000471703   0.00895   0.00434   0.07913   0.05165
   5   17722.3    564.3   0.195139775   3.62494   0.61942   1.29509   1.25060
   6   18132.1    551.5   0.236573378   4.29531  -1.86583  -0.87084  -0.23587
   7   21340.2    468.6   0.037019724   0.57110  -0.12424  -0.49503   0.55732
   8   22458.1    445.3   0.003531177   0.05176   0.00832  -0.22556  -0.02861
   9   23444.2    426.5   0.085070080   1.19458   0.84189   0.51157  -0.47339
  10   23484.9    425.8   0.300704950   4.21528   1.70650   0.54458  -1.00328
  11   23698.5    422.0   0.055165929   0.76635   0.57303  -0.05094  -0.65984
  12   24389.0    410.0   0.117456145   1.58547   0.70387   0.78119  -0.69266
  13   24687.8    405.1   0.198282025   2.64409   0.53216  -0.89823  -1.24663
  14   24739.0    404.2   0.022986887   0.30590  -0.42818   0.13665   0.32230
  15   25264.6    395.8   0.117093737   1.52580  -0.79654  -0.67880   0.65616
  16   26271.0    380.6   0.125680636   1.57495   1.03624   0.67967   0.19801
  17   26910.2    371.6   0.028657855   0.35059   0.09147   0.45159   0.37187
  18   27121.0    368.7   0.015220014   0.18475  -0.13995   0.04113  -0.40432
  19   27810.9    359.6   0.061653620   0.72983   0.33887   0.69278  -0.36749
  20   28273.3    353.7   0.004296645   0.05003  -0.01185  -0.04034  -0.21969
  21   28571.9    350.0   0.078807614   0.90804  -0.69084  -0.59636   0.27409
  22   28852.8    346.6   0.225066353   2.56802  -0.41003   0.31706  -1.51637
  23   29059.7    344.1   0.030638313   0.34710  -0.08777   0.27340   0.51444
  24   29109.2    343.5   0.451574765   5.10711   1.04664   0.78874  -1.84107
  25   29420.8    339.9   0.253844494   2.84046  -0.64660   0.06187   1.55517
  26   29678.2    336.9   0.001396906   0.01550   0.05524   0.00714  -0.11132
  27   29709.2    336.6   0.050298365   0.55736   0.52310   0.05911  -0.52938
  28   30163.4    331.5   0.150844429   1.64636  -0.82155  -0.38386  -0.90778
  29   30412.5    328.8   0.106056356   1.14805  -0.87558   0.03833   0.61640
  30   31022.0    322.4   0.035929259   0.38129  -0.13563   0.20889   0.56503
  31   31444.7    318.0   0.057748360   0.60460  -0.68344  -0.21927   0.29905
  32   31569.2    316.8   0.004097044   0.04273  -0.11159  -0.06865   0.15988
  33   31675.1    315.7   0.501222028   5.20940   0.86837   0.48255  -2.05487
  34   31890.6    313.6   0.223818193   2.31051   0.01603   0.62851  -1.38392
  35   32312.3    309.5   0.457700039   4.66325   2.05275   0.55297   0.37905
  36   32648.1    306.3   0.267815546   2.70056  -0.97212  -0.29604   1.29148
  37   32763.4    305.2   0.415847946   4.17850   0.83711   1.20190   1.42590
  38   33125.4    301.9   0.099337901   0.98726  -0.26183   0.56531  -0.77403
  39   33208.8    301.1   0.169097743   1.67633   1.02249   0.17500  -0.77473
  40   33397.7    299.4   0.216691643   2.13600   1.11359   0.91811  -0.23021
  41   33709.8    296.6   0.114937803   1.12249   0.31132  -0.18896   0.99492
  42   33918.9    294.8   0.034499241   0.33484  -0.34160  -0.31336   0.34635
  43   34185.3    292.5   0.001787442   0.01721   0.00878   0.12038  -0.05144
  44   34212.5    292.3   0.006546364   0.06299   0.12370   0.14182  -0.16607
  45   34260.4    291.9   0.035880576   0.34478  -0.13417  -0.33212   0.46527
  46   34599.5    289.0   0.018996807   0.18075  -0.32742  -0.27101  -0.00996
  47   34827.9    287.1   0.197219383   1.86422   0.93956   0.37210   0.91815
  48   35053.4    285.3   0.120621583   1.13285  -0.04170   0.54453   0.91356
  49   35093.4    285.0   0.510731330   4.79119  -1.85099  -1.10727  -0.37279
  50   35244.0    283.7   0.259427798   2.42330   0.57032   1.13283   0.90262
  51   35474.9    281.9   0.003182302   0.02953   0.00536   0.01363   0.17122
  52   35821.9    279.2   0.012293969   0.11298  -0.19053  -0.27679   0.00831
  53   36108.6    276.9   0.010883897   0.09923   0.23127   0.21241   0.02509
  54   36417.2    274.6   0.336321523   3.04035   1.25241   0.47583  -1.11598
  55   36557.3    273.5   0.041017359   0.36938   0.50418   0.25642  -0.22233
  56   36821.1    271.6   0.062368008   0.55762   0.47120   0.41133   0.40792
  57   36859.2    271.3   0.015254069   0.13624   0.18609  -0.30085  -0.10536
  58   37171.3    269.0   0.298701635   2.64549  -1.36408  -0.39700   0.79194
  59   37634.0    265.7   0.067271894   0.58848   0.59741   0.11793  -0.46656
  60   38169.9    262.0   0.034934921   0.30131   0.43518   0.30996   0.12591
  61   38277.4    261.3   0.023630967   0.20324  -0.40752  -0.01196  -0.19243
  62   38420.1    260.3   0.005692545   0.04878   0.20529   0.04658  -0.06681
  63   38741.4    258.1   0.021704746   0.18444   0.30831   0.17515  -0.24230
  64   39145.7    255.5   0.092813102   0.78055  -0.65424  -0.16532   0.57026
  65   39561.6    252.8   0.000008569   0.00007   0.00217  -0.00756  -0.00308
  66   39796.1    251.3   0.031656565   0.26188   0.15009  -0.34075   0.35106
  67   40025.8    249.8   0.005593553   0.04601  -0.17571  -0.04965  -0.11254
  68   40110.1    249.3   0.041364148   0.33951   0.25719   0.50574   0.13261
  69   40173.4    248.9   0.080823595   0.66233  -0.62938  -0.24625  -0.45340
  70   40222.5    248.6   0.014845581   0.12151  -0.29351  -0.04663  -0.18218

FINAL SINGLE POINT ENERGY     -4092.315095577883

DIPOLE MOMENT
-------------
                                X             Y             Z
Electronic contribution:    -17.24007      27.22993       2.11553
Nuclear contribution   :     25.16494     -24.97043      -0.97635
                        -----------------------------------------
Total Dipole Moment    :      7.92487       2.25950       1.13918
                        -----------------------------------------
Magnitude (a.u.)       :      8.31906
Magnitude (Debye)      :     21.14536

Rotational constants in cm-1:     0.001389     0.000250     0.000228
Rotational constants in MHz :    41.647582     7.485981     6.823791

                             ****ORCA TERMINATED NORMALLY****
TOTAL RUN TIME: 0 days 0 hours 14 minutes 5 seconds 358 msec
