                         Program Version 4.2.0 -  RELEASE  -
|  1> # ORCA input file
|  2> # SCF done       -196.497441703929          0.000800116658
|  3> ! CAM-B3LYP def2-SVP def2/J RIJCOSX Grid4 TightSCF
|  4> %maxcore 5000
|  5> %tddft
|  6>     Mode sTDDFT
|  7>     Ethresh 5.0
|  8>     maxcore 5000
|  9> end
| 10>
| 11> %pal
| 12>   nprocs 6
| 13>   end
| 14> * xyz 0 1
| 15>    C       -5.04886        -0.57851        -5.82348
| 16>    C       -5.05176        -1.46138        -6.89345
| 17>    C       -5.34114        -2.80616        -6.71252
| 18>    C       -5.64747        -3.30548        -5.45549
| 19>    C       -5.64971        -2.43256        -4.38065
| 20>    C       -5.34243        -1.06484        -4.55938
| 21>    C       -5.38925        -0.39552        -3.26416
| 22>    C       -5.20890         0.94517        -3.05010
| 23>    C       -4.99197         1.88829        -4.07747
| 24>    N       -4.81349         2.70964        -4.85909
| 25>    C       -5.23075         1.58992        -1.79511
| 26>    N       -5.21702         2.18521        -0.81344
| 27>    C       -5.62111        -1.42982        -2.26539
| 28>    C       -5.97488        -2.64696        -2.97962
| 29>    C       -6.75100        -3.66910        -2.49565
| 30>    C       -7.34685        -3.66699        -1.21812
| 31>    N       -7.88764        -3.68256        -0.20511
| 32>    C       -7.12443        -4.79919        -3.25000
| 33>    N       -7.43796        -5.75492        -3.80340
| 34>    C       -5.45136        -1.27015        -0.91353
| 35>    C       -5.21569        -2.26280         0.05163
| 36>    S       -4.56519        -3.87026        -0.25290
| 37>    C       -4.54920        -4.34150         1.42749
| 38>    C       -5.00968        -3.26811         2.20530
| 39>    C       -5.34540        -2.12790         1.42815
| 40>    O       -5.77287        -1.12135         2.20078
| 41>    C       -5.71071        -1.59370         3.47420
| 42>    N       -6.09914        -0.74336         4.53796
| 43>    O       -6.01175        -1.22085         5.65549
| 44>    O       -6.47719         0.37379         4.27194
| 45>    C       -5.25404        -2.88522         3.54544
| 46>    C       -4.13553        -5.63305         1.78233
| 47>    C       -4.25392        -6.15981         3.03789
| 48>    C       -3.86636        -7.45969         3.41275
| 49>    N       -4.14740        -7.94301         4.67636
| 50>    C       -3.67955        -9.21136         4.77137
| 51>    C       -3.57521       -10.30902         5.61052
| 52>    C       -2.88684       -11.29396         4.88028
| 53>    N       -2.58193       -10.80643         3.62536
| 54>    C       -3.06147        -9.53894         3.52803
| 55>    C       -3.18262        -8.45090         2.68037
| 56>    C       -2.55159       -12.58119         5.34957
| 57>    C       -1.82105       -13.52186         4.68600
| 58>    C       -1.52863       -14.78349         5.24407
| 59>    S       -0.51303       -15.95698         4.44236
| 60>    C       -0.62244       -17.14570         5.72334
| 61>    C       -1.43931       -16.63433         6.74266
| 62>    C       -1.92373       -15.33209         6.45889
| 63>    O       -2.68180       -14.86772         7.46880
| 64>    C       -2.67999       -15.85584         8.40184
| 65>    N       -3.41698       -15.62905         9.59165
| 66>    O       -3.43414       -16.53441        10.40016
| 67>    O       -3.97573       -14.55990         9.70794
| 68>    C       -1.94495       -16.95087         8.02803
| 69>    C        0.11720       -18.33107         5.65167
| 70>    C        0.01527       -19.36703         6.54023
| 71>    C        0.81578       -20.52655         6.53919
| 72>    C        2.09161       -20.68086         6.05631
| 73>    C        2.69401       -21.96742         5.72760
| 74>    C        2.25343       -23.21291         6.09008
| 75>    C        1.12724       -23.49306         6.89272
| 76>    N        0.23054       -23.80737         7.53773
| 77>    C        2.90383       -24.41485         5.73622
| 78>    N        3.37896       -25.42997         5.48916
| 79>    C        3.87524       -21.68724         4.92079
| 80>    C        4.07902       -20.28963         4.88115
| 81>    C        5.12714       -19.74913         4.15453
| 82>    C        5.97505       -20.61023         3.47435
| 83>    C        5.78437       -21.98367         3.52236
| 84>    C        4.73543       -22.53612         4.24235
| 85>    C        3.06556       -19.65331         5.70998
| 86>    C        3.18164       -18.40510         6.26504
| 87>    C        4.20477       -17.49101         5.93904
| 88>    N        4.99154       -16.68969         5.70073
| 89>    C        2.34736       -17.88433         7.27491
| 90>    N        1.73994       -17.40163         8.12141
| 91>    H       -4.81922         0.46158        -5.98506
| 92>    H       -4.82191        -1.09267        -7.88137
| 93>    H       -5.32914        -3.47466        -7.55970
| 94>    H       -5.86603        -4.35281        -5.32381
| 95>    H       -5.43401        -0.26406        -0.51299
| 96>    H       -5.12317        -3.43521         4.45375
| 97>    H       -3.73883        -6.24370         0.98468
| 98>    H       -4.71091        -5.55735         3.80948
| 99>    H       -4.64691        -7.43330         5.38522
|100>    H       -3.92870       -10.42145         6.61522
|101>    H       -2.10062       -11.31993         2.90840
|102>    H       -2.82955        -8.35149         1.67451
|103>    H       -2.91217       -12.81379         6.34091
|104>    H       -1.41562       -13.33252         3.70235
|105>    H       -1.79565       -17.82669         8.62395
|106>    H        0.80095       -18.41466         4.81602
|107>    H       -0.79417       -19.35010         7.25450
|108>    H        0.33814       -21.40867         6.94465
|109>    H        5.28142       -18.68363         4.10327
|110>    H        6.79324       -20.20326         2.90028
|111>    H        6.45888       -22.63570         2.98895
|112>    H        4.60043       -23.60473         4.26230
|113> *
|114>
|115>                          ****END OF INPUT****

CARTESIAN COORDINATES (ANGSTROEM)
---------------------------------
  C     -5.048860   -0.578510   -5.823480
  C     -5.051760   -1.461380   -6.893450
  C     -5.341140   -2.806160   -6.712520
  C     -5.647470   -3.305480   -5.455490
  C     -5.649710   -2.432560   -4.380650
  C     -5.342430   -1.064840   -4.559380
  C     -5.389250   -0.395520   -3.264160
  C     -5.208900    0.945170   -3.050100
  C     -4.991970    1.888290   -4.077470
  N     -4.813490    2.709640   -4.859090
  C     -5.230750    1.589920   -1.795110
  N     -5.217020    2.185210   -0.813440
  C     -5.621110   -1.429820   -2.265390
  C     -5.974880   -2.646960   -2.979620
  C     -6.751000   -3.669100   -2.495650
  C     -7.346850   -3.666990   -1.218120
  N     -7.887640   -3.682560   -0.205110
  C     -7.124430   -4.799190   -3.250000
  N     -7.437960   -5.754920   -3.803400
  C     -5.451360   -1.270150   -0.913530
  C     -5.215690   -2.262800    0.051630
  S     -4.565190   -3.870260   -0.252900
  C     -4.549200   -4.341500    1.427490
  C     -5.009680   -3.268110    2.205300
  C     -5.345400   -2.127900    1.428150
  O     -5.772870   -1.121350    2.200780
  C     -5.710710   -1.593700    3.474200
  N     -6.099140   -0.743360    4.537960
  O     -6.011750   -1.220850    5.655490
  O     -6.477190    0.373790    4.271940
  C     -5.254040   -2.885220    3.545440
  C     -4.135530   -5.633050    1.782330
  C     -4.253920   -6.159810    3.037890
  C     -3.866360   -7.459690    3.412750
  N     -4.147400   -7.943010    4.676360
  C     -3.679550   -9.211360    4.771370
  C     -3.575210  -10.309020    5.610520
  C     -2.886840  -11.293960    4.880280
  N     -2.581930  -10.806430    3.625360
  C     -3.061470   -9.538940    3.528030
  C     -3.182620   -8.450900    2.680370
  C     -2.551590  -12.581190    5.349570
  C     -1.821050  -13.521860    4.686000
  C     -1.528630  -14.783490    5.244070
  S     -0.513030  -15.956980    4.442360
  C     -0.622440  -17.145700    5.723340
  C     -1.439310  -16.634330    6.742660
  C     -1.923730  -15.332090    6.458890
  O     -2.681800  -14.867720    7.468800
  C     -2.679990  -15.855840    8.401840
  N     -3.416980  -15.629050    9.591650
  O     -3.434140  -16.534410   10.400160
  O     -3.975730  -14.559900    9.707940
  C     -1.944950  -16.950870    8.028030
  C      0.117200  -18.331070    5.651670
  C      0.015270  -19.367030    6.540230
  C      0.815780  -20.526550    6.539190
  C      2.091610  -20.680860    6.056310
  C      2.694010  -21.967420    5.727600
  C      2.253430  -23.212910    6.090080
  C      1.127240  -23.493060    6.892720
  N      0.230540  -23.807370    7.537730
  C      2.903830  -24.414850    5.736220
  N      3.378960  -25.429970    5.489160
  C      3.875240  -21.687240    4.920790
  C      4.079020  -20.289630    4.881150
  C      5.127140  -19.749130    4.154530
  C      5.975050  -20.610230    3.474350
  C      5.784370  -21.983670    3.522360
  C      4.735430  -22.536120    4.242350
  C      3.065560  -19.653310    5.709980
  C      3.181640  -18.405100    6.265040
  C      4.204770  -17.491010    5.939040
  N      4.991540  -16.689690    5.700730
  C      2.347360  -17.884330    7.274910
  N      1.739940  -17.401630    8.121410
  H     -4.819220    0.461580   -5.985060
  H     -4.821910   -1.092670   -7.881370
  H     -5.329140   -3.474660   -7.559700
  H     -5.866030   -4.352810   -5.323810
  H     -5.434010   -0.264060   -0.512990
  H     -5.123170   -3.435210    4.453750
  H     -3.738830   -6.243700    0.984680
  H     -4.710910   -5.557350    3.809480
  H     -4.646910   -7.433300    5.385220
  H     -3.928700  -10.421450    6.615220
  H     -2.100620  -11.319930    2.908400
  H     -2.829550   -8.351490    1.674510
  H     -2.912170  -12.813790    6.340910
  H     -1.415620  -13.332520    3.702350
  H     -1.795650  -17.826690    8.623950
  H      0.800950  -18.414660    4.816020
  H     -0.794170  -19.350100    7.254500
  H      0.338140  -21.408670    6.944650
  H      5.281420  -18.683630    4.103270
  H      6.793240  -20.203260    2.900280
  H      6.458880  -22.635700    2.988950
  H      4.600430  -23.604730    4.262300

 Total Charge           Charge          ....    0
 Multiplicity           Mult            ....    1
 Number of Electrons    NEL             ....  522
 Basis Dimension        Dim             .... 1182

ORBITAL ENERGIES
----------------

  NO   OCC          E(Eh)            E(eV)
   0   2.0000     -89.000522     -2421.8273
   1   2.0000     -88.993308     -2421.6310
   2   2.0000     -19.338054      -526.2152
   3   2.0000     -19.332406      -526.0615
   4   2.0000     -19.261452      -524.1307
   5   2.0000     -19.260560      -524.1065
   6   2.0000     -19.252739      -523.8937
   7   2.0000     -19.249051      -523.7933
   8   2.0000     -14.674031      -399.3007
   9   2.0000     -14.664580      -399.0435
  10   2.0000     -14.490946      -394.3187
  11   2.0000     -14.488060      -394.2402
  12   2.0000     -14.428208      -392.6115
  13   2.0000     -14.426563      -392.5667
  14   2.0000     -14.426471      -392.5642
  15   2.0000     -14.423204      -392.4753
  16   2.0000     -14.421917      -392.4403
  17   2.0000     -14.420536      -392.4027
  18   2.0000     -14.419847      -392.3840
  19   2.0000     -14.417305      -392.3148
  20   2.0000     -10.409927      -283.2685
  21   2.0000     -10.400251      -283.0052
  22   2.0000     -10.378033      -282.4006
  23   2.0000     -10.373074      -282.2657
  24   2.0000     -10.356773      -281.8221
  25   2.0000     -10.355763      -281.7946
  26   2.0000     -10.354532      -281.7611
  27   2.0000     -10.354187      -281.7518
  28   2.0000     -10.352374      -281.7024
  29   2.0000     -10.352371      -281.7023
  30   2.0000     -10.350286      -281.6456
  31   2.0000     -10.347567      -281.5716
  32   2.0000     -10.347088      -281.5586
  33   2.0000     -10.346344      -281.5383
  34   2.0000     -10.342400      -281.4310
  35   2.0000     -10.340959      -281.3918
  36   2.0000     -10.339519      -281.3526
  37   2.0000     -10.335188      -281.2348
  38   2.0000     -10.333250      -281.1820
  39   2.0000     -10.332626      -281.1651
  40   2.0000     -10.330541      -281.1083
  41   2.0000     -10.330310      -281.1020
  42   2.0000     -10.330297      -281.1017
  43   2.0000     -10.329527      -281.0807
  44   2.0000     -10.329495      -281.0799
  45   2.0000     -10.329215      -281.0722
  46   2.0000     -10.328622      -281.0561
  47   2.0000     -10.328354      -281.0488
  48   2.0000     -10.327039      -281.0130
  49   2.0000     -10.326406      -280.9958
  50   2.0000     -10.325960      -280.9836
  51   2.0000     -10.324603      -280.9467
  52   2.0000     -10.323237      -280.9095
  53   2.0000     -10.323116      -280.9063
  54   2.0000     -10.321723      -280.8684
  55   2.0000     -10.320245      -280.8282
  56   2.0000     -10.318504      -280.7808
  57   2.0000     -10.318190      -280.7722
  58   2.0000     -10.318084      -280.7693
  59   2.0000     -10.317549      -280.7548
  60   2.0000     -10.316477      -280.7256
  61   2.0000     -10.316045      -280.7138
  62   2.0000     -10.315093      -280.6879
  63   2.0000     -10.312114      -280.6069
  64   2.0000     -10.311799      -280.5983
  65   2.0000     -10.307737      -280.4878
  66   2.0000     -10.306908      -280.4652
  67   2.0000     -10.305804      -280.4352
  68   2.0000     -10.305406      -280.4244
  69   2.0000     -10.304619      -280.4029
  70   2.0000     -10.300846      -280.3003
  71   2.0000     -10.300485      -280.2905
  72   2.0000     -10.299904      -280.2746
  73   2.0000     -10.299653      -280.2678
  74   2.0000     -10.298546      -280.2377
  75   2.0000     -10.297076      -280.1977
  76   2.0000      -8.095324      -220.2850
  77   2.0000      -8.087696      -220.0774
  78   2.0000      -6.064583      -165.0257
  79   2.0000      -6.060591      -164.9171
  80   2.0000      -6.057468      -164.8321
  81   2.0000      -6.057168      -164.8239
  82   2.0000      -6.053059      -164.7121
  83   2.0000      -6.049461      -164.6142
  84   2.0000      -1.345925       -36.6245
  85   2.0000      -1.335857       -36.3505
  86   2.0000      -1.257810       -34.2268
  87   2.0000      -1.253636       -34.1132
  88   2.0000      -1.162604       -31.6361
  89   2.0000      -1.152528       -31.3619
  90   2.0000      -1.122529       -30.5456
  91   2.0000      -1.085891       -29.5486
  92   2.0000      -1.041557       -28.3422
  93   2.0000      -1.037009       -28.2184
  94   2.0000      -1.025799       -27.9134
  95   2.0000      -1.023298       -27.8453
  96   2.0000      -1.021027       -27.7836
  97   2.0000      -1.016202       -27.6523
  98   2.0000      -1.013192       -27.5703
  99   2.0000      -1.006754       -27.3952
 100   2.0000      -1.005777       -27.3686
 101   2.0000      -1.003051       -27.2944
 102   2.0000      -0.999261       -27.1913
 103   2.0000      -0.996987       -27.1294
 104   2.0000      -0.967788       -26.3349
 105   2.0000      -0.962563       -26.1927
 106   2.0000      -0.962116       -26.1805
 107   2.0000      -0.951839       -25.9008
 108   2.0000      -0.945623       -25.7317
 109   2.0000      -0.939670       -25.5697
 110   2.0000      -0.939376       -25.5617
 111   2.0000      -0.937355       -25.5067
 112   2.0000      -0.929980       -25.3061
 113   2.0000      -0.913661       -24.8620
 114   2.0000      -0.912042       -24.8179
 115   2.0000      -0.904528       -24.6135
 116   2.0000      -0.900448       -24.5024
 117   2.0000      -0.896220       -24.3874
 118   2.0000      -0.894798       -24.3487
 119   2.0000      -0.889241       -24.1975
 120   2.0000      -0.879080       -23.9210
 121   2.0000      -0.871800       -23.7229
 122   2.0000      -0.865823       -23.5602
 123   2.0000      -0.855624       -23.2827
 124   2.0000      -0.840657       -22.8754
 125   2.0000      -0.820936       -22.3388
 126   2.0000      -0.815285       -22.1850
 127   2.0000      -0.806031       -21.9332
 128   2.0000      -0.801298       -21.8044
 129   2.0000      -0.797366       -21.6974
 130   2.0000      -0.790840       -21.5198
 131   2.0000      -0.776870       -21.1397
 132   2.0000      -0.763219       -20.7682
 133   2.0000      -0.747212       -20.3327
 134   2.0000      -0.734099       -19.9759
 135   2.0000      -0.726942       -19.7811
 136   2.0000      -0.724814       -19.7232
 137   2.0000      -0.722912       -19.6714
 138   2.0000      -0.722166       -19.6511
 139   2.0000      -0.719439       -19.5769
 140   2.0000      -0.715280       -19.4638
 141   2.0000      -0.713088       -19.4041
 142   2.0000      -0.710491       -19.3334
 143   2.0000      -0.701145       -19.0791
 144   2.0000      -0.693054       -18.8590
 145   2.0000      -0.685559       -18.6550
 146   2.0000      -0.682699       -18.5772
 147   2.0000      -0.678124       -18.4527
 148   2.0000      -0.671229       -18.2651
 149   2.0000      -0.669916       -18.2293
 150   2.0000      -0.666600       -18.1391
 151   2.0000      -0.663912       -18.0660
 152   2.0000      -0.660181       -17.9644
 153   2.0000      -0.659698       -17.9513
 154   2.0000      -0.650615       -17.7041
 155   2.0000      -0.650000       -17.6874
 156   2.0000      -0.645684       -17.5700
 157   2.0000      -0.642301       -17.4779
 158   2.0000      -0.633765       -17.2456
 159   2.0000      -0.626348       -17.0438
 160   2.0000      -0.625443       -17.0192
 161   2.0000      -0.619995       -16.8709
 162   2.0000      -0.610050       -16.6003
 163   2.0000      -0.606204       -16.4956
 164   2.0000      -0.598831       -16.2950
 165   2.0000      -0.597120       -16.2485
 166   2.0000      -0.592645       -16.1267
 167   2.0000      -0.591684       -16.1005
 168   2.0000      -0.591015       -16.0823
 169   2.0000      -0.590625       -16.0717
 170   2.0000      -0.588052       -16.0017
 171   2.0000      -0.585512       -15.9326
 172   2.0000      -0.583303       -15.8725
 173   2.0000      -0.580184       -15.7876
 174   2.0000      -0.573712       -15.6115
 175   2.0000      -0.566749       -15.4220
 176   2.0000      -0.565907       -15.3991
 177   2.0000      -0.555738       -15.1224
 178   2.0000      -0.553428       -15.0596
 179   2.0000      -0.549210       -14.9448
 180   2.0000      -0.546864       -14.8809
 181   2.0000      -0.543913       -14.8006
 182   2.0000      -0.542641       -14.7660
 183   2.0000      -0.541093       -14.7239
 184   2.0000      -0.540025       -14.6948
 185   2.0000      -0.538607       -14.6562
 186   2.0000      -0.533530       -14.5181
 187   2.0000      -0.532647       -14.4941
 188   2.0000      -0.528684       -14.3862
 189   2.0000      -0.522923       -14.2295
 190   2.0000      -0.518212       -14.1013
 191   2.0000      -0.516628       -14.0582
 192   2.0000      -0.514942       -14.0123
 193   2.0000      -0.510153       -13.8820
 194   2.0000      -0.509519       -13.8647
 195   2.0000      -0.508236       -13.8298
 196   2.0000      -0.503014       -13.6877
 197   2.0000      -0.501557       -13.6481
 198   2.0000      -0.495966       -13.4959
 199   2.0000      -0.492007       -13.3882
 200   2.0000      -0.488654       -13.2969
 201   2.0000      -0.488216       -13.2850
 202   2.0000      -0.481863       -13.1122
 203   2.0000      -0.480685       -13.0801
 204   2.0000      -0.478279       -13.0146
 205   2.0000      -0.474768       -12.9191
 206   2.0000      -0.472708       -12.8630
 207   2.0000      -0.468453       -12.7473
 208   2.0000      -0.467435       -12.7196
 209   2.0000      -0.465439       -12.6652
 210   2.0000      -0.463147       -12.6029
 211   2.0000      -0.461758       -12.5651
 212   2.0000      -0.460622       -12.5342
 213   2.0000      -0.459149       -12.4941
 214   2.0000      -0.457112       -12.4387
 215   2.0000      -0.455581       -12.3970
 216   2.0000      -0.453785       -12.3481
 217   2.0000      -0.452913       -12.3244
 218   2.0000      -0.452714       -12.3190
 219   2.0000      -0.451409       -12.2835
 220   2.0000      -0.450431       -12.2568
 221   2.0000      -0.448674       -12.2090
 222   2.0000      -0.445626       -12.1261
 223   2.0000      -0.445174       -12.1138
 224   2.0000      -0.439004       -11.9459
 225   2.0000      -0.436574       -11.8798
 226   2.0000      -0.435426       -11.8485
 227   2.0000      -0.434814       -11.8319
 228   2.0000      -0.432060       -11.7570
 229   2.0000      -0.431008       -11.7283
 230   2.0000      -0.429101       -11.6764
 231   2.0000      -0.425857       -11.5882
 232   2.0000      -0.420440       -11.4408
 233   2.0000      -0.415754       -11.3133
 234   2.0000      -0.415550       -11.3077
 235   2.0000      -0.412831       -11.2337
 236   2.0000      -0.410145       -11.1606
 237   2.0000      -0.407397       -11.0858
 238   2.0000      -0.405219       -11.0266
 239   2.0000      -0.403227       -10.9724
 240   2.0000      -0.398171       -10.8348
 241   2.0000      -0.398020       -10.8307
 242   2.0000      -0.395156       -10.7527
 243   2.0000      -0.390963       -10.6386
 244   2.0000      -0.389712       -10.6046
 245   2.0000      -0.387767       -10.5517
 246   2.0000      -0.385002       -10.4765
 247   2.0000      -0.380093       -10.3428
 248   2.0000      -0.376310       -10.2399
 249   2.0000      -0.362810        -9.8726
 250   2.0000      -0.346787        -9.4366
 251   2.0000      -0.345468        -9.4007
 252   2.0000      -0.339915        -9.2496
 253   2.0000      -0.339727        -9.2444
 254   2.0000      -0.333346        -9.0708
 255   2.0000      -0.324501        -8.8301
 256   2.0000      -0.320304        -8.7159
 257   2.0000      -0.314016        -8.5448
 258   2.0000      -0.295779        -8.0486
 259   2.0000      -0.272644        -7.4190
 260   2.0000      -0.239532        -6.5180
 261   0.0000      -0.130011        -3.5378
 262   0.0000      -0.111731        -3.0404
 263   0.0000      -0.093654        -2.5484
 264   0.0000      -0.087623        -2.3843
 265   0.0000      -0.075804        -2.0627

MULLIKEN ATOMIC CHARGES
-----------------------
   0 C :   -0.033542
   1 C :    0.045531
   2 C :    0.046371
   3 C :   -0.032896
   4 C :    0.002917
   5 C :    0.012945
   6 C :    0.307004
   7 C :   -0.346745
   8 C :   -0.188527
   9 N :    0.158113
  10 C :   -0.187887
  11 N :    0.158894
  12 C :   -0.081731
  13 C :    0.222023
  14 C :   -0.334402
  15 C :   -0.191820
  16 N :    0.167828
  17 C :   -0.178238
  18 N :    0.154793
  19 C :    0.038704
  20 C :   -0.263298
  21 S :    0.177170
  22 C :   -0.094458
  23 C :    0.112033
  24 C :    0.269077
  25 O :   -0.159151
  26 C :    0.234151
  27 N :    0.274220
  28 O :   -0.254967
  29 O :   -0.215644
  30 C :   -0.088910
  31 C :    0.036576
  32 C :    0.026986
  33 C :    0.099802
  34 N :   -0.030198
  35 C :    0.131033
  36 C :   -0.155394
  37 C :    0.085200
  38 N :   -0.037210
  39 C :    0.121947
  40 C :   -0.150524
  41 C :    0.030668
  42 C :    0.039284
  43 C :   -0.175295
  44 S :    0.178320
  45 C :   -0.168813
  46 C :    0.164405
  47 C :    0.165432
  48 O :   -0.181393
  49 C :    0.244814
  50 N :    0.272161
  51 O :   -0.232886
  52 O :   -0.229627
  53 C :   -0.084669
  54 C :    0.088775
  55 C :   -0.027168
  56 C :    0.045205
  57 C :   -0.068569
  58 C :    0.301280
  59 C :   -0.347101
  60 C :   -0.181570
  61 N :    0.156197
  62 C :   -0.190236
  63 N :    0.162292
  64 C :    0.015350
  65 C :   -0.002286
  66 C :   -0.033115
  67 C :    0.046714
  68 C :    0.047825
  69 C :   -0.035486
  70 C :    0.228536
  71 C :   -0.348198
  72 C :   -0.186388
  73 N :    0.160377
  74 C :   -0.187421
  75 N :    0.174347
  76 H :    0.005351
  77 H :    0.002667
  78 H :    0.003768
  79 H :    0.004700
  80 H :    0.036063
  81 H :    0.012350
  82 H :   -0.016066
  83 H :   -0.031311
  84 H :    0.132277
  85 H :   -0.014556
  86 H :    0.130313
  87 H :   -0.021417
  88 H :    0.016359
  89 H :   -0.043582
  90 H :    0.028492
  91 H :    0.007968
  92 H :    0.000480
  93 H :    0.021303
  94 H :    0.006236
  95 H :    0.004858
  96 H :    0.005711
  97 H :    0.008498
Sum of atomic charges:   -0.0000000

LOEWDIN ATOMIC CHARGES
----------------------
   0 C :    0.004531
   1 C :    0.000360
   2 C :    0.002266
   3 C :   -0.000965
   4 C :   -0.011265
   5 C :   -0.012632
   6 C :    0.076480
   7 C :   -0.135040
   8 C :   -0.018948
   9 N :   -0.049043
  10 C :   -0.023987
  11 N :   -0.040576
  12 C :   -0.074689
  13 C :    0.060036
  14 C :   -0.145036
  15 C :   -0.033519
  16 N :   -0.052489
  17 C :   -0.020281
  18 N :   -0.051482
  19 C :    0.045041
  20 C :   -0.218162
  21 S :    0.487398
  22 C :   -0.115072
  23 C :   -0.089180
  24 C :    0.067183
  25 O :    0.029051
  26 C :    0.028394
  27 N :    0.271279
  28 O :   -0.215387
  29 O :   -0.178973
  30 C :   -0.010945
  31 C :   -0.057406
  32 C :    0.005694
  33 C :   -0.001197
  34 N :    0.078082
  35 C :   -0.008215
  36 C :   -0.070819
  37 C :    0.008149
  38 N :    0.068605
  39 C :   -0.004462
  40 C :   -0.071914
  41 C :   -0.001770
  42 C :   -0.066812
  43 C :   -0.169530
  44 S :    0.475714
  45 C :   -0.181427
  46 C :   -0.048058
  47 C :    0.018890
  48 O :    0.015143
  49 C :    0.036560
  50 N :    0.271283
  51 O :   -0.195277
  52 O :   -0.191119
  53 C :   -0.001207
  54 C :    0.014877
  55 C :   -0.045084
  56 C :    0.055968
  57 C :   -0.063409
  58 C :    0.076154
  59 C :   -0.133435
  60 C :   -0.022408
  61 N :   -0.043884
  62 C :   -0.019342
  63 N :   -0.046346
  64 C :   -0.012255
  65 C :   -0.012600
  66 C :    0.000297
  67 C :    0.003398
  68 C :    0.002955
  69 C :    0.004767
  70 C :    0.066027
  71 C :   -0.139723
  72 C :   -0.022008
  73 N :   -0.050178
  74 C :   -0.014426
  75 N :   -0.047801
  76 H :    0.041508
  77 H :    0.037128
  78 H :    0.036969
  79 H :    0.040085
  80 H :    0.055431
  81 H :    0.042006
  82 H :    0.032481
  83 H :    0.032557
  84 H :    0.095183
  85 H :    0.033919
  86 H :    0.091088
  87 H :    0.028932
  88 H :    0.044415
  89 H :    0.022631
  90 H :    0.050274
  91 H :    0.035903
  92 H :    0.037134
  93 H :    0.048891
  94 H :    0.040573
  95 H :    0.037741
  96 H :    0.038228
  97 H :    0.042126

  Mayer bond orders larger than 0.100000
B(  0-C ,  1-C ) :   1.3685 B(  0-C ,  5-C ) :   1.3852 B(  0-C , 76-H ) :   0.9833
B(  1-C ,  2-C ) :   1.3787 B(  1-C , 77-H ) :   0.9865 B(  2-C ,  3-C ) :   1.3621
B(  2-C , 78-H ) :   0.9874 B(  3-C ,  4-C ) :   1.3838 B(  3-C , 79-H ) :   0.9866
B(  4-C ,  5-C ) :   1.3138 B(  4-C , 13-C ) :   1.0114 B(  5-C ,  6-C ) :   0.9959
B(  6-C ,  7-C ) :   1.6291 B(  6-C , 12-C ) :   1.0752 B(  7-C ,  8-C ) :   1.1491
B(  7-C , 10-C ) :   1.1362 B(  8-C ,  9-N ) :   2.9736 B( 10-C , 11-N ) :   2.9622
B( 12-C , 13-C ) :   1.0439 B( 12-C , 19-C ) :   1.5214 B( 13-C , 14-C ) :   1.6234
B( 14-C , 15-C ) :   1.1551 B( 14-C , 17-C ) :   1.1432 B( 15-C , 16-N ) :   3.0161
B( 17-C , 18-N ) :   2.9907 B( 19-C , 20-C ) :   1.2391 B( 19-C , 80-H ) :   0.9322
B( 20-C , 21-S ) :   1.0659 B( 20-C , 24-C ) :   1.3604 B( 21-S , 22-C ) :   1.1600
B( 22-C , 23-C ) :   1.2779 B( 22-C , 31-C ) :   1.2243 B( 23-C , 24-C ) :   1.2586
B( 23-C , 30-C ) :   1.1007 B( 24-C , 25-O ) :   1.1705 B( 25-O , 26-C ) :   1.1151
B( 26-C , 27-N ) :   0.9193 B( 26-C , 30-C ) :   1.5683 B( 27-N , 28-O ) :   1.5181
B( 27-N , 29-O ) :   1.5198 B( 28-O , 29-O ) :   0.2800 B( 30-C , 81-H ) :   1.0120
B( 31-C , 32-C ) :   1.5735 B( 31-C , 82-H ) :   0.9582 B( 32-C , 33-C ) :   1.1764
B( 32-C , 83-H ) :   0.9601 B( 33-C , 34-N ) :   1.1645 B( 33-C , 40-C ) :   1.3483
B( 34-N , 35-C ) :   1.1820 B( 34-N , 84-H ) :   0.9334 B( 35-C , 36-C ) :   1.2576
B( 35-C , 39-C ) :   1.2740 B( 36-C , 37-C ) :   1.3373 B( 36-C , 85-H ) :   1.0433
B( 37-C , 38-N ) :   1.1905 B( 37-C , 41-C ) :   1.1910 B( 38-N , 39-C ) :   1.1651
B( 38-N , 86-H ) :   0.9323 B( 39-C , 40-C ) :   1.3060 B( 40-C , 87-H ) :   1.0287
B( 41-C , 42-C ) :   1.5657 B( 41-C , 88-H ) :   0.9533 B( 42-C , 43-C ) :   1.1796
B( 42-C , 89-H ) :   0.9569 B( 43-C , 44-S ) :   1.1324 B( 43-C , 47-C ) :   1.3873
B( 44-S , 45-C ) :   1.1067 B( 45-C , 46-C ) :   1.2971 B( 45-C , 54-C ) :   1.2561
B( 46-C , 47-C ) :   1.2780 B( 46-C , 53-C ) :   1.1023 B( 47-C , 48-O ) :   1.1068
B( 48-O , 49-C ) :   1.1265 B( 49-C , 50-N ) :   0.9082 B( 49-C , 53-C ) :   1.5591
B( 50-N , 51-O ) :   1.5399 B( 50-N , 52-O ) :   1.5088 B( 51-O , 52-O ) :   0.2855
B( 53-C , 90-H ) :   1.0145 B( 54-C , 55-C ) :   1.5571 B( 54-C , 91-H ) :   0.9483
B( 55-C , 56-C ) :   1.2387 B( 55-C , 92-H ) :   0.9568 B( 56-C , 57-C ) :   1.5571
B( 56-C , 93-H ) :   0.9229 B( 57-C , 58-C ) :   1.0686 B( 57-C , 70-C ) :   1.0291
B( 58-C , 59-C ) :   1.6294 B( 58-C , 64-C ) :   0.9928 B( 59-C , 60-C ) :   1.1374
B( 59-C , 62-C ) :   1.1491 B( 60-C , 61-N ) :   2.9664 B( 62-C , 63-N ) :   2.9760
B( 64-C , 65-C ) :   1.3147 B( 64-C , 69-C ) :   1.3821 B( 65-C , 66-C ) :   1.3812
B( 65-C , 70-C ) :   1.0071 B( 66-C , 67-C ) :   1.3658 B( 66-C , 94-H ) :   0.9864
B( 67-C , 68-C ) :   1.3777 B( 67-C , 95-H ) :   0.9864 B( 68-C , 69-C ) :   1.3694
B( 68-C , 96-H ) :   0.9863 B( 69-C , 97-H ) :   0.9833 B( 70-C , 71-C ) :   1.6340
B( 71-C , 72-C ) :   1.1412 B( 71-C , 74-C ) :   1.1590 B( 72-C , 73-N ) :   2.9905
B( 74-C , 75-N ) :   3.0000

-----------------------------------------------------------------------------
         ABSORPTION SPECTRUM VIA TRANSITION ELECTRIC DIPOLE MOMENTS
-----------------------------------------------------------------------------
State   Energy  Wavelength   fosc         T2         TX        TY        TZ
        (cm-1)    (nm)                  (au**2)     (au)      (au)      (au)
-----------------------------------------------------------------------------
   0   10489.1    953.4   2.198439726  69.00065   3.26463  -7.13499   2.72668
   1   14687.9    680.8   0.244785797   5.48657   0.57871   0.67443  -2.16721
   2   18948.5    527.7   0.054012859   0.93842  -0.85840  -0.32219   0.31267
   3   19519.4    512.3   0.241816272   4.07844   0.17979  -1.98225  -0.34174
   4   20067.3    498.3   0.157254312   2.57982   0.37921   1.48424  -0.48277
   5   21466.0    465.9   0.158967982   2.43800   0.31255   1.18684   0.96525
   6   22130.3    451.9   0.094442421   1.40493   0.67104  -0.67353  -0.70781
   7   22392.3    446.6   0.073164315   1.07566  -0.10076   0.57191  -0.85932
   8   24918.4    401.3   0.063814988   0.84310   0.48449   0.08821  -0.77497
   9   25737.5    388.5   0.047929485   0.61307   0.33268  -0.38459  -0.59539
  10   26744.7    373.9   0.214643507   2.64214   0.50590  -1.30519   0.82625
  11   27309.8    366.2   0.157631092   1.90020  -0.08680  -1.36612   0.16242
  12   27462.5    364.1   0.032843148   0.39371  -0.15935  -0.60599   0.03306
  13   28044.6    356.6   0.138579192   1.62677   0.64448   0.76269  -0.79355
  14   28184.9    354.8   0.174248834   2.03530   0.16572  -1.39811  -0.23046
  15   29277.1    341.6   0.010956934   0.12321  -0.10313  -0.12346  -0.31198
  16   29938.4    334.0   0.103832101   1.14177   0.38400  -0.31605  -0.94574
  17   30035.6    332.9   0.003118639   0.03418   0.04538  -0.15283   0.09364
  18   30500.9    327.9   0.003783872   0.04084   0.18119  -0.02722   0.08527
  19   30612.2    326.7   0.050578846   0.54394   0.17228   0.07676  -0.71300
  20   30974.4    322.8   0.020905540   0.22219  -0.25254  -0.03429   0.39654
  21   31265.1    319.8   0.315173323   3.31868  -0.37866   0.07997   1.78014
  22   31607.7    316.4   0.004542509   0.04731  -0.19939   0.02372  -0.08363
  23   31936.5    313.1   0.069608882   0.71755  -0.32696  -0.49163   0.60741
  24   32570.5    307.0   0.681535674   6.88875  -0.51005  -2.56859  -0.17587
  25   32663.7    306.2   0.399415423   4.02564   0.69570   1.87987  -0.08805
  26   33232.7    300.9   0.132956154   1.31710   0.18538   0.92291   0.65649
  27   33636.8    297.3   0.077626562   0.75975   0.54771   0.64970  -0.19405
  28   34509.3    289.8   0.268132308   2.55793   0.84361  -0.67598  -1.17868
  29   34809.0    287.3   0.121389691   1.14806   0.26988  -0.20123  -1.01722
  30   35360.3    282.8   0.034062155   0.31713   0.33004   0.21650  -0.40166
  31   35566.8    281.2   0.039107420   0.36198   0.52471   0.00160  -0.29438
  32   36031.6    277.5   0.063865849   0.58353   0.21439   0.15972   0.71558
  33   36446.5    274.4   0.079979783   0.72244  -0.10475  -0.49110  -0.68577
  34   36749.6    272.1   0.292219984   2.61778  -0.98148   0.43058   1.21205
  35   36962.1    270.5   0.014077043   0.12538  -0.22634  -0.12724   0.24075
  36   37429.4    267.2   0.065145418   0.57299  -0.29593   0.09983   0.68953
  37   37730.5    265.0   0.052201226   0.45547  -0.43944   0.17484   0.48145
  38   37899.2    263.9   0.083269577   0.72332   0.06951   0.42231   0.73494
  39   38490.1    259.8   0.023640802   0.20220  -0.25690  -0.02384   0.36829
  40   38764.1    258.0   0.008544503   0.07257  -0.08197  -0.18614   0.17663
  41   38956.0    256.7   0.000402652   0.00340  -0.01005  -0.05064   0.02715
  42   39254.3    254.7   0.038183449   0.32023   0.27053  -0.06240  -0.49310
  43   39328.8    254.3   0.033836752   0.28324   0.07260   0.12515  -0.51216
  44   39692.1    251.9   0.023199020   0.19242   0.10005   0.30075   0.30324
  45   39702.1    251.9   0.113225375   0.93887  -0.09059   0.43547   0.86083
  46   39901.6    250.6   0.070271992   0.57979   0.49538  -0.12671  -0.56420
  47   40146.5    249.1   0.006602799   0.05414   0.15604   0.16891   0.03557

FINAL SINGLE POINT ENERGY     -4047.145640164904

DIPOLE MOMENT
-------------
                                X             Y             Z
Electronic contribution:    -12.65671      16.99519       9.47592
Nuclear contribution   :     14.92349     -19.44060     -12.17869
                        -----------------------------------------
Total Dipole Moment    :      2.26678      -2.44540      -2.70278
                        -----------------------------------------
Magnitude (a.u.)       :      4.29224
Magnitude (Debye)      :     10.91000

Rotational constants in cm-1:     0.001546     0.000178     0.000167
Rotational constants in MHz :    46.359614     5.322678     4.992495

                             ****ORCA TERMINATED NORMALLY****
TOTAL RUN TIME: 0 days 0 hours 11 minutes 22 seconds 735 msec
