                         Program Version 4.2.0 -  RELEASE  -
|  1> # ORCA input file
|  2> # SCF done       -206.423558776984          0.000685151389
|  3> ! CAM-B3LYP def2-SVP def2/J RIJCOSX Grid4 TightSCF
|  4> %maxcore 5000
|  5> %tddft
|  6>     Mode sTDDFT
|  7>     Ethresh 5.0
|  8>     maxcore 5000
|  9> end
| 10>
| 11> %pal
| 12>   nprocs 6
| 13>   end
| 14> * xyz 0 1
| 15>    C       -1.79421         2.45757         1.90952
| 16>    C       -1.87694         2.66546         3.27815
| 17>    C       -1.75059         1.61152         4.17229
| 18>    C       -1.52834         0.31840         3.72352
| 19>    C       -1.44030         0.09901         2.35875
| 20>    C       -1.57998         1.16886         1.44575
| 21>    C       -1.47136         0.64709         0.08999
| 22>    C       -1.39864         1.39376        -1.05477
| 23>    C       -1.42829         2.80509        -1.07928
| 24>    N       -1.44545         3.94880        -1.17158
| 25>    C       -1.23189         0.88178        -2.35957
| 26>    N       -1.08771         0.54320        -3.44712
| 27>    C       -1.44529        -0.80914         0.20067
| 28>    C       -1.19219        -1.12059         1.60506
| 29>    C       -0.58370        -2.24226         2.09643
| 30>    C       -0.11280        -3.31354         1.30745
| 31>    N        0.34273        -4.19549         0.73171
| 32>    C       -0.26661        -2.42895         3.45913
| 33>    N        0.00825        -2.63883         4.55310
| 34>    C       -1.72593        -1.66300        -0.82903
| 35>    C       -2.10174        -3.02534        -0.76328
| 36>    C       -2.67594        -3.72280         0.27951
| 37>    C       -2.91186        -5.06504        -0.13466
| 38>    C       -2.46420        -5.12297        -1.52596
| 39>    C       -2.00342        -3.92447        -1.91555
| 40>    F       -2.53238        -6.23255        -2.26915
| 41>    C       -3.38996        -6.10683         0.62907
| 42>    C       -3.55382        -7.46723         0.26287
| 43>    C       -3.99990        -8.18063         1.36189
| 44>    C       -4.14810        -7.24489         2.48407
| 45>    C       -3.78873        -6.03328         2.04294
| 46>    F       -3.78021        -4.89858         2.75003
| 47>    C       -4.26425        -9.55748         1.48990
| 48>    C       -4.15313       -10.48322         0.49103
| 49>    C       -4.38297       -11.85869         0.67467
| 50>    S       -4.80204       -12.51632         2.22686
| 51>    C       -4.84091       -14.13979         1.60062
| 52>    C       -4.52615       -14.14944         0.23552
| 53>    C       -4.28855       -12.87774        -0.28082
| 54>    C       -3.95687       -12.62067        -1.71769
| 55>    C       -4.29659       -13.84134        -2.58543
| 56>    C       -5.73131       -13.96180        -2.72372
| 57>    N       -6.86623       -14.05493        -2.81149
| 58>    C       -3.73547       -15.12408        -1.93434
| 59>    C       -2.31175       -14.97131        -1.73096
| 60>    N       -1.19122       -14.83296        -1.55872
| 61>    C       -4.43008       -15.39246        -0.58997
| 62>    C       -5.16277       -15.19555         2.47909
| 63>    C       -5.37858       -16.53705         2.22424
| 64>    C       -5.67484       -17.20007         3.44601
| 65>    C       -5.62920       -16.15795         4.47609
| 66>    C       -5.33050       -14.97578         3.92121
| 67>    F       -5.84629       -16.39262         5.77270
| 68>    C       -5.94036       -18.53694         3.64699
| 69>    C       -6.25839       -19.19564         4.86727
| 70>    C       -6.43306       -20.54384         4.62232
| 71>    C       -6.22055       -20.78177         3.19189
| 72>    C       -5.94001       -19.59489         2.63329
| 73>    F       -5.67424       -19.36766         1.34079
| 74>    C       -6.79110       -21.50225         5.59342
| 75>    C       -6.88089       -22.84578         5.38180
| 76>    C       -7.21356       -23.79958         6.37499
| 77>    C       -7.99381       -23.61943         7.48415
| 78>    C       -7.95367       -24.46356         8.67490
| 79>    C       -7.42974       -25.72316         8.78426
| 80>    C       -6.85988       -26.47043         7.73121
| 81>    N       -6.38819       -27.14078         6.92731
| 82>    C       -7.43086       -26.47730         9.97789
| 83>    N       -7.39995       -27.14466        10.91094
| 84>    C       -8.58329       -23.70447         9.74779
| 85>    C       -9.14771       -22.52785         9.20490
| 86>    C       -9.79059       -21.61040        10.01948
| 87>    C       -9.87044       -21.87486        11.37833
| 88>    C       -9.32492       -23.03374        11.91266
| 89>    C       -8.67727       -23.95860        11.10725
| 90>    C       -8.92855       -22.53386         7.76689
| 91>    C       -9.66837       -21.83792         6.84956
| 92>    C      -10.64410       -20.87947         7.19495
| 93>    N      -11.43879       -20.08271         7.41887
| 94>    C       -9.61279       -22.04743         5.45540
| 95>    N       -9.65199       -22.20231         4.31913
| 96>    H       -1.90316         3.28697         1.23041
| 97>    H       -2.04758         3.66392         3.65052
| 98>    H       -1.82808         1.79774         5.23244
| 99>    H       -1.44182        -0.49408         4.42649
|100>    H       -1.72673        -1.24844        -1.82923
|101>    H       -2.94801        -3.32615         1.23799
|102>    H       -1.59780        -3.65203        -2.86999
|103>    H       -3.33974        -7.86086        -0.71051
|104>    H       -4.48279        -7.51399         3.46670
|105>    H       -4.57016        -9.90098         2.47079
|106>    H       -3.85940       -10.16170        -0.49752
|107>    H       -2.88758       -12.40306        -1.81142
|108>    H       -4.50889       -11.74966        -2.07994
|109>    H       -3.86829       -13.71088        -3.58650
|110>    H       -3.89168       -15.98130        -2.60011
|111>    H       -3.87207       -16.15531        -0.04112
|112>    H       -5.43617       -15.78019        -0.78003
|113>    H       -5.37257       -17.02790         1.27437
|114>    H       -5.21841       -14.03013         4.41450
|115>    H       -6.35069       -18.71450         5.82137
|116>    H       -6.30003       -21.72733         2.69468
|117>    H       -6.97228       -21.11286         6.58880
|118>    H       -6.57376       -23.24505         4.42577
|119>    H       -6.73797       -24.76481         6.25701
|120>    H      -10.20988       -20.70287         9.61628
|121>    H      -10.36214       -21.16660        12.02731
|122>    H       -9.40004       -23.21929        12.97310
|123>    H       -8.25372       -24.84885        11.54190
|124> *
|125>
|126>                          ****END OF INPUT****

CARTESIAN COORDINATES (ANGSTROEM)
---------------------------------
  C     -1.794210    2.457570    1.909520
  C     -1.876940    2.665460    3.278150
  C     -1.750590    1.611520    4.172290
  C     -1.528340    0.318400    3.723520
  C     -1.440300    0.099010    2.358750
  C     -1.579980    1.168860    1.445750
  C     -1.471360    0.647090    0.089990
  C     -1.398640    1.393760   -1.054770
  C     -1.428290    2.805090   -1.079280
  N     -1.445450    3.948800   -1.171580
  C     -1.231890    0.881780   -2.359570
  N     -1.087710    0.543200   -3.447120
  C     -1.445290   -0.809140    0.200670
  C     -1.192190   -1.120590    1.605060
  C     -0.583700   -2.242260    2.096430
  C     -0.112800   -3.313540    1.307450
  N      0.342730   -4.195490    0.731710
  C     -0.266610   -2.428950    3.459130
  N      0.008250   -2.638830    4.553100
  C     -1.725930   -1.663000   -0.829030
  C     -2.101740   -3.025340   -0.763280
  C     -2.675940   -3.722800    0.279510
  C     -2.911860   -5.065040   -0.134660
  C     -2.464200   -5.122970   -1.525960
  C     -2.003420   -3.924470   -1.915550
  F     -2.532380   -6.232550   -2.269150
  C     -3.389960   -6.106830    0.629070
  C     -3.553820   -7.467230    0.262870
  C     -3.999900   -8.180630    1.361890
  C     -4.148100   -7.244890    2.484070
  C     -3.788730   -6.033280    2.042940
  F     -3.780210   -4.898580    2.750030
  C     -4.264250   -9.557480    1.489900
  C     -4.153130  -10.483220    0.491030
  C     -4.382970  -11.858690    0.674670
  S     -4.802040  -12.516320    2.226860
  C     -4.840910  -14.139790    1.600620
  C     -4.526150  -14.149440    0.235520
  C     -4.288550  -12.877740   -0.280820
  C     -3.956870  -12.620670   -1.717690
  C     -4.296590  -13.841340   -2.585430
  C     -5.731310  -13.961800   -2.723720
  N     -6.866230  -14.054930   -2.811490
  C     -3.735470  -15.124080   -1.934340
  C     -2.311750  -14.971310   -1.730960
  N     -1.191220  -14.832960   -1.558720
  C     -4.430080  -15.392460   -0.589970
  C     -5.162770  -15.195550    2.479090
  C     -5.378580  -16.537050    2.224240
  C     -5.674840  -17.200070    3.446010
  C     -5.629200  -16.157950    4.476090
  C     -5.330500  -14.975780    3.921210
  F     -5.846290  -16.392620    5.772700
  C     -5.940360  -18.536940    3.646990
  C     -6.258390  -19.195640    4.867270
  C     -6.433060  -20.543840    4.622320
  C     -6.220550  -20.781770    3.191890
  C     -5.940010  -19.594890    2.633290
  F     -5.674240  -19.367660    1.340790
  C     -6.791100  -21.502250    5.593420
  C     -6.880890  -22.845780    5.381800
  C     -7.213560  -23.799580    6.374990
  C     -7.993810  -23.619430    7.484150
  C     -7.953670  -24.463560    8.674900
  C     -7.429740  -25.723160    8.784260
  C     -6.859880  -26.470430    7.731210
  N     -6.388190  -27.140780    6.927310
  C     -7.430860  -26.477300    9.977890
  N     -7.399950  -27.144660   10.910940
  C     -8.583290  -23.704470    9.747790
  C     -9.147710  -22.527850    9.204900
  C     -9.790590  -21.610400   10.019480
  C     -9.870440  -21.874860   11.378330
  C     -9.324920  -23.033740   11.912660
  C     -8.677270  -23.958600   11.107250
  C     -8.928550  -22.533860    7.766890
  C     -9.668370  -21.837920    6.849560
  C    -10.644100  -20.879470    7.194950
  N    -11.438790  -20.082710    7.418870
  C     -9.612790  -22.047430    5.455400
  N     -9.651990  -22.202310    4.319130
  H     -1.903160    3.286970    1.230410
  H     -2.047580    3.663920    3.650520
  H     -1.828080    1.797740    5.232440
  H     -1.441820   -0.494080    4.426490
  H     -1.726730   -1.248440   -1.829230
  H     -2.948010   -3.326150    1.237990
  H     -1.597800   -3.652030   -2.869990
  H     -3.339740   -7.860860   -0.710510
  H     -4.482790   -7.513990    3.466700
  H     -4.570160   -9.900980    2.470790
  H     -3.859400  -10.161700   -0.497520
  H     -2.887580  -12.403060   -1.811420
  H     -4.508890  -11.749660   -2.079940
  H     -3.868290  -13.710880   -3.586500
  H     -3.891680  -15.981300   -2.600110
  H     -3.872070  -16.155310   -0.041120
  H     -5.436170  -15.780190   -0.780030
  H     -5.372570  -17.027900    1.274370
  H     -5.218410  -14.030130    4.414500
  H     -6.350690  -18.714500    5.821370
  H     -6.300030  -21.727330    2.694680
  H     -6.972280  -21.112860    6.588800
  H     -6.573760  -23.245050    4.425770
  H     -6.737970  -24.764810    6.257010
  H    -10.209880  -20.702870    9.616280
  H    -10.362140  -21.166600   12.027310
  H     -9.400040  -23.219290   12.973100
  H     -8.253720  -24.848850   11.541900

 Total Charge           Charge          ....    0
 Multiplicity           Mult            ....    1
 Number of Electrons    NEL             ....  546
 Basis Dimension        Dim             .... 1278

ORBITAL ENERGIES
----------------

  NO   OCC          E(Eh)            E(eV)
   0   2.0000     -88.984560     -2421.3930
   1   2.0000     -24.810216      -675.1203
   2   2.0000     -24.807756      -675.0534
   3   2.0000     -24.804478      -674.9641
   4   2.0000     -24.798364      -674.7978
   5   2.0000     -14.427686      -392.5973
   6   2.0000     -14.427490      -392.5920
   7   2.0000     -14.427152      -392.5828
   8   2.0000     -14.426198      -392.5568
   9   2.0000     -14.426038      -392.5524
  10   2.0000     -14.425529      -392.5386
  11   2.0000     -14.424892      -392.5213
  12   2.0000     -14.424771      -392.5180
  13   2.0000     -14.423333      -392.4788
  14   2.0000     -14.423249      -392.4765
  15   2.0000     -10.377695      -282.3914
  16   2.0000     -10.374058      -282.2925
  17   2.0000     -10.370566      -282.1974
  18   2.0000     -10.364037      -282.0198
  19   2.0000     -10.356914      -281.8260
  20   2.0000     -10.356644      -281.8186
  21   2.0000     -10.356164      -281.8055
  22   2.0000     -10.355799      -281.7956
  23   2.0000     -10.355300      -281.7820
  24   2.0000     -10.354746      -281.7670
  25   2.0000     -10.354372      -281.7568
  26   2.0000     -10.353619      -281.7363
  27   2.0000     -10.352423      -281.7037
  28   2.0000     -10.351290      -281.6729
  29   2.0000     -10.335180      -281.2346
  30   2.0000     -10.332900      -281.1725
  31   2.0000     -10.329676      -281.0848
  32   2.0000     -10.329470      -281.0792
  33   2.0000     -10.328419      -281.0506
  34   2.0000     -10.327981      -281.0387
  35   2.0000     -10.327660      -281.0299
  36   2.0000     -10.327252      -281.0188
  37   2.0000     -10.327245      -281.0186
  38   2.0000     -10.326861      -281.0082
  39   2.0000     -10.326813      -281.0069
  40   2.0000     -10.326780      -281.0060
  41   2.0000     -10.326170      -280.9894
  42   2.0000     -10.325698      -280.9765
  43   2.0000     -10.325562      -280.9728
  44   2.0000     -10.325274      -280.9650
  45   2.0000     -10.324838      -280.9531
  46   2.0000     -10.324598      -280.9466
  47   2.0000     -10.322769      -280.8968
  48   2.0000     -10.321925      -280.8739
  49   2.0000     -10.320777      -280.8426
  50   2.0000     -10.319183      -280.7992
  51   2.0000     -10.318953      -280.7930
  52   2.0000     -10.318875      -280.7909
  53   2.0000     -10.318131      -280.7706
  54   2.0000     -10.317631      -280.7570
  55   2.0000     -10.317096      -280.7425
  56   2.0000     -10.316789      -280.7341
  57   2.0000     -10.316673      -280.7309
  58   2.0000     -10.316271      -280.7200
  59   2.0000     -10.316046      -280.7139
  60   2.0000     -10.312809      -280.6258
  61   2.0000     -10.307644      -280.4852
  62   2.0000     -10.307126      -280.4711
  63   2.0000     -10.307094      -280.4703
  64   2.0000     -10.306935      -280.4660
  65   2.0000     -10.306601      -280.4569
  66   2.0000     -10.305763      -280.4341
  67   2.0000     -10.305271      -280.4207
  68   2.0000     -10.304895      -280.4105
  69   2.0000     -10.304843      -280.4090
  70   2.0000     -10.304656      -280.4039
  71   2.0000     -10.303744      -280.3791
  72   2.0000     -10.302842      -280.3546
  73   2.0000     -10.295713      -280.1606
  74   2.0000     -10.293443      -280.0988
  75   2.0000     -10.292191      -280.0648
  76   2.0000     -10.290771      -280.0261
  77   2.0000     -10.288971      -279.9771
  78   2.0000     -10.287535      -279.9381
  79   2.0000     -10.283626      -279.8317
  80   2.0000     -10.279973      -279.7323
  81   2.0000      -8.079790      -219.8623
  82   2.0000      -6.048887      -164.5986
  83   2.0000      -6.045005      -164.4929
  84   2.0000      -6.042044      -164.4124
  85   2.0000      -1.323549       -36.0156
  86   2.0000      -1.320534       -35.9335
  87   2.0000      -1.316726       -35.8299
  88   2.0000      -1.311128       -35.6776
  89   2.0000      -1.042201       -28.3597
  90   2.0000      -1.040323       -28.3086
  91   2.0000      -1.036790       -28.2125
  92   2.0000      -1.023422       -27.8487
  93   2.0000      -1.021794       -27.8044
  94   2.0000      -1.018706       -27.7204
  95   2.0000      -1.012991       -27.5649
  96   2.0000      -1.012352       -27.5475
  97   2.0000      -1.011202       -27.5162
  98   2.0000      -1.007389       -27.4125
  99   2.0000      -1.006235       -27.3811
 100   2.0000      -1.004386       -27.3307
 101   2.0000      -1.004037       -27.3212
 102   2.0000      -1.002726       -27.2856
 103   2.0000      -1.001277       -27.2461
 104   2.0000      -0.989877       -26.9359
 105   2.0000      -0.986690       -26.8492
 106   2.0000      -0.971347       -26.4317
 107   2.0000      -0.966823       -26.3086
 108   2.0000      -0.961883       -26.1742
 109   2.0000      -0.946306       -25.7503
 110   2.0000      -0.944240       -25.6941
 111   2.0000      -0.933870       -25.4119
 112   2.0000      -0.929860       -25.3028
 113   2.0000      -0.907215       -24.6866
 114   2.0000      -0.901085       -24.5198
 115   2.0000      -0.900444       -24.5023
 116   2.0000      -0.895147       -24.3582
 117   2.0000      -0.889222       -24.1970
 118   2.0000      -0.878422       -23.9031
 119   2.0000      -0.872282       -23.7360
 120   2.0000      -0.870255       -23.6808
 121   2.0000      -0.870092       -23.6764
 122   2.0000      -0.860093       -23.4043
 123   2.0000      -0.848691       -23.0941
 124   2.0000      -0.827666       -22.5219
 125   2.0000      -0.824954       -22.4481
 126   2.0000      -0.822592       -22.3839
 127   2.0000      -0.811757       -22.0890
 128   2.0000      -0.805520       -21.9193
 129   2.0000      -0.797484       -21.7006
 130   2.0000      -0.795842       -21.6560
 131   2.0000      -0.794435       -21.6177
 132   2.0000      -0.779859       -21.2211
 133   2.0000      -0.773758       -21.0550
 134   2.0000      -0.770434       -20.9646
 135   2.0000      -0.754155       -20.5216
 136   2.0000      -0.737118       -20.0580
 137   2.0000      -0.731641       -19.9090
 138   2.0000      -0.721604       -19.6358
 139   2.0000      -0.721021       -19.6200
 140   2.0000      -0.719551       -19.5800
 141   2.0000      -0.718055       -19.5393
 142   2.0000      -0.712121       -19.3778
 143   2.0000      -0.699960       -19.0469
 144   2.0000      -0.692920       -18.8553
 145   2.0000      -0.685595       -18.6560
 146   2.0000      -0.683369       -18.5954
 147   2.0000      -0.680954       -18.5297
 148   2.0000      -0.675325       -18.3765
 149   2.0000      -0.672363       -18.2959
 150   2.0000      -0.672288       -18.2939
 151   2.0000      -0.669569       -18.2199
 152   2.0000      -0.669507       -18.2182
 153   2.0000      -0.665125       -18.0990
 154   2.0000      -0.657372       -17.8880
 155   2.0000      -0.654969       -17.8226
 156   2.0000      -0.650440       -17.6994
 157   2.0000      -0.643786       -17.5183
 158   2.0000      -0.642384       -17.4802
 159   2.0000      -0.638121       -17.3641
 160   2.0000      -0.627906       -17.0862
 161   2.0000      -0.620730       -16.8909
 162   2.0000      -0.617831       -16.8120
 163   2.0000      -0.612085       -16.6557
 164   2.0000      -0.604546       -16.4505
 165   2.0000      -0.596134       -16.2216
 166   2.0000      -0.592638       -16.1265
 167   2.0000      -0.590756       -16.0753
 168   2.0000      -0.590471       -16.0675
 169   2.0000      -0.584690       -15.9102
 170   2.0000      -0.580510       -15.7965
 171   2.0000      -0.579818       -15.7777
 172   2.0000      -0.576287       -15.6816
 173   2.0000      -0.574441       -15.6313
 174   2.0000      -0.570125       -15.5139
 175   2.0000      -0.569109       -15.4862
 176   2.0000      -0.567561       -15.4441
 177   2.0000      -0.567469       -15.4416
 178   2.0000      -0.564943       -15.3729
 179   2.0000      -0.563200       -15.3254
 180   2.0000      -0.559504       -15.2249
 181   2.0000      -0.556256       -15.1365
 182   2.0000      -0.554563       -15.0904
 183   2.0000      -0.554045       -15.0763
 184   2.0000      -0.551046       -14.9947
 185   2.0000      -0.549472       -14.9519
 186   2.0000      -0.547807       -14.9066
 187   2.0000      -0.544835       -14.8257
 188   2.0000      -0.542498       -14.7621
 189   2.0000      -0.540276       -14.7017
 190   2.0000      -0.538546       -14.6546
 191   2.0000      -0.533413       -14.5149
 192   2.0000      -0.532114       -14.4796
 193   2.0000      -0.523435       -14.2434
 194   2.0000      -0.522752       -14.2248
 195   2.0000      -0.519557       -14.1379
 196   2.0000      -0.516304       -14.0493
 197   2.0000      -0.514448       -13.9988
 198   2.0000      -0.513993       -13.9865
 199   2.0000      -0.512331       -13.9412
 200   2.0000      -0.511229       -13.9113
 201   2.0000      -0.504164       -13.7190
 202   2.0000      -0.501858       -13.6563
 203   2.0000      -0.499582       -13.5943
 204   2.0000      -0.494999       -13.4696
 205   2.0000      -0.494463       -13.4550
 206   2.0000      -0.491641       -13.3782
 207   2.0000      -0.490648       -13.3512
 208   2.0000      -0.487603       -13.2684
 209   2.0000      -0.485631       -13.2147
 210   2.0000      -0.484907       -13.1950
 211   2.0000      -0.481463       -13.1013
 212   2.0000      -0.480322       -13.0702
 213   2.0000      -0.475890       -12.9496
 214   2.0000      -0.473254       -12.8779
 215   2.0000      -0.471873       -12.8403
 216   2.0000      -0.470328       -12.7983
 217   2.0000      -0.466650       -12.6982
 218   2.0000      -0.464620       -12.6429
 219   2.0000      -0.463734       -12.6188
 220   2.0000      -0.462677       -12.5901
 221   2.0000      -0.461390       -12.5551
 222   2.0000      -0.460243       -12.5239
 223   2.0000      -0.459558       -12.5052
 224   2.0000      -0.458300       -12.4710
 225   2.0000      -0.457828       -12.4581
 226   2.0000      -0.456822       -12.4308
 227   2.0000      -0.456522       -12.4226
 228   2.0000      -0.455974       -12.4077
 229   2.0000      -0.453281       -12.3344
 230   2.0000      -0.452021       -12.3001
 231   2.0000      -0.451584       -12.2882
 232   2.0000      -0.451232       -12.2787
 233   2.0000      -0.449791       -12.2394
 234   2.0000      -0.448995       -12.2178
 235   2.0000      -0.443378       -12.0649
 236   2.0000      -0.441744       -12.0205
 237   2.0000      -0.440205       -11.9786
 238   2.0000      -0.438764       -11.9394
 239   2.0000      -0.437258       -11.8984
 240   2.0000      -0.435754       -11.8575
 241   2.0000      -0.435398       -11.8478
 242   2.0000      -0.434056       -11.8113
 243   2.0000      -0.433661       -11.8005
 244   2.0000      -0.431793       -11.7497
 245   2.0000      -0.430966       -11.7272
 246   2.0000      -0.430558       -11.7161
 247   2.0000      -0.425419       -11.5762
 248   2.0000      -0.424457       -11.5501
 249   2.0000      -0.420270       -11.4361
 250   2.0000      -0.418322       -11.3831
 251   2.0000      -0.418288       -11.3822
 252   2.0000      -0.417281       -11.3548
 253   2.0000      -0.415497       -11.3062
 254   2.0000      -0.412342       -11.2204
 255   2.0000      -0.408640       -11.1197
 256   2.0000      -0.393889       -10.7183
 257   2.0000      -0.390522       -10.6267
 258   2.0000      -0.388997       -10.5852
 259   2.0000      -0.373734       -10.1698
 260   2.0000      -0.359870        -9.7926
 261   2.0000      -0.344380        -9.3711
 262   2.0000      -0.343392        -9.3442
 263   2.0000      -0.340203        -9.2574
 264   2.0000      -0.338220        -9.2034
 265   2.0000      -0.329306        -8.9609
 266   2.0000      -0.324648        -8.8341
 267   2.0000      -0.314780        -8.5656
 268   2.0000      -0.313813        -8.5393
 269   2.0000      -0.304219        -8.2782
 270   2.0000      -0.288900        -7.8614
 271   2.0000      -0.280256        -7.6262
 272   2.0000      -0.254167        -6.9162
 273   0.0000      -0.142383        -3.8744
 274   0.0000      -0.123229        -3.3532
 275   0.0000      -0.093220        -2.5367
 276   0.0000      -0.090493        -2.4624
 277   0.0000      -0.089529        -2.4362

MULLIKEN ATOMIC CHARGES
-----------------------
   0 C :   -0.031805
   1 C :    0.047521
   2 C :    0.045753
   3 C :   -0.031913
   4 C :    0.003512
   5 C :    0.016322
   6 C :    0.288411
   7 C :   -0.337675
   8 C :   -0.190528
   9 N :    0.161155
  10 C :   -0.179278
  11 N :    0.158221
  12 C :   -0.045402
  13 C :    0.223028
  14 C :   -0.325170
  15 C :   -0.199299
  16 N :    0.191260
  17 C :   -0.186181
  18 N :    0.168224
  19 C :    0.040286
  20 C :    0.038694
  21 C :   -0.050559
  22 C :   -0.008202
  23 C :    0.269665
  24 C :   -0.059183
  25 F :   -0.174938
  26 C :    0.026588
  27 C :   -0.087514
  28 C :    0.119027
  29 C :   -0.074160
  30 C :    0.267084
  31 F :   -0.171209
  32 C :   -0.012685
  33 C :    0.012321
  34 C :   -0.068865
  35 S :    0.125033
  36 C :   -0.085021
  37 C :   -0.057771
  38 C :   -0.066757
  39 C :    0.132756
  40 C :   -0.069601
  41 C :   -0.247620
  42 N :    0.150696
  43 C :   -0.054927
  44 C :   -0.251264
  45 N :    0.150671
  46 C :    0.114909
  47 C :    0.097134
  48 C :   -0.128186
  49 C :    0.034032
  50 C :    0.264310
  51 C :   -0.092637
  52 F :   -0.169367
  53 C :   -0.001452
  54 C :   -0.063852
  55 C :    0.084209
  56 C :   -0.052706
  57 C :    0.257260
  58 F :   -0.175110
  59 C :    0.036295
  60 C :   -0.012352
  61 C :    0.051464
  62 C :   -0.062410
  63 C :    0.292615
  64 C :   -0.342661
  65 C :   -0.180824
  66 N :    0.161785
  67 C :   -0.187543
  68 N :    0.161219
  69 C :    0.019102
  70 C :    0.004225
  71 C :   -0.031554
  72 C :    0.048160
  73 C :    0.045565
  74 C :   -0.034462
  75 C :    0.211457
  76 C :   -0.328055
  77 C :   -0.185528
  78 N :    0.165888
  79 C :   -0.187386
  80 N :    0.181687
  81 H :    0.007737
  82 H :    0.004866
  83 H :    0.006904
  84 H :    0.008854
  85 H :    0.015220
  86 H :    0.009354
  87 H :   -0.002908
  88 H :   -0.014488
  89 H :   -0.010158
  90 H :   -0.006088
  91 H :    0.001782
  92 H :    0.063831
  93 H :    0.050670
  94 H :    0.058028
  95 H :    0.058502
  96 H :    0.059969
  97 H :    0.068524
  98 H :   -0.013948
  99 H :    0.001961
 100 H :   -0.005698
 101 H :   -0.005698
 102 H :    0.008928
 103 H :    0.013745
 104 H :    0.027777
 105 H :    0.006710
 106 H :    0.007078
 107 H :    0.007189
 108 H :    0.007422
Sum of atomic charges:   -0.0000000

LOEWDIN ATOMIC CHARGES
----------------------
   0 C :    0.005625
   1 C :    0.002843
   2 C :    0.005354
   3 C :    0.002056
   4 C :   -0.009997
   5 C :   -0.013189
   6 C :    0.077628
   7 C :   -0.129981
   8 C :   -0.018943
   9 N :   -0.044056
  10 C :   -0.022136
  11 N :   -0.042002
  12 C :   -0.043901
  13 C :    0.065842
  14 C :   -0.123161
  15 C :   -0.018595
  16 N :   -0.032344
  17 C :   -0.019731
  18 N :   -0.042687
  19 C :    0.061433
  20 C :   -0.027762
  21 C :   -0.002398
  22 C :   -0.007481
  23 C :    0.079075
  24 C :   -0.043083
  25 F :   -0.051298
  26 C :    0.026433
  27 C :   -0.062042
  28 C :    0.014523
  29 C :   -0.050119
  30 C :    0.085311
  31 F :   -0.046803
  32 C :   -0.024527
  33 C :    0.000545
  34 C :   -0.162032
  35 S :    0.467145
  36 C :   -0.150484
  37 C :   -0.038973
  38 C :   -0.043616
  39 C :   -0.007753
  40 C :   -0.032472
  41 C :   -0.038345
  42 N :   -0.045573
  43 C :   -0.032433
  44 C :   -0.038128
  45 N :   -0.046473
  46 C :   -0.007619
  47 C :   -0.008199
  48 C :   -0.063982
  49 C :    0.013639
  50 C :    0.086150
  51 C :   -0.062207
  52 F :   -0.044763
  53 C :   -0.005268
  54 C :   -0.021652
  55 C :   -0.009669
  56 C :   -0.044707
  57 C :    0.080760
  58 F :   -0.052205
  59 C :    0.034893
  60 C :   -0.025389
  61 C :    0.058306
  62 C :   -0.050678
  63 C :    0.077048
  64 C :   -0.129541
  65 C :   -0.022215
  66 N :   -0.040495
  67 C :   -0.018870
  68 N :   -0.043537
  69 C :   -0.013044
  70 C :   -0.011308
  71 C :    0.001780
  72 C :    0.005490
  73 C :    0.003116
  74 C :    0.005878
  75 C :    0.063482
  76 C :   -0.128540
  77 C :   -0.020935
  78 N :   -0.043668
  79 C :   -0.017629
  80 N :   -0.036881
  81 H :    0.041949
  82 H :    0.038110
  83 H :    0.038375
  84 H :    0.041498
  85 H :    0.049309
  86 H :    0.024829
  87 H :    0.036765
  88 H :    0.022001
  89 H :    0.033550
  90 H :    0.025312
  91 H :    0.038312
  92 H :    0.050169
  93 H :    0.045632
  94 H :    0.063767
  95 H :    0.064374
  96 H :    0.048891
  97 H :    0.049727
  98 H :    0.021468
  99 H :    0.027701
 100 H :    0.027227
 101 H :    0.034815
 102 H :    0.036926
 103 H :    0.040176
 104 H :    0.049909
 105 H :    0.041110
 106 H :    0.038529
 107 H :    0.038685
 108 H :    0.042048

  Mayer bond orders larger than 0.100000
B(  0-C ,  1-C ) :   1.3741 B(  0-C ,  5-C ) :   1.3795 B(  0-C , 81-H ) :   0.9840
B(  1-C ,  2-C ) :   1.3732 B(  1-C , 82-H ) :   0.9866 B(  2-C ,  3-C ) :   1.3682
B(  2-C , 83-H ) :   0.9873 B(  3-C ,  4-C ) :   1.3811 B(  3-C , 84-H ) :   0.9874
B(  4-C ,  5-C ) :   1.3111 B(  4-C , 13-C ) :   1.0059 B(  5-C ,  6-C ) :   1.0003
B(  6-C ,  7-C ) :   1.6418 B(  6-C , 12-C ) :   1.0492 B(  7-C ,  8-C ) :   1.1474
B(  7-C , 10-C ) :   1.1339 B(  8-C ,  9-N ) :   2.9785 B( 10-C , 11-N ) :   2.9756
B( 12-C , 13-C ) :   1.0125 B( 12-C , 19-C ) :   1.6094 B( 13-C , 14-C ) :   1.6704
B( 14-C , 15-C ) :   1.1578 B( 14-C , 17-C ) :   1.1376 B( 15-C , 16-N ) :   3.0067
B( 17-C , 18-N ) :   2.9972 B( 19-C , 20-C ) :   1.1362 B( 19-C , 85-H ) :   0.9295
B( 20-C , 21-C ) :   1.4985 B( 20-C , 24-C ) :   1.0288 B( 21-C , 22-C ) :   1.1402
B( 21-C , 86-H ) :   1.0048 B( 22-C , 23-C ) :   1.0346 B( 22-C , 26-C ) :   1.4370
B( 23-C , 24-C ) :   1.6458 B( 23-C , 25-F ) :   1.1236 B( 24-C , 87-H ) :   1.0200
B( 26-C , 27-C ) :   1.1681 B( 26-C , 30-C ) :   0.9976 B( 27-C , 28-C ) :   1.5016
B( 27-C , 88-H ) :   1.0086 B( 28-C , 29-C ) :   0.9980 B( 28-C , 32-C ) :   1.1604
B( 29-C , 30-C ) :   1.6759 B( 29-C , 89-H ) :   1.0219 B( 30-C , 31-F ) :   1.1226
B( 32-C , 33-C ) :   1.5775 B( 32-C , 90-H ) :   0.9731 B( 33-C , 34-C ) :   1.2032
B( 33-C , 91-H ) :   0.9704 B( 34-C , 35-S ) :   1.1140 B( 34-C , 36-C ) :   0.1010
B( 34-C , 38-C ) :   1.4176 B( 35-S , 36-C ) :   1.1274 B( 36-C , 37-C ) :   1.4505
B( 36-C , 47-C ) :   1.1708 B( 37-C , 38-C ) :   1.3683 B( 37-C , 46-C ) :   1.0510
B( 38-C , 39-C ) :   1.0334 B( 39-C , 40-C ) :   1.0644 B( 39-C , 92-H ) :   0.9009
B( 39-C , 93-H ) :   0.9142 B( 40-C , 41-C ) :   1.1058 B( 40-C , 43-C ) :   1.0784
B( 40-C , 94-H ) :   0.8549 B( 41-C , 42-N ) :   3.1054 B( 43-C , 44-C ) :   1.1073
B( 43-C , 46-C ) :   1.0499 B( 43-C , 95-H ) :   0.8522 B( 44-C , 45-N ) :   3.1044
B( 46-C , 96-H ) :   0.9071 B( 46-C , 97-H ) :   0.8957 B( 47-C , 48-C ) :   1.5071
B( 47-C , 51-C ) :   1.0009 B( 48-C , 49-C ) :   1.1364 B( 48-C , 98-H ) :   1.0102
B( 49-C , 50-C ) :   1.0155 B( 49-C , 53-C ) :   1.4424 B( 50-C , 51-C ) :   1.6788
B( 50-C , 52-F ) :   1.1340 B( 51-C , 99-H ) :   1.0055 B( 53-C , 54-C ) :   1.1190
B( 53-C , 57-C ) :   1.0322 B( 54-C , 55-C ) :   1.4883 B( 54-C ,100-H ) :   1.0215
B( 55-C , 56-C ) :   1.0284 B( 55-C , 59-C ) :   1.1796 B( 56-C , 57-C ) :   1.6626
B( 56-C ,101-H ) :   1.0126 B( 57-C , 58-F ) :   1.1195 B( 59-C , 60-C ) :   1.5973
B( 59-C ,102-H ) :   0.9688 B( 60-C , 61-C ) :   1.1721 B( 60-C ,103-H ) :   0.9544
B( 61-C , 62-C ) :   1.6196 B( 61-C ,104-H ) :   0.9208 B( 62-C , 63-C ) :   1.0512
B( 62-C , 75-C ) :   1.0177 B( 63-C , 64-C ) :   1.6450 B( 63-C , 69-C ) :   0.9977
B( 64-C , 65-C ) :   1.1347 B( 64-C , 67-C ) :   1.1469 B( 65-C , 66-N ) :   2.9744
B( 67-C , 68-N ) :   2.9778 B( 69-C , 70-C ) :   1.3106 B( 69-C , 74-C ) :   1.3803
B( 70-C , 71-C ) :   1.3821 B( 70-C , 75-C ) :   1.0064 B( 71-C , 72-C ) :   1.3679
B( 71-C ,105-H ) :   0.9871 B( 72-C , 73-C ) :   1.3744 B( 72-C ,106-H ) :   0.9866
B( 73-C , 74-C ) :   1.3721 B( 73-C ,107-H ) :   0.9867 B( 74-C ,108-H ) :   0.9841
B( 75-C , 76-C ) :   1.6612 B( 76-C , 77-C ) :   1.1405 B( 76-C , 79-C ) :   1.1516
B( 77-C , 78-N ) :   2.9947 B( 79-C , 80-N ) :   3.0045

-----------------------------------------------------------------------------
         ABSORPTION SPECTRUM VIA TRANSITION ELECTRIC DIPOLE MOMENTS
-----------------------------------------------------------------------------
State   Energy  Wavelength   fosc         T2         TX        TY        TZ
        (cm-1)    (nm)                  (au**2)     (au)      (au)      (au)
-----------------------------------------------------------------------------
   0   10313.7    969.6   1.688758140  53.90487   1.96317   6.82854  -1.84983
   1   14135.2    707.5   0.160919547   3.74785  -0.42072  -1.28257   1.38775
   2   15363.4    650.9   0.011357424   0.24337   0.35274   0.32153  -0.12475
   3   16437.2    608.4   0.031769724   0.63630   0.43994   0.59327  -0.30130
   4   19232.6    520.0   0.083034101   1.42133  -0.10099  -1.14747  -0.30733
   5   20806.2    480.6   0.723982779  11.45542  -1.26831  -2.94117   1.09378
   6   21369.9    467.9   0.173189277   2.66805  -0.50829   1.55205   0.02903
   7   21881.1    457.0   0.086892929   1.30735  -0.28801   0.50677  -0.98366
   8   22292.3    448.6   0.053365199   0.78809  -0.31421   0.70388  -0.44036
   9   22966.7    435.4   0.016001948   0.22938   0.31827  -0.07623  -0.34967
  10   23496.0    425.6   0.127822650   1.79097  -0.04336   1.12172  -0.72859
  11   24434.2    409.3   0.082505121   1.11163   0.30342   0.91785   0.42086
  12   25541.5    391.5   0.082601933   1.06468  -0.16276  -1.01504  -0.08874
  13   25729.8    388.7   0.049180235   0.62926  -0.18325  -0.42306   0.64552
  14   26362.4    379.3   0.063519155   0.79322   0.11274   0.47139  -0.74720
  15   27108.7    368.9   0.007643536   0.09282  -0.09705  -0.22359   0.18279
  16   27351.1    365.6   0.036676217   0.44145  -0.36521  -0.38112   0.40352
  17   27608.9    362.2   0.036228275   0.43199  -0.28362  -0.58369  -0.10418
  18   28341.2    352.8   0.214543390   2.49214   0.47750   1.42282  -0.48961
  19   28610.9    349.5   0.029680511   0.34152   0.07326   0.57364   0.08417
  20   28829.5    346.9   0.030042055   0.34306  -0.25913  -0.51371   0.10959
  21   28944.6    345.5   0.069582386   0.79142   0.33682  -0.77629   0.27449
  22   29270.7    341.6   0.040616734   0.45682   0.02519  -0.35388  -0.57529
  23   29645.2    337.3   0.004650926   0.05165  -0.11529  -0.11333   0.15973
  24   30805.3    324.6   0.013104832   0.14005   0.00493   0.26605   0.26314
  25   31250.4    320.0   0.022350130   0.23545  -0.03129   0.38286  -0.29647
  26   31557.8    316.9   0.495520378   5.16929  -0.72129   2.03968  -0.69911
  27   31899.9    313.5   0.056536175   0.58346  -0.59966   0.47212  -0.03130
  28   32054.8    312.0   0.459587099   4.72010  -0.75774   1.61475  -1.24037
  29   32173.4    310.8   0.371297551   3.79928   0.37705  -1.30650   1.39648
  30   33069.9    302.4   0.018830220   0.18746  -0.19019  -0.37272   0.11118
  31   33105.5    302.1   0.003433401   0.03414   0.10572   0.06082  -0.13881
  32   33621.3    297.4   0.013452434   0.13172  -0.00561   0.08463  -0.35289
  33   33774.9    296.1   0.006378060   0.06217   0.24140  -0.03353  -0.05264
  34   34388.7    290.8   0.010375897   0.09933   0.25233  -0.03571  -0.18543
  35   34677.9    288.4   0.015185433   0.14416   0.27034  -0.22463   0.14360
  36   34851.4    286.9   0.275840391   2.60563   0.29451  -0.83335  -1.35072
  37   34923.9    286.3   0.126611920   1.19351   0.24781  -0.00279  -1.06400
  38   35296.1    283.3   0.069632295   0.64947   0.05775  -0.58617   0.55003
  39   35485.0    281.8   0.018643403   0.17296  -0.17834   0.12041  -0.35589
  40   35661.2    280.4   0.009761932   0.09012  -0.03851   0.20270  -0.21805
  41   35888.4    278.6   0.229601602   2.10619   0.23258  -1.22152  -0.74832
  42   36316.2    275.4   0.022458100   0.20359  -0.02488   0.25129   0.37393
  43   36821.1    271.6   0.098335803   0.87920   0.13094  -0.55236  -0.74630
  44   37118.8    269.4   0.079857476   0.70827   0.14970  -0.59833  -0.57259
  45   37432.1    267.2   0.086054033   0.75684   0.18534  -0.81169  -0.25228
  46   37919.5    263.7   0.022320869   0.19379   0.22854   0.08614  -0.36624
  47   37948.3    263.5   0.018119273   0.15719  -0.12258   0.31826  -0.20218
  48   38208.3    261.7   0.017404712   0.14996   0.01826   0.35716   0.14855
  49   38447.5    260.1   0.044267348   0.37904  -0.17366   0.49241   0.32622
  50   38502.0    259.7   0.035728852   0.30550  -0.17116   0.44330   0.28229
  51   38693.9    258.4   0.053976440   0.45924   0.18239   0.02586  -0.65215
  52   39348.0    254.1   0.091142061   0.76256   0.04768  -0.39397   0.77786
  53   39757.4    251.5   0.173642967   1.43785   0.11009   0.75186  -0.92760
  54   39849.1    250.9   0.065674696   0.54257   0.59665  -0.43052  -0.03515
  55   39989.5    250.1   0.055399341   0.45607   0.23462  -0.43222  -0.46283
  56   40316.8    248.0   0.100736745   0.82258   0.19190  -0.57980  -0.67051

FINAL SINGLE POINT ENERGY     -3872.066349845362

DIPOLE MOMENT
-------------
                                X             Y             Z
Electronic contribution:      4.04835       9.47504      -3.46537
Nuclear contribution   :     -4.90644      -8.70695       5.21450
                        -----------------------------------------
Total Dipole Moment    :     -0.85809       0.76810       1.74913
                        -----------------------------------------
Magnitude (a.u.)       :      2.09421
Magnitude (Debye)      :      5.32307

Rotational constants in cm-1:     0.001679     0.000159     0.000149
Rotational constants in MHz :    50.339374     4.753856     4.470173

                             ****ORCA TERMINATED NORMALLY****
TOTAL RUN TIME: 0 days 0 hours 18 minutes 31 seconds 864 msec
