                         Program Version 4.2.0 -  RELEASE  -
|  1> # ORCA input file
|  2> # SCF done       -205.579729505024          0.000857866220
|  3> ! CAM-B3LYP def2-SVP def2/J RIJCOSX Grid4 TightSCF
|  4> %maxcore 5000
|  5> %tddft
|  6>     Mode sTDDFT
|  7>     Ethresh 5.0
|  8>     maxcore 5000
|  9> end
| 10>
| 11> %pal
| 12>   nprocs 6
| 13>   end
| 14> * xyz 0 1
| 15>    C       -2.56529         1.81975        -0.00221
| 16>    C       -3.25069         1.98033         1.19258
| 17>    C       -3.33185         0.94802         2.11675
| 18>    C       -2.72138        -0.27370         1.87673
| 19>    C       -2.03047        -0.44469         0.68842
| 20>    C       -1.95601         0.60132        -0.25926
| 21>    C       -1.19771         0.13743        -1.41309
| 22>    C       -0.78209         0.90858        -2.46444
| 23>    C       -1.04463         2.29100        -2.58133
| 24>    N       -1.22421         3.41308        -2.74091
| 25>    C        0.00351         0.46448        -3.55009
| 26>    N        0.65134         0.18485        -4.45576
| 27>    C       -0.96725        -1.29209        -1.21758
| 28>    C       -1.28064        -1.58285         0.17907
| 29>    C       -0.75360        -2.58733         0.94231
| 30>    C        0.18453        -3.53767         0.48530
| 31>    N        0.98665        -4.30910         0.20590
| 32>    C       -1.01330        -2.74255         2.32114
| 33>    N       -1.19118        -2.91983         3.44067
| 34>    C       -0.63308        -2.15795        -2.21998
| 35>    C       -0.75158        -3.56816        -2.24659
| 36>    C       -1.57809        -4.39116        -1.51172
| 37>    C       -1.38305        -5.74004        -1.93344
| 38>    C       -0.38541        -5.66904        -3.00320
| 39>    C       -0.01970        -4.39506        -3.21026
| 40>    F        0.06214        -6.74233        -3.65623
| 41>    C       -1.96222        -6.87475        -1.41640
| 42>    C       -1.74559        -8.22963        -1.78992
| 43>    C       -2.51001        -9.05150        -0.98456
| 44>    C       -3.26143        -8.20355        -0.04609
| 45>    C       -2.93149        -6.93309        -0.31158
| 46>    F       -3.39350        -5.84574         0.31593
| 47>    C       -2.54458       -10.45894        -1.06959
| 48>    C       -3.27061       -11.25953        -0.23783
| 49>    C       -3.33063       -12.66803        -0.29641
| 50>    S       -3.94458       -13.53283         1.08006
| 51>    C       -3.65478       -15.08078         0.33006
| 52>    C       -3.10818       -14.90915        -0.95073
| 53>    C       -2.95296       -13.56568        -1.29054
| 54>    S       -2.55628       -13.04167        -2.96176
| 55>    O       -1.18312       -12.61793        -3.01991
| 56>    O       -3.56312       -12.10600        -3.37818
| 57>    C       -2.71660       -14.59154        -3.88812
| 58>    C       -1.94080       -15.61321        -3.08723
| 59>    C       -2.71259       -16.04522        -1.84304
| 60>    C       -4.01232       -16.24319         1.05355
| 61>    C       -4.56431       -16.22639         2.32309
| 62>    C       -4.82454       -17.55223         2.74673
| 63>    C       -4.37926       -18.39858         1.63413
| 64>    C       -3.90429       -17.64425         0.63127
| 65>    F       -4.44851       -19.73150         1.64396
| 66>    C       -5.39218       -17.98277         3.92723
| 67>    C       -5.67046       -19.31587         4.33378
| 68>    C       -6.27270       -19.28992         5.57813
| 69>    C       -6.38149       -17.89149         6.00413
| 70>    C       -5.85944       -17.13441         5.02814
| 71>    F       -5.76002       -15.80127         5.02082
| 72>    C       -6.75657       -20.36807         6.34954
| 73>    C       -6.59972       -21.68656         6.03389
| 74>    C       -7.04159       -22.77677         6.81841
| 75>    C       -8.07997       -22.82692         7.71064
| 76>    C       -8.19925       -23.81402         8.77938
| 77>    C       -7.52927       -25.00259         8.89446
| 78>    C       -6.61609       -25.53114         7.95688
| 79>    N       -5.86675       -26.03225         7.24546
| 80>    C       -7.69705       -25.90283         9.96906
| 81>    N       -7.78607       -26.68067        10.80822
| 82>    C       -9.17737       -23.29304         9.72593
| 83>    C       -9.75998       -22.12497         9.18409
| 84>    C      -10.71293       -21.41478         9.89558
| 85>    C      -11.08529       -21.87869        11.14825
| 86>    C      -10.52197       -23.03089        11.67822
| 87>    C       -9.56478       -23.74852        10.97650
| 88>    C       -9.19922       -21.90306         7.85987
| 89>    C       -9.78663       -21.16632         6.86651
| 90>    C      -10.93525       -20.36944         7.05535
| 91>    N      -11.85685       -19.69245         7.15365
| 92>    C       -9.37627       -21.17088         5.51674
| 93>    N       -9.12874       -21.16267         4.39635
| 94>    H       -2.52019         2.62969        -0.71136
| 95>    H       -3.73213         2.92329         1.40173
| 96>    H       -3.87900         1.09478         3.03529
| 97>    H       -2.79939        -1.07165         2.59708
| 98>    H       -0.28818        -1.72551        -3.15081
| 99>    H       -2.29403        -4.08398        -0.77457
|100>    H        0.69642        -4.02102        -3.91523
|101>    H       -1.09136        -8.56003        -2.57251
|102>    H       -3.94506        -8.54570         0.70498
|103>    H       -1.92858       -10.89984        -1.83796
|104>    H       -3.82122       -10.81436         0.58051
|105>    H       -2.28718       -14.40901        -4.86924
|106>    H       -3.77552       -14.81776        -3.97527
|107>    H       -0.99035       -15.15731        -2.79920
|108>    H       -1.72411       -16.49573        -3.69270
|109>    H       -2.08778       -16.73402        -1.27012
|110>    H       -3.61491       -16.58485        -2.14909
|111>    H       -4.76949       -15.34482         2.89831
|112>    H       -3.52913       -18.01009        -0.30084
|113>    H       -5.46176       -20.18739         3.74665
|114>    H       -6.80699       -17.56148         6.93186
|115>    H       -7.25421       -20.10454         7.27561
|116>    H       -5.99462       -21.93946         5.17493
|117>    H       -6.43034       -23.66634         6.73437
|118>    H      -11.15173       -20.51420         9.49759
|119>    H      -11.82242       -21.33301        11.71705
|120>    H      -10.82837       -23.37493        12.65413
|121>    H       -9.13459       -24.63713        11.40781
|122> *
|123>
|124>                          ****END OF INPUT****

CARTESIAN COORDINATES (ANGSTROEM)
---------------------------------
  C     -2.565290    1.819750   -0.002210
  C     -3.250690    1.980330    1.192580
  C     -3.331850    0.948020    2.116750
  C     -2.721380   -0.273700    1.876730
  C     -2.030470   -0.444690    0.688420
  C     -1.956010    0.601320   -0.259260
  C     -1.197710    0.137430   -1.413090
  C     -0.782090    0.908580   -2.464440
  C     -1.044630    2.291000   -2.581330
  N     -1.224210    3.413080   -2.740910
  C      0.003510    0.464480   -3.550090
  N      0.651340    0.184850   -4.455760
  C     -0.967250   -1.292090   -1.217580
  C     -1.280640   -1.582850    0.179070
  C     -0.753600   -2.587330    0.942310
  C      0.184530   -3.537670    0.485300
  N      0.986650   -4.309100    0.205900
  C     -1.013300   -2.742550    2.321140
  N     -1.191180   -2.919830    3.440670
  C     -0.633080   -2.157950   -2.219980
  C     -0.751580   -3.568160   -2.246590
  C     -1.578090   -4.391160   -1.511720
  C     -1.383050   -5.740040   -1.933440
  C     -0.385410   -5.669040   -3.003200
  C     -0.019700   -4.395060   -3.210260
  F      0.062140   -6.742330   -3.656230
  C     -1.962220   -6.874750   -1.416400
  C     -1.745590   -8.229630   -1.789920
  C     -2.510010   -9.051500   -0.984560
  C     -3.261430   -8.203550   -0.046090
  C     -2.931490   -6.933090   -0.311580
  F     -3.393500   -5.845740    0.315930
  C     -2.544580  -10.458940   -1.069590
  C     -3.270610  -11.259530   -0.237830
  C     -3.330630  -12.668030   -0.296410
  S     -3.944580  -13.532830    1.080060
  C     -3.654780  -15.080780    0.330060
  C     -3.108180  -14.909150   -0.950730
  C     -2.952960  -13.565680   -1.290540
  S     -2.556280  -13.041670   -2.961760
  O     -1.183120  -12.617930   -3.019910
  O     -3.563120  -12.106000   -3.378180
  C     -2.716600  -14.591540   -3.888120
  C     -1.940800  -15.613210   -3.087230
  C     -2.712590  -16.045220   -1.843040
  C     -4.012320  -16.243190    1.053550
  C     -4.564310  -16.226390    2.323090
  C     -4.824540  -17.552230    2.746730
  C     -4.379260  -18.398580    1.634130
  C     -3.904290  -17.644250    0.631270
  F     -4.448510  -19.731500    1.643960
  C     -5.392180  -17.982770    3.927230
  C     -5.670460  -19.315870    4.333780
  C     -6.272700  -19.289920    5.578130
  C     -6.381490  -17.891490    6.004130
  C     -5.859440  -17.134410    5.028140
  F     -5.760020  -15.801270    5.020820
  C     -6.756570  -20.368070    6.349540
  C     -6.599720  -21.686560    6.033890
  C     -7.041590  -22.776770    6.818410
  C     -8.079970  -22.826920    7.710640
  C     -8.199250  -23.814020    8.779380
  C     -7.529270  -25.002590    8.894460
  C     -6.616090  -25.531140    7.956880
  N     -5.866750  -26.032250    7.245460
  C     -7.697050  -25.902830    9.969060
  N     -7.786070  -26.680670   10.808220
  C     -9.177370  -23.293040    9.725930
  C     -9.759980  -22.124970    9.184090
  C    -10.712930  -21.414780    9.895580
  C    -11.085290  -21.878690   11.148250
  C    -10.521970  -23.030890   11.678220
  C     -9.564780  -23.748520   10.976500
  C     -9.199220  -21.903060    7.859870
  C     -9.786630  -21.166320    6.866510
  C    -10.935250  -20.369440    7.055350
  N    -11.856850  -19.692450    7.153650
  C     -9.376270  -21.170880    5.516740
  N     -9.128740  -21.162670    4.396350
  H     -2.520190    2.629690   -0.711360
  H     -3.732130    2.923290    1.401730
  H     -3.879000    1.094780    3.035290
  H     -2.799390   -1.071650    2.597080
  H     -0.288180   -1.725510   -3.150810
  H     -2.294030   -4.083980   -0.774570
  H      0.696420   -4.021020   -3.915230
  H     -1.091360   -8.560030   -2.572510
  H     -3.945060   -8.545700    0.704980
  H     -1.928580  -10.899840   -1.837960
  H     -3.821220  -10.814360    0.580510
  H     -2.287180  -14.409010   -4.869240
  H     -3.775520  -14.817760   -3.975270
  H     -0.990350  -15.157310   -2.799200
  H     -1.724110  -16.495730   -3.692700
  H     -2.087780  -16.734020   -1.270120
  H     -3.614910  -16.584850   -2.149090
  H     -4.769490  -15.344820    2.898310
  H     -3.529130  -18.010090   -0.300840
  H     -5.461760  -20.187390    3.746650
  H     -6.806990  -17.561480    6.931860
  H     -7.254210  -20.104540    7.275610
  H     -5.994620  -21.939460    5.174930
  H     -6.430340  -23.666340    6.734370
  H    -11.151730  -20.514200    9.497590
  H    -11.822420  -21.333010   11.717050
  H    -10.828370  -23.374930   12.654130
  H     -9.134590  -24.637130   11.407810

 Total Charge           Charge          ....    0
 Multiplicity           Mult            ....    1
 Number of Electrons    NEL             ....  546
 Basis Dimension        Dim             .... 1254

ORBITAL ENERGIES
----------------

  NO   OCC          E(Eh)            E(eV)
   0   2.0000     -89.156260     -2426.0652
   1   2.0000     -88.985649     -2421.4226
   2   2.0000     -24.809799      -675.1090
   3   2.0000     -24.804569      -674.9666
   4   2.0000     -24.800960      -674.8684
   5   2.0000     -24.794711      -674.6984
   6   2.0000     -19.208679      -522.6947
   7   2.0000     -19.203887      -522.5643
   8   2.0000     -14.426421      -392.5629
   9   2.0000     -14.425772      -392.5452
  10   2.0000     -14.425419      -392.5356
  11   2.0000     -14.424885      -392.5211
  12   2.0000     -14.424152      -392.5011
  13   2.0000     -14.423479      -392.4828
  14   2.0000     -14.422759      -392.4632
  15   2.0000     -14.422463      -392.4552
  16   2.0000     -10.377396      -282.3833
  17   2.0000     -10.371121      -282.2125
  18   2.0000     -10.366449      -282.0854
  19   2.0000     -10.362450      -281.9766
  20   2.0000     -10.356055      -281.8026
  21   2.0000     -10.355409      -281.7850
  22   2.0000     -10.354913      -281.7715
  23   2.0000     -10.354433      -281.7585
  24   2.0000     -10.352923      -281.7174
  25   2.0000     -10.352801      -281.7140
  26   2.0000     -10.351897      -281.6894
  27   2.0000     -10.350660      -281.6558
  28   2.0000     -10.343760      -281.4680
  29   2.0000     -10.332630      -281.1652
  30   2.0000     -10.328479      -281.0522
  31   2.0000     -10.328424      -281.0507
  32   2.0000     -10.328088      -281.0416
  33   2.0000     -10.327293      -281.0199
  34   2.0000     -10.326552      -280.9998
  35   2.0000     -10.326098      -280.9874
  36   2.0000     -10.326053      -280.9862
  37   2.0000     -10.326028      -280.9855
  38   2.0000     -10.325554      -280.9726
  39   2.0000     -10.325266      -280.9648
  40   2.0000     -10.325162      -280.9619
  41   2.0000     -10.324661      -280.9483
  42   2.0000     -10.324618      -280.9471
  43   2.0000     -10.324352      -280.9399
  44   2.0000     -10.323548      -280.9180
  45   2.0000     -10.321855      -280.8719
  46   2.0000     -10.321532      -280.8632
  47   2.0000     -10.319369      -280.8043
  48   2.0000     -10.318848      -280.7901
  49   2.0000     -10.318057      -280.7686
  50   2.0000     -10.317739      -280.7600
  51   2.0000     -10.317274      -280.7473
  52   2.0000     -10.316481      -280.7257
  53   2.0000     -10.316174      -280.7174
  54   2.0000     -10.315290      -280.6933
  55   2.0000     -10.308859      -280.5183
  56   2.0000     -10.308099      -280.4976
  57   2.0000     -10.305976      -280.4399
  58   2.0000     -10.305936      -280.4388
  59   2.0000     -10.305731      -280.4332
  60   2.0000     -10.305323      -280.4221
  61   2.0000     -10.305003      -280.4134
  62   2.0000     -10.304993      -280.4131
  63   2.0000     -10.304699      -280.4051
  64   2.0000     -10.304235      -280.3925
  65   2.0000     -10.304069      -280.3880
  66   2.0000     -10.303870      -280.3826
  67   2.0000     -10.303237      -280.3653
  68   2.0000     -10.303069      -280.3608
  69   2.0000     -10.302200      -280.3371
  70   2.0000     -10.299179      -280.2549
  71   2.0000     -10.295435      -280.1530
  72   2.0000     -10.292694      -280.0784
  73   2.0000     -10.289350      -279.9875
  74   2.0000     -10.286562      -279.9116
  75   2.0000     -10.285609      -279.8857
  76   2.0000     -10.281529      -279.7746
  77   2.0000     -10.280184      -279.7380
  78   2.0000     -10.279751      -279.7263
  79   2.0000      -8.221306      -223.7131
  80   2.0000      -8.081114      -219.8983
  81   2.0000      -6.190335      -168.4476
  82   2.0000      -6.190150      -168.4426
  83   2.0000      -6.189280      -168.4189
  84   2.0000      -6.050265      -164.6361
  85   2.0000      -6.046269      -164.5273
  86   2.0000      -6.043274      -164.4458
  87   2.0000      -1.323168       -36.0052
  88   2.0000      -1.317213       -35.8432
  89   2.0000      -1.313784       -35.7499
  90   2.0000      -1.308716       -35.6120
  91   2.0000      -1.214963       -33.0608
  92   2.0000      -1.092634       -29.7321
  93   2.0000      -1.040929       -28.3251
  94   2.0000      -1.039753       -28.2931
  95   2.0000      -1.025722       -27.9113
  96   2.0000      -1.022500       -27.8236
  97   2.0000      -1.021132       -27.7864
  98   2.0000      -1.012052       -27.5393
  99   2.0000      -1.010542       -27.4982
 100   2.0000      -1.005127       -27.3509
 101   2.0000      -1.004518       -27.3343
 102   2.0000      -1.003211       -27.2988
 103   2.0000      -1.002997       -27.2929
 104   2.0000      -1.002128       -27.2693
 105   2.0000      -0.999888       -27.2083
 106   2.0000      -0.986480       -26.8435
 107   2.0000      -0.984306       -26.7843
 108   2.0000      -0.965502       -26.2727
 109   2.0000      -0.961242       -26.1567
 110   2.0000      -0.952127       -25.9087
 111   2.0000      -0.945064       -25.7165
 112   2.0000      -0.943676       -25.6787
 113   2.0000      -0.930488       -25.3199
 114   2.0000      -0.921838       -25.0845
 115   2.0000      -0.904061       -24.6007
 116   2.0000      -0.899453       -24.4754
 117   2.0000      -0.895808       -24.3762
 118   2.0000      -0.888113       -24.1668
 119   2.0000      -0.876986       -23.8640
 120   2.0000      -0.875379       -23.8203
 121   2.0000      -0.871105       -23.7040
 122   2.0000      -0.869568       -23.6622
 123   2.0000      -0.859473       -23.3875
 124   2.0000      -0.855130       -23.2693
 125   2.0000      -0.838848       -22.8262
 126   2.0000      -0.822879       -22.3917
 127   2.0000      -0.821106       -22.3434
 128   2.0000      -0.819360       -22.2959
 129   2.0000      -0.810258       -22.0483
 130   2.0000      -0.802568       -21.8390
 131   2.0000      -0.796558       -21.6754
 132   2.0000      -0.794903       -21.6304
 133   2.0000      -0.784483       -21.3469
 134   2.0000      -0.770480       -20.9658
 135   2.0000      -0.760461       -20.6932
 136   2.0000      -0.742778       -20.2120
 137   2.0000      -0.738578       -20.0977
 138   2.0000      -0.733368       -19.9560
 139   2.0000      -0.722236       -19.6530
 140   2.0000      -0.720655       -19.6100
 141   2.0000      -0.718924       -19.5629
 142   2.0000      -0.718314       -19.5463
 143   2.0000      -0.717369       -19.5206
 144   2.0000      -0.710360       -19.3299
 145   2.0000      -0.693826       -18.8800
 146   2.0000      -0.687723       -18.7139
 147   2.0000      -0.682753       -18.5786
 148   2.0000      -0.678649       -18.4670
 149   2.0000      -0.674227       -18.3466
 150   2.0000      -0.673766       -18.3341
 151   2.0000      -0.671171       -18.2635
 152   2.0000      -0.670866       -18.2552
 153   2.0000      -0.668492       -18.1906
 154   2.0000      -0.665526       -18.1099
 155   2.0000      -0.658244       -17.9117
 156   2.0000      -0.655862       -17.8469
 157   2.0000      -0.650285       -17.6952
 158   2.0000      -0.642579       -17.4855
 159   2.0000      -0.637342       -17.3430
 160   2.0000      -0.637068       -17.3355
 161   2.0000      -0.624838       -17.0027
 162   2.0000      -0.623551       -16.9677
 163   2.0000      -0.617364       -16.7993
 164   2.0000      -0.609672       -16.5900
 165   2.0000      -0.596586       -16.2339
 166   2.0000      -0.592875       -16.1330
 167   2.0000      -0.591325       -16.0908
 168   2.0000      -0.590184       -16.0597
 169   2.0000      -0.589226       -16.0337
 170   2.0000      -0.586655       -15.9637
 171   2.0000      -0.580341       -15.7919
 172   2.0000      -0.578294       -15.7362
 173   2.0000      -0.574182       -15.6243
 174   2.0000      -0.573256       -15.5991
 175   2.0000      -0.570256       -15.5175
 176   2.0000      -0.567385       -15.4393
 177   2.0000      -0.566109       -15.4046
 178   2.0000      -0.565638       -15.3918
 179   2.0000      -0.562322       -15.3016
 180   2.0000      -0.561767       -15.2865
 181   2.0000      -0.558253       -15.1908
 182   2.0000      -0.554699       -15.0941
 183   2.0000      -0.552706       -15.0399
 184   2.0000      -0.549713       -14.9585
 185   2.0000      -0.548696       -14.9308
 186   2.0000      -0.548304       -14.9201
 187   2.0000      -0.547024       -14.8853
 188   2.0000      -0.545646       -14.8478
 189   2.0000      -0.541337       -14.7305
 190   2.0000      -0.539401       -14.6779
 191   2.0000      -0.538535       -14.6543
 192   2.0000      -0.535881       -14.5821
 193   2.0000      -0.534514       -14.5449
 194   2.0000      -0.529478       -14.4078
 195   2.0000      -0.522392       -14.2150
 196   2.0000      -0.518712       -14.1149
 197   2.0000      -0.513456       -13.9719
 198   2.0000      -0.513343       -13.9688
 199   2.0000      -0.512678       -13.9507
 200   2.0000      -0.510521       -13.8920
 201   2.0000      -0.510271       -13.8852
 202   2.0000      -0.504777       -13.7357
 203   2.0000      -0.502852       -13.6833
 204   2.0000      -0.498018       -13.5517
 205   2.0000      -0.493232       -13.4215
 206   2.0000      -0.492066       -13.3898
 207   2.0000      -0.490994       -13.3606
 208   2.0000      -0.487886       -13.2761
 209   2.0000      -0.486038       -13.2258
 210   2.0000      -0.484842       -13.1932
 211   2.0000      -0.482882       -13.1399
 212   2.0000      -0.480434       -13.0733
 213   2.0000      -0.477497       -12.9934
 214   2.0000      -0.476473       -12.9655
 215   2.0000      -0.473399       -12.8818
 216   2.0000      -0.471950       -12.8424
 217   2.0000      -0.468968       -12.7613
 218   2.0000      -0.466192       -12.6857
 219   2.0000      -0.464601       -12.6424
 220   2.0000      -0.462790       -12.5931
 221   2.0000      -0.461286       -12.5522
 222   2.0000      -0.461084       -12.5467
 223   2.0000      -0.460111       -12.5203
 224   2.0000      -0.458025       -12.4635
 225   2.0000      -0.457015       -12.4360
 226   2.0000      -0.456270       -12.4157
 227   2.0000      -0.455865       -12.4047
 228   2.0000      -0.455059       -12.3828
 229   2.0000      -0.452368       -12.3096
 230   2.0000      -0.450821       -12.2675
 231   2.0000      -0.450525       -12.2594
 232   2.0000      -0.449112       -12.2210
 233   2.0000      -0.448902       -12.2152
 234   2.0000      -0.448178       -12.1955
 235   2.0000      -0.440847       -11.9960
 236   2.0000      -0.439437       -11.9577
 237   2.0000      -0.438594       -11.9348
 238   2.0000      -0.436265       -11.8714
 239   2.0000      -0.435067       -11.8388
 240   2.0000      -0.434466       -11.8224
 241   2.0000      -0.432914       -11.7802
 242   2.0000      -0.431273       -11.7355
 243   2.0000      -0.429933       -11.6991
 244   2.0000      -0.429127       -11.6771
 245   2.0000      -0.428408       -11.6576
 246   2.0000      -0.422818       -11.5055
 247   2.0000      -0.419176       -11.4064
 248   2.0000      -0.417459       -11.3596
 249   2.0000      -0.415716       -11.3122
 250   2.0000      -0.414891       -11.2898
 251   2.0000      -0.413091       -11.2408
 252   2.0000      -0.411047       -11.1851
 253   2.0000      -0.401050       -10.9131
 254   2.0000      -0.393498       -10.7076
 255   2.0000      -0.389730       -10.6051
 256   2.0000      -0.388373       -10.5682
 257   2.0000      -0.386857       -10.5269
 258   2.0000      -0.371945       -10.1211
 259   2.0000      -0.367827       -10.0091
 260   2.0000      -0.357417        -9.7258
 261   2.0000      -0.346805        -9.4370
 262   2.0000      -0.341632        -9.2963
 263   2.0000      -0.338945        -9.2232
 264   2.0000      -0.337539        -9.1849
 265   2.0000      -0.327916        -8.9230
 266   2.0000      -0.322785        -8.7834
 267   2.0000      -0.313223        -8.5232
 268   2.0000      -0.312578        -8.5057
 269   2.0000      -0.299552        -8.1512
 270   2.0000      -0.286690        -7.8012
 271   2.0000      -0.277005        -7.5377
 272   2.0000      -0.253307        -6.8928
 273   0.0000      -0.140407        -3.8207
 274   0.0000      -0.123524        -3.3612
 275   0.0000      -0.092367        -2.5134
 276   0.0000      -0.089746        -2.4421
 277   0.0000      -0.088102        -2.3974

MULLIKEN ATOMIC CHARGES
-----------------------
   0 C :   -0.037863
   1 C :    0.049788
   2 C :    0.049404
   3 C :   -0.035407
   4 C :    0.005793
   5 C :    0.017937
   6 C :    0.288036
   7 C :   -0.341576
   8 C :   -0.188166
   9 N :    0.163082
  10 C :   -0.178346
  11 N :    0.159652
  12 C :   -0.046237
  13 C :    0.222111
  14 C :   -0.322081
  15 C :   -0.199443
  16 N :    0.192720
  17 C :   -0.186429
  18 N :    0.168836
  19 C :    0.041321
  20 C :    0.038907
  21 C :   -0.046546
  22 C :   -0.008697
  23 C :    0.271466
  24 C :   -0.060798
  25 F :   -0.167818
  26 C :    0.028563
  27 C :   -0.068928
  28 C :    0.086857
  29 C :   -0.065066
  30 C :    0.259433
  31 F :   -0.172449
  32 C :    0.033468
  33 C :    0.040701
  34 C :   -0.084310
  35 S :    0.164877
  36 C :   -0.117344
  37 C :   -0.046156
  38 C :   -0.058198
  39 S :    0.720736
  40 O :   -0.446667
  41 O :   -0.446247
  42 C :   -0.005089
  43 C :   -0.004815
  44 C :    0.062830
  45 C :    0.110521
  46 C :   -0.126587
  47 C :    0.033914
  48 C :    0.267487
  49 C :   -0.097673
  50 F :   -0.164276
  51 C :   -0.008601
  52 C :   -0.049628
  53 C :    0.074290
  54 C :   -0.074350
  55 C :    0.260411
  56 F :   -0.174071
  57 C :    0.044188
  58 C :   -0.001342
  59 C :    0.043817
  60 C :   -0.058782
  61 C :    0.295675
  62 C :   -0.343036
  63 C :   -0.181129
  64 N :    0.157306
  65 C :   -0.190278
  66 N :    0.162673
  67 C :    0.016122
  68 C :   -0.001449
  69 C :   -0.029344
  70 C :    0.043820
  71 C :    0.048826
  72 C :   -0.032606
  73 C :    0.225789
  74 C :   -0.331082
  75 C :   -0.184483
  76 N :    0.165073
  77 C :   -0.197077
  78 N :    0.183883
  79 H :    0.008605
  80 H :    0.004944
  81 H :    0.005812
  82 H :    0.009378
  83 H :    0.016179
  84 H :    0.009495
  85 H :   -0.000912
  86 H :    0.007179
  87 H :   -0.009398
  88 H :    0.001597
  89 H :   -0.011557
  90 H :    0.075476
  91 H :    0.057892
  92 H :    0.051282
  93 H :    0.030760
  94 H :    0.050035
  95 H :    0.039132
  96 H :    0.000879
  97 H :   -0.021933
  98 H :   -0.002425
  99 H :   -0.014416
 100 H :    0.006285
 101 H :    0.013433
 102 H :    0.026529
 103 H :    0.006160
 104 H :    0.007096
 105 H :    0.005469
 106 H :    0.007179
Sum of atomic charges:   -0.0000000

LOEWDIN ATOMIC CHARGES
----------------------
   0 C :    0.005532
   1 C :    0.002913
   2 C :    0.005694
   3 C :    0.002142
   4 C :   -0.009797
   5 C :   -0.013253
   6 C :    0.077500
   7 C :   -0.129266
   8 C :   -0.018808
   9 N :   -0.043676
  10 C :   -0.022409
  11 N :   -0.040958
  12 C :   -0.042556
  13 C :    0.065413
  14 C :   -0.122175
  15 C :   -0.019130
  16 N :   -0.030526
  17 C :   -0.019502
  18 N :   -0.042017
  19 C :    0.061399
  20 C :   -0.024865
  21 C :   -0.001714
  22 C :   -0.002785
  23 C :    0.080633
  24 C :   -0.043878
  25 F :   -0.044086
  26 C :    0.024990
  27 C :   -0.033257
  28 C :    0.012273
  29 C :   -0.047971
  30 C :    0.083606
  31 F :   -0.048817
  32 C :    0.019740
  33 C :   -0.040881
  34 C :   -0.139432
  35 S :    0.485668
  36 C :   -0.168778
  37 C :   -0.042445
  38 C :   -0.220692
  39 S :    1.171265
  40 O :   -0.502551
  41 O :   -0.499101
  42 C :   -0.127145
  43 C :   -0.046877
  44 C :   -0.030628
  45 C :   -0.003768
  46 C :   -0.078738
  47 C :    0.015525
  48 C :    0.091227
  49 C :   -0.064276
  50 F :   -0.042136
  51 C :   -0.004006
  52 C :   -0.017354
  53 C :   -0.016363
  54 C :   -0.054340
  55 C :    0.076446
  56 F :   -0.050029
  57 C :    0.036168
  58 C :   -0.016720
  59 C :    0.057209
  60 C :   -0.053761
  61 C :    0.077003
  62 C :   -0.131057
  63 C :   -0.022356
  64 N :   -0.042090
  65 C :   -0.019051
  66 N :   -0.044862
  67 C :   -0.012884
  68 C :   -0.011695
  69 C :    0.001580
  70 C :    0.004676
  71 C :    0.003256
  72 C :    0.005571
  73 C :    0.064036
  74 C :   -0.130327
  75 C :   -0.021046
  76 N :   -0.044593
  77 C :   -0.019063
  78 N :   -0.034451
  79 H :    0.042011
  80 H :    0.038158
  81 H :    0.038250
  82 H :    0.041537
  83 H :    0.049643
  84 H :    0.025237
  85 H :    0.037311
  86 H :    0.033461
  87 H :    0.031991
  88 H :    0.026943
  89 H :    0.030115
  90 H :    0.046472
  91 H :    0.035278
  92 H :    0.033432
  93 H :    0.038579
  94 H :    0.044245
  95 H :    0.039228
  96 H :    0.018380
  97 H :    0.029552
  98 H :    0.026295
  99 H :    0.031794
 100 H :    0.034564
 101 H :    0.041431
 102 H :    0.049987
 103 H :    0.040949
 104 H :    0.038389
 105 H :    0.038282
 106 H :    0.041962

  Mayer bond orders larger than 0.100000
B(  0-C ,  1-C ) :   1.3743 B(  0-C ,  5-C ) :   1.3805 B(  0-C , 79-H ) :   0.9833
B(  1-C ,  2-C ) :   1.3754 B(  1-C , 80-H ) :   0.9853 B(  2-C ,  3-C ) :   1.3681
B(  2-C , 81-H ) :   0.9860 B(  3-C ,  4-C ) :   1.3816 B(  3-C , 82-H ) :   0.9867
B(  4-C ,  5-C ) :   1.3100 B(  4-C , 13-C ) :   1.0064 B(  5-C ,  6-C ) :   1.0002
B(  6-C ,  7-C ) :   1.6439 B(  6-C , 12-C ) :   1.0472 B(  7-C ,  8-C ) :   1.1467
B(  7-C , 10-C ) :   1.1341 B(  8-C ,  9-N ) :   2.9790 B( 10-C , 11-N ) :   2.9759
B( 12-C , 13-C ) :   1.0111 B( 12-C , 19-C ) :   1.6183 B( 13-C , 14-C ) :   1.6720
B( 14-C , 15-C ) :   1.1552 B( 14-C , 17-C ) :   1.1387 B( 15-C , 16-N ) :   3.0086
B( 17-C , 18-N ) :   2.9966 B( 19-C , 20-C ) :   1.1325 B( 19-C , 83-H ) :   0.9272
B( 20-C , 21-C ) :   1.5061 B( 20-C , 24-C ) :   1.0250 B( 21-C , 22-C ) :   1.1326
B( 21-C , 84-H ) :   1.0049 B( 22-C , 23-C ) :   1.0312 B( 22-C , 26-C ) :   1.4620
B( 23-C , 24-C ) :   1.6471 B( 23-C , 25-F ) :   1.1363 B( 24-C , 85-H ) :   1.0204
B( 26-C , 27-C ) :   1.1224 B( 26-C , 30-C ) :   1.0079 B( 27-C , 28-C ) :   1.5012
B( 27-C , 86-H ) :   1.0248 B( 28-C , 29-C ) :   0.9976 B( 28-C , 32-C ) :   1.1903
B( 29-C , 30-C ) :   1.6872 B( 29-C , 87-H ) :   1.0114 B( 30-C , 31-F ) :   1.1238
B( 32-C , 33-C ) :   1.5864 B( 32-C , 88-H ) :   0.9424 B( 33-C , 34-C ) :   1.1598
B( 33-C , 89-H ) :   0.9492 B( 34-C , 35-S ) :   1.1659 B( 34-C , 36-C ) :   0.1043
B( 34-C , 38-C ) :   1.4824 B( 35-S , 36-C ) :   1.1163 B( 36-C , 37-C ) :   1.4655
B( 36-C , 45-C ) :   1.1666 B( 37-C , 38-C ) :   1.3460 B( 37-C , 44-C ) :   1.0499
B( 38-C , 39-S ) :   0.8054 B( 39-S , 40-O ) :   1.6418 B( 39-S , 41-O ) :   1.7292
B( 39-S , 42-C ) :   0.8699 B( 42-C , 43-C ) :   1.0233 B( 42-C , 90-H ) :   0.9326
B( 42-C , 91-H ) :   0.9380 B( 43-C , 44-C ) :   1.0824 B( 43-C , 92-H ) :   0.9398
B( 43-C , 93-H ) :   0.9293 B( 44-C , 94-H ) :   0.9134 B( 44-C , 95-H ) :   0.9122
B( 45-C , 46-C ) :   1.4941 B( 45-C , 49-C ) :   1.0140 B( 46-C , 47-C ) :   1.1732
B( 46-C , 96-H ) :   1.0033 B( 47-C , 48-C ) :   1.0082 B( 47-C , 51-C ) :   1.4292
B( 48-C , 49-C ) :   1.6636 B( 48-C , 50-F ) :   1.1400 B( 49-C , 97-H ) :   1.0146
B( 51-C , 52-C ) :   1.1405 B( 51-C , 55-C ) :   1.0246 B( 52-C , 53-C ) :   1.5199
B( 52-C , 98-H ) :   1.0050 B( 53-C , 54-C ) :   1.0154 B( 53-C , 57-C ) :   1.1684
B( 54-C , 55-C ) :   1.6545 B( 54-C , 99-H ) :   1.0201 B( 55-C , 56-F ) :   1.1256
B( 57-C , 58-C ) :   1.6040 B( 57-C ,100-H ) :   0.9656 B( 58-C , 59-C ) :   1.1890
B( 58-C ,101-H ) :   0.9549 B( 59-C , 60-C ) :   1.5986 B( 59-C ,102-H ) :   0.9208
B( 60-C , 61-C ) :   1.0587 B( 60-C , 73-C ) :   1.0182 B( 61-C , 62-C ) :   1.6361
B( 61-C , 67-C ) :   0.9967 B( 62-C , 63-C ) :   1.1358 B( 62-C , 65-C ) :   1.1484
B( 63-C , 64-N ) :   2.9707 B( 65-C , 66-N ) :   2.9773 B( 67-C , 68-C ) :   1.3143
B( 67-C , 72-C ) :   1.3780 B( 68-C , 69-C ) :   1.3798 B( 68-C , 73-C ) :   1.0057
B( 69-C , 70-C ) :   1.3666 B( 69-C ,103-H ) :   0.9881 B( 70-C , 71-C ) :   1.3759
B( 70-C ,104-H ) :   0.9869 B( 71-C , 72-C ) :   1.3724 B( 71-C ,105-H ) :   0.9859
B( 72-C ,106-H ) :   0.9843 B( 73-C , 74-C ) :   1.6569 B( 74-C , 75-C ) :   1.1388
B( 74-C , 77-C ) :   1.1520 B( 75-C , 76-N ) :   2.9932 B( 77-C , 78-N ) :   3.0055

-----------------------------------------------------------------------------
         ABSORPTION SPECTRUM VIA TRANSITION ELECTRIC DIPOLE MOMENTS
-----------------------------------------------------------------------------
State   Energy  Wavelength   fosc         T2         TX        TY        TZ
        (cm-1)    (nm)                  (au**2)     (au)      (au)      (au)
-----------------------------------------------------------------------------
   0   10349.7    966.2   1.537280814  48.89892   2.41175   5.71733  -3.22405
   1   13720.1    728.9   0.172272398   4.13367  -0.20909   1.66987   1.14082
   2   15071.5    663.5   0.010543217   0.23030   0.29434   0.37596   0.04814
   3   15820.2    632.1   0.003045125   0.06337   0.18205   0.13511   0.10942
   4   19008.0    526.1   0.037903063   0.65647  -0.48748  -0.23245   0.60398
   5   20405.8    490.1   0.583528083   9.41422  -1.39518  -2.55979   0.95663
   6   20806.2    480.6   0.362613054   5.73755  -0.11839   2.27018  -0.75485
   7   22043.8    453.6   0.081520146   1.21746  -0.02681  -0.45787   1.00354
   8   22228.8    449.9   0.047349294   0.70125   0.03774   0.14843  -0.82328
   9   22794.3    438.7   0.085195874   1.23046   0.26570   1.05717  -0.20556
  10   23056.8    433.7   0.049697318   0.70959   0.27610  -0.57236   0.55296
  11   24563.8    407.1   0.162969360   2.18416  -0.07257  -1.47599   0.01907
  12   25403.7    393.6   0.013903907   0.18018   0.07726  -0.34134  -0.24021
  13   25643.3    390.0   0.267574936   3.43516   0.77903   0.36148  -1.64244
  14   26321.0    379.9   0.066044109   0.82605  -0.29077  -0.29675   0.80836
  15   26741.4    374.0   0.006553445   0.08068  -0.11103  -0.22274   0.13688
  16   27149.9    368.3   0.054905934   0.66577   0.42659   0.44811  -0.53197
  17   27377.0    365.3   0.097550774   1.17306  -0.14529  -1.06758  -0.11058
  18   28593.1    349.7   0.254150817   2.92621  -0.22432  -1.68389   0.20098
  19   28711.4    348.3   0.023202856   0.26605  -0.28035   0.10007  -0.42124
  20   28807.6    347.1   0.005233467   0.05981   0.10815  -0.04740   0.21416
  21   29035.8    344.4   0.069524678   0.78828   0.09521   0.86831   0.15892
  22   29413.7    340.0   0.004093419   0.04582  -0.15595   0.09365  -0.11280
  23   29871.6    334.8   0.025566784   0.28177  -0.20677   0.25625   0.41635
  24   30755.7    325.1   0.011397630   0.12200  -0.02168   0.34791  -0.02213
  25   31054.8    322.0   0.002475666   0.02624   0.12313  -0.09701  -0.04091
  26   31560.1    316.9   0.444626864   4.63802   0.59041  -1.77165   1.07271
  27   31916.7    313.3   0.144654110   1.49207  -1.00301   0.66936  -0.19494
  28   32005.6    312.4   0.713116204   7.33517  -0.27361   2.01193  -1.79233
  29   32382.5    308.8   0.056172839   0.57107   0.27860  -0.51869   0.47372
  30   32638.6    306.4   0.013958110   0.14079   0.15943   0.06974  -0.33243
  31   33226.0    301.0   0.003659176   0.03626   0.10281  -0.16027  -0.00053
  32   33377.2    299.6   0.011025647   0.10875  -0.00906   0.17494   0.27940
  33   33715.3    296.6   0.005255476   0.05132   0.08454  -0.05785  -0.20205
  34   33963.9    294.4   0.056615743   0.54878  -0.28522   0.68258   0.03890
  35   34277.0    291.7   0.048896038   0.46962  -0.10009   0.36550  -0.57098
  36   34417.2    290.6   0.016411135   0.15698   0.02310  -0.14601  -0.36759
  37   34480.6    290.0   0.025348056   0.24202  -0.33823   0.08781   0.34627
  38   34863.5    286.8   0.294225840   2.77834   0.75883   0.13906  -1.47756
  39   34990.0    285.8   0.037665601   0.35439  -0.12881   0.04798   0.57922
  40   35314.0    283.2   0.036771990   0.34280   0.17269  -0.55873  -0.02840
  41   35476.6    281.9   0.097030893   0.90042   0.62370  -0.20346  -0.68558
  42   35751.9    279.7   0.208157613   1.91677  -0.65254   1.18527   0.29341
  43   35866.2    278.8   0.010993218   0.10091  -0.06803   0.30887   0.02958
  44   36640.7    272.9   0.174234183   1.56547   0.55872  -0.66837  -0.89810
  45   37033.8    270.0   0.003079498   0.02738  -0.09080   0.02467   0.13609
  46   37284.6    268.2   0.041780539   0.36891   0.37767  -0.15750  -0.44885
  47   37627.8    265.8   0.048103331   0.42086   0.48276  -0.40437  -0.15587
  48   37882.8    264.0   0.011375776   0.09886  -0.20330   0.16218   0.17670
  49   38112.0    262.4   0.012119460   0.10469  -0.10798   0.04869   0.30109
  50   38211.9    261.7   0.031280257   0.26949  -0.28250  -0.18331   0.39507
  51   38336.7    260.8   0.022287958   0.19140  -0.23748  -0.14099   0.33929
  52   38583.8    259.2   0.015825528   0.13503   0.34432  -0.11178  -0.06307
  53   38814.6    257.6   0.054001700   0.45802   0.44085   0.26597  -0.43924
  54   39059.4    256.0   0.020088630   0.16932   0.08690   0.34172  -0.21211
  55   39233.1    254.9   0.014310270   0.12008  -0.26721   0.19974   0.09371
  56   39579.4    252.7   0.018258922   0.15187  -0.15916   0.14538   0.32466
  57   39623.0    252.4   0.218274678   1.81356  -0.87741   0.04367   1.02069
  58   40079.1    249.5   0.175346350   1.44030   0.35518  -0.97308   0.60603

FINAL SINGLE POINT ENERGY     -4196.828974607885

DIPOLE MOMENT
-------------
                                X             Y             Z
Electronic contribution:      7.05220      16.65025      -1.45208
Nuclear contribution   :     -8.62628     -17.38027       2.43309
                        -----------------------------------------
Total Dipole Moment    :     -1.57408      -0.73002       0.98101
                        -----------------------------------------
Magnitude (a.u.)       :      1.99324
Magnitude (Debye)      :      5.06642

Rotational constants in cm-1:     0.001527     0.000163     0.000151
Rotational constants in MHz :    45.790943     4.880305     4.517468

                             ****ORCA TERMINATED NORMALLY****
TOTAL RUN TIME: 0 days 0 hours 13 minutes 39 seconds 872 msec
