                         Program Version 4.2.0 -  RELEASE  -
|  1> # ORCA input file
|  2> # SCF done       -200.421351112096          0.000998542208
|  3> ! CAM-B3LYP def2-SVP def2/J RIJCOSX Grid4 TightSCF
|  4> %maxcore 5000
|  5> %tddft
|  6>     Mode sTDDFT
|  7>     Ethresh 5.0
|  8>     maxcore 5000
|  9> end
| 10>
| 11> %pal
| 12>   nprocs 6
| 13>   end
| 14> * xyz 0 1
| 15>    C       -4.52187         3.43529         2.24031
| 16>    C       -5.11760         4.27617         1.31367
| 17>    C       -5.90042         3.76759         0.28518
| 18>    C       -6.11751         2.40456         0.15976
| 19>    C       -5.53419         1.55100         1.08457
| 20>    C       -4.72597         2.06798         2.12521
| 21>    C       -4.20911         0.96691         2.91680
| 22>    C       -3.49653         1.05865         4.07526
| 23>    C       -3.17289         2.28338         4.70504
| 24>    N       -2.88350         3.23835         5.27016
| 25>    C       -2.98516        -0.02461         4.82857
| 26>    N       -2.50923        -0.83588         5.48551
| 27>    C       -4.61422        -0.26881         2.22842
| 28>    C       -5.60954         0.10755         1.21815
| 29>    C       -6.52116        -0.70681         0.61160
| 30>    C       -6.73033        -2.06928         0.90292
| 31>    N       -6.98157        -3.17241         1.10005
| 32>    C       -7.44641        -0.26558        -0.36374
| 33>    N       -8.21268         0.01933        -1.16748
| 34>    C       -4.01874        -1.45502         2.43891
| 35>    C       -4.16900        -2.72847         1.75357
| 36>    C       -3.88920        -2.96553         0.40379
| 37>    C       -3.52940        -1.91201        -0.56909
| 38>    O       -3.42230        -0.73684        -0.36771
| 39>    S       -3.28637        -2.65442        -2.17523
| 40>    C       -3.63877        -4.31922        -1.57982
| 41>    O       -3.63926        -5.27639        -2.28914
| 42>    C       -3.92446        -4.25309        -0.13345
| 43>    C       -4.24103        -5.38078         0.63205
| 44>    C       -4.57167        -5.13577         1.97431
| 45>    C       -4.52661        -3.85751         2.50523
| 46>    C       -4.97386        -3.74605         3.90955
| 47>    O       -5.11612        -2.73477         4.53111
| 48>    S       -5.32188        -5.37890         4.53189
| 49>    C       -4.97301        -6.17530         2.95373
| 50>    O       -5.07567        -7.35014         2.78939
| 51>    C       -4.17178        -6.74742         0.12873
| 52>    C       -2.95119        -7.32866        -0.22678
| 53>    N       -2.82300        -8.62063        -0.42497
| 54>    C       -3.90769        -9.36276        -0.25779
| 55>    N       -5.13554        -8.89778        -0.10412
| 56>    C       -5.27598        -7.60433         0.06830
| 57>    C       -3.72024       -10.82189        -0.13222
| 58>    C       -3.12884       -11.33840         1.02345
| 59>    C       -2.67260       -10.52131         2.17537
| 60>    O       -2.67867        -9.33630         2.29206
| 61>    S       -2.07435       -11.62920         3.45927
| 62>    C       -2.43965       -13.10302         2.52184
| 63>    O       -2.30221       -14.21821         2.92767
| 64>    C       -2.97304       -12.70429         1.20219
| 65>    C       -3.40843       -13.64776         0.26070
| 66>    C       -4.01635       -13.12536        -0.88657
| 67>    C       -4.15653       -11.74919        -1.07312
| 68>    C       -4.78023       -11.35850        -2.35564
| 69>    O       -4.95642       -10.26478        -2.78634
| 70>    S       -5.23031       -12.86044        -3.24716
| 71>    C       -4.56215       -13.94278        -1.99224
| 72>    O       -4.59111       -15.13676        -2.07325
| 73>    C       -3.13590       -15.05809         0.49547
| 74>    C       -3.98943       -16.09218         0.58783
| 75>    C       -3.56466       -17.49973         0.63934
| 76>    C       -2.33416       -17.96629         0.99379
| 77>    C       -1.21753       -17.17422         1.35102
| 78>    N       -0.25545       -16.61146         1.62288
| 79>    C       -2.00483       -19.34014         1.06598
| 80>    N       -1.67714       -20.43556         1.15283
| 81>    C       -4.71570       -18.29144         0.24408
| 82>    C       -5.83568       -17.43905         0.09374
| 83>    C       -7.05707       -17.94871        -0.32062
| 84>    C       -7.15803       -19.30834        -0.56901
| 85>    C       -6.06387       -20.14845        -0.40635
| 86>    C       -4.83469       -19.65145        -0.00262
| 87>    C       -5.45241       -16.09090         0.46896
| 88>    C       -6.30333       -15.07473         0.79297
| 89>    C       -7.70653       -15.13838         0.62651
| 90>    N       -8.84561       -15.12019         0.49935
| 91>    C       -5.92318       -13.87233         1.42192
| 92>    N       -5.68202       -12.89867         1.97958
| 93>    H       -3.90780         3.84439         3.02556
| 94>    H       -4.96364         5.34146         1.39127
| 95>    H       -6.34556         4.44192        -0.43005
| 96>    H       -6.71768         2.02520        -0.65065
| 97>    H       -3.29538        -1.50955         3.24436
| 98>    H       -2.04657        -6.74232        -0.31177
| 99>    H       -6.28786        -7.23913         0.17413
|100>    H       -2.07767       -15.26723         0.59899
|101>    H       -7.91147       -17.30724        -0.46077
|102>    H       -8.10182       -19.71792        -0.89453
|103>    H       -6.16796       -21.20448        -0.60263
|104>    H       -3.99315       -20.31529         0.10817
|105> *
|106>
|107>                          ****END OF INPUT****

CARTESIAN COORDINATES (ANGSTROEM)
---------------------------------
  C     -4.521870    3.435290    2.240310
  C     -5.117600    4.276170    1.313670
  C     -5.900420    3.767590    0.285180
  C     -6.117510    2.404560    0.159760
  C     -5.534190    1.551000    1.084570
  C     -4.725970    2.067980    2.125210
  C     -4.209110    0.966910    2.916800
  C     -3.496530    1.058650    4.075260
  C     -3.172890    2.283380    4.705040
  N     -2.883500    3.238350    5.270160
  C     -2.985160   -0.024610    4.828570
  N     -2.509230   -0.835880    5.485510
  C     -4.614220   -0.268810    2.228420
  C     -5.609540    0.107550    1.218150
  C     -6.521160   -0.706810    0.611600
  C     -6.730330   -2.069280    0.902920
  N     -6.981570   -3.172410    1.100050
  C     -7.446410   -0.265580   -0.363740
  N     -8.212680    0.019330   -1.167480
  C     -4.018740   -1.455020    2.438910
  C     -4.169000   -2.728470    1.753570
  C     -3.889200   -2.965530    0.403790
  C     -3.529400   -1.912010   -0.569090
  O     -3.422300   -0.736840   -0.367710
  S     -3.286370   -2.654420   -2.175230
  C     -3.638770   -4.319220   -1.579820
  O     -3.639260   -5.276390   -2.289140
  C     -3.924460   -4.253090   -0.133450
  C     -4.241030   -5.380780    0.632050
  C     -4.571670   -5.135770    1.974310
  C     -4.526610   -3.857510    2.505230
  C     -4.973860   -3.746050    3.909550
  O     -5.116120   -2.734770    4.531110
  S     -5.321880   -5.378900    4.531890
  C     -4.973010   -6.175300    2.953730
  O     -5.075670   -7.350140    2.789390
  C     -4.171780   -6.747420    0.128730
  C     -2.951190   -7.328660   -0.226780
  N     -2.823000   -8.620630   -0.424970
  C     -3.907690   -9.362760   -0.257790
  N     -5.135540   -8.897780   -0.104120
  C     -5.275980   -7.604330    0.068300
  C     -3.720240  -10.821890   -0.132220
  C     -3.128840  -11.338400    1.023450
  C     -2.672600  -10.521310    2.175370
  O     -2.678670   -9.336300    2.292060
  S     -2.074350  -11.629200    3.459270
  C     -2.439650  -13.103020    2.521840
  O     -2.302210  -14.218210    2.927670
  C     -2.973040  -12.704290    1.202190
  C     -3.408430  -13.647760    0.260700
  C     -4.016350  -13.125360   -0.886570
  C     -4.156530  -11.749190   -1.073120
  C     -4.780230  -11.358500   -2.355640
  O     -4.956420  -10.264780   -2.786340
  S     -5.230310  -12.860440   -3.247160
  C     -4.562150  -13.942780   -1.992240
  O     -4.591110  -15.136760   -2.073250
  C     -3.135900  -15.058090    0.495470
  C     -3.989430  -16.092180    0.587830
  C     -3.564660  -17.499730    0.639340
  C     -2.334160  -17.966290    0.993790
  C     -1.217530  -17.174220    1.351020
  N     -0.255450  -16.611460    1.622880
  C     -2.004830  -19.340140    1.065980
  N     -1.677140  -20.435560    1.152830
  C     -4.715700  -18.291440    0.244080
  C     -5.835680  -17.439050    0.093740
  C     -7.057070  -17.948710   -0.320620
  C     -7.158030  -19.308340   -0.569010
  C     -6.063870  -20.148450   -0.406350
  C     -4.834690  -19.651450   -0.002620
  C     -5.452410  -16.090900    0.468960
  C     -6.303330  -15.074730    0.792970
  C     -7.706530  -15.138380    0.626510
  N     -8.845610  -15.120190    0.499350
  C     -5.923180  -13.872330    1.421920
  N     -5.682020  -12.898670    1.979580
  H     -3.907800    3.844390    3.025560
  H     -4.963640    5.341460    1.391270
  H     -6.345560    4.441920   -0.430050
  H     -6.717680    2.025200   -0.650650
  H     -3.295380   -1.509550    3.244360
  H     -2.046570   -6.742320   -0.311770
  H     -6.287860   -7.239130    0.174130
  H     -2.077670  -15.267230    0.598990
  H     -7.911470  -17.307240   -0.460770
  H     -8.101820  -19.717920   -0.894530
  H     -6.167960  -21.204480   -0.602630
  H     -3.993150  -20.315290    0.108170

 Total Charge           Charge          ....    0
 Multiplicity           Mult            ....    1
 Number of Electrons    NEL             ....  546
 Basis Dimension        Dim             .... 1168

ORBITAL ENERGIES
----------------

  NO   OCC          E(Eh)            E(eV)
   0   2.0000     -88.973191     -2421.0836
   1   2.0000     -88.967609     -2420.9317
   2   2.0000     -88.964643     -2420.8510
   3   2.0000     -88.960552     -2420.7397
   4   2.0000     -19.266410      -524.2657
   5   2.0000     -19.264015      -524.2005
   6   2.0000     -19.261954      -524.1444
   7   2.0000     -19.260221      -524.0973
   8   2.0000     -19.258624      -524.0538
   9   2.0000     -19.255916      -523.9801
  10   2.0000     -19.255471      -523.9680
  11   2.0000     -19.253917      -523.9257
  12   2.0000     -14.443880      -393.0380
  13   2.0000     -14.437288      -392.8586
  14   2.0000     -14.436032      -392.8244
  15   2.0000     -14.434630      -392.7862
  16   2.0000     -14.433746      -392.7622
  17   2.0000     -14.432458      -392.7271
  18   2.0000     -14.429789      -392.6545
  19   2.0000     -14.429626      -392.6501
  20   2.0000     -14.424056      -392.4985
  21   2.0000     -14.423955      -392.4958
  22   2.0000     -10.429442      -283.7996
  23   2.0000     -10.426353      -283.7155
  24   2.0000     -10.422836      -283.6198
  25   2.0000     -10.422002      -283.5971
  26   2.0000     -10.421545      -283.5846
  27   2.0000     -10.417276      -283.4685
  28   2.0000     -10.415732      -283.4265
  29   2.0000     -10.415032      -283.4074
  30   2.0000     -10.371287      -282.2171
  31   2.0000     -10.368409      -282.1387
  32   2.0000     -10.367415      -282.1117
  33   2.0000     -10.366036      -282.0742
  34   2.0000     -10.365230      -282.0522
  35   2.0000     -10.363507      -282.0054
  36   2.0000     -10.362536      -281.9789
  37   2.0000     -10.361785      -281.9585
  38   2.0000     -10.361546      -281.9520
  39   2.0000     -10.357876      -281.8521
  40   2.0000     -10.357156      -281.8325
  41   2.0000     -10.354181      -281.7516
  42   2.0000     -10.353105      -281.7223
  43   2.0000     -10.349585      -281.6265
  44   2.0000     -10.348386      -281.5939
  45   2.0000     -10.347187      -281.5613
  46   2.0000     -10.346796      -281.5506
  47   2.0000     -10.346180      -281.5339
  48   2.0000     -10.344965      -281.5008
  49   2.0000     -10.343197      -281.4527
  50   2.0000     -10.342145      -281.4241
  51   2.0000     -10.341474      -281.4058
  52   2.0000     -10.340181      -281.3706
  53   2.0000     -10.340029      -281.3665
  54   2.0000     -10.339297      -281.3466
  55   2.0000     -10.338875      -281.3351
  56   2.0000     -10.338784      -281.3326
  57   2.0000     -10.338248      -281.3180
  58   2.0000     -10.337782      -281.3053
  59   2.0000     -10.336349      -281.2664
  60   2.0000     -10.335893      -281.2539
  61   2.0000     -10.335218      -281.2356
  62   2.0000     -10.333996      -281.2023
  63   2.0000     -10.331225      -281.1269
  64   2.0000     -10.331013      -281.1212
  65   2.0000     -10.328148      -281.0432
  66   2.0000     -10.327836      -281.0347
  67   2.0000     -10.323545      -280.9179
  68   2.0000     -10.323214      -280.9089
  69   2.0000     -10.314612      -280.6749
  70   2.0000     -10.314018      -280.6587
  71   2.0000     -10.313954      -280.6570
  72   2.0000     -10.313146      -280.6350
  73   2.0000     -10.312739      -280.6239
  74   2.0000     -10.310031      -280.5502
  75   2.0000     -10.309752      -280.5426
  76   2.0000     -10.308819      -280.5172
  77   2.0000     -10.308438      -280.5069
  78   2.0000      -8.072277      -219.6578
  79   2.0000      -8.066640      -219.5044
  80   2.0000      -8.063846      -219.4284
  81   2.0000      -8.059780      -219.3178
  82   2.0000      -6.041124      -164.3873
  83   2.0000      -6.037838      -164.2979
  84   2.0000      -6.035545      -164.2355
  85   2.0000      -6.033375      -164.1765
  86   2.0000      -6.032709      -164.1584
  87   2.0000      -6.032210      -164.1448
  88   2.0000      -6.029397      -164.0682
  89   2.0000      -6.028706      -164.0494
  90   2.0000      -6.027674      -164.0214
  91   2.0000      -6.025325      -163.9574
  92   2.0000      -6.024914      -163.9462
  93   2.0000      -6.020775      -163.8336
  94   2.0000      -1.190972       -32.4080
  95   2.0000      -1.186650       -32.2904
  96   2.0000      -1.186457       -32.2851
  97   2.0000      -1.183181       -32.1960
  98   2.0000      -1.182468       -32.1766
  99   2.0000      -1.179731       -32.1021
 100   2.0000      -1.178837       -32.0778
 101   2.0000      -1.175777       -31.9945
 102   2.0000      -1.103170       -30.0188
 103   2.0000      -1.054506       -28.6946
 104   2.0000      -1.048885       -28.5416
 105   2.0000      -1.043408       -28.3926
 106   2.0000      -1.035459       -28.1763
 107   2.0000      -1.034969       -28.1630
 108   2.0000      -1.028819       -27.9956
 109   2.0000      -1.023868       -27.8609
 110   2.0000      -1.018522       -27.7154
 111   2.0000      -1.017786       -27.6954
 112   2.0000      -1.012219       -27.5439
 113   2.0000      -1.012108       -27.5408
 114   2.0000      -1.007678       -27.4203
 115   2.0000      -0.994274       -27.0556
 116   2.0000      -0.987169       -26.8622
 117   2.0000      -0.978921       -26.6378
 118   2.0000      -0.977227       -26.5917
 119   2.0000      -0.971642       -26.4397
 120   2.0000      -0.959355       -26.1054
 121   2.0000      -0.957808       -26.0633
 122   2.0000      -0.952743       -25.9254
 123   2.0000      -0.945302       -25.7230
 124   2.0000      -0.940415       -25.5900
 125   2.0000      -0.928476       -25.2651
 126   2.0000      -0.911767       -24.8104
 127   2.0000      -0.906542       -24.6683
 128   2.0000      -0.897443       -24.4207
 129   2.0000      -0.882961       -24.0266
 130   2.0000      -0.880514       -23.9600
 131   2.0000      -0.875998       -23.8371
 132   2.0000      -0.872717       -23.7478
 133   2.0000      -0.867519       -23.6064
 134   2.0000      -0.864674       -23.5290
 135   2.0000      -0.821633       -22.3578
 136   2.0000      -0.817808       -22.2537
 137   2.0000      -0.811538       -22.0831
 138   2.0000      -0.809234       -22.0204
 139   2.0000      -0.807075       -21.9616
 140   2.0000      -0.803437       -21.8626
 141   2.0000      -0.786210       -21.3939
 142   2.0000      -0.768733       -20.9183
 143   2.0000      -0.763101       -20.7650
 144   2.0000      -0.756134       -20.5755
 145   2.0000      -0.741298       -20.1718
 146   2.0000      -0.734566       -19.9886
 147   2.0000      -0.733373       -19.9561
 148   2.0000      -0.730178       -19.8692
 149   2.0000      -0.727914       -19.8075
 150   2.0000      -0.725280       -19.7359
 151   2.0000      -0.721518       -19.6335
 152   2.0000      -0.710309       -19.3285
 153   2.0000      -0.689440       -18.7606
 154   2.0000      -0.685420       -18.6512
 155   2.0000      -0.682803       -18.5800
 156   2.0000      -0.678576       -18.4650
 157   2.0000      -0.677681       -18.4406
 158   2.0000      -0.674006       -18.3406
 159   2.0000      -0.673189       -18.3184
 160   2.0000      -0.669482       -18.2175
 161   2.0000      -0.650505       -17.7011
 162   2.0000      -0.649653       -17.6780
 163   2.0000      -0.645314       -17.5599
 164   2.0000      -0.642698       -17.4887
 165   2.0000      -0.639020       -17.3886
 166   2.0000      -0.633985       -17.2516
 167   2.0000      -0.628432       -17.1005
 168   2.0000      -0.624676       -16.9983
 169   2.0000      -0.621494       -16.9117
 170   2.0000      -0.615978       -16.7616
 171   2.0000      -0.605240       -16.4694
 172   2.0000      -0.603088       -16.4109
 173   2.0000      -0.600139       -16.3306
 174   2.0000      -0.598536       -16.2870
 175   2.0000      -0.596242       -16.2246
 176   2.0000      -0.589795       -16.0491
 177   2.0000      -0.585221       -15.9247
 178   2.0000      -0.579869       -15.7790
 179   2.0000      -0.577477       -15.7139
 180   2.0000      -0.574017       -15.6198
 181   2.0000      -0.569785       -15.5046
 182   2.0000      -0.566967       -15.4280
 183   2.0000      -0.562487       -15.3060
 184   2.0000      -0.560325       -15.2472
 185   2.0000      -0.559339       -15.2204
 186   2.0000      -0.558245       -15.1906
 187   2.0000      -0.555827       -15.1248
 188   2.0000      -0.554875       -15.0989
 189   2.0000      -0.552441       -15.0327
 190   2.0000      -0.551420       -15.0049
 191   2.0000      -0.550533       -14.9808
 192   2.0000      -0.549768       -14.9600
 193   2.0000      -0.546966       -14.8837
 194   2.0000      -0.545489       -14.8435
 195   2.0000      -0.544997       -14.8301
 196   2.0000      -0.540413       -14.7054
 197   2.0000      -0.538499       -14.6533
 198   2.0000      -0.532770       -14.4974
 199   2.0000      -0.530565       -14.4374
 200   2.0000      -0.527311       -14.3489
 201   2.0000      -0.523941       -14.2572
 202   2.0000      -0.523179       -14.2364
 203   2.0000      -0.521768       -14.1980
 204   2.0000      -0.520394       -14.1606
 205   2.0000      -0.519229       -14.1289
 206   2.0000      -0.517466       -14.0810
 207   2.0000      -0.515647       -14.0315
 208   2.0000      -0.513851       -13.9826
 209   2.0000      -0.512968       -13.9586
 210   2.0000      -0.508390       -13.8340
 211   2.0000      -0.501995       -13.6600
 212   2.0000      -0.496381       -13.5072
 213   2.0000      -0.494145       -13.4464
 214   2.0000      -0.493226       -13.4214
 215   2.0000      -0.488479       -13.2922
 216   2.0000      -0.486432       -13.2365
 217   2.0000      -0.484985       -13.1971
 218   2.0000      -0.481194       -13.0940
 219   2.0000      -0.481092       -13.0912
 220   2.0000      -0.475118       -12.9286
 221   2.0000      -0.474830       -12.9208
 222   2.0000      -0.471121       -12.8199
 223   2.0000      -0.468852       -12.7581
 224   2.0000      -0.466275       -12.6880
 225   2.0000      -0.465074       -12.6553
 226   2.0000      -0.463563       -12.6142
 227   2.0000      -0.460741       -12.5374
 228   2.0000      -0.459474       -12.5029
 229   2.0000      -0.458597       -12.4791
 230   2.0000      -0.455394       -12.3919
 231   2.0000      -0.454966       -12.3803
 232   2.0000      -0.452629       -12.3167
 233   2.0000      -0.450106       -12.2480
 234   2.0000      -0.447483       -12.1766
 235   2.0000      -0.446224       -12.1424
 236   2.0000      -0.443143       -12.0585
 237   2.0000      -0.441267       -12.0075
 238   2.0000      -0.440510       -11.9869
 239   2.0000      -0.438559       -11.9338
 240   2.0000      -0.435891       -11.8612
 241   2.0000      -0.431302       -11.7363
 242   2.0000      -0.426580       -11.6078
 243   2.0000      -0.425297       -11.5729
 244   2.0000      -0.421123       -11.4593
 245   2.0000      -0.407524       -11.0893
 246   2.0000      -0.404266       -11.0006
 247   2.0000      -0.403541       -10.9809
 248   2.0000      -0.397963       -10.8291
 249   2.0000      -0.396181       -10.7806
 250   2.0000      -0.394479       -10.7343
 251   2.0000      -0.393093       -10.6966
 252   2.0000      -0.390050       -10.6138
 253   2.0000      -0.386946       -10.5293
 254   2.0000      -0.385661       -10.4944
 255   2.0000      -0.383184       -10.4270
 256   2.0000      -0.378772       -10.3069
 257   2.0000      -0.371476       -10.1084
 258   2.0000      -0.371292       -10.1034
 259   2.0000      -0.369343       -10.0503
 260   2.0000      -0.364796        -9.9266
 261   2.0000      -0.363548        -9.8926
 262   2.0000      -0.360032        -9.7970
 263   2.0000      -0.359948        -9.7947
 264   2.0000      -0.352720        -9.5980
 265   2.0000      -0.352258        -9.5854
 266   2.0000      -0.348144        -9.4735
 267   2.0000      -0.345950        -9.4138
 268   2.0000      -0.342825        -9.3287
 269   2.0000      -0.333815        -9.0836
 270   2.0000      -0.329449        -8.9648
 271   2.0000      -0.319474        -8.6933
 272   2.0000      -0.314207        -8.5500
 273   0.0000      -0.118195        -3.2162
 274   0.0000      -0.111002        -3.0205
 275   0.0000      -0.109994        -2.9931
 276   0.0000      -0.103534        -2.8173
 277   0.0000      -0.100939        -2.7467

MULLIKEN ATOMIC CHARGES
-----------------------
   0 C :   -0.032721
   1 C :    0.052095
   2 C :    0.049376
   3 C :   -0.025296
   4 C :    0.004847
   5 C :    0.021622
   6 C :    0.285062
   7 C :   -0.337475
   8 C :   -0.194036
   9 N :    0.170298
  10 C :   -0.176463
  11 N :    0.175871
  12 C :    0.020769
  13 C :    0.298773
  14 C :   -0.354489
  15 C :   -0.171838
  16 N :    0.164963
  17 C :   -0.198007
  18 N :    0.176304
  19 C :   -0.049045
  20 C :   -0.070557
  21 C :    0.080661
  22 C :    0.038788
  23 O :   -0.132393
  24 S :    0.040642
  25 C :    0.025567
  26 O :   -0.098883
  27 C :    0.058230
  28 C :    0.023598
  29 C :    0.073944
  30 C :    0.062520
  31 C :    0.054871
  32 O :   -0.121805
  33 S :    0.050656
  34 C :    0.044847
  35 O :   -0.092920
  36 C :   -0.094028
  37 C :    0.103303
  38 N :   -0.048863
  39 C :   -0.127609
  40 N :   -0.039008
  41 C :    0.102845
  42 C :    0.077758
  43 C :    0.075482
  44 C :    0.064291
  45 O :   -0.106955
  46 S :    0.041758
  47 C :    0.056918
  48 O :   -0.120935
  49 C :    0.059229
  50 C :   -0.081846
  51 C :    0.075269
  52 C :    0.066097
  53 C :    0.043275
  54 O :   -0.095505
  55 S :    0.032231
  56 C :    0.042264
  57 O :   -0.136702
  58 C :   -0.037596
  59 C :    0.014114
  60 C :    0.286913
  61 C :   -0.337939
  62 C :   -0.178216
  63 N :    0.177106
  64 C :   -0.194141
  65 N :    0.167781
  66 C :    0.023963
  67 C :    0.012863
  68 C :   -0.025327
  69 C :    0.049783
  70 C :    0.050561
  71 C :   -0.035917
  72 C :    0.282300
  73 C :   -0.354892
  74 C :   -0.191167
  75 N :    0.173638
  76 C :   -0.164420
  77 N :    0.168422
  78 H :    0.009821
  79 H :    0.011039
  80 H :    0.010338
  81 H :    0.009229
  82 H :    0.053236
  83 H :    0.003597
  84 H :    0.017357
  85 H :    0.052669
  86 H :    0.009438
  87 H :    0.008211
  88 H :    0.009522
  89 H :    0.010068
Sum of atomic charges:   -0.0000000

LOEWDIN ATOMIC CHARGES
----------------------
   0 C :    0.007771
   1 C :    0.010149
   2 C :    0.009302
   3 C :    0.009308
   4 C :   -0.006628
   5 C :   -0.007855
   6 C :    0.078289
   7 C :   -0.113609
   8 C :   -0.017926
   9 N :   -0.033816
  10 C :   -0.021978
  11 N :   -0.029272
  12 C :   -0.016931
  13 C :    0.082882
  14 C :   -0.127469
  15 C :   -0.013175
  16 N :   -0.051357
  17 C :   -0.019486
  18 N :   -0.032086
  19 C :    0.057661
  20 C :    0.017329
  21 C :   -0.047800
  22 C :   -0.049094
  23 O :   -0.116755
  24 S :    0.321829
  25 C :   -0.042394
  26 O :   -0.090630
  27 C :   -0.047151
  28 C :    0.044750
  29 C :   -0.033035
  30 C :   -0.034698
  31 C :   -0.045057
  32 O :   -0.099315
  33 S :    0.331946
  34 C :   -0.036680
  35 O :   -0.082094
  36 C :   -0.071741
  37 C :    0.075418
  38 N :   -0.068691
  39 C :    0.029066
  40 N :   -0.058747
  41 C :    0.080908
  42 C :    0.044960
  43 C :   -0.026247
  44 C :   -0.032855
  45 O :   -0.095535
  46 S :    0.326506
  47 C :   -0.042952
  48 O :   -0.099517
  49 C :   -0.036897
  50 C :    0.016775
  51 C :   -0.050269
  52 C :   -0.037461
  53 C :   -0.037842
  54 O :   -0.085593
  55 S :    0.316144
  56 C :   -0.048256
  57 O :   -0.120317
  58 C :    0.059662
  59 C :   -0.017663
  60 C :    0.079218
  61 C :   -0.114716
  62 C :   -0.021604
  63 N :   -0.029638
  64 C :   -0.017719
  65 N :   -0.035856
  66 C :   -0.007984
  67 C :   -0.005445
  68 C :    0.008514
  69 C :    0.008936
  70 C :    0.008513
  71 C :    0.007279
  72 C :    0.081329
  73 C :   -0.126523
  74 C :   -0.019137
  75 N :   -0.033020
  76 C :   -0.013766
  77 N :   -0.045060
  78 H :    0.043018
  79 H :    0.040498
  80 H :    0.040300
  81 H :    0.042823
  82 H :    0.056955
  83 H :    0.026265
  84 H :    0.031585
  85 H :    0.056579
  86 H :    0.042675
  87 H :    0.039551
  88 H :    0.039850
  89 H :    0.042798

  Mayer bond orders larger than 0.100000
B(  0-C ,  1-C ) :   1.3770 B(  0-C ,  5-C ) :   1.3710 B(  0-C , 78-H ) :   0.9842
B(  1-C ,  2-C ) :   1.3669 B(  1-C , 79-H ) :   0.9862 B(  2-C ,  3-C ) :   1.3762
B(  2-C , 80-H ) :   0.9859 B(  3-C ,  4-C ) :   1.3736 B(  3-C , 81-H ) :   0.9844
B(  4-C ,  5-C ) :   1.3012 B(  4-C , 13-C ) :   1.0238 B(  5-C ,  6-C ) :   1.0082
B(  6-C ,  7-C ) :   1.6754 B(  6-C , 12-C ) :   1.0171 B(  7-C ,  8-C ) :   1.1453
B(  7-C , 10-C ) :   1.1327 B(  8-C ,  9-N ) :   2.9829 B( 10-C , 11-N ) :   2.9693
B( 12-C , 13-C ) :   0.9717 B( 12-C , 19-C ) :   1.8121 B( 13-C , 14-C ) :   1.6572
B( 14-C , 15-C ) :   1.1765 B( 14-C , 17-C ) :   1.1303 B( 15-C , 16-N ) :   2.9752
B( 17-C , 18-N ) :   2.9953 B( 19-C , 20-C ) :   1.0014 B( 19-C , 82-H ) :   0.8908
B( 20-C , 21-C ) :   1.3925 B( 20-C , 30-C ) :   1.3957 B( 21-C , 22-C ) :   0.8356
B( 21-C , 27-C ) :   1.2941 B( 22-C , 23-O ) :   2.1587 B( 22-C , 24-S ) :   1.0506
B( 23-O , 24-S ) :   0.1114 B( 24-S , 25-C ) :   1.0153 B( 24-S , 26-O ) :   0.1075
B( 25-C , 26-O ) :   2.2097 B( 25-C , 27-C ) :   0.8322 B( 27-C , 28-C ) :   1.4220
B( 28-C , 29-C ) :   1.4034 B( 28-C , 36-C ) :   0.9754 B( 29-C , 30-C ) :   1.3477
B( 29-C , 34-C ) :   0.8232 B( 30-C , 31-C ) :   0.8400 B( 31-C , 32-O ) :   2.1499
B( 31-C , 33-S ) :   1.0487 B( 32-O , 33-S ) :   0.1097 B( 33-S , 34-C ) :   1.0252
B( 33-S , 35-O ) :   0.1077 B( 34-C , 35-O ) :   2.1936 B( 36-C , 37-C ) :   1.3579
B( 36-C , 39-C ) :   0.1002 B( 36-C , 41-C ) :   1.3397 B( 37-C , 38-N ) :   1.5494
B( 37-C , 83-H ) :   0.9861 B( 38-N , 39-C ) :   1.5282 B( 39-C , 40-N ) :   1.5411
B( 39-C , 42-C ) :   0.8851 B( 40-N , 41-C ) :   1.5547 B( 41-C , 84-H ) :   0.9883
B( 42-C , 43-C ) :   1.4481 B( 42-C , 52-C ) :   1.4717 B( 43-C , 44-C ) :   0.8275
B( 43-C , 49-C ) :   1.3344 B( 44-C , 45-O ) :   2.1867 B( 44-C , 46-S ) :   1.0286
B( 45-O , 46-S ) :   0.1073 B( 46-S , 47-C ) :   1.0464 B( 46-S , 48-O ) :   0.1089
B( 47-C , 48-O ) :   2.1556 B( 47-C , 49-C ) :   0.8401 B( 49-C , 50-C ) :   1.4052
B( 50-C , 51-C ) :   1.3970 B( 50-C , 58-C ) :   1.0029 B( 51-C , 52-C ) :   1.2872
B( 51-C , 56-C ) :   0.8378 B( 52-C , 53-C ) :   0.8297 B( 53-C , 54-O ) :   2.2154
B( 53-C , 55-S ) :   1.0122 B( 54-O , 55-S ) :   0.1066 B( 55-S , 56-C ) :   1.0516
B( 55-S , 57-O ) :   0.1117 B( 56-C , 57-O ) :   2.1547 B( 58-C , 59-C ) :   1.8088
B( 58-C , 85-H ) :   0.8951 B( 59-C , 60-C ) :   1.0142 B( 59-C , 72-C ) :   0.9710
B( 60-C , 61-C ) :   1.6774 B( 60-C , 66-C ) :   1.0113 B( 61-C , 62-C ) :   1.1353
B( 61-C , 64-C ) :   1.1423 B( 62-C , 63-N ) :   2.9730 B( 64-C , 65-N ) :   2.9849
B( 66-C , 67-C ) :   1.3016 B( 66-C , 71-C ) :   1.3690 B( 67-C , 68-C ) :   1.3736
B( 67-C , 72-C ) :   1.0258 B( 68-C , 69-C ) :   1.3747 B( 68-C , 86-H ) :   0.9854
B( 69-C , 70-C ) :   1.3665 B( 69-C , 87-H ) :   0.9860 B( 70-C , 71-C ) :   1.3786
B( 70-C , 88-H ) :   0.9863 B( 71-C , 89-H ) :   0.9849 B( 72-C , 73-C ) :   1.6613
B( 73-C , 74-C ) :   1.1287 B( 73-C , 76-C ) :   1.1716 B( 74-C , 75-N ) :   2.9966
B( 76-C , 77-N ) :   2.9707

-----------------------------------------------------------------------------
         ABSORPTION SPECTRUM VIA TRANSITION ELECTRIC DIPOLE MOMENTS
-----------------------------------------------------------------------------
State   Energy  Wavelength   fosc         T2         TX        TY        TZ
        (cm-1)    (nm)                  (au**2)     (au)      (au)      (au)
-----------------------------------------------------------------------------
   0   23413.9    427.1   0.001239781   0.01743  -0.09660   0.06227  -0.06498
   1   24328.2    411.0   0.006097882   0.08252  -0.09951   0.08495   0.25573
   2   25215.5    396.6   0.029405366   0.38391   0.49859   0.12568  -0.34573
   3   26411.2    378.6   0.035767206   0.44583   0.32684  -0.57857   0.06530
   4   26561.2    376.5   0.032993832   0.40894  -0.39421  -0.35343   0.35865
   5   27549.3    363.0   0.012396668   0.14814   0.00449  -0.36306  -0.12769
   6   28060.1    356.4   0.012492756   0.14657   0.10581  -0.26869  -0.25136
   7   28203.5    354.6   0.008815612   0.10290  -0.05757   0.25970  -0.17929
   8   28548.7    350.3   0.011221284   0.12940  -0.04434   0.29732  -0.19757
   9   29016.5    344.6   0.013999336   0.15883   0.39493  -0.02792   0.04567
  10   29638.4    337.4   0.060339990   0.67023   0.28837   0.55856   0.52449
  11   29942.6    334.0   0.045845580   0.50406   0.38417   0.06681   0.59330
  12   30062.9    332.6   0.251526446   2.75441  -1.43205   0.82617  -0.14522
  13   30229.8    330.8   0.276390892   3.00998  -1.09781  -0.39782  -1.28317
  14   30770.8    325.0   0.317957813   3.40178  -0.53451   1.75632   0.17722
  15   30907.5    323.5   0.177849805   1.89437  -0.01676   1.37600  -0.02683
  16   31058.9    322.0   0.111844795   1.18551   0.10396   1.03913   0.30807
  17   31435.4    318.1   0.071287780   0.74657   0.05139   0.82844   0.24004
  18   31540.7    317.1   0.025775067   0.26903  -0.17442  -0.47694  -0.10555
  19   32088.4    311.6   0.039043058   0.40056   0.06969  -0.43674  -0.45273
  20   32610.9    306.6   0.012429734   0.12548   0.12995   0.31715  -0.08950
  21   32723.6    305.6   0.098497935   0.99093  -0.57158   0.73590  -0.35027
  22   33157.8    301.6   0.280024445   2.78027   0.66099   1.24099   0.89628
  23   33249.3    300.8   0.040518774   0.40119  -0.55786   0.18114  -0.23909
  24   33423.1    299.2   0.106559916   1.04960   0.55013   0.52911   0.68337
  25   33654.6    297.1   0.048824185   0.47760   0.12870  -0.58222  -0.34937
  26   33680.6    296.9   0.177616108   1.73611  -0.71951  -1.01040  -0.44442
  27   33779.3    296.0   0.277346771   2.70301   1.06972  -1.23585  -0.17712
  28   33981.6    294.3   0.011977488   0.11604   0.02604   0.00401   0.33962
  29   34106.2    293.2   0.015756862   0.15209   0.02865  -0.01627  -0.38860
  30   34204.0    292.4   0.077609574   0.74699  -0.55097   0.15734  -0.64704
  31   34304.8    291.5   0.014658004   0.14067  -0.19147   0.29949   0.11962
  32   34429.2    290.5   0.054927612   0.52522   0.64316  -0.13134   0.30710
  33   34685.5    288.3   0.049527871   0.47009  -0.49347  -0.47307   0.05274
  34   34859.6    286.9   0.063305101   0.59785  -0.68925   0.28651  -0.20174
  35   35072.6    285.1   0.021114645   0.19819   0.16114  -0.36473   0.19800
  36   35173.6    284.3   0.154685216   1.44780  -0.75168   0.80505  -0.48443
  37   35292.9    283.3   0.029411875   0.27435  -0.35925  -0.28477   0.25338
  38   35465.4    282.0   0.011794966   0.10949  -0.01833   0.32806  -0.03908
  39   35714.3    280.0   0.011464050   0.10567   0.02735  -0.28670   0.15077
  40   35781.2    279.5   0.003689962   0.03395   0.16151  -0.02735   0.08436
  41   35957.4    278.1   0.032989238   0.30204   0.18535   0.47173  -0.21249
  42   36361.0    275.0   0.147024676   1.33116  -0.11068  -1.07637   0.40043
  43   36441.4    274.4   0.274016899   2.47547  -0.09903   1.43615  -0.63493
  44   36752.5    272.1   0.216343243   1.93790   0.74711   1.07235   0.47936
  45   36924.1    270.8   0.067976108   0.60607   0.50236   0.59446   0.01794
  46   36971.4    270.5   0.176277536   1.56966  -0.42281  -0.25792  -1.15081
  47   37004.9    270.2   0.043420190   0.38629   0.56869   0.24896   0.02996
  48   37128.8    269.3   0.204556268   1.81375  -0.38284  -1.28345  -0.14116
  49   37208.3    268.8   0.009984873   0.08834  -0.11420   0.21747  -0.16736
  50   37719.1    265.1   0.030560739   0.26673   0.05840   0.51274   0.02049
  51   38127.0    262.3   0.003961140   0.03420  -0.05259   0.17318  -0.03805
  52   38227.3    261.6   0.018810479   0.16200  -0.01934  -0.22894   0.33047
  53   38456.4    260.0   0.062907576   0.53853   0.33318  -0.59318  -0.27506
  54   38646.8    258.8   0.075659112   0.64450   0.15941   0.78525   0.04971
  55   38685.1    258.5   0.002619666   0.02229  -0.14524   0.01442   0.03149
  56   39000.8    256.4   0.022673965   0.19139  -0.15507   0.40905   0.00493
  57   39308.0    254.4   0.073190550   0.61298   0.03088   0.78229   0.00777
  58   39608.6    252.5   0.011687861   0.09715  -0.07684   0.28485  -0.10049
  59   39642.9    252.3   0.018098687   0.15030  -0.02502  -0.35798  -0.14671
  60   39789.4    251.3   0.002801236   0.02318   0.04075   0.12510  -0.07659
  61   39886.1    250.7   0.000959547   0.00792  -0.03458   0.07963   0.01957
  62   39979.0    250.1   0.005614772   0.04624   0.01273  -0.21304  -0.02619
  63   40159.4    249.0   0.001635266   0.01341  -0.07484   0.07182  -0.05144
  64   40202.9    248.7   0.004169619   0.03414   0.02645   0.04523   0.17720

FINAL SINGLE POINT ENERGY     -4878.551259532804

DIPOLE MOMENT
-------------
                                X             Y             Z
Electronic contribution:      8.06390      -2.35531       3.49084
Nuclear contribution   :     -8.57692       3.60479      -5.41901
                        -----------------------------------------
Total Dipole Moment    :     -0.51302       1.24947      -1.92817
                        -----------------------------------------
Magnitude (a.u.)       :      2.35419
Magnitude (Debye)      :      5.98386

Rotational constants in cm-1:     0.002389     0.000305     0.000293
Rotational constants in MHz :    71.612328     9.150056     8.776268

                             ****ORCA TERMINATED NORMALLY****
TOTAL RUN TIME: 0 days 0 hours 10 minutes 13 seconds 595 msec
