                         Program Version 4.2.0 -  RELEASE  -
|  1> # ORCA input file
|  2> # SCF done       -182.107976596833          0.000709078430
|  3> ! CAM-B3LYP def2-SVP def2/J RIJCOSX Grid4 TightSCF
|  4> %maxcore 5000
|  5> %tddft
|  6>     Mode sTDDFT
|  7>     Ethresh 5.0
|  8>     maxcore 5000
|  9> end
| 10>
| 11> %pal
| 12>   nprocs 6
| 13>   end
| 14> * xyz 0 1
| 15>    C       -5.78822         2.29407         5.54138
| 16>    C       -5.41762         3.32245         4.68740
| 17>    C       -5.39403         3.13921         3.31234
| 18>    C       -5.74959         1.92242         2.74969
| 19>    C       -6.11975         0.88872         3.59284
| 20>    C       -6.13534         1.06895         4.99451
| 21>    C       -6.53792        -0.18181         5.62773
| 22>    C       -6.76957        -0.36405         6.96627
| 23>    C       -6.65658         0.65455         7.93535
| 24>    N       -6.58340         1.43232         8.77678
| 25>    C       -7.18793        -1.56855         7.56841
| 26>    N       -7.53005        -2.50990         8.13116
| 27>    C       -6.62174        -1.17792         4.56900
| 28>    C       -6.57664        -0.46120         3.30342
| 29>    C       -7.14346        -0.87670         2.12747
| 30>    C       -7.90083        -2.06150         2.01224
| 31>    N       -8.57586        -2.98315         1.89993
| 32>    C       -7.12565        -0.12508         0.93655
| 33>    N       -7.11881         0.43401        -0.06625
| 34>    C       -6.60491        -2.53168         4.78005
| 35>    C       -6.22685        -3.57041         3.90728
| 36>    C       -6.40650        -4.92156         4.15946
| 37>    C       -5.84360        -5.77473         3.20991
| 38>    C       -5.99973        -7.25784         3.27256
| 39>    C       -5.18075        -5.07861         2.20807
| 40>    S       -5.30154        -3.36404         2.44238
| 41>    C       -4.43738        -5.57311         1.07524
| 42>    C       -3.70963        -6.73661         1.15226
| 43>    C       -2.94796        -7.15933         0.04309
| 44>    C       -2.10613        -8.25043        -0.10851
| 45>    C       -1.84717        -9.30795         0.91163
| 46>    C       -1.95952       -10.73190         0.33772
| 47>    N       -2.49885       -11.61627         1.35471
| 48>    C       -0.48660        -9.07826         1.59646
| 49>    N       -0.56165        -7.88830         2.42338
| 50>    C       -1.50883        -8.13290        -1.41913
| 51>    C       -0.54723        -8.84366        -2.03657
| 52>    C       -0.01964        -8.45604        -3.37548
| 53>    C       -0.75852        -7.32782        -4.03335
| 54>    C       -1.70913        -6.61830        -3.39935
| 55>    C       -2.08490        -6.94496        -2.07494
| 56>    C       -2.94593        -6.35696        -1.17309
| 57>    C       -3.72278        -5.17477        -1.22469
| 58>    C       -4.43150        -4.79669        -0.13350
| 59>    C        0.03248        -9.63768        -4.30243
| 60>    C        1.08289        -9.90941        -5.08273
| 61>    C        1.17115       -10.99858        -6.00580
| 62>    C        2.18968       -11.22628        -6.90558
| 63>    C        2.03604       -12.38633        -7.66858
| 64>    C        2.98629       -12.81389        -8.72946
| 65>    C        0.85819       -13.06718        -7.36479
| 66>    S       -0.03246       -12.23959        -6.10469
| 67>    C        0.49089       -14.32787        -7.87743
| 68>    C       -0.72753       -14.94889        -7.85035
| 69>    C       -0.92217       -16.39015        -7.93862
| 70>    C       -0.02188       -17.32631        -8.37522
| 71>    C        1.26542       -17.04392        -8.87637
| 72>    N        2.32286       -16.88056        -9.29508
| 73>    C       -0.27692       -18.71353        -8.41501
| 74>    N       -0.41329       -19.85166        -8.47277
| 75>    C       -2.26851       -16.65941        -7.44852
| 76>    C       -2.92680       -15.43021        -7.21472
| 77>    C       -4.22248       -15.40197        -6.72744
| 78>    C       -4.85891       -16.60756        -6.47259
| 79>    C       -4.21832       -17.81581        -6.70820
| 80>    C       -2.92133       -17.85616        -7.19822
| 81>    C       -2.03351       -14.35302        -7.60781
| 82>    C       -2.41049       -13.08760        -7.97203
| 83>    C       -3.70336       -12.56352        -7.77578
| 84>    N       -4.73228       -12.08070        -7.61574
| 85>    C       -1.56091       -12.20731        -8.67431
| 86>    N       -0.90960       -11.49728        -9.29841
| 87>    H       -5.79782         2.45546         6.60670
| 88>    H       -5.14103         4.27922         5.10353
| 89>    H       -5.09519         3.95322         2.66960
| 90>    H       -5.72380         1.78723         1.68038
| 91>    H       -6.81686        -2.87510         5.78487
| 92>    H       -6.96351        -5.26979         5.01188
| 93>    H       -5.20234        -7.70384         3.86758
| 94>    H       -5.97529        -7.69427         2.27703
| 95>    H       -6.94745        -7.50432         3.74583
| 96>    H       -3.65074        -7.29207         2.07339
| 97>    H       -2.61195        -9.22559         1.68858
| 98>    H       -0.97834       -11.06079        -0.04601
| 99>    H       -2.66415       -10.72965        -0.49868
|100>    H       -1.87054       -11.67198         2.14902
|101>    H       -2.62430       -12.55303         0.98848
|102>    H        0.30288        -9.03034         0.82551
|103>    H       -0.26392        -9.92111         2.25774
|104>    H       -0.77400        -7.07825         1.84980
|105>    H        0.32096        -7.71916         2.89241
|106>    H       -0.08990        -9.71112        -1.58234
|107>    H        1.01870        -8.11669        -3.21976
|108>    H       -0.46162        -7.09921        -5.04507
|109>    H       -2.19669        -5.78992        -3.89211
|110>    H       -3.73372        -4.58059        -2.12603
|111>    H       -5.02701        -3.89547        -0.15403
|112>    H       -0.85829       -10.24925        -4.34524
|113>    H        1.95818        -9.27157        -5.05305
|114>    H        3.02861       -10.56042        -7.00637
|115>    H        3.22609       -13.87311        -8.64583
|116>    H        3.90464       -12.23659        -8.66800
|117>    H        2.54025       -12.65357        -9.71093
|118>    H        1.32522       -14.90029        -8.26171
|119>    H       -4.72573       -14.46767        -6.53708
|120>    H       -5.86634       -16.60330        -6.08546
|121>    H       -4.73422       -18.74193        -6.50575
|122>    H       -2.43998       -18.80430        -7.37281
|123> *
|124>
|125>                          ****END OF INPUT****

CARTESIAN COORDINATES (ANGSTROEM)
---------------------------------
  C     -5.788220    2.294070    5.541380
  C     -5.417620    3.322450    4.687400
  C     -5.394030    3.139210    3.312340
  C     -5.749590    1.922420    2.749690
  C     -6.119750    0.888720    3.592840
  C     -6.135340    1.068950    4.994510
  C     -6.537920   -0.181810    5.627730
  C     -6.769570   -0.364050    6.966270
  C     -6.656580    0.654550    7.935350
  N     -6.583400    1.432320    8.776780
  C     -7.187930   -1.568550    7.568410
  N     -7.530050   -2.509900    8.131160
  C     -6.621740   -1.177920    4.569000
  C     -6.576640   -0.461200    3.303420
  C     -7.143460   -0.876700    2.127470
  C     -7.900830   -2.061500    2.012240
  N     -8.575860   -2.983150    1.899930
  C     -7.125650   -0.125080    0.936550
  N     -7.118810    0.434010   -0.066250
  C     -6.604910   -2.531680    4.780050
  C     -6.226850   -3.570410    3.907280
  C     -6.406500   -4.921560    4.159460
  C     -5.843600   -5.774730    3.209910
  C     -5.999730   -7.257840    3.272560
  C     -5.180750   -5.078610    2.208070
  S     -5.301540   -3.364040    2.442380
  C     -4.437380   -5.573110    1.075240
  C     -3.709630   -6.736610    1.152260
  C     -2.947960   -7.159330    0.043090
  C     -2.106130   -8.250430   -0.108510
  C     -1.847170   -9.307950    0.911630
  C     -1.959520  -10.731900    0.337720
  N     -2.498850  -11.616270    1.354710
  C     -0.486600   -9.078260    1.596460
  N     -0.561650   -7.888300    2.423380
  C     -1.508830   -8.132900   -1.419130
  C     -0.547230   -8.843660   -2.036570
  C     -0.019640   -8.456040   -3.375480
  C     -0.758520   -7.327820   -4.033350
  C     -1.709130   -6.618300   -3.399350
  C     -2.084900   -6.944960   -2.074940
  C     -2.945930   -6.356960   -1.173090
  C     -3.722780   -5.174770   -1.224690
  C     -4.431500   -4.796690   -0.133500
  C      0.032480   -9.637680   -4.302430
  C      1.082890   -9.909410   -5.082730
  C      1.171150  -10.998580   -6.005800
  C      2.189680  -11.226280   -6.905580
  C      2.036040  -12.386330   -7.668580
  C      2.986290  -12.813890   -8.729460
  C      0.858190  -13.067180   -7.364790
  S     -0.032460  -12.239590   -6.104690
  C      0.490890  -14.327870   -7.877430
  C     -0.727530  -14.948890   -7.850350
  C     -0.922170  -16.390150   -7.938620
  C     -0.021880  -17.326310   -8.375220
  C      1.265420  -17.043920   -8.876370
  N      2.322860  -16.880560   -9.295080
  C     -0.276920  -18.713530   -8.415010
  N     -0.413290  -19.851660   -8.472770
  C     -2.268510  -16.659410   -7.448520
  C     -2.926800  -15.430210   -7.214720
  C     -4.222480  -15.401970   -6.727440
  C     -4.858910  -16.607560   -6.472590
  C     -4.218320  -17.815810   -6.708200
  C     -2.921330  -17.856160   -7.198220
  C     -2.033510  -14.353020   -7.607810
  C     -2.410490  -13.087600   -7.972030
  C     -3.703360  -12.563520   -7.775780
  N     -4.732280  -12.080700   -7.615740
  C     -1.560910  -12.207310   -8.674310
  N     -0.909600  -11.497280   -9.298410
  H     -5.797820    2.455460    6.606700
  H     -5.141030    4.279220    5.103530
  H     -5.095190    3.953220    2.669600
  H     -5.723800    1.787230    1.680380
  H     -6.816860   -2.875100    5.784870
  H     -6.963510   -5.269790    5.011880
  H     -5.202340   -7.703840    3.867580
  H     -5.975290   -7.694270    2.277030
  H     -6.947450   -7.504320    3.745830
  H     -3.650740   -7.292070    2.073390
  H     -2.611950   -9.225590    1.688580
  H     -0.978340  -11.060790   -0.046010
  H     -2.664150  -10.729650   -0.498680
  H     -1.870540  -11.671980    2.149020
  H     -2.624300  -12.553030    0.988480
  H      0.302880   -9.030340    0.825510
  H     -0.263920   -9.921110    2.257740
  H     -0.774000   -7.078250    1.849800
  H      0.320960   -7.719160    2.892410
  H     -0.089900   -9.711120   -1.582340
  H      1.018700   -8.116690   -3.219760
  H     -0.461620   -7.099210   -5.045070
  H     -2.196690   -5.789920   -3.892110
  H     -3.733720   -4.580590   -2.126030
  H     -5.027010   -3.895470   -0.154030
  H     -0.858290  -10.249250   -4.345240
  H      1.958180   -9.271570   -5.053050
  H      3.028610  -10.560420   -7.006370
  H      3.226090  -13.873110   -8.645830
  H      3.904640  -12.236590   -8.668000
  H      2.540250  -12.653570   -9.710930
  H      1.325220  -14.900290   -8.261710
  H     -4.725730  -14.467670   -6.537080
  H     -5.866340  -16.603300   -6.085460
  H     -4.734220  -18.741930   -6.505750
  H     -2.439980  -18.804300   -7.372810

 Total Charge           Charge          ....    0
 Multiplicity           Mult            ....    1
 Number of Electrons    NEL             ....  498
 Basis Dimension        Dim             .... 1196

ORBITAL ENERGIES
----------------

  NO   OCC          E(Eh)            E(eV)
   0   2.0000     -88.976673     -2421.1784
   1   2.0000     -88.967054     -2420.9166
   2   2.0000     -14.427400      -392.5895
   3   2.0000     -14.424085      -392.4993
   4   2.0000     -14.421639      -392.4327
   5   2.0000     -14.421447      -392.4275
   6   2.0000     -14.418424      -392.3453
   7   2.0000     -14.418346      -392.3431
   8   2.0000     -14.414662      -392.2429
   9   2.0000     -14.413446      -392.2098
  10   2.0000     -14.386111      -391.4660
  11   2.0000     -14.384460      -391.4211
  12   2.0000     -10.353409      -281.7306
  13   2.0000     -10.352007      -281.6924
  14   2.0000     -10.351322      -281.6738
  15   2.0000     -10.348739      -281.6035
  16   2.0000     -10.346704      -281.5481
  17   2.0000     -10.344258      -281.4816
  18   2.0000     -10.343667      -281.4655
  19   2.0000     -10.342138      -281.4239
  20   2.0000     -10.333245      -281.1819
  21   2.0000     -10.331920      -281.1458
  22   2.0000     -10.329869      -281.0900
  23   2.0000     -10.326015      -280.9852
  24   2.0000     -10.325680      -280.9760
  25   2.0000     -10.324564      -280.9457
  26   2.0000     -10.323431      -280.9148
  27   2.0000     -10.321415      -280.8600
  28   2.0000     -10.320885      -280.8456
  29   2.0000     -10.320464      -280.8341
  30   2.0000     -10.318829      -280.7896
  31   2.0000     -10.318739      -280.7872
  32   2.0000     -10.317793      -280.7614
  33   2.0000     -10.315595      -280.7016
  34   2.0000     -10.315437      -280.6973
  35   2.0000     -10.315279      -280.6930
  36   2.0000     -10.314821      -280.6805
  37   2.0000     -10.314214      -280.6640
  38   2.0000     -10.313896      -280.6554
  39   2.0000     -10.310857      -280.5727
  40   2.0000     -10.310625      -280.5664
  41   2.0000     -10.308936      -280.5204
  42   2.0000     -10.308712      -280.5143
  43   2.0000     -10.308621      -280.5118
  44   2.0000     -10.305393      -280.4240
  45   2.0000     -10.303793      -280.3805
  46   2.0000     -10.303609      -280.3755
  47   2.0000     -10.302739      -280.3518
  48   2.0000     -10.301658      -280.3224
  49   2.0000     -10.297491      -280.2090
  50   2.0000     -10.297149      -280.1997
  51   2.0000     -10.296611      -280.1850
  52   2.0000     -10.295599      -280.1575
  53   2.0000     -10.295042      -280.1423
  54   2.0000     -10.294698      -280.1330
  55   2.0000     -10.293609      -280.1033
  56   2.0000     -10.293049      -280.0881
  57   2.0000     -10.292174      -280.0643
  58   2.0000     -10.290196      -280.0105
  59   2.0000     -10.288194      -279.9560
  60   2.0000     -10.284168      -279.8464
  61   2.0000     -10.283317      -279.8233
  62   2.0000     -10.282416      -279.7988
  63   2.0000     -10.282291      -279.7954
  64   2.0000     -10.279458      -279.7183
  65   2.0000     -10.277389      -279.6620
  66   2.0000     -10.275765      -279.6178
  67   2.0000     -10.274686      -279.5884
  68   2.0000     -10.273151      -279.5467
  69   2.0000     -10.272549      -279.5303
  70   2.0000     -10.271288      -279.4960
  71   2.0000     -10.270817      -279.4831
  72   2.0000      -8.071726      -219.6428
  73   2.0000      -8.062071      -219.3801
  74   2.0000      -6.041016      -164.3844
  75   2.0000      -6.037064      -164.2769
  76   2.0000      -6.033676      -164.1847
  77   2.0000      -6.031372      -164.1220
  78   2.0000      -6.027221      -164.0090
  79   2.0000      -6.024176      -163.9262
  80   2.0000      -1.039761       -28.2933
  81   2.0000      -1.032437       -28.0940
  82   2.0000      -1.021400       -27.7937
  83   2.0000      -1.013861       -27.5886
  84   2.0000      -1.010934       -27.5089
  85   2.0000      -1.010152       -27.4876
  86   2.0000      -1.003221       -27.2990
  87   2.0000      -1.002860       -27.2892
  88   2.0000      -1.002359       -27.2756
  89   2.0000      -0.999847       -27.2072
  90   2.0000      -0.995307       -27.0837
  91   2.0000      -0.994540       -27.0628
  92   2.0000      -0.992010       -26.9940
  93   2.0000      -0.974594       -26.5201
  94   2.0000      -0.962433       -26.1891
  95   2.0000      -0.959815       -26.1179
  96   2.0000      -0.958035       -26.0695
  97   2.0000      -0.953997       -25.9596
  98   2.0000      -0.942920       -25.6582
  99   2.0000      -0.935674       -25.4610
 100   2.0000      -0.931404       -25.3448
 101   2.0000      -0.915399       -24.9093
 102   2.0000      -0.900344       -24.4996
 103   2.0000      -0.897233       -24.4150
 104   2.0000      -0.891452       -24.2576
 105   2.0000      -0.889337       -24.2001
 106   2.0000      -0.881997       -24.0003
 107   2.0000      -0.871289       -23.7090
 108   2.0000      -0.869000       -23.6467
 109   2.0000      -0.864913       -23.5355
 110   2.0000      -0.862320       -23.4649
 111   2.0000      -0.850882       -23.1537
 112   2.0000      -0.845015       -22.9940
 113   2.0000      -0.839983       -22.8571
 114   2.0000      -0.832573       -22.6555
 115   2.0000      -0.811559       -22.0836
 116   2.0000      -0.798808       -21.7367
 117   2.0000      -0.793770       -21.5996
 118   2.0000      -0.789236       -21.4762
 119   2.0000      -0.786981       -21.4149
 120   2.0000      -0.774359       -21.0714
 121   2.0000      -0.767742       -20.8913
 122   2.0000      -0.759118       -20.6566
 123   2.0000      -0.740652       -20.1542
 124   2.0000      -0.730969       -19.8907
 125   2.0000      -0.722448       -19.6588
 126   2.0000      -0.719018       -19.5655
 127   2.0000      -0.715417       -19.4675
 128   2.0000      -0.712774       -19.3956
 129   2.0000      -0.710642       -19.3376
 130   2.0000      -0.703693       -19.1485
 131   2.0000      -0.695270       -18.9193
 132   2.0000      -0.683673       -18.6037
 133   2.0000      -0.678250       -18.4561
 134   2.0000      -0.672918       -18.3110
 135   2.0000      -0.670445       -18.2437
 136   2.0000      -0.667868       -18.1736
 137   2.0000      -0.663128       -18.0446
 138   2.0000      -0.661662       -18.0047
 139   2.0000      -0.657076       -17.8800
 140   2.0000      -0.649810       -17.6822
 141   2.0000      -0.644003       -17.5242
 142   2.0000      -0.640056       -17.4168
 143   2.0000      -0.635670       -17.2975
 144   2.0000      -0.619383       -16.8543
 145   2.0000      -0.616196       -16.7675
 146   2.0000      -0.605882       -16.4869
 147   2.0000      -0.603828       -16.4310
 148   2.0000      -0.593302       -16.1446
 149   2.0000      -0.588982       -16.0270
 150   2.0000      -0.588746       -16.0206
 151   2.0000      -0.587013       -15.9734
 152   2.0000      -0.581951       -15.8357
 153   2.0000      -0.577138       -15.7047
 154   2.0000      -0.573440       -15.6041
 155   2.0000      -0.569981       -15.5100
 156   2.0000      -0.566873       -15.4254
 157   2.0000      -0.556347       -15.1390
 158   2.0000      -0.549557       -14.9542
 159   2.0000      -0.549060       -14.9407
 160   2.0000      -0.545496       -14.8437
 161   2.0000      -0.543177       -14.7806
 162   2.0000      -0.542662       -14.7666
 163   2.0000      -0.537445       -14.6246
 164   2.0000      -0.537170       -14.6171
 165   2.0000      -0.535974       -14.5846
 166   2.0000      -0.534972       -14.5573
 167   2.0000      -0.532281       -14.4841
 168   2.0000      -0.531232       -14.4556
 169   2.0000      -0.527761       -14.3611
 170   2.0000      -0.527632       -14.3576
 171   2.0000      -0.522491       -14.2177
 172   2.0000      -0.520031       -14.1508
 173   2.0000      -0.515841       -14.0367
 174   2.0000      -0.512158       -13.9365
 175   2.0000      -0.510910       -13.9026
 176   2.0000      -0.508243       -13.8300
 177   2.0000      -0.506991       -13.7959
 178   2.0000      -0.505277       -13.7493
 179   2.0000      -0.502904       -13.6847
 180   2.0000      -0.501478       -13.6459
 181   2.0000      -0.497944       -13.5497
 182   2.0000      -0.495261       -13.4767
 183   2.0000      -0.490779       -13.3548
 184   2.0000      -0.490064       -13.3353
 185   2.0000      -0.483544       -13.1579
 186   2.0000      -0.482333       -13.1250
 187   2.0000      -0.478813       -13.0292
 188   2.0000      -0.474945       -12.9239
 189   2.0000      -0.473861       -12.8944
 190   2.0000      -0.471816       -12.8388
 191   2.0000      -0.470025       -12.7900
 192   2.0000      -0.467575       -12.7233
 193   2.0000      -0.464639       -12.6435
 194   2.0000      -0.461273       -12.5519
 195   2.0000      -0.460486       -12.5305
 196   2.0000      -0.458643       -12.4803
 197   2.0000      -0.458243       -12.4694
 198   2.0000      -0.456691       -12.4272
 199   2.0000      -0.455478       -12.3942
 200   2.0000      -0.453995       -12.3538
 201   2.0000      -0.451859       -12.2957
 202   2.0000      -0.450260       -12.2522
 203   2.0000      -0.449854       -12.2411
 204   2.0000      -0.449192       -12.2231
 205   2.0000      -0.448594       -12.2069
 206   2.0000      -0.445794       -12.1307
 207   2.0000      -0.444044       -12.0831
 208   2.0000      -0.442011       -12.0277
 209   2.0000      -0.441397       -12.0110
 210   2.0000      -0.436279       -11.8718
 211   2.0000      -0.435804       -11.8588
 212   2.0000      -0.435310       -11.8454
 213   2.0000      -0.433882       -11.8065
 214   2.0000      -0.432493       -11.7687
 215   2.0000      -0.428499       -11.6601
 216   2.0000      -0.428209       -11.6522
 217   2.0000      -0.426742       -11.6122
 218   2.0000      -0.426457       -11.6045
 219   2.0000      -0.425561       -11.5801
 220   2.0000      -0.423273       -11.5178
 221   2.0000      -0.419830       -11.4242
 222   2.0000      -0.418009       -11.3746
 223   2.0000      -0.416983       -11.3467
 224   2.0000      -0.415124       -11.2961
 225   2.0000      -0.411267       -11.1911
 226   2.0000      -0.409556       -11.1446
 227   2.0000      -0.407184       -11.0800
 228   2.0000      -0.402097       -10.9416
 229   2.0000      -0.401017       -10.9122
 230   2.0000      -0.393460       -10.7066
 231   2.0000      -0.387603       -10.5472
 232   2.0000      -0.380735       -10.3603
 233   2.0000      -0.378459       -10.2984
 234   2.0000      -0.370221       -10.0742
 235   2.0000      -0.357129        -9.7180
 236   2.0000      -0.342065        -9.3081
 237   2.0000      -0.338487        -9.2107
 238   2.0000      -0.336106        -9.1459
 239   2.0000      -0.331538        -9.0216
 240   2.0000      -0.329864        -8.9761
 241   2.0000      -0.323951        -8.8152
 242   2.0000      -0.315913        -8.5964
 243   2.0000      -0.313367        -8.5271
 244   2.0000      -0.308559        -8.3963
 245   2.0000      -0.305098        -8.3021
 246   2.0000      -0.279626        -7.6090
 247   2.0000      -0.273104        -7.4315
 248   2.0000      -0.233630        -6.3574
 249   0.0000      -0.104001        -2.8300
 250   0.0000      -0.099015        -2.6943
 251   0.0000      -0.090569        -2.4645
 252   0.0000      -0.083325        -2.2674
 253   0.0000      -0.073988        -2.0133

MULLIKEN ATOMIC CHARGES
-----------------------
   0 C :   -0.037815
   1 C :    0.048166
   2 C :    0.048121
   3 C :   -0.037082
   4 C :    0.009195
   5 C :    0.014432
   6 C :    0.301482
   7 C :   -0.351316
   8 C :   -0.188683
   9 N :    0.156265
  10 C :   -0.181089
  11 N :    0.148016
  12 C :   -0.071732
  13 C :    0.213817
  14 C :   -0.321019
  15 C :   -0.210020
  16 N :    0.181521
  17 C :   -0.176216
  18 N :    0.157144
  19 C :    0.059288
  20 C :   -0.100563
  21 C :    0.013154
  22 C :   -0.042646
  23 C :    0.108956
  24 C :   -0.098791
  25 S :    0.143826
  26 C :    0.082595
  27 C :   -0.087537
  28 C :    0.038986
  29 C :   -0.073208
  30 C :   -0.035283
  31 C :    0.127525
  32 N :   -0.210144
  33 C :    0.161646
  34 N :   -0.228026
  35 C :    0.100125
  36 C :   -0.143693
  37 C :    0.133108
  38 C :   -0.031940
  39 C :    0.027296
  40 C :    0.008465
  41 C :    0.040094
  42 C :    0.001651
  43 C :   -0.012707
  44 C :   -0.054111
  45 C :    0.037401
  46 C :   -0.016716
  47 C :   -0.026007
  48 C :   -0.009404
  49 C :    0.113712
  50 C :   -0.149463
  51 S :    0.137932
  52 C :    0.029323
  53 C :   -0.069861
  54 C :    0.298600
  55 C :   -0.346004
  56 C :   -0.177464
  57 N :    0.146706
  58 C :   -0.186627
  59 N :    0.155628
  60 C :    0.008989
  61 C :    0.009239
  62 C :   -0.037419
  63 C :    0.051591
  64 C :    0.046151
  65 C :   -0.033282
  66 C :    0.212471
  67 C :   -0.323564
  68 C :   -0.180507
  69 N :    0.164880
  70 C :   -0.196513
  71 N :    0.176863
  72 H :    0.005617
  73 H :    0.001625
  74 H :    0.003199
  75 H :    0.007009
  76 H :    0.016910
  77 H :   -0.000158
  78 H :    0.043116
  79 H :    0.035784
  80 H :    0.020885
  81 H :   -0.024797
  82 H :   -0.006172
  83 H :   -0.020142
  84 H :    0.003370
  85 H :    0.088183
  86 H :    0.091184
  87 H :   -0.026510
  88 H :   -0.016428
  89 H :    0.100088
  90 H :    0.092897
  91 H :   -0.006584
  92 H :    0.044749
  93 H :   -0.007060
  94 H :   -0.026780
  95 H :   -0.028362
  96 H :   -0.010273
  97 H :    0.021811
  98 H :   -0.005573
  99 H :   -0.017280
 100 H :    0.051929
 101 H :    0.015594
 102 H :    0.057904
 103 H :    0.005479
 104 H :    0.006099
 105 H :    0.005223
 106 H :    0.004156
 107 H :    0.005400
Sum of atomic charges:   -0.0000000

LOEWDIN ATOMIC CHARGES
----------------------
   0 C :    0.004494
   1 C :   -0.000343
   2 C :    0.002995
   3 C :   -0.000415
   4 C :   -0.009066
   5 C :   -0.013328
   6 C :    0.080704
   7 C :   -0.139883
   8 C :   -0.019036
   9 N :   -0.051731
  10 C :   -0.020831
  11 N :   -0.050457
  12 C :   -0.073819
  13 C :    0.061521
  14 C :   -0.138730
  15 C :   -0.039136
  16 N :   -0.041975
  17 C :   -0.019436
  18 N :   -0.048469
  19 C :    0.052411
  20 C :   -0.188843
  21 C :    0.004537
  22 C :   -0.057741
  23 C :   -0.044573
  24 C :   -0.124594
  25 S :    0.473193
  26 C :   -0.048490
  27 C :    0.003188
  28 C :   -0.021060
  29 C :   -0.034464
  30 C :   -0.039762
  31 C :    0.026044
  32 N :   -0.114779
  33 C :    0.027388
  34 N :   -0.119609
  35 C :   -0.013437
  36 C :    0.057001
  37 C :   -0.030634
  38 C :   -0.030853
  39 C :   -0.011643
  40 C :   -0.032814
  41 C :   -0.030275
  42 C :   -0.002709
  43 C :   -0.033019
  44 C :    0.012295
  45 C :   -0.050109
  46 C :   -0.128622
  47 C :   -0.060015
  48 C :    0.004677
  49 C :   -0.041753
  50 C :   -0.192158
  51 S :    0.456626
  52 C :    0.047667
  53 C :   -0.070754
  54 C :    0.080966
  55 C :   -0.138553
  56 C :   -0.018275
  57 N :   -0.051814
  58 C :   -0.019737
  59 N :   -0.048167
  60 C :   -0.014137
  61 C :   -0.009554
  62 C :    0.000411
  63 C :    0.004773
  64 C :    0.000885
  65 C :    0.005476
  66 C :    0.060041
  67 C :   -0.136820
  68 C :   -0.020711
  69 N :   -0.044354
  70 C :   -0.032149
  71 N :   -0.045878
  72 H :    0.041386
  73 H :    0.036780
  74 H :    0.037004
  75 H :    0.040693
  76 H :    0.052115
  77 H :    0.038809
  78 H :    0.039751
  79 H :    0.038526
  80 H :    0.036550
  81 H :    0.031187
  82 H :    0.032261
  83 H :   -0.005188
  84 H :    0.020363
  85 H :    0.049723
  86 H :    0.055113
  87 H :   -0.004843
  88 H :    0.010774
  89 H :    0.053048
  90 H :    0.055930
  91 H :    0.026751
  92 H :    0.063296
  93 H :    0.027080
  94 H :    0.033426
  95 H :    0.030924
  96 H :    0.023673
  97 H :    0.027175
  98 H :    0.036209
  99 H :    0.032352
 100 H :    0.045230
 101 H :    0.036651
 102 H :    0.052918
 103 H :    0.048384
 104 H :    0.040939
 105 H :    0.037908
 106 H :    0.037723
 107 H :    0.041597

  Mayer bond orders larger than 0.100000
B(  0-C ,  1-C ) :   1.3706 B(  0-C ,  5-C ) :   1.3826 B(  0-C , 72-H ) :   0.9846
B(  1-C ,  2-C ) :   1.3797 B(  1-C , 73-H ) :   0.9852 B(  2-C ,  3-C ) :   1.3622
B(  2-C , 74-H ) :   0.9861 B(  3-C ,  4-C ) :   1.3837 B(  3-C , 75-H ) :   0.9877
B(  4-C ,  5-C ) :   1.3143 B(  4-C , 13-C ) :   1.0138 B(  5-C ,  6-C ) :   0.9985
B(  6-C ,  7-C ) :   1.6243 B(  6-C , 12-C ) :   1.0725 B(  7-C ,  8-C ) :   1.1495
B(  7-C , 10-C ) :   1.1406 B(  8-C ,  9-N ) :   2.9759 B( 10-C , 11-N ) :   2.9652
B( 12-C , 13-C ) :   1.0235 B( 12-C , 19-C ) :   1.5457 B( 13-C , 14-C ) :   1.6488
B( 14-C , 15-C ) :   1.1440 B( 14-C , 17-C ) :   1.1427 B( 15-C , 16-N ) :   3.0313
B( 17-C , 18-N ) :   2.9928 B( 19-C , 20-C ) :   1.2155 B( 19-C , 76-H ) :   0.9328
B( 20-C , 21-C ) :   1.3908 B( 20-C , 25-S ) :   1.0910 B( 21-C , 22-C ) :   1.2998
B( 21-C , 77-H ) :   1.0034 B( 22-C , 23-C ) :   1.0950 B( 22-C , 24-C ) :   1.4831
B( 23-C , 78-H ) :   0.9403 B( 23-C , 79-H ) :   0.9438 B( 23-C , 80-H ) :   0.9479
B( 24-C , 25-S ) :   1.1529 B( 24-C , 26-C ) :   1.0396 B( 26-C , 27-C ) :   1.5307
B( 26-C , 43-C ) :   1.1106 B( 27-C , 28-C ) :   1.1424 B( 27-C , 81-H ) :   0.9910
B( 28-C , 29-C ) :   1.5016 B( 28-C , 41-C ) :   1.1110 B( 29-C , 30-C ) :   1.0484
B( 29-C , 35-C ) :   1.0769 B( 30-C , 31-C ) :   1.0315 B( 30-C , 33-C ) :   1.0336
B( 30-C , 82-H ) :   0.8752 B( 31-C , 32-N ) :   1.1075 B( 31-C , 83-H ) :   0.9238
B( 31-C , 84-H ) :   0.9466 B( 32-N , 85-H ) :   0.9700 B( 32-N , 86-H ) :   0.9673
B( 33-C , 34-N ) :   1.0958 B( 33-C , 87-H ) :   0.9296 B( 33-C , 88-H ) :   0.9337
B( 34-N , 89-H ) :   0.9656 B( 34-N , 90-H ) :   0.9655 B( 35-C , 36-C ) :   1.6496
B( 35-C , 40-C ) :   1.0496 B( 36-C , 37-C ) :   0.9510 B( 36-C , 91-H ) :   0.9762
B( 37-C , 38-C ) :   0.9893 B( 37-C , 44-C ) :   0.9719 B( 37-C , 92-H ) :   0.8588
B( 38-C , 39-C ) :   1.7109 B( 38-C , 93-H ) :   0.9739 B( 39-C , 40-C ) :   1.1299
B( 39-C , 94-H ) :   0.9896 B( 40-C , 41-C ) :   1.4456 B( 41-C , 42-C ) :   1.1365
B( 42-C , 43-C ) :   1.6224 B( 42-C , 95-H ) :   0.9925 B( 43-C , 96-H ) :   0.9792
B( 44-C , 45-C ) :   1.7751 B( 44-C , 97-H ) :   0.9743 B( 45-C , 46-C ) :   1.1194
B( 45-C , 98-H ) :   0.9738 B( 46-C , 47-C ) :   1.4533 B( 46-C , 51-S ) :   1.1468
B( 47-C , 48-C ) :   1.2882 B( 47-C , 99-H ) :   1.0026 B( 48-C , 49-C ) :   1.1142
B( 48-C , 50-C ) :   1.4110 B( 49-C ,100-H ) :   0.9290 B( 49-C ,101-H ) :   0.9448
B( 49-C ,102-H ) :   0.9402 B( 50-C , 51-S ) :   1.0826 B( 50-C , 52-C ) :   1.2209
B( 52-C , 53-C ) :   1.5779 B( 52-C ,103-H ) :   0.9235 B( 53-C , 54-C ) :   1.0687
B( 53-C , 66-C ) :   1.0220 B( 54-C , 55-C ) :   1.6329 B( 54-C , 60-C ) :   0.9973
B( 55-C , 56-C ) :   1.1385 B( 55-C , 58-C ) :   1.1448 B( 56-C , 57-N ) :   2.9760
B( 58-C , 59-N ) :   2.9764 B( 60-C , 61-C ) :   1.3143 B( 60-C , 65-C ) :   1.3831
B( 61-C , 62-C ) :   1.3813 B( 61-C , 66-C ) :   1.0153 B( 62-C , 63-C ) :   1.3630
B( 62-C ,104-H ) :   0.9884 B( 63-C , 64-C ) :   1.3789 B( 63-C ,105-H ) :   0.9860
B( 64-C , 65-C ) :   1.3685 B( 64-C ,106-H ) :   0.9865 B( 65-C ,107-H ) :   0.9847
B( 66-C , 67-C ) :   1.6513 B( 67-C , 68-C ) :   1.1429 B( 67-C , 70-C ) :   1.1498
B( 68-C , 69-N ) :   2.9951 B( 70-C , 71-N ) :   3.0207

-----------------------------------------------------------------------------
         ABSORPTION SPECTRUM VIA TRANSITION ELECTRIC DIPOLE MOMENTS
-----------------------------------------------------------------------------
State   Energy  Wavelength   fosc         T2         TX        TY        TZ
        (cm-1)    (nm)                  (au**2)     (au)      (au)      (au)
-----------------------------------------------------------------------------
   0   13640.2    733.1   0.137672407   3.32277  -0.65994   1.69693   0.08772
   1   16499.7    606.1   0.077718660   1.55069   0.13823   0.78277   0.95857
   2   17399.4    574.7   0.505311684   9.56093   1.16460  -2.11023  -1.93689
   3   20588.6    485.7   0.547281808   8.75105   0.97003   2.32701   1.54762
   4   20699.8    483.1   0.053035367   0.84348  -0.05806  -0.32681   0.85633
   5   21062.3    474.8   0.362502968   5.66607  -1.56095   1.65278   0.70557
   6   21349.0    468.4   0.025013662   0.38572   0.08804   0.57112   0.22760
   7   23504.5    425.5   0.213177120   2.98583   0.45252  -1.61338  -0.42199
   8   24991.0    400.1   0.221214470   2.91411   0.28017  -0.55757  -1.58894
   9   27126.1    368.6   0.135545707   1.64503   0.55068  -1.05734  -0.47309
  10   27697.8    361.0   0.157036311   1.86651  -0.78898  -1.10507  -0.15113
  11   28171.3    355.0   0.046322352   0.54133   0.24841  -0.32266  -0.61279
  12   28319.7    353.1   0.101643378   1.18159   0.13298   0.99313   0.42142
  13   28675.0    348.7   0.009356061   0.10741  -0.27366  -0.16944   0.06177
  14   28836.8    346.8   0.004523649   0.05164  -0.21973  -0.01895   0.05480
  15   30245.2    330.6   0.189001196   2.05724   0.24986  -1.31019  -0.52746
  16   30323.0    329.8   0.119726643   1.29985   0.29947  -1.09187  -0.13417
  17   30406.8    328.9   0.020200634   0.21871  -0.27302  -0.15460   0.34680
  18   30833.1    324.3   0.182711103   1.95085   0.85960  -0.21785  -1.07911
  19   31104.3    321.5   0.143163344   1.51526   0.74355  -0.95325  -0.23173
  20   31437.6    318.1   0.213094781   2.23151   0.10319   0.02586   1.49003
  21   32799.4    304.9   0.000172017   0.00173  -0.00484  -0.03637   0.01950
  22   32987.2    303.1   0.022451726   0.22407   0.19289  -0.43062  -0.03776
  23   33000.4    303.0   0.432001906   4.30965  -0.91189   1.85143   0.22434
  24   33205.8    301.2   0.187174728   1.85570  -0.09242  -0.20852  -1.34301
  25   33466.0    298.8   0.287693919   2.83011  -0.28960  -0.30664  -1.62856
  26   34205.3    292.4   0.074331893   0.71541   0.47648  -0.53491  -0.44972
  27   34444.9    290.3   0.052009159   0.49708  -0.17032   0.67044   0.13633
  28   34695.5    288.2   0.143260146   1.35934  -1.11322  -0.17967   0.29632
  29   34856.4    286.9   0.056505621   0.53369  -0.09805  -0.53287   0.49002
  30   35004.1    285.7   0.107138566   1.00763  -0.60528   0.59475   0.53622
  31   35053.7    285.3   0.046874816   0.44023  -0.24344  -0.61395   0.06348
  32   35500.8    281.7   0.072175724   0.66931  -0.25186  -0.60194   0.49350
  33   35522.8    281.5   0.299250973   2.77335  -1.22537  -0.90175   0.67726
  34   36048.8    277.4   0.153413386   1.40103   0.78490   0.63014  -0.62281
  35   36363.4    275.0   0.021656472   0.19606   0.42064   0.01345  -0.13763
  36   36850.1    271.4   0.053578746   0.47866   0.03397   0.64726  -0.24199
  37   36942.9    270.7   0.095267904   0.84897  -0.11464  -0.84028   0.36022
  38   37064.0    269.8   0.000171655   0.00152   0.03856   0.00175  -0.00591
  39   37653.5    265.6   0.000026028   0.00023  -0.00573  -0.01332  -0.00418
  40   37833.3    264.3   0.146381870   1.27376   0.81474   0.73626  -0.26054
  41   37858.9    264.1   0.090812405   0.78968   0.73124   0.50362  -0.03657
  42   38358.7    260.7   0.128716269   1.10470  -0.33767   0.62876   0.77159
  43   38502.0    259.7   0.005588326   0.04778   0.08057   0.15574   0.13052
  44   39065.4    256.0   0.024595964   0.20728  -0.23595   0.28121   0.26930
  45   39139.7    255.5   0.138272340   1.16304   0.45476  -0.79660  -0.56714
  46   39283.6    254.6   0.031171864   0.26123   0.36601  -0.13373  -0.33074
  47   39668.4    252.1   0.053921678   0.44750   0.42961  -0.19081  -0.47595
  48   39795.1    251.3   0.342740292   2.83538  -1.20681  -0.06700   1.17239
  49   40196.3    248.8   0.199946079   1.63758   0.87566   0.57430  -0.73551

FINAL SINGLE POINT ENERGY     -3647.771012689311

DIPOLE MOMENT
-------------
                                X             Y             Z
Electronic contribution:    -26.92738      17.65495     -11.50315
Nuclear contribution   :     30.30628     -18.38866      11.41840
                        -----------------------------------------
Total Dipole Moment    :      3.37890      -0.73371      -0.08475
                        -----------------------------------------
Magnitude (a.u.)       :      3.45868
Magnitude (Debye)      :      8.79126

Rotational constants in cm-1:     0.002334     0.000245     0.000241
Rotational constants in MHz :    69.980842     7.349938     7.214785

                             ****ORCA TERMINATED NORMALLY****
TOTAL RUN TIME: 0 days 0 hours 11 minutes 53 seconds 973 msec
