                         Program Version 4.2.0 -  RELEASE  -
|  1> # ORCA input file
|  2> # SCF done       -206.285816615798          0.000725786574
|  3> ! CAM-B3LYP def2-SVP def2/J RIJCOSX Grid4 TightSCF
|  4> %maxcore 5000
|  5> %tddft
|  6>     Mode sTDDFT
|  7>     Ethresh 5.0
|  8>     maxcore 5000
|  9> end
| 10>
| 11> %pal
| 12>   nprocs 6
| 13>   end
| 14> * xyz 0 1
| 15>    C       -2.54647        -3.86328       -12.34157
| 16>    C       -1.28675        -3.35609       -12.06009
| 17>    C       -0.49141        -3.91970       -11.07232
| 18>    C       -0.92971        -5.01426       -10.34234
| 19>    C       -2.18486        -5.53148       -10.61686
| 20>    C       -3.00129        -4.95239       -11.61455
| 21>    C       -4.26506        -5.67566       -11.66637
| 22>    C       -5.25176        -5.50106       -12.59942
| 23>    C       -5.18071        -4.57091       -13.65889
| 24>    N       -5.18822        -3.84022       -14.54387
| 25>    C       -6.45040        -6.24203       -12.67796
| 26>    N       -7.44440        -6.80072       -12.81339
| 27>    C       -4.26313        -6.60689       -10.54228
| 28>    C       -2.89258        -6.66644       -10.04392
| 29>    C       -2.30590        -7.71608        -9.39211
| 30>    C       -2.95543        -8.92761        -9.07264
| 31>    N       -3.39818        -9.95765        -8.82783
| 32>    C       -0.94061        -7.75446        -9.03707
| 33>    N        0.15853        -7.83933        -8.71860
| 34>    C       -5.38672        -7.19404       -10.02837
| 35>    C       -5.57412        -7.76324        -8.74818
| 36>    C       -4.87385        -7.53461        -7.58030
| 37>    C       -5.47744        -8.27568        -6.52510
| 38>    C       -6.61262        -8.96487        -7.13802
| 39>    C       -6.69319        -8.65675        -8.44169
| 40>    F       -7.43400        -9.76857        -6.45615
| 41>    C       -5.06895        -8.35464        -5.21170
| 42>    C       -5.64589        -9.09359        -4.14753
| 43>    C       -4.91779        -8.87326        -2.99161
| 44>    C       -3.81189        -7.96112        -3.31620
| 45>    C       -3.91198        -7.66816        -4.61912
| 46>    F       -3.09687        -6.86719        -5.31493
| 47>    C       -5.20705        -9.41342        -1.72524
| 48>    C       -4.51604        -9.13060        -0.58067
| 49>    C       -4.86182        -9.66245         0.67120
| 50>    S       -3.94446        -9.16217         2.12907
| 51>    C       -4.98356       -10.16427         3.04265
| 52>    C       -5.92230       -10.79826         2.19874
| 53>    N       -5.83599       -10.50652         0.91747
| 54>    C       -6.83619       -11.67759         2.99032
| 55>    C       -6.31860       -11.45770         4.38125
| 56>    C       -5.23152       -10.56351         4.36453
| 57>    S       -4.61177       -10.25821         5.93051
| 58>    C       -5.81345       -11.33327         6.63124
| 59>    C       -6.63929       -11.88991         5.65246
| 60>    C       -5.83302       -11.49640         8.02914
| 61>    C       -6.68425       -12.31268         8.71894
| 62>    C       -6.70792       -12.43731        10.12085
| 63>    C       -7.53713       -13.28131        10.84036
| 64>    C       -7.28313       -13.11987        12.22448
| 65>    C       -6.22930       -12.09826        12.30366
| 66>    C       -5.87798       -11.69278        11.07596
| 67>    F       -5.71586       -11.65917        13.45669
| 68>    C       -7.87143       -13.76847        13.29070
| 69>    C       -7.61340       -13.59531        14.67714
| 70>    C       -8.41957       -14.45711        15.40157
| 71>    C       -9.23477       -15.22116        14.45359
| 72>    C       -8.90380       -14.80454        13.22167
| 73>    F       -9.42290       -15.24616        12.06970
| 74>    C       -8.42970       -14.56533        16.80422
| 75>    C       -9.19119       -15.44414        17.52494
| 76>    C       -9.15509       -15.47484        18.92861
| 77>    C       -9.77740       -16.38743        19.74546
| 78>    C      -10.08186       -16.16911        21.15243
| 79>    C       -9.52652       -15.23522        21.98709
| 80>    C       -8.50195       -14.33055        21.63724
| 81>    N       -7.66778       -13.56911        21.42962
| 82>    C       -9.88126       -15.07521        23.34345
| 83>    N      -10.12041       -14.88785        24.45034
| 84>    C      -11.10705       -17.13948        21.51617
| 85>    C      -11.31959       -18.01069        20.42361
| 86>    C      -12.26421       -19.02032        20.49978
| 87>    C      -12.99492       -19.15685        21.67091
| 88>    C      -12.78224       -18.30794        22.74730
| 89>    C      -11.83835       -17.29348        22.68311
| 90>    C      -10.39329       -17.64710        19.36068
| 91>    C      -10.01064       -18.45874        18.32433
| 92>    C      -10.62853       -19.69073        18.02336
| 93>    N      -11.10664       -20.68738        17.71399
| 94>    C       -8.88059       -18.23619        17.50771
| 95>    N       -7.94300       -18.14183        16.85266
| 96>    H       -3.15260        -3.40727       -13.10680
| 97>    H       -0.92417        -2.50571       -12.61701
| 98>    H        0.48160        -3.50103       -10.86575
| 99>    H       -0.30771        -5.43799        -9.57075
|100>    H       -6.28085        -7.16740       -10.63831
|101>    H       -4.04306        -6.86795        -7.45566
|102>    H       -7.40830        -9.00819        -9.15917
|103>    H       -6.51470        -9.71639        -4.23029
|104>    H       -3.06477        -7.60874        -2.63355
|105>    H       -6.04991       -10.08709        -1.65397
|106>    H       -3.67196        -8.45732        -0.59684
|107>    H       -6.76074       -12.72095         2.67836
|108>    H       -7.87975       -11.37604         2.88312
|109>    H       -7.43710       -12.57118         5.88346
|110>    H       -5.10488       -10.91582         8.57764
|111>    H       -7.39892       -12.91581         8.17602
|112>    H       -8.25739       -13.95572        10.42059
|113>    H       -5.13721       -10.95835        10.83053
|114>    H       -6.90333       -12.90787        15.09354
|115>    H       -9.95216       -15.97641        14.70489
|116>    H       -7.75039       -13.91373        17.34027
|117>    H       -9.86456       -16.10712        17.00273
|118>    H       -8.64956       -14.64451        19.40291
|119>    H      -12.44305       -19.68297        19.66866
|120>    H      -13.73929       -19.93503        21.74218
|121>    H      -13.36085       -18.43376        23.64959
|122>    H      -11.68961       -16.64140        23.52787
|123> *
|124>
|125>                          ****END OF INPUT****

CARTESIAN COORDINATES (ANGSTROEM)
---------------------------------
  C     -2.546470   -3.863280  -12.341570
  C     -1.286750   -3.356090  -12.060090
  C     -0.491410   -3.919700  -11.072320
  C     -0.929710   -5.014260  -10.342340
  C     -2.184860   -5.531480  -10.616860
  C     -3.001290   -4.952390  -11.614550
  C     -4.265060   -5.675660  -11.666370
  C     -5.251760   -5.501060  -12.599420
  C     -5.180710   -4.570910  -13.658890
  N     -5.188220   -3.840220  -14.543870
  C     -6.450400   -6.242030  -12.677960
  N     -7.444400   -6.800720  -12.813390
  C     -4.263130   -6.606890  -10.542280
  C     -2.892580   -6.666440  -10.043920
  C     -2.305900   -7.716080   -9.392110
  C     -2.955430   -8.927610   -9.072640
  N     -3.398180   -9.957650   -8.827830
  C     -0.940610   -7.754460   -9.037070
  N      0.158530   -7.839330   -8.718600
  C     -5.386720   -7.194040  -10.028370
  C     -5.574120   -7.763240   -8.748180
  C     -4.873850   -7.534610   -7.580300
  C     -5.477440   -8.275680   -6.525100
  C     -6.612620   -8.964870   -7.138020
  C     -6.693190   -8.656750   -8.441690
  F     -7.434000   -9.768570   -6.456150
  C     -5.068950   -8.354640   -5.211700
  C     -5.645890   -9.093590   -4.147530
  C     -4.917790   -8.873260   -2.991610
  C     -3.811890   -7.961120   -3.316200
  C     -3.911980   -7.668160   -4.619120
  F     -3.096870   -6.867190   -5.314930
  C     -5.207050   -9.413420   -1.725240
  C     -4.516040   -9.130600   -0.580670
  C     -4.861820   -9.662450    0.671200
  S     -3.944460   -9.162170    2.129070
  C     -4.983560  -10.164270    3.042650
  C     -5.922300  -10.798260    2.198740
  N     -5.835990  -10.506520    0.917470
  C     -6.836190  -11.677590    2.990320
  C     -6.318600  -11.457700    4.381250
  C     -5.231520  -10.563510    4.364530
  S     -4.611770  -10.258210    5.930510
  C     -5.813450  -11.333270    6.631240
  C     -6.639290  -11.889910    5.652460
  C     -5.833020  -11.496400    8.029140
  C     -6.684250  -12.312680    8.718940
  C     -6.707920  -12.437310   10.120850
  C     -7.537130  -13.281310   10.840360
  C     -7.283130  -13.119870   12.224480
  C     -6.229300  -12.098260   12.303660
  C     -5.877980  -11.692780   11.075960
  F     -5.715860  -11.659170   13.456690
  C     -7.871430  -13.768470   13.290700
  C     -7.613400  -13.595310   14.677140
  C     -8.419570  -14.457110   15.401570
  C     -9.234770  -15.221160   14.453590
  C     -8.903800  -14.804540   13.221670
  F     -9.422900  -15.246160   12.069700
  C     -8.429700  -14.565330   16.804220
  C     -9.191190  -15.444140   17.524940
  C     -9.155090  -15.474840   18.928610
  C     -9.777400  -16.387430   19.745460
  C    -10.081860  -16.169110   21.152430
  C     -9.526520  -15.235220   21.987090
  C     -8.501950  -14.330550   21.637240
  N     -7.667780  -13.569110   21.429620
  C     -9.881260  -15.075210   23.343450
  N    -10.120410  -14.887850   24.450340
  C    -11.107050  -17.139480   21.516170
  C    -11.319590  -18.010690   20.423610
  C    -12.264210  -19.020320   20.499780
  C    -12.994920  -19.156850   21.670910
  C    -12.782240  -18.307940   22.747300
  C    -11.838350  -17.293480   22.683110
  C    -10.393290  -17.647100   19.360680
  C    -10.010640  -18.458740   18.324330
  C    -10.628530  -19.690730   18.023360
  N    -11.106640  -20.687380   17.713990
  C     -8.880590  -18.236190   17.507710
  N     -7.943000  -18.141830   16.852660
  H     -3.152600   -3.407270  -13.106800
  H     -0.924170   -2.505710  -12.617010
  H      0.481600   -3.501030  -10.865750
  H     -0.307710   -5.437990   -9.570750
  H     -6.280850   -7.167400  -10.638310
  H     -4.043060   -6.867950   -7.455660
  H     -7.408300   -9.008190   -9.159170
  H     -6.514700   -9.716390   -4.230290
  H     -3.064770   -7.608740   -2.633550
  H     -6.049910  -10.087090   -1.653970
  H     -3.671960   -8.457320   -0.596840
  H     -6.760740  -12.720950    2.678360
  H     -7.879750  -11.376040    2.883120
  H     -7.437100  -12.571180    5.883460
  H     -5.104880  -10.915820    8.577640
  H     -7.398920  -12.915810    8.176020
  H     -8.257390  -13.955720   10.420590
  H     -5.137210  -10.958350   10.830530
  H     -6.903330  -12.907870   15.093540
  H     -9.952160  -15.976410   14.704890
  H     -7.750390  -13.913730   17.340270
  H     -9.864560  -16.107120   17.002730
  H     -8.649560  -14.644510   19.402910
  H    -12.443050  -19.682970   19.668660
  H    -13.739290  -19.935030   21.742180
  H    -13.360850  -18.433760   23.649590
  H    -11.689610  -16.641400   23.527870

 Total Charge           Charge          ....    0
 Multiplicity           Mult            ....    1
 Number of Electrons    NEL             ....  554
 Basis Dimension        Dim             .... 1277

ORBITAL ENERGIES
----------------

  NO   OCC          E(Eh)            E(eV)
   0   2.0000     -88.990012     -2421.5413
   1   2.0000     -88.986408     -2421.4433
   2   2.0000     -24.806921      -675.0306
   3   2.0000     -24.802777      -674.9179
   4   2.0000     -24.795178      -674.7111
   5   2.0000     -24.793707      -674.6711
   6   2.0000     -14.434132      -392.7727
   7   2.0000     -14.424758      -392.5176
   8   2.0000     -14.423602      -392.4862
   9   2.0000     -14.421978      -392.4420
  10   2.0000     -14.421792      -392.4369
  11   2.0000     -14.420747      -392.4085
  12   2.0000     -14.420062      -392.3898
  13   2.0000     -14.417737      -392.3266
  14   2.0000     -14.417339      -392.3157
  15   2.0000     -10.374029      -282.2917
  16   2.0000     -10.370377      -282.1923
  17   2.0000     -10.361926      -281.9623
  18   2.0000     -10.359866      -281.9063
  19   2.0000     -10.356384      -281.8115
  20   2.0000     -10.354243      -281.7533
  21   2.0000     -10.353180      -281.7244
  22   2.0000     -10.351034      -281.6660
  23   2.0000     -10.350421      -281.6493
  24   2.0000     -10.349748      -281.6310
  25   2.0000     -10.347866      -281.5797
  26   2.0000     -10.345744      -281.5220
  27   2.0000     -10.345069      -281.5036
  28   2.0000     -10.331372      -281.1309
  29   2.0000     -10.331188      -281.1259
  30   2.0000     -10.330209      -281.0993
  31   2.0000     -10.327392      -281.0226
  32   2.0000     -10.326714      -281.0042
  33   2.0000     -10.325816      -280.9797
  34   2.0000     -10.325666      -280.9756
  35   2.0000     -10.325648      -280.9752
  36   2.0000     -10.324478      -280.9433
  37   2.0000     -10.323134      -280.9068
  38   2.0000     -10.322999      -280.9031
  39   2.0000     -10.322945      -280.9016
  40   2.0000     -10.322320      -280.8846
  41   2.0000     -10.320705      -280.8407
  42   2.0000     -10.320544      -280.8363
  43   2.0000     -10.319744      -280.8145
  44   2.0000     -10.319404      -280.8053
  45   2.0000     -10.315815      -280.7076
  46   2.0000     -10.315800      -280.7072
  47   2.0000     -10.315496      -280.6989
  48   2.0000     -10.313750      -280.6514
  49   2.0000     -10.312810      -280.6258
  50   2.0000     -10.311407      -280.5876
  51   2.0000     -10.310936      -280.5748
  52   2.0000     -10.310621      -280.5663
  53   2.0000     -10.310267      -280.5566
  54   2.0000     -10.310078      -280.5515
  55   2.0000     -10.310008      -280.5496
  56   2.0000     -10.308966      -280.5212
  57   2.0000     -10.306766      -280.4614
  58   2.0000     -10.306090      -280.4430
  59   2.0000     -10.303670      -280.3771
  60   2.0000     -10.303636      -280.3762
  61   2.0000     -10.303525      -280.3732
  62   2.0000     -10.303381      -280.3693
  63   2.0000     -10.302675      -280.3500
  64   2.0000     -10.301942      -280.3301
  65   2.0000     -10.301708      -280.3237
  66   2.0000     -10.299231      -280.2563
  67   2.0000     -10.299017      -280.2505
  68   2.0000     -10.298824      -280.2453
  69   2.0000     -10.298343      -280.2321
  70   2.0000     -10.297354      -280.2053
  71   2.0000     -10.296484      -280.1816
  72   2.0000     -10.296258      -280.1754
  73   2.0000     -10.292252      -280.0664
  74   2.0000     -10.291418      -280.0437
  75   2.0000     -10.287083      -279.9258
  76   2.0000     -10.285039      -279.8702
  77   2.0000     -10.281160      -279.7646
  78   2.0000     -10.279695      -279.7247
  79   2.0000     -10.278642      -279.6961
  80   2.0000     -10.272891      -279.5396
  81   2.0000      -8.085056      -220.0056
  82   2.0000      -8.081485      -219.9084
  83   2.0000      -6.054169      -164.7423
  84   2.0000      -6.050789      -164.6503
  85   2.0000      -6.050295      -164.6369
  86   2.0000      -6.047347      -164.5567
  87   2.0000      -6.046732      -164.5399
  88   2.0000      -6.043598      -164.4547
  89   2.0000      -1.319453       -35.9041
  90   2.0000      -1.315863       -35.8064
  91   2.0000      -1.308281       -35.6001
  92   2.0000      -1.306163       -35.5425
  93   2.0000      -1.089867       -29.6568
  94   2.0000      -1.038959       -28.2715
  95   2.0000      -1.033803       -28.1312
  96   2.0000      -1.020461       -27.7681
  97   2.0000      -1.020233       -27.7620
  98   2.0000      -1.016398       -27.6576
  99   2.0000      -1.009878       -27.4802
 100   2.0000      -1.005763       -27.3682
 101   2.0000      -1.005329       -27.3564
 102   2.0000      -1.001425       -27.2502
 103   2.0000      -1.000007       -27.2116
 104   2.0000      -0.999722       -27.2038
 105   2.0000      -0.997561       -27.1450
 106   2.0000      -0.996980       -27.1292
 107   2.0000      -0.985307       -26.8116
 108   2.0000      -0.981397       -26.7052
 109   2.0000      -0.960629       -26.1400
 110   2.0000      -0.958636       -26.0858
 111   2.0000      -0.954281       -25.9673
 112   2.0000      -0.942819       -25.6554
 113   2.0000      -0.938169       -25.5289
 114   2.0000      -0.925803       -25.1924
 115   2.0000      -0.924566       -25.1587
 116   2.0000      -0.914298       -24.8793
 117   2.0000      -0.905450       -24.6385
 118   2.0000      -0.900618       -24.5071
 119   2.0000      -0.893956       -24.3258
 120   2.0000      -0.892711       -24.2919
 121   2.0000      -0.874949       -23.8086
 122   2.0000      -0.868963       -23.6457
 123   2.0000      -0.866768       -23.5860
 124   2.0000      -0.864589       -23.5267
 125   2.0000      -0.858400       -23.3583
 126   2.0000      -0.850211       -23.1354
 127   2.0000      -0.834355       -22.7040
 128   2.0000      -0.824770       -22.4431
 129   2.0000      -0.821576       -22.3562
 130   2.0000      -0.817590       -22.2478
 131   2.0000      -0.807304       -21.9679
 132   2.0000      -0.803840       -21.8736
 133   2.0000      -0.794357       -21.6156
 134   2.0000      -0.792899       -21.5759
 135   2.0000      -0.789766       -21.4906
 136   2.0000      -0.779340       -21.2069
 137   2.0000      -0.767781       -20.8924
 138   2.0000      -0.754387       -20.5279
 139   2.0000      -0.739035       -20.1102
 140   2.0000      -0.720878       -19.6161
 141   2.0000      -0.720286       -19.6000
 142   2.0000      -0.718475       -19.5507
 143   2.0000      -0.716598       -19.4996
 144   2.0000      -0.715063       -19.4579
 145   2.0000      -0.710361       -19.3299
 146   2.0000      -0.708040       -19.2668
 147   2.0000      -0.688405       -18.7325
 148   2.0000      -0.684644       -18.6301
 149   2.0000      -0.681319       -18.5396
 150   2.0000      -0.676884       -18.4189
 151   2.0000      -0.674359       -18.3502
 152   2.0000      -0.672417       -18.2974
 153   2.0000      -0.671075       -18.2609
 154   2.0000      -0.669763       -18.2252
 155   2.0000      -0.667944       -18.1757
 156   2.0000      -0.664899       -18.0928
 157   2.0000      -0.660567       -17.9749
 158   2.0000      -0.659171       -17.9370
 159   2.0000      -0.651575       -17.7303
 160   2.0000      -0.642681       -17.4882
 161   2.0000      -0.641461       -17.4550
 162   2.0000      -0.639060       -17.3897
 163   2.0000      -0.636999       -17.3336
 164   2.0000      -0.633216       -17.2307
 165   2.0000      -0.623874       -16.9765
 166   2.0000      -0.622553       -16.9405
 167   2.0000      -0.612956       -16.6794
 168   2.0000      -0.598906       -16.2971
 169   2.0000      -0.595034       -16.1917
 170   2.0000      -0.589183       -16.0325
 171   2.0000      -0.584441       -15.9035
 172   2.0000      -0.583165       -15.8687
 173   2.0000      -0.581828       -15.8323
 174   2.0000      -0.578348       -15.7377
 175   2.0000      -0.575159       -15.6509
 176   2.0000      -0.573105       -15.5950
 177   2.0000      -0.571429       -15.5494
 178   2.0000      -0.570899       -15.5349
 179   2.0000      -0.565783       -15.3957
 180   2.0000      -0.564661       -15.3652
 181   2.0000      -0.562357       -15.3025
 182   2.0000      -0.560892       -15.2626
 183   2.0000      -0.560160       -15.2427
 184   2.0000      -0.558377       -15.1942
 185   2.0000      -0.556832       -15.1522
 186   2.0000      -0.551137       -14.9972
 187   2.0000      -0.548388       -14.9224
 188   2.0000      -0.547175       -14.8894
 189   2.0000      -0.546847       -14.8805
 190   2.0000      -0.543776       -14.7969
 191   2.0000      -0.541458       -14.7338
 192   2.0000      -0.540088       -14.6965
 193   2.0000      -0.537871       -14.6362
 194   2.0000      -0.534805       -14.5528
 195   2.0000      -0.531521       -14.4634
 196   2.0000      -0.526167       -14.3177
 197   2.0000      -0.518347       -14.1049
 198   2.0000      -0.515131       -14.0174
 199   2.0000      -0.513299       -13.9676
 200   2.0000      -0.512878       -13.9561
 201   2.0000      -0.512359       -13.9420
 202   2.0000      -0.509904       -13.8752
 203   2.0000      -0.507806       -13.8181
 204   2.0000      -0.505669       -13.7600
 205   2.0000      -0.503041       -13.6884
 206   2.0000      -0.498281       -13.5589
 207   2.0000      -0.496033       -13.4977
 208   2.0000      -0.492869       -13.4116
 209   2.0000      -0.492286       -13.3958
 210   2.0000      -0.488462       -13.2917
 211   2.0000      -0.484754       -13.1908
 212   2.0000      -0.483779       -13.1643
 213   2.0000      -0.482402       -13.1268
 214   2.0000      -0.481730       -13.1085
 215   2.0000      -0.480441       -13.0735
 216   2.0000      -0.478576       -13.0227
 217   2.0000      -0.473986       -12.8978
 218   2.0000      -0.471944       -12.8423
 219   2.0000      -0.470711       -12.8087
 220   2.0000      -0.470144       -12.7933
 221   2.0000      -0.469837       -12.7849
 222   2.0000      -0.463000       -12.5989
 223   2.0000      -0.462454       -12.5840
 224   2.0000      -0.460793       -12.5388
 225   2.0000      -0.457633       -12.4528
 226   2.0000      -0.457082       -12.4378
 227   2.0000      -0.455515       -12.3952
 228   2.0000      -0.454696       -12.3729
 229   2.0000      -0.453749       -12.3471
 230   2.0000      -0.452669       -12.3177
 231   2.0000      -0.452414       -12.3108
 232   2.0000      -0.450202       -12.2506
 233   2.0000      -0.449999       -12.2451
 234   2.0000      -0.448464       -12.2033
 235   2.0000      -0.447082       -12.1657
 236   2.0000      -0.446495       -12.1497
 237   2.0000      -0.445891       -12.1333
 238   2.0000      -0.444450       -12.0941
 239   2.0000      -0.442236       -12.0339
 240   2.0000      -0.440584       -11.9889
 241   2.0000      -0.434436       -11.8216
 242   2.0000      -0.432396       -11.7661
 243   2.0000      -0.431726       -11.7479
 244   2.0000      -0.430724       -11.7206
 245   2.0000      -0.429740       -11.6938
 246   2.0000      -0.429276       -11.6812
 247   2.0000      -0.428532       -11.6609
 248   2.0000      -0.428253       -11.6533
 249   2.0000      -0.425569       -11.5803
 250   2.0000      -0.423671       -11.5287
 251   2.0000      -0.420011       -11.4291
 252   2.0000      -0.416420       -11.3314
 253   2.0000      -0.413983       -11.2651
 254   2.0000      -0.413538       -11.2529
 255   2.0000      -0.410118       -11.1599
 256   2.0000      -0.401915       -10.9367
 257   2.0000      -0.392127       -10.6703
 258   2.0000      -0.387769       -10.5517
 259   2.0000      -0.383863       -10.4454
 260   2.0000      -0.379671       -10.3314
 261   2.0000      -0.372175       -10.1274
 262   2.0000      -0.368651       -10.0315
 263   2.0000      -0.355887        -9.6842
 264   2.0000      -0.346909        -9.4399
 265   2.0000      -0.340786        -9.2733
 266   2.0000      -0.336968        -9.1694
 267   2.0000      -0.332729        -9.0540
 268   2.0000      -0.327474        -8.9110
 269   2.0000      -0.320091        -8.7101
 270   2.0000      -0.313186        -8.5222
 271   2.0000      -0.310171        -8.4402
 272   2.0000      -0.306099        -8.3294
 273   2.0000      -0.289828        -7.8866
 274   2.0000      -0.280437        -7.6311
 275   2.0000      -0.267411        -7.2766
 276   2.0000      -0.239562        -6.5188
 277   0.0000      -0.136448        -3.7129
 278   0.0000      -0.123561        -3.3623
 279   0.0000      -0.089383        -2.4322
 280   0.0000      -0.086139        -2.3440
 281   0.0000      -0.083083        -2.2608

MULLIKEN ATOMIC CHARGES
-----------------------
   0 C :   -0.034746
   1 C :    0.046920
   2 C :    0.049139
   3 C :   -0.033888
   4 C :    0.004199
   5 C :    0.016384
   6 C :    0.290591
   7 C :   -0.341342
   8 C :   -0.188422
   9 N :    0.162333
  10 C :   -0.178765
  11 N :    0.155753
  12 C :   -0.047648
  13 C :    0.226845
  14 C :   -0.327297
  15 C :   -0.202155
  16 N :    0.194526
  17 C :   -0.187078
  18 N :    0.168801
  19 C :    0.037526
  20 C :    0.039546
  21 C :   -0.047457
  22 C :   -0.008515
  23 C :    0.269600
  24 C :   -0.062418
  25 F :   -0.173587
  26 C :    0.027452
  27 C :   -0.080789
  28 C :    0.121025
  29 C :   -0.072507
  30 C :    0.264056
  31 F :   -0.171943
  32 C :    0.001066
  33 C :    0.057568
  34 C :   -0.101625
  35 S :    0.146984
  36 C :   -0.058373
  37 C :   -0.222968
  38 N :    0.000599
  39 C :    0.385591
  40 C :   -0.159426
  41 C :   -0.094981
  42 S :    0.168383
  43 C :   -0.081183
  44 C :   -0.004404
  45 C :    0.057602
  46 C :   -0.009736
  47 C :    0.120161
  48 C :   -0.095188
  49 C :    0.027773
  50 C :    0.258641
  51 C :   -0.078327
  52 F :   -0.169844
  53 C :   -0.001606
  54 C :   -0.058643
  55 C :    0.100706
  56 C :   -0.063401
  57 C :    0.251706
  58 F :   -0.176448
  59 C :    0.022799
  60 C :   -0.009298
  61 C :    0.031307
  62 C :   -0.061301
  63 C :    0.303868
  64 C :   -0.340684
  65 C :   -0.186919
  66 N :    0.151375
  67 C :   -0.189081
  68 N :    0.159125
  69 C :    0.009552
  70 C :    0.007300
  71 C :   -0.034561
  72 C :    0.046227
  73 C :    0.046905
  74 C :   -0.032990
  75 C :    0.245961
  76 C :   -0.331745
  77 C :   -0.183239
  78 N :    0.159788
  79 C :   -0.222054
  80 N :    0.182521
  81 H :    0.007466
  82 H :    0.004918
  83 H :    0.004802
  84 H :    0.007792
  85 H :    0.014476
  86 H :    0.009502
  87 H :   -0.002169
  88 H :   -0.005513
  89 H :   -0.010264
  90 H :    0.009763
  91 H :   -0.007172
  92 H :    0.046182
  93 H :    0.044783
  94 H :   -0.012564
  95 H :   -0.011559
  96 H :   -0.015154
  97 H :   -0.012464
  98 H :   -0.013423
  99 H :   -0.003184
 100 H :   -0.013194
 101 H :    0.009290
 102 H :    0.021234
 103 H :    0.014683
 104 H :    0.005971
 105 H :    0.004944
 106 H :    0.003349
 107 H :    0.005883
Sum of atomic charges:   -0.0000000

LOEWDIN ATOMIC CHARGES
----------------------
   0 C :    0.005231
   1 C :    0.002330
   2 C :    0.005141
   3 C :    0.001677
   4 C :   -0.009949
   5 C :   -0.013207
   6 C :    0.077589
   7 C :   -0.130915
   8 C :   -0.018929
   9 N :   -0.045030
  10 C :   -0.021971
  11 N :   -0.042636
  12 C :   -0.045629
  13 C :    0.065602
  14 C :   -0.123955
  15 C :   -0.019041
  16 N :   -0.031829
  17 C :   -0.019666
  18 N :   -0.043527
  19 C :    0.061897
  20 C :   -0.027384
  21 C :   -0.001822
  22 C :   -0.009006
  23 C :    0.079425
  24 C :   -0.044677
  25 F :   -0.049095
  26 C :    0.024832
  27 C :   -0.051577
  28 C :    0.013729
  29 C :   -0.052461
  30 C :    0.086984
  31 F :   -0.047987
  32 C :    0.010050
  33 C :   -0.036410
  34 C :   -0.122211
  35 S :    0.423996
  36 C :   -0.212646
  37 C :   -0.026349
  38 N :   -0.076287
  39 C :   -0.011231
  40 C :   -0.040781
  41 C :   -0.193117
  42 S :    0.451638
  43 C :   -0.165994
  44 C :   -0.036428
  45 C :   -0.017429
  46 C :   -0.019880
  47 C :    0.016198
  48 C :   -0.067659
  49 C :    0.018672
  50 C :    0.087808
  51 C :   -0.057972
  52 F :   -0.046181
  53 C :   -0.018840
  54 C :   -0.010820
  55 C :   -0.020018
  56 C :   -0.052725
  57 C :    0.079250
  58 F :   -0.052578
  59 C :    0.051131
  60 C :   -0.032037
  61 C :    0.060962
  62 C :   -0.063094
  63 C :    0.078038
  64 C :   -0.134728
  65 C :   -0.021214
  66 N :   -0.048027
  67 C :   -0.019224
  68 N :   -0.048462
  69 C :   -0.013381
  70 C :   -0.010579
  71 C :    0.000517
  72 C :    0.003396
  73 C :    0.000640
  74 C :    0.004512
  75 C :    0.070055
  76 C :   -0.133560
  77 C :   -0.019983
  78 N :   -0.046642
  79 C :   -0.027689
  80 N :   -0.040737
  81 H :    0.041833
  82 H :    0.037996
  83 H :    0.037857
  84 H :    0.041314
  85 H :    0.049270
  86 H :    0.024761
  87 H :    0.036864
  88 H :    0.028438
  89 H :    0.031296
  90 H :    0.042274
  91 H :    0.031144
  92 H :    0.060477
  93 H :    0.059744
  94 H :    0.034835
  95 H :    0.030313
  96 H :    0.032965
  97 H :    0.024798
  98 H :    0.029958
  99 H :    0.027934
 100 H :    0.031444
 101 H :    0.042942
 102 H :    0.032001
 103 H :    0.046317
 104 H :    0.040860
 105 H :    0.037487
 106 H :    0.037357
 107 H :    0.041425

  Mayer bond orders larger than 0.100000
B(  0-C ,  1-C ) :   1.3709 B(  0-C ,  5-C ) :   1.3804 B(  0-C , 81-H ) :   0.9844
B(  1-C ,  2-C ) :   1.3762 B(  1-C , 82-H ) :   0.9869 B(  2-C ,  3-C ) :   1.3668
B(  2-C , 83-H ) :   0.9865 B(  3-C ,  4-C ) :   1.3792 B(  3-C , 84-H ) :   0.9879
B(  4-C ,  5-C ) :   1.3134 B(  4-C , 13-C ) :   1.0068 B(  5-C ,  6-C ) :   0.9969
B(  6-C ,  7-C ) :   1.6410 B(  6-C , 12-C ) :   1.0534 B(  7-C ,  8-C ) :   1.1456
B(  7-C , 10-C ) :   1.1355 B(  8-C ,  9-N ) :   2.9794 B( 10-C , 11-N ) :   2.9726
B( 12-C , 13-C ) :   1.0159 B( 12-C , 19-C ) :   1.5997 B( 13-C , 14-C ) :   1.6658
B( 14-C , 15-C ) :   1.1568 B( 14-C , 17-C ) :   1.1412 B( 15-C , 16-N ) :   3.0103
B( 17-C , 18-N ) :   2.9962 B( 19-C , 20-C ) :   1.1445 B( 19-C , 85-H ) :   0.9290
B( 20-C , 21-C ) :   1.4922 B( 20-C , 24-C ) :   1.0292 B( 21-C , 22-C ) :   1.1419
B( 21-C , 86-H ) :   1.0041 B( 22-C , 23-C ) :   1.0364 B( 22-C , 26-C ) :   1.4389
B( 23-C , 24-C ) :   1.6430 B( 23-C , 25-F ) :   1.1288 B( 24-C , 87-H ) :   1.0199
B( 26-C , 27-C ) :   1.1456 B( 26-C , 30-C ) :   1.0064 B( 27-C , 28-C ) :   1.4761
B( 27-C , 88-H ) :   1.0254 B( 28-C , 29-C ) :   1.0006 B( 28-C , 32-C ) :   1.1579
B( 29-C , 30-C ) :   1.6878 B( 29-C , 89-H ) :   1.0106 B( 30-C , 31-F ) :   1.1234
B( 32-C , 33-C ) :   1.6012 B( 32-C , 90-H ) :   0.9869 B( 33-C , 34-C ) :   1.1515
B( 33-C , 91-H ) :   0.9469 B( 34-C , 35-S ) :   1.0632 B( 34-C , 38-N ) :   1.6107
B( 35-S , 36-C ) :   1.1041 B( 36-C , 37-C ) :   1.4257 B( 36-C , 41-C ) :   1.2239
B( 37-C , 38-N ) :   1.4908 B( 37-C , 39-C ) :   1.0406 B( 39-C , 40-C ) :   0.9798
B( 39-C , 92-H ) :   0.8616 B( 39-C , 93-H ) :   0.8639 B( 40-C , 41-C ) :   1.4723
B( 40-C , 44-C ) :   1.3567 B( 41-C , 42-S ) :   1.0995 B( 42-S , 43-C ) :   1.0992
B( 43-C , 44-C ) :   1.4124 B( 43-C , 45-C ) :   1.1633 B( 44-C , 94-H ) :   0.9975
B( 45-C , 46-C ) :   1.5838 B( 45-C , 95-H ) :   0.9598 B( 46-C , 47-C ) :   1.1902
B( 46-C , 96-H ) :   0.9787 B( 47-C , 48-C ) :   1.4598 B( 47-C , 51-C ) :   1.0029
B( 48-C , 49-C ) :   1.1620 B( 48-C , 97-H ) :   1.0236 B( 49-C , 50-C ) :   1.0076
B( 49-C , 53-C ) :   1.4267 B( 50-C , 51-C ) :   1.6830 B( 50-C , 52-F ) :   1.1320
B( 51-C , 98-H ) :   1.0122 B( 53-C , 54-C ) :   1.1321 B( 53-C , 57-C ) :   1.0384
B( 54-C , 55-C ) :   1.4678 B( 54-C , 99-H ) :   1.0211 B( 55-C , 56-C ) :   1.0281
B( 55-C , 59-C ) :   1.1517 B( 56-C , 57-C ) :   1.6604 B( 56-C ,100-H ) :   1.0109
B( 57-C , 58-F ) :   1.1267 B( 59-C , 60-C ) :   1.5444 B( 59-C ,101-H ) :   0.9902
B( 60-C , 61-C ) :   1.1978 B( 60-C ,102-H ) :   0.9675 B( 61-C , 62-C ) :   1.5154
B( 61-C ,103-H ) :   0.9484 B( 62-C , 63-C ) :   1.0606 B( 62-C , 75-C ) :   1.0396
B( 63-C , 64-C ) :   1.6291 B( 63-C , 69-C ) :   0.9961 B( 64-C , 65-C ) :   1.1376
B( 64-C , 67-C ) :   1.1464 B( 65-C , 66-N ) :   2.9723 B( 67-C , 68-N ) :   2.9761
B( 69-C , 70-C ) :   1.3127 B( 69-C , 74-C ) :   1.3869 B( 70-C , 71-C ) :   1.3832
B( 70-C , 75-C ) :   1.0096 B( 71-C , 72-C ) :   1.3640 B( 71-C ,104-H ) :   0.9857
B( 72-C , 73-C ) :   1.3798 B( 72-C ,105-H ) :   0.9867 B( 73-C , 74-C ) :   1.3673
B( 73-C ,106-H ) :   0.9858 B( 74-C ,107-H ) :   0.9830 B( 75-C , 76-C ) :   1.6302
B( 76-C , 77-C ) :   1.1398 B( 76-C , 79-C ) :   1.1526 B( 77-C , 78-N ) :   2.9883
B( 79-C , 80-N ) :   3.0204

-----------------------------------------------------------------------------
         ABSORPTION SPECTRUM VIA TRANSITION ELECTRIC DIPOLE MOMENTS
-----------------------------------------------------------------------------
State   Energy  Wavelength   fosc         T2         TX        TY        TZ
        (cm-1)    (nm)                  (au**2)     (au)      (au)      (au)
-----------------------------------------------------------------------------
   0    9864.8   1013.7   2.761202995  92.14763   1.59837   2.88754  -9.01415
   1   12793.4    781.7   0.086367350   2.22248  -0.99015  -0.84332   0.72862
   2   15498.5    645.2   0.002492240   0.05294   0.17635  -0.04903  -0.13942
   3   16379.0    610.5   0.055111258   1.10772  -0.51102  -0.63750   0.66345
   4   18090.3    552.8   0.025472238   0.46355  -0.20894  -0.23181   0.60511
   5   19651.2    508.9   0.620106904  10.38850   0.33805   0.85029  -3.09051
   6   21573.3    463.5   0.078435688   1.19694  -1.02813  -0.19458  -0.31943
   7   21680.0    461.3   0.108506481   1.64768   0.14713   1.25225   0.24062
   8   22001.6    454.5   0.018451507   0.27609   0.41678  -0.01989  -0.31936
   9   22389.5    446.6   0.286324235   4.21007  -0.19879  -0.49712   1.98076
  10   23185.0    431.3   0.016339274   0.23201  -0.19210  -0.06544   0.43683
  11   23859.7    419.1   0.146346922   2.01927   0.19334   0.70819  -1.21670
  12   24329.4    411.0   0.042518139   0.57533   0.03534  -0.05953   0.75534
  13   25253.8    396.0   0.050428950   0.65740   0.53510   0.13031  -0.59506
  14   25717.7    388.8   0.031430791   0.40234   0.53634   0.04009   0.33626
  15   26082.8    383.4   0.722207176   9.11557  -0.62788  -1.11223   2.73574
  16   26670.8    374.9   0.013128988   0.16206  -0.30683  -0.25166   0.06768
  17   27348.4    365.7   0.100889355   1.21448   0.75639   0.54301  -0.58949
  18   27512.1    363.5   0.006152556   0.07362   0.01249   0.16787   0.21280
  19   28130.3    355.5   0.050017979   0.58537   0.13865   0.56573   0.49607
  20   28663.8    348.9   0.020111659   0.23099  -0.20138  -0.27841   0.33604
  21   28728.6    348.1   0.009952670   0.11405  -0.16972  -0.19485   0.21744
  22   29251.2    341.9   0.026235034   0.29527   0.20615   0.23136  -0.44636
  23   29708.7    336.6   0.008964206   0.09934   0.22465  -0.00558  -0.22099
  24   30330.4    329.7   0.065213011   0.70783   0.06967  -0.31339  -0.77767
  25   31097.9    321.6   0.065718447   0.69571   0.49419  -0.30370   0.59939
  26   31676.3    315.7   0.146821338   1.52592  -0.76755   0.53649  -0.80558
  27   31955.1    312.9   0.032649392   0.33636   0.28948  -0.24156   0.44070
  28   32127.1    311.3   0.423958388   4.34438   1.27058  -0.98201   1.32877
  29   32295.0    309.6   0.579029902   5.90257   0.19073   1.77442   1.64853
  30   32464.0    308.0   0.098395675   0.99781   0.60201   0.32377   0.72840
  31   32495.3    307.7   0.011988720   0.12146  -0.24238   0.21383  -0.13032
  32   33223.0    301.0   0.026482895   0.26242   0.22698   0.09545  -0.44922
  33   33426.7    299.2   0.045449602   0.44762   0.51105   0.41516   0.11872
  34   33889.3    295.1   0.025068041   0.24352   0.19379  -0.21790   0.39810
  35   33947.1    294.6   0.000681760   0.00661   0.07215  -0.03709  -0.00550
  36   34172.2    292.6   0.092437163   0.89053  -0.58658  -0.67337   0.30500
  37   34360.2    291.0   0.008473138   0.08118   0.20681   0.09089  -0.17364
  38   34620.3    288.8   0.023107117   0.21973  -0.23611  -0.34791  -0.20722
  39   34686.5    288.3   0.015445600   0.14660   0.25427   0.28564  -0.01883
  40   34942.8    286.2   0.023246092   0.21901  -0.38330   0.24964   0.09886
  41   35169.6    284.3   0.204674901   1.91590   0.74152   0.31682  -1.12502
  42   35544.8    281.3   0.330348594   3.05965   1.30292   0.89665  -0.74704
  43   35590.1    281.0   0.036429964   0.33698   0.30999   0.43215   0.23266
  44   35991.9    277.8   0.058638557   0.53636  -0.40144  -0.56623   0.23363
  45   36038.1    277.5   0.007952104   0.07264  -0.16976  -0.06298   0.19965
  46   36341.2    275.2   0.008463396   0.07667   0.12687   0.18809  -0.15873
  47   36404.0    274.7   0.028613305   0.25876   0.07762   0.37620  -0.33348
  48   36586.9    273.3   0.009107390   0.08195  -0.23089  -0.16877   0.01234
  49   36782.7    271.9   0.081955992   0.73352  -0.42001  -0.74507   0.04456
  50   37325.8    267.9   0.048816051   0.43056  -0.43102  -0.43048   0.24385
  51   37444.0    267.1   0.051723228   0.45476  -0.57440  -0.35249  -0.02384
  52   37844.5    264.2   0.154728388   1.34599  -0.83337  -0.62494   0.51081
  53   38584.8    259.2   0.028951993   0.24702   0.24348   0.41285   0.13151
  54   38784.9    257.8   0.019018284   0.16143  -0.04868   0.11294  -0.38250
  55   39241.0    254.8   0.021991994   0.18450   0.19942  -0.30970   0.22095
  56   39292.5    254.5   0.073548274   0.61622  -0.43373   0.21542  -0.61781
  57   39618.9    252.4   0.000238205   0.00198  -0.00687   0.02874  -0.03326
  58   39648.3    252.2   0.090612054   0.75238  -0.62245   0.01740  -0.60385
  59   39902.0    250.6   0.099941964   0.82457   0.52510   0.74058   0.01970
  60   40100.2    249.4   0.039024309   0.32038   0.13812   0.28999  -0.46605
  61   40203.4    248.7   0.054540367   0.44661   0.38661   0.14701   0.52491
  62   40298.0    248.2   0.154962463   1.26596  -0.87847   0.41546  -0.56714

FINAL SINGLE POINT ENERGY     -4214.870288331910

DIPOLE MOMENT
-------------
                                X             Y             Z
Electronic contribution:      9.14706       7.04676     -22.47471
Nuclear contribution   :     -9.26633      -4.97366      22.57810
                        -----------------------------------------
Total Dipole Moment    :     -0.11927       2.07310       0.10339
                        -----------------------------------------
Magnitude (a.u.)       :      2.07910
Magnitude (Debye)      :      5.28466

Rotational constants in cm-1:     0.003166     0.000089     0.000087
Rotational constants in MHz :    94.919991     2.659408     2.620628

                             ****ORCA TERMINATED NORMALLY****
TOTAL RUN TIME: 0 days 0 hours 13 minutes 22 seconds 411 msec
