                         Program Version 4.2.0 -  RELEASE  -
|  1> # ORCA input file
|  2> # SCF done       -219.057690789634          0.000897807609
|  3> ! CAM-B3LYP def2-SVP def2/J RIJCOSX Grid4 TightSCF
|  4> %maxcore 5000
|  5> %tddft
|  6>     Mode sTDDFT
|  7>     Ethresh 5.0
|  8>     maxcore 5000
|  9> end
| 10>
| 11> %pal
| 12>   nprocs 6
| 13>   end
| 14> * xyz 0 1
| 15>    C       -9.80138        -0.15967        -1.07935
| 16>    C      -10.71122        -0.67346        -1.99019
| 17>    C      -10.43952        -1.84078        -2.69090
| 18>    C       -9.25037        -2.52597        -2.49840
| 19>    C       -8.33203        -2.03119        -1.58353
| 20>    C       -8.61002        -0.83882        -0.87519
| 21>    C       -7.48419        -0.54208        -0.01038
| 22>    C       -7.18856         0.68984         0.50879
| 23>    C       -8.00921         1.82177         0.31884
| 24>    N       -8.59841         2.78854         0.12930
| 25>    C       -5.96232         1.05402         1.10848
| 26>    N       -4.96522         1.44068         1.52544
| 27>    C       -6.56297        -1.67782        -0.07975
| 28>    C       -7.08034        -2.58914        -1.09927
| 29>    C       -6.56629        -3.80207        -1.47318
| 30>    C       -5.59078        -4.54063        -0.77462
| 31>    N       -4.87572        -5.25190        -0.22666
| 32>    C       -6.98660        -4.49795        -2.62741
| 33>    N       -7.22479        -5.06789        -3.59460
| 34>    C       -5.39439        -1.72874         0.61503
| 35>    C       -4.18768        -2.42722         0.27609
| 36>    C       -3.36334        -3.05911         1.20747
| 37>    C       -3.72409        -3.20865         2.58766
| 38>    O       -4.77404        -2.84837         3.06916
| 39>    C       -2.63876        -3.85847         3.49009
| 40>    F       -2.32664        -5.09729         3.08276
| 41>    F       -1.49847        -3.14491         3.46318
| 42>    F       -3.02950        -3.93718         4.75595
| 43>    S       -1.93249        -3.69549         0.46989
| 44>    C       -2.41958        -3.11723        -1.05174
| 45>    C       -3.62405        -2.45784        -1.03534
| 46>    C       -4.27756        -1.86292        -2.18107
| 47>    C       -4.87280        -0.65730        -2.11507
| 48>    C       -5.73209        -0.09756        -3.11131
| 49>    C       -6.21911         1.22256        -2.95740
| 50>    C       -7.10871         1.82531        -3.91449
| 51>    N       -7.55572         3.08314        -3.72254
| 52>    C       -7.10988         3.76352        -2.70312
| 53>    C       -6.17439         3.18498        -1.77782
| 54>    N       -5.78462         1.94281        -1.90757
| 55>    C       -5.64664         3.98008        -0.73012
| 56>    N       -5.21289         4.67746         0.06778
| 57>    C       -7.51391         5.11400        -2.54330
| 58>    N       -7.77709         6.22189        -2.42768
| 59>    C       -7.48771         1.15207        -5.08592
| 60>    C       -7.03064        -0.16185        -5.23485
| 61>    C       -6.18067        -0.78977        -4.24987
| 62>    N       -5.88923        -2.04959        -4.59534
| 63>    S       -6.58225        -2.38653        -5.99528
| 64>    N       -7.28632        -0.98224        -6.26123
| 65>    C       -8.28057         1.79334        -6.12367
| 66>    C       -9.45854         1.22501        -6.60167
| 67>    C      -10.10701         0.07924        -6.03818
| 68>    O       -9.76432        -0.52267        -5.04341
| 69>    C      -11.39429        -0.38865        -6.77519
| 70>    F      -11.17361        -0.64171        -8.07273
| 71>    F      -11.87915        -1.49994        -6.22620
| 72>    F      -12.36483         0.53909        -6.71703
| 73>    S      -10.16241         2.18354        -7.86919
| 74>    C       -8.92929         3.33278        -7.72173
| 75>    C       -7.97441         3.02280        -6.77114
| 76>    C       -6.86849         3.90099        -6.48796
| 77>    C       -5.72087         3.54122        -5.87372
| 78>    C       -4.79794         4.50527        -5.39214
| 79>    C       -3.82017         4.31804        -4.46361
| 80>    C       -3.20218         5.44523        -3.75080
| 81>    C       -3.02071         6.70762        -4.23479
| 82>    C       -3.37301         7.12588        -5.53752
| 83>    N       -3.62161         7.51264        -6.58880
| 84>    C       -2.37593         7.73639        -3.51125
| 85>    N       -1.84952         8.60470        -2.97892
| 86>    C       -2.77923         4.93993        -2.45727
| 87>    C       -2.88616         3.53007        -2.47140
| 88>    C       -2.60041         2.79238        -1.33309
| 89>    C       -2.20369         3.46773        -0.18958
| 90>    C       -2.08492         4.85108        -0.18112
| 91>    C       -2.36901         5.60230        -1.31163
| 92>    C       -3.36782         3.10550        -3.77817
| 93>    C       -3.23869         1.83110        -4.26066
| 94>    C       -2.57015         0.80378        -3.55654
| 95>    N       -2.02652        -0.08393        -3.07281
| 96>    C       -3.64170         1.32757        -5.51401
| 97>    N       -3.95440         0.79910        -6.48496
| 98>    H      -10.03559         0.73551        -0.52565
| 99>    H      -11.64711        -0.16053        -2.14930
|100>    H      -11.16270        -2.22431        -3.39252
|101>    H       -9.05927        -3.43138        -3.04982
|102>    H       -5.30683        -1.09830         1.49279
|103>    H       -1.78877        -3.25376        -1.90893
|104>    H       -4.31291        -2.43999        -3.09468
|105>    H       -4.72473        -0.03141        -1.24432
|106>    H       -8.93070         4.20067        -8.35369
|107>    H       -7.01492         4.93683        -6.76708
|108>    H       -5.53657         2.50143        -5.66779
|109>    H       -5.01114         5.52678        -5.67978
|110>    H       -2.70924         1.72025        -1.31853
|111>    H       -2.00315         2.90787         0.70994
|112>    H       -1.78298         5.35408         0.72372
|113>    H       -2.29389         6.67698        -1.28523
|114> *
|115>
|116>                          ****END OF INPUT****

CARTESIAN COORDINATES (ANGSTROEM)
---------------------------------
  C     -9.801380   -0.159670   -1.079350
  C    -10.711220   -0.673460   -1.990190
  C    -10.439520   -1.840780   -2.690900
  C     -9.250370   -2.525970   -2.498400
  C     -8.332030   -2.031190   -1.583530
  C     -8.610020   -0.838820   -0.875190
  C     -7.484190   -0.542080   -0.010380
  C     -7.188560    0.689840    0.508790
  C     -8.009210    1.821770    0.318840
  N     -8.598410    2.788540    0.129300
  C     -5.962320    1.054020    1.108480
  N     -4.965220    1.440680    1.525440
  C     -6.562970   -1.677820   -0.079750
  C     -7.080340   -2.589140   -1.099270
  C     -6.566290   -3.802070   -1.473180
  C     -5.590780   -4.540630   -0.774620
  N     -4.875720   -5.251900   -0.226660
  C     -6.986600   -4.497950   -2.627410
  N     -7.224790   -5.067890   -3.594600
  C     -5.394390   -1.728740    0.615030
  C     -4.187680   -2.427220    0.276090
  C     -3.363340   -3.059110    1.207470
  C     -3.724090   -3.208650    2.587660
  O     -4.774040   -2.848370    3.069160
  C     -2.638760   -3.858470    3.490090
  F     -2.326640   -5.097290    3.082760
  F     -1.498470   -3.144910    3.463180
  F     -3.029500   -3.937180    4.755950
  S     -1.932490   -3.695490    0.469890
  C     -2.419580   -3.117230   -1.051740
  C     -3.624050   -2.457840   -1.035340
  C     -4.277560   -1.862920   -2.181070
  C     -4.872800   -0.657300   -2.115070
  C     -5.732090   -0.097560   -3.111310
  C     -6.219110    1.222560   -2.957400
  C     -7.108710    1.825310   -3.914490
  N     -7.555720    3.083140   -3.722540
  C     -7.109880    3.763520   -2.703120
  C     -6.174390    3.184980   -1.777820
  N     -5.784620    1.942810   -1.907570
  C     -5.646640    3.980080   -0.730120
  N     -5.212890    4.677460    0.067780
  C     -7.513910    5.114000   -2.543300
  N     -7.777090    6.221890   -2.427680
  C     -7.487710    1.152070   -5.085920
  C     -7.030640   -0.161850   -5.234850
  C     -6.180670   -0.789770   -4.249870
  N     -5.889230   -2.049590   -4.595340
  S     -6.582250   -2.386530   -5.995280
  N     -7.286320   -0.982240   -6.261230
  C     -8.280570    1.793340   -6.123670
  C     -9.458540    1.225010   -6.601670
  C    -10.107010    0.079240   -6.038180
  O     -9.764320   -0.522670   -5.043410
  C    -11.394290   -0.388650   -6.775190
  F    -11.173610   -0.641710   -8.072730
  F    -11.879150   -1.499940   -6.226200
  F    -12.364830    0.539090   -6.717030
  S    -10.162410    2.183540   -7.869190
  C     -8.929290    3.332780   -7.721730
  C     -7.974410    3.022800   -6.771140
  C     -6.868490    3.900990   -6.487960
  C     -5.720870    3.541220   -5.873720
  C     -4.797940    4.505270   -5.392140
  C     -3.820170    4.318040   -4.463610
  C     -3.202180    5.445230   -3.750800
  C     -3.020710    6.707620   -4.234790
  C     -3.373010    7.125880   -5.537520
  N     -3.621610    7.512640   -6.588800
  C     -2.375930    7.736390   -3.511250
  N     -1.849520    8.604700   -2.978920
  C     -2.779230    4.939930   -2.457270
  C     -2.886160    3.530070   -2.471400
  C     -2.600410    2.792380   -1.333090
  C     -2.203690    3.467730   -0.189580
  C     -2.084920    4.851080   -0.181120
  C     -2.369010    5.602300   -1.311630
  C     -3.367820    3.105500   -3.778170
  C     -3.238690    1.831100   -4.260660
  C     -2.570150    0.803780   -3.556540
  N     -2.026520   -0.083930   -3.072810
  C     -3.641700    1.327570   -5.514010
  N     -3.954400    0.799100   -6.484960
  H    -10.035590    0.735510   -0.525650
  H    -11.647110   -0.160530   -2.149300
  H    -11.162700   -2.224310   -3.392520
  H     -9.059270   -3.431380   -3.049820
  H     -5.306830   -1.098300    1.492790
  H     -1.788770   -3.253760   -1.908930
  H     -4.312910   -2.439990   -3.094680
  H     -4.724730   -0.031410   -1.244320
  H     -8.930700    4.200670   -8.353690
  H     -7.014920    4.936830   -6.767080
  H     -5.536570    2.501430   -5.667790
  H     -5.011140    5.526780   -5.679780
  H     -2.709240    1.720250   -1.318530
  H     -2.003150    2.907870    0.709940
  H     -1.782980    5.354080    0.723720
  H     -2.293890    6.676980   -1.285230

 Total Charge           Charge          ....    0
 Multiplicity           Mult            ....    1
 Number of Electrons    NEL             ....  580
 Basis Dimension        Dim             .... 1254

ORBITAL ENERGIES
----------------

  NO   OCC          E(Eh)            E(eV)
   0   2.0000     -89.061936     -2423.4985
   1   2.0000     -89.006928     -2422.0016
   2   2.0000     -88.999211     -2421.7917
   3   2.0000     -24.828519      -675.6184
   4   2.0000     -24.827837      -675.5998
   5   2.0000     -24.825452      -675.5349
   6   2.0000     -24.816560      -675.2929
   7   2.0000     -24.815582      -675.2663
   8   2.0000     -24.812037      -675.1699
   9   2.0000     -19.257408      -524.0207
  10   2.0000     -19.252707      -523.8928
  11   2.0000     -14.479060      -393.9953
  12   2.0000     -14.476143      -393.9159
  13   2.0000     -14.467147      -393.6711
  14   2.0000     -14.463971      -393.5847
  15   2.0000     -14.441099      -392.9623
  16   2.0000     -14.440629      -392.9495
  17   2.0000     -14.440371      -392.9425
  18   2.0000     -14.440280      -392.9400
  19   2.0000     -14.436975      -392.8501
  20   2.0000     -14.435766      -392.8172
  21   2.0000     -14.433793      -392.7635
  22   2.0000     -14.431364      -392.6974
  23   2.0000     -14.427673      -392.5969
  24   2.0000     -14.423807      -392.4918
  25   2.0000     -10.539180      -286.7857
  26   2.0000     -10.528504      -286.4952
  27   2.0000     -10.412687      -283.3436
  28   2.0000     -10.404690      -283.1260
  29   2.0000     -10.397022      -282.9174
  30   2.0000     -10.396246      -282.8962
  31   2.0000     -10.367302      -282.1086
  32   2.0000     -10.367006      -282.1006
  33   2.0000     -10.364494      -282.0322
  34   2.0000     -10.364337      -282.0280
  35   2.0000     -10.363820      -282.0139
  36   2.0000     -10.363434      -282.0034
  37   2.0000     -10.362587      -281.9803
  38   2.0000     -10.360470      -281.9227
  39   2.0000     -10.357939      -281.8538
  40   2.0000     -10.356755      -281.8216
  41   2.0000     -10.356395      -281.8118
  42   2.0000     -10.354907      -281.7713
  43   2.0000     -10.345661      -281.5197
  44   2.0000     -10.343234      -281.4537
  45   2.0000     -10.343020      -281.4479
  46   2.0000     -10.342898      -281.4446
  47   2.0000     -10.341038      -281.3940
  48   2.0000     -10.340243      -281.3723
  49   2.0000     -10.339095      -281.3411
  50   2.0000     -10.338544      -281.3261
  51   2.0000     -10.337367      -281.2940
  52   2.0000     -10.336542      -281.2716
  53   2.0000     -10.335595      -281.2458
  54   2.0000     -10.335378      -281.2399
  55   2.0000     -10.334860      -281.2258
  56   2.0000     -10.334722      -281.2221
  57   2.0000     -10.333937      -281.2007
  58   2.0000     -10.333874      -281.1990
  59   2.0000     -10.333801      -281.1970
  60   2.0000     -10.333794      -281.1968
  61   2.0000     -10.332924      -281.1732
  62   2.0000     -10.332183      -281.1530
  63   2.0000     -10.329533      -281.0809
  64   2.0000     -10.328122      -281.0425
  65   2.0000     -10.326747      -281.0051
  66   2.0000     -10.325558      -280.9727
  67   2.0000     -10.324161      -280.9347
  68   2.0000     -10.323257      -280.9101
  69   2.0000     -10.318257      -280.7741
  70   2.0000     -10.317602      -280.7562
  71   2.0000     -10.316902      -280.7372
  72   2.0000     -10.312157      -280.6081
  73   2.0000     -10.309165      -280.5266
  74   2.0000     -10.308388      -280.5055
  75   2.0000     -10.307731      -280.4876
  76   2.0000     -10.307549      -280.4827
  77   2.0000     -10.307065      -280.4695
  78   2.0000     -10.304304      -280.3944
  79   2.0000     -10.302233      -280.3380
  80   2.0000     -10.300959      -280.3033
  81   2.0000     -10.299694      -280.2689
  82   2.0000     -10.298988      -280.2497
  83   2.0000      -8.152568      -221.8426
  84   2.0000      -8.102487      -220.4799
  85   2.0000      -8.094380      -220.2593
  86   2.0000      -6.123403      -166.6263
  87   2.0000      -6.115988      -166.4245
  88   2.0000      -6.115536      -166.4122
  89   2.0000      -6.071579      -165.2161
  90   2.0000      -6.067058      -165.0930
  91   2.0000      -6.065249      -165.0438
  92   2.0000      -6.063469      -164.9954
  93   2.0000      -6.058971      -164.8730
  94   2.0000      -6.057198      -164.8247
  95   2.0000      -1.417461       -38.5711
  96   2.0000      -1.405405       -38.2430
  97   2.0000      -1.320585       -35.9349
  98   2.0000      -1.319440       -35.9038
  99   2.0000      -1.308418       -35.6039
 100   2.0000      -1.307036       -35.5663
 101   2.0000      -1.174316       -31.9548
 102   2.0000      -1.168167       -31.7874
 103   2.0000      -1.156340       -31.4656
 104   2.0000      -1.136779       -30.9333
 105   2.0000      -1.064637       -28.9702
 106   2.0000      -1.051045       -28.6004
 107   2.0000      -1.046769       -28.4840
 108   2.0000      -1.035926       -28.1890
 109   2.0000      -1.035362       -28.1736
 110   2.0000      -1.031527       -28.0693
 111   2.0000      -1.025989       -27.9186
 112   2.0000      -1.025287       -27.8995
 113   2.0000      -1.021327       -27.7917
 114   2.0000      -1.017292       -27.6819
 115   2.0000      -1.017093       -27.6765
 116   2.0000      -1.015668       -27.6377
 117   2.0000      -1.014372       -27.6025
 118   2.0000      -1.010204       -27.4891
 119   2.0000      -1.008344       -27.4384
 120   2.0000      -1.003885       -27.3171
 121   2.0000      -0.994182       -27.0531
 122   2.0000      -0.970717       -26.4146
 123   2.0000      -0.966819       -26.3085
 124   2.0000      -0.955433       -25.9986
 125   2.0000      -0.951643       -25.8955
 126   2.0000      -0.945885       -25.7388
 127   2.0000      -0.937164       -25.5015
 128   2.0000      -0.923298       -25.1242
 129   2.0000      -0.921717       -25.0812
 130   2.0000      -0.910629       -24.7795
 131   2.0000      -0.908400       -24.7188
 132   2.0000      -0.903872       -24.5956
 133   2.0000      -0.899961       -24.4892
 134   2.0000      -0.883124       -24.0310
 135   2.0000      -0.876459       -23.8497
 136   2.0000      -0.870419       -23.6853
 137   2.0000      -0.868886       -23.6436
 138   2.0000      -0.862377       -23.4665
 139   2.0000      -0.850589       -23.1457
 140   2.0000      -0.846209       -23.0265
 141   2.0000      -0.835167       -22.7260
 142   2.0000      -0.826055       -22.4781
 143   2.0000      -0.805022       -21.9058
 144   2.0000      -0.804758       -21.8986
 145   2.0000      -0.802009       -21.8238
 146   2.0000      -0.797144       -21.6914
 147   2.0000      -0.793647       -21.5962
 148   2.0000      -0.771681       -20.9985
 149   2.0000      -0.759146       -20.6574
 150   2.0000      -0.751324       -20.4446
 151   2.0000      -0.739531       -20.1237
 152   2.0000      -0.729650       -19.8548
 153   2.0000      -0.729275       -19.8446
 154   2.0000      -0.728287       -19.8177
 155   2.0000      -0.727177       -19.7875
 156   2.0000      -0.724946       -19.7268
 157   2.0000      -0.718609       -19.5543
 158   2.0000      -0.715808       -19.4781
 159   2.0000      -0.714433       -19.4407
 160   2.0000      -0.710129       -19.3236
 161   2.0000      -0.701139       -19.0790
 162   2.0000      -0.699710       -19.0401
 163   2.0000      -0.697978       -18.9930
 164   2.0000      -0.692440       -18.8423
 165   2.0000      -0.687996       -18.7213
 166   2.0000      -0.687783       -18.7155
 167   2.0000      -0.683812       -18.6075
 168   2.0000      -0.680546       -18.5186
 169   2.0000      -0.678655       -18.4671
 170   2.0000      -0.674703       -18.3596
 171   2.0000      -0.670298       -18.2397
 172   2.0000      -0.667858       -18.1733
 173   2.0000      -0.658509       -17.9189
 174   2.0000      -0.656256       -17.8576
 175   2.0000      -0.645451       -17.5636
 176   2.0000      -0.636489       -17.3198
 177   2.0000      -0.634039       -17.2531
 178   2.0000      -0.627334       -17.0706
 179   2.0000      -0.626040       -17.0354
 180   2.0000      -0.611167       -16.6307
 181   2.0000      -0.602738       -16.4013
 182   2.0000      -0.601857       -16.3774
 183   2.0000      -0.598792       -16.2940
 184   2.0000      -0.595807       -16.2127
 185   2.0000      -0.595095       -16.1934
 186   2.0000      -0.586871       -15.9696
 187   2.0000      -0.584384       -15.9019
 188   2.0000      -0.579053       -15.7568
 189   2.0000      -0.577464       -15.7136
 190   2.0000      -0.577163       -15.7054
 191   2.0000      -0.574263       -15.6265
 192   2.0000      -0.572711       -15.5843
 193   2.0000      -0.566510       -15.4155
 194   2.0000      -0.565504       -15.3881
 195   2.0000      -0.560230       -15.2446
 196   2.0000      -0.559483       -15.2243
 197   2.0000      -0.557225       -15.1629
 198   2.0000      -0.554333       -15.0842
 199   2.0000      -0.552567       -15.0361
 200   2.0000      -0.551120       -14.9968
 201   2.0000      -0.548226       -14.9180
 202   2.0000      -0.545658       -14.8481
 203   2.0000      -0.544987       -14.8299
 204   2.0000      -0.541929       -14.7466
 205   2.0000      -0.539295       -14.6750
 206   2.0000      -0.538501       -14.6534
 207   2.0000      -0.536892       -14.6096
 208   2.0000      -0.536675       -14.6037
 209   2.0000      -0.532797       -14.4981
 210   2.0000      -0.529552       -14.4098
 211   2.0000      -0.527642       -14.3579
 212   2.0000      -0.524714       -14.2782
 213   2.0000      -0.523478       -14.2445
 214   2.0000      -0.521212       -14.1829
 215   2.0000      -0.520394       -14.1606
 216   2.0000      -0.517826       -14.0908
 217   2.0000      -0.513092       -13.9620
 218   2.0000      -0.512321       -13.9410
 219   2.0000      -0.510779       -13.8990
 220   2.0000      -0.509440       -13.8626
 221   2.0000      -0.506506       -13.7827
 222   2.0000      -0.504131       -13.7181
 223   2.0000      -0.503901       -13.7118
 224   2.0000      -0.499678       -13.5969
 225   2.0000      -0.498370       -13.5613
 226   2.0000      -0.496752       -13.5173
 227   2.0000      -0.495119       -13.4729
 228   2.0000      -0.492608       -13.4045
 229   2.0000      -0.489686       -13.3250
 230   2.0000      -0.487553       -13.2670
 231   2.0000      -0.486515       -13.2387
 232   2.0000      -0.480382       -13.0719
 233   2.0000      -0.476376       -12.9629
 234   2.0000      -0.473225       -12.8771
 235   2.0000      -0.472118       -12.8470
 236   2.0000      -0.470892       -12.8136
 237   2.0000      -0.469879       -12.7861
 238   2.0000      -0.467982       -12.7344
 239   2.0000      -0.467491       -12.7211
 240   2.0000      -0.466812       -12.7026
 241   2.0000      -0.466495       -12.6940
 242   2.0000      -0.465320       -12.6620
 243   2.0000      -0.464580       -12.6419
 244   2.0000      -0.462572       -12.5872
 245   2.0000      -0.458970       -12.4892
 246   2.0000      -0.458546       -12.4777
 247   2.0000      -0.458393       -12.4735
 248   2.0000      -0.456661       -12.4264
 249   2.0000      -0.455785       -12.4025
 250   2.0000      -0.454703       -12.3731
 251   2.0000      -0.451489       -12.2856
 252   2.0000      -0.451014       -12.2727
 253   2.0000      -0.449515       -12.2319
 254   2.0000      -0.447947       -12.1893
 255   2.0000      -0.446463       -12.1489
 256   2.0000      -0.444831       -12.1045
 257   2.0000      -0.443636       -12.0719
 258   2.0000      -0.439698       -11.9648
 259   2.0000      -0.436545       -11.8790
 260   2.0000      -0.434878       -11.8336
 261   2.0000      -0.432741       -11.7755
 262   2.0000      -0.430351       -11.7105
 263   2.0000      -0.428807       -11.6684
 264   2.0000      -0.428472       -11.6593
 265   2.0000      -0.427835       -11.6420
 266   2.0000      -0.427297       -11.6273
 267   2.0000      -0.424815       -11.5598
 268   2.0000      -0.423123       -11.5138
 269   2.0000      -0.418172       -11.3790
 270   2.0000      -0.409920       -11.1545
 271   2.0000      -0.401605       -10.9282
 272   2.0000      -0.395715       -10.7680
 273   2.0000      -0.395323       -10.7573
 274   2.0000      -0.386590       -10.5196
 275   2.0000      -0.384046       -10.4504
 276   2.0000      -0.380261       -10.3474
 277   2.0000      -0.377341       -10.2680
 278   2.0000      -0.370804       -10.0901
 279   2.0000      -0.365334        -9.9412
 280   2.0000      -0.358936        -9.7671
 281   2.0000      -0.358355        -9.7513
 282   2.0000      -0.344149        -9.3648
 283   2.0000      -0.340620        -9.2687
 284   2.0000      -0.338282        -9.2051
 285   2.0000      -0.336808        -9.1650
 286   2.0000      -0.325567        -8.8591
 287   2.0000      -0.309939        -8.4339
 288   2.0000      -0.300451        -8.1757
 289   2.0000      -0.285726        -7.7750
 290   0.0000      -0.139136        -3.7861
 291   0.0000      -0.112753        -3.0682
 292   0.0000      -0.106823        -2.9068
 293   0.0000      -0.103614        -2.8195
 294   0.0000      -0.093512        -2.5446

MULLIKEN ATOMIC CHARGES
-----------------------
   0 C :   -0.032321
   1 C :    0.036214
   2 C :    0.118000
   3 C :   -0.057921
   4 C :    0.021669
   5 C :   -0.011219
   6 C :    0.273549
   7 C :   -0.322786
   8 C :   -0.186642
   9 N :    0.146119
  10 C :   -0.189366
  11 N :    0.174946
  12 C :   -0.048163
  13 C :    0.300008
  14 C :   -0.344554
  15 C :   -0.184815
  16 N :    0.180092
  17 C :   -0.192895
  18 N :    0.151955
  19 C :   -0.013575
  20 C :    0.028933
  21 C :   -0.147577
  22 C :    0.013365
  23 O :   -0.148354
  24 C :    0.481668
  25 F :   -0.158483
  26 F :   -0.165462
  27 F :   -0.129213
  28 S :    0.242904
  29 C :   -0.065385
  30 C :    0.081016
  31 C :    0.071104
  32 C :   -0.102735
  33 C :    0.061443
  34 C :   -0.049578
  35 C :   -0.080754
  36 N :    0.087834
  37 C :   -0.115611
  38 C :   -0.166441
  39 N :    0.033041
  40 C :   -0.188563
  41 N :    0.258003
  42 C :   -0.217158
  43 N :    0.252781
  44 C :   -0.019702
  45 C :    0.080737
  46 C :    0.022196
  47 N :   -0.300180
  48 S :    0.603002
  49 N :   -0.266433
  50 C :    0.076292
  51 C :   -0.176473
  52 C :    0.025825
  53 O :   -0.160156
  54 C :    0.475611
  55 F :   -0.156616
  56 F :   -0.137238
  57 F :   -0.164838
  58 S :    0.218969
  59 C :   -0.096018
  60 C :    0.126516
  61 C :   -0.004225
  62 C :    0.021813
  63 C :    0.017710
  64 C :   -0.061734
  65 C :    0.267714
  66 C :   -0.327171
  67 C :   -0.198648
  68 N :    0.171137
  69 C :   -0.194484
  70 N :    0.173703
  71 C :    0.024330
  72 C :   -0.007038
  73 C :   -0.027978
  74 C :    0.065737
  75 C :    0.071766
  76 C :   -0.031463
  77 C :    0.252230
  78 C :   -0.331407
  79 C :   -0.204560
  80 N :    0.168362
  81 C :   -0.189464
  82 N :    0.171899
  83 H :    0.008277
  84 H :    0.003499
  85 H :    0.000739
  86 H :   -0.002319
  87 H :    0.068675
  88 H :    0.045152
  89 H :    0.037145
  90 H :    0.018716
  91 H :    0.047725
  92 H :    0.013820
  93 H :    0.027316
  94 H :    0.023363
  95 H :    0.000975
  96 H :    0.010792
  97 H :    0.008881
  98 H :    0.012447
Sum of atomic charges:   -0.0000000

LOEWDIN ATOMIC CHARGES
----------------------
   0 C :    0.002961
   1 C :    0.006792
   2 C :    0.026017
   3 C :    0.002703
   4 C :   -0.011671
   5 C :   -0.020373
   6 C :    0.080070
   7 C :   -0.130450
   8 C :   -0.015071
   9 N :   -0.050801
  10 C :   -0.024773
  11 N :   -0.040509
  12 C :   -0.041230
  13 C :    0.074280
  14 C :   -0.118883
  15 C :   -0.018344
  16 N :   -0.041492
  17 C :   -0.014098
  18 N :   -0.053128
  19 C :    0.082413
  20 C :   -0.020853
  21 C :   -0.216299
  22 C :    0.026082
  23 O :   -0.102847
  24 C :    0.131928
  25 F :   -0.054972
  26 F :   -0.063093
  27 F :   -0.029982
  28 S :    0.538750
  29 C :   -0.128199
  30 C :   -0.055113
  31 C :    0.027033
  32 C :   -0.025820
  33 C :   -0.010892
  34 C :   -0.018043
  35 C :   -0.006980
  36 N :    0.004871
  37 C :   -0.015803
  38 C :   -0.027089
  39 N :   -0.001143
  40 C :   -0.035855
  41 N :    0.005773
  42 C :   -0.034164
  43 N :    0.002925
  44 C :   -0.026520
  45 C :   -0.028326
  46 C :   -0.036942
  47 N :   -0.277837
  48 S :    0.733300
  49 N :   -0.279842
  50 C :    0.021571
  51 C :   -0.224145
  52 C :    0.028143
  53 O :   -0.109119
  54 C :    0.129695
  55 F :   -0.054890
  56 F :   -0.037545
  57 F :   -0.060956
  58 S :    0.522379
  59 C :   -0.138145
  60 C :   -0.056335
  61 C :    0.043115
  62 C :   -0.032867
  63 C :    0.055572
  64 C :   -0.051295
  65 C :    0.077205
  66 C :   -0.125355
  67 C :   -0.024672
  68 N :   -0.041320
  69 C :   -0.019821
  70 N :   -0.036114
  71 C :   -0.014724
  72 C :   -0.021159
  73 C :    0.005756
  74 C :    0.018987
  75 C :    0.021988
  76 C :    0.012699
  77 C :    0.070426
  78 C :   -0.136811
  79 C :   -0.010662
  80 N :   -0.049024
  81 C :   -0.023606
  82 N :   -0.047366
  83 H :    0.041082
  84 H :    0.037964
  85 H :    0.036468
  86 H :    0.039387
  87 H :    0.055872
  88 H :    0.039520
  89 H :    0.036997
  90 H :    0.031108
  91 H :    0.036923
  92 H :    0.042776
  93 H :    0.028956
  94 H :    0.048573
  95 H :    0.038001
  96 H :    0.041840
  97 H :    0.040930
  98 H :    0.043535

  Mayer bond orders larger than 0.100000
B(  0-C ,  1-C ) :   1.3711 B(  0-C ,  5-C ) :   1.3608 B(  0-C , 83-H ) :   0.9891
B(  1-C ,  2-C ) :   1.3653 B(  1-C , 84-H ) :   0.9884 B(  2-C ,  3-C ) :   1.3736
B(  2-C , 85-H ) :   0.9770 B(  3-C ,  4-C ) :   1.3725 B(  3-C , 86-H ) :   0.9892
B(  4-C ,  5-C ) :   1.2971 B(  4-C , 13-C ) :   1.0325 B(  5-C ,  6-C ) :   1.0053
B(  6-C ,  7-C ) :   1.6352 B(  6-C , 12-C ) :   1.0450 B(  7-C ,  8-C ) :   1.1596
B(  7-C , 10-C ) :   1.1417 B(  8-C ,  9-N ) :   2.9444 B( 10-C , 11-N ) :   2.9528
B( 12-C , 13-C ) :   1.0202 B( 12-C , 19-C ) :   1.6715 B( 13-C , 14-C ) :   1.6352
B( 14-C , 15-C ) :   1.1742 B( 14-C , 17-C ) :   1.1383 B( 15-C , 16-N ) :   2.9843
B( 17-C , 18-N ) :   2.9657 B( 19-C , 20-C ) :   1.0838 B( 19-C , 87-H ) :   0.9029
B( 20-C , 21-C ) :   1.4363 B( 20-C , 30-C ) :   1.2779 B( 21-C , 22-C ) :   1.0246
B( 21-C , 28-S ) :   1.1542 B( 22-C , 23-O ) :   2.1406 B( 22-C , 24-C ) :   0.8833
B( 24-C , 25-F ) :   1.1477 B( 24-C , 26-F ) :   1.1492 B( 24-C , 27-F ) :   1.1981
B( 28-S , 29-C ) :   1.2253 B( 29-C , 30-C ) :   1.4925 B( 29-C , 88-H ) :   0.9677
B( 30-C , 31-C ) :   1.0331 B( 31-C , 32-C ) :   1.6974 B( 31-C , 89-H ) :   0.9183
B( 32-C , 33-C ) :   1.2301 B( 32-C , 90-H ) :   0.9466 B( 33-C , 34-C ) :   1.2144
B( 33-C , 44-C ) :   0.1563 B( 33-C , 46-C ) :   1.1869 B( 34-C , 35-C ) :   1.1025
B( 34-C , 39-N ) :   1.4199 B( 35-C , 36-N ) :   1.4449 B( 35-C , 44-C ) :   1.3520
B( 36-N , 37-C ) :   1.7480 B( 37-C , 38-C ) :   1.1788 B( 37-C , 42-C ) :   1.1664
B( 38-C , 39-N ) :   1.7373 B( 38-C , 40-C ) :   1.1576 B( 40-C , 41-N ) :   2.9861
B( 42-C , 43-N ) :   3.0527 B( 44-C , 45-C ) :   1.2967 B( 44-C , 50-C ) :   0.9555
B( 45-C , 46-C ) :   1.1236 B( 45-C , 49-N ) :   1.4943 B( 46-C , 47-N ) :   1.4642
B( 47-N , 48-S ) :   1.3041 B( 47-N , 49-N ) :   0.1526 B( 48-S , 49-N ) :   1.3165
B( 50-C , 51-C ) :   1.5033 B( 50-C , 60-C ) :   1.3121 B( 51-C , 52-C ) :   1.0378
B( 51-C , 58-S ) :   1.1192 B( 52-C , 53-O ) :   2.1123 B( 52-C , 54-C ) :   0.8842
B( 54-C , 55-F ) :   1.1573 B( 54-C , 56-F ) :   1.1778 B( 54-C , 57-F ) :   1.1391
B( 58-S , 59-C ) :   1.2447 B( 59-C , 60-C ) :   1.4287 B( 59-C , 91-H ) :   0.9703
B( 60-C , 61-C ) :   1.0538 B( 61-C , 62-C ) :   1.6839 B( 61-C , 92-H ) :   0.9798
B( 62-C , 63-C ) :   1.1534 B( 62-C , 93-H ) :   0.9346 B( 63-C , 64-C ) :   1.6074
B( 63-C , 94-H ) :   0.9547 B( 64-C , 65-C ) :   1.0171 B( 64-C , 77-C ) :   1.0080
B( 65-C , 66-C ) :   1.6746 B( 65-C , 71-C ) :   1.0043 B( 66-C , 67-C ) :   1.1301
B( 66-C , 69-C ) :   1.1425 B( 67-C , 68-N ) :   3.0070 B( 69-C , 70-N ) :   2.9961
B( 71-C , 72-C ) :   1.2948 B( 71-C , 76-C ) :   1.3845 B( 72-C , 73-C ) :   1.3739
B( 72-C , 77-C ) :   1.0041 B( 73-C , 74-C ) :   1.3770 B( 73-C , 95-H ) :   0.9873
B( 74-C , 75-C ) :   1.3686 B( 74-C , 96-H ) :   0.9857 B( 75-C , 76-C ) :   1.3649
B( 75-C , 97-H ) :   0.9847 B( 76-C , 98-H ) :   0.9867 B( 77-C , 78-C ) :   1.6419
B( 78-C , 79-C ) :   1.1535 B( 78-C , 81-C ) :   1.1520 B( 79-C , 80-N ) :   2.9593
B( 81-C , 82-N ) :   2.9428

-----------------------------------------------------------------------------
         ABSORPTION SPECTRUM VIA TRANSITION ELECTRIC DIPOLE MOMENTS
-----------------------------------------------------------------------------
State   Energy  Wavelength   fosc         T2         TX        TY        TZ
        (cm-1)    (nm)                  (au**2)     (au)      (au)      (au)
-----------------------------------------------------------------------------
   0   14013.5    713.6   0.112928674   2.65297   0.62609  -0.93025   1.18136
   1   17030.4    587.2   0.009733417   0.18816  -0.18212   0.15669  -0.36116
   2   18694.1    534.9   0.045097546   0.79419   0.83587  -0.21585   0.22118
   3   19381.6    516.0   0.023594146   0.40076  -0.05416  -0.37978   0.50359
   4   20734.5    482.3   0.013763699   0.21853  -0.44075   0.14236  -0.06327
   5   21241.8    470.8   0.042997628   0.66639  -0.16305  -0.77557   0.19570
   6   23509.2    425.4   0.003312302   0.04638   0.08843   0.12620  -0.15046
   7   24095.7    415.0   0.169997740   2.32263   1.42083  -0.17630   0.52229
   8   24618.8    406.2   0.097468615   1.30339  -1.06036  -0.01500  -0.42285
   9   25412.4    393.5   0.091179045   1.18120  -1.05934  -0.11965  -0.21139
  10   25673.3    389.5   0.014583160   0.18700  -0.35980  -0.19097  -0.14517
  11   25925.3    385.7   0.001980320   0.02515   0.05368   0.14890  -0.00964
  12   26212.3    381.5   0.024794492   0.31140  -0.30841  -0.01533  -0.46482
  13   26324.3    379.9   0.114616860   1.43340   0.78693  -0.58928   0.68330
  14   26641.9    375.3   0.029296201   0.36201   0.04614  -0.49447  -0.33967
  15   27026.6    370.0   0.107033600   1.30378   0.23597  -1.05453  -0.36886
  16   27122.9    368.7   0.089679729   1.08851   0.67064  -0.69186   0.40011
  17   27328.4    365.9   0.275242882   3.31572   0.98748   1.52048   0.16952
  18   28113.9    355.7   0.023952023   0.28048   0.35350  -0.21667  -0.32950
  19   28331.1    353.0   0.018688405   0.21716  -0.16983   0.39286  -0.18433
  20   28609.2    349.5   0.014599385   0.16800  -0.04592  -0.21975   0.34292
  21   28890.6    346.1   0.339658663   3.87046  -1.32429  -1.05625  -1.00052
  22   29054.6    344.2   0.067343366   0.76305   0.80972  -0.08523   0.31646
  23   29630.5    337.5   0.023555102   0.26171  -0.34615   0.21464  -0.30955
  24   30231.2    330.8   0.132819340   1.44638  -0.94890   0.56734  -0.47337
  25   30383.1    329.1   0.004923314   0.05335  -0.14995  -0.11202  -0.13533
  26   30521.6    327.6   0.008669070   0.09351   0.22772  -0.03284   0.20143
  27   30752.1    325.2   0.054470421   0.58313   0.29669  -0.26840   0.65043
  28   30901.4    323.6   0.005738845   0.06114  -0.18227  -0.10760  -0.12783
  29   31222.2    320.3   0.013709091   0.14455   0.31068  -0.09760   0.19623
  30   31285.3    319.6   0.013055942   0.13739   0.15778  -0.15596   0.29693
  31   31510.9    317.4   0.048389374   0.50555  -0.24083  -0.26437  -0.61454
  32   31819.3    314.3   0.087893357   0.90937  -0.44206   0.78264   0.31847
  33   32041.2    312.1   0.182739066   1.87758   0.48405  -1.27676  -0.11471
  34   32119.7    311.3   0.080291645   0.82295   0.27687  -0.44708   0.73920
  35   32474.7    307.9   0.092239020   0.93507  -0.29001  -0.91814   0.08938
  36   33056.4    302.5   0.036510508   0.36361  -0.10013  -0.59455   0.00987
  37   33232.7    300.9   0.359067192   3.55702  -1.07816   1.54689   0.04158
  38   33379.5    299.6   0.023968304   0.23639  -0.28932   0.03969  -0.38873
  39   33502.3    298.5   0.393488949   3.86664   0.54097   1.70435   0.81803
  40   33650.5    297.2   0.235672445   2.30565  -0.27272  -1.49115  -0.08806
  41   33780.4    296.0   0.188052339   1.83269  -0.04102   1.33566  -0.21682
  42   34118.8    293.1   0.123608703   1.19270   0.47277  -0.98447  -0.00170
  43   34435.9    290.4   0.141224753   1.35013   0.02357   0.55602   1.02001
  44   34576.5    289.2   0.002616290   0.02491  -0.10541  -0.10698  -0.04853
  45   34755.1    287.7   0.141698847   1.34222   0.26509   0.14570   1.11835
  46   35084.9    285.0   0.091479052   0.85838  -0.38188   0.42456  -0.72958
  47   35131.5    284.6   0.059804322   0.56042  -0.60124  -0.11284  -0.43151
  48   35217.6    283.9   0.029667406   0.27733   0.47945  -0.21685  -0.02078
  49   35371.9    282.7   0.117500458   1.09360   0.40257  -0.94116  -0.21391
  50   35640.6    280.6   0.123554502   1.14127  -0.52155  -0.51953  -0.77418
  51   35685.2    280.2   0.291209528   2.68654   0.87499   0.02706   1.38571
  52   36263.6    275.8   0.043408703   0.39408  -0.39382   0.35442   0.33670
  53   36767.8    272.0   0.005225294   0.04679   0.16451   0.14011   0.00956
  54   36893.5    271.1   0.020717668   0.18487   0.19948  -0.37905  -0.03743
  55   36986.9    270.4   0.026644144   0.23715  -0.22024   0.42156   0.10458
  56   37076.0    269.7   0.005114959   0.04542   0.10164  -0.10310  -0.15638
  57   37291.9    268.2   0.032535362   0.28722   0.29861  -0.08371   0.43709
  58   37499.3    266.7   0.201506352   1.76905  -0.66239   1.12518  -0.25352
  59   37596.8    266.0   0.015247538   0.13351  -0.22641  -0.10020  -0.26872
  60   37633.7    265.7   0.069231733   0.60562   0.33720  -0.41563   0.56495
  61   37758.1    264.8   0.012385743   0.10799  -0.14772  -0.25767  -0.14064
  62   38030.9    262.9   0.246424618   2.13316   0.73391   0.35633   1.21143
  63   38138.7    262.2   0.034638106   0.29899  -0.29212   0.31054  -0.34239
  64   38275.4    261.3   0.036482227   0.31379   0.06392  -0.44064  -0.33992
  65   38406.2    260.4   0.121391444   1.04055  -0.11255  -0.89008  -0.48544
  66   38600.2    259.1   0.037184711   0.31714  -0.14578  -0.14106  -0.52535
  67   38808.9    257.7   0.062310581   0.52857   0.59201   0.09541   0.41109
  68   38883.9    257.2   0.100507916   0.85095  -0.34621   0.85214  -0.07042
  69   39152.0    255.4   0.023290655   0.19584  -0.09127   0.04777  -0.43038
  70   39292.5    254.5   0.081481889   0.68270  -0.65647   0.19842  -0.46084
  71   39456.0    253.4   0.051237228   0.42751   0.15911  -0.61871   0.13927
  72   39553.7    252.8   0.011872926   0.09882   0.03074   0.30877  -0.05034
  73   39855.9    250.9   0.028464866   0.23512  -0.25735   0.41019   0.02524
  74   40157.1    249.0   0.163358626   1.33923  -0.45510  -0.65038  -0.84209
  75   40235.8    248.5   0.045665865   0.37364   0.45732  -0.40320  -0.04390

FINAL SINGLE POINT ENERGY     -4925.168344432345

DIPOLE MOMENT
-------------
                                X             Y             Z
Electronic contribution:     -9.23906     -29.95436       3.05829
Nuclear contribution   :      7.81696      28.39206      -4.72846
                        -----------------------------------------
Total Dipole Moment    :     -1.42210      -1.56230      -1.67017
                        -----------------------------------------
Magnitude (a.u.)       :      2.69307
Magnitude (Debye)      :      6.84524

Rotational constants in cm-1:     0.001050     0.000777     0.000552
Rotational constants in MHz :    31.475247    23.295602    16.562553

                             ****ORCA TERMINATED NORMALLY****
TOTAL RUN TIME: 0 days 0 hours 17 minutes 4 seconds 858 msec
