                         Program Version 4.2.0 -  RELEASE  -
|  1> # ORCA input file
|  2> # SCF done       -191.860364914509          0.000452169132
|  3> ! CAM-B3LYP def2-SVP def2/J RIJCOSX Grid4 TightSCF
|  4> %maxcore 5000
|  5> %tddft
|  6>     Mode sTDDFT
|  7>     Ethresh 5.0
|  8>     maxcore 5000
|  9> end
| 10>
| 11> %pal
| 12>   nprocs 6
| 13>   end
| 14> * xyz 0 1
| 15>    C       -5.39233         0.34311         0.61702
| 16>    C       -6.13342         1.35899         0.03512
| 17>    C       -7.16170         1.98365         0.72895
| 18>    C       -7.47379         1.61683         2.02893
| 19>    C       -6.73831         0.60482         2.62445
| 20>    C       -5.69755        -0.03983         1.91438
| 21>    C       -5.10425        -1.05296         2.76559
| 22>    C       -3.95234        -1.74627         2.52604
| 23>    C       -3.15327        -1.58073         1.37189
| 24>    N       -2.44383        -1.50385         0.47393
| 25>    C       -3.33652        -2.65450         3.41242
| 26>    N       -2.74978        -3.38206         4.08102
| 27>    C       -5.94111        -1.13595         3.96789
| 28>    C       -6.79622         0.05384         3.96720
| 29>    C       -7.36573         0.64568         5.05651
| 30>    C       -7.15288         0.23522         6.38915
| 31>    N       -6.97665        -0.02488         7.49314
| 32>    C       -8.17058         1.80580         4.99320
| 33>    N       -8.85383         2.72645         5.00625
| 34>    C       -5.94597        -2.19338         4.80661
| 35>    C       -6.85741        -2.50603         5.88755
| 36>    C       -8.21804        -2.46204         5.82752
| 37>    F       -8.93789        -2.02351         4.79477
| 38>    S       -9.02664        -3.11785         7.20943
| 39>    C       -7.47842        -3.45282         7.90464
| 40>    F       -7.41388        -4.00079         9.11066
| 41>    C       -6.41119        -3.08030         7.13547
| 42>    C       -5.02845        -3.16072         7.52591
| 43>    C       -4.12015        -2.32615         6.98299
| 44>    C       -2.70298        -2.33979         7.13651
| 45>    C       -1.94084        -1.47054         6.32058
| 46>    C       -0.50199        -1.45204         6.34957
| 47>    N        0.17208        -0.65042         5.49691
| 48>    C       -0.49243         0.12273         4.68311
| 49>    C       -1.93092         0.12120         4.67296
| 50>    N       -2.60153        -0.66757         5.46804
| 51>    C       -2.65421         0.93550         3.76563
| 52>    N       -3.24799         1.55582         3.00686
| 53>    C        0.20719         1.00361         3.82232
| 54>    N        0.72458         1.76674         3.14149
| 55>    C        0.22431        -2.26699         7.23510
| 56>    C       -0.52601        -3.11602         8.06091
| 57>    C       -1.97187        -3.17185         8.00169
| 58>    N       -2.46129        -4.05858         8.87378
| 59>    S       -1.25011        -4.72398         9.68051
| 60>    N       -0.04038        -3.94467         8.99233
| 61>    C        1.67846        -2.25946         7.26107
| 62>    C        2.45257        -3.37967         7.32875
| 63>    F        2.03507        -4.63741         7.37747
| 64>    S        4.15650        -3.08253         7.21920
| 65>    C        3.81488        -1.39432         7.06329
| 66>    F        4.82882        -0.54603         6.95323
| 67>    C        2.48667        -1.07403         7.11671
| 68>    C        1.92308         0.24644         7.05351
| 69>    C        2.47699         1.30543         6.41505
| 70>    C        1.73471         2.48929         6.21351
| 71>    C        2.14351         3.60341         5.53117
| 72>    C        1.26022         4.50578         4.80948
| 73>    C       -0.10922         4.43973         4.74399
| 74>    C       -0.91341         3.46515         5.35973
| 75>    N       -1.62761         2.67248         5.79155
| 76>    C       -0.91414         5.33383         4.00475
| 77>    N       -1.62878         6.03846         3.44874
| 78>    C        2.10913         5.39695         4.03244
| 79>    C        3.46381         5.06777         4.27258
| 80>    C        4.48053         5.73496         3.60987
| 81>    C        4.14141         6.73871         2.71477
| 82>    C        2.81409         7.07571         2.49088
| 83>    C        1.78677         6.41062         3.14330
| 84>    C        3.51178         4.02997         5.28964
| 85>    C        4.59602         3.70267         6.06120
| 86>    C        5.90523         4.16674         5.81477
| 87>    N        6.99108         4.49933         5.65022
| 88>    C        4.51288         2.97784         7.27037
| 89>    N        4.48313         2.46973         8.29892
| 90>    H       -4.59921        -0.13469         0.06572
| 91>    H       -5.90639         1.66754        -0.97373
| 92>    H       -7.72677         2.76952         0.25167
| 93>    H       -8.27688         2.10711         2.55476
| 94>    H       -5.21113        -2.97209         4.64088
| 95>    H       -4.74838        -3.88810         8.27357
| 96>    H       -4.46227        -1.54355         6.32079
| 97>    H        0.98633         0.38218         7.57732
| 98>    H        3.42918         1.19722         5.91763
| 99>    H        0.69631         2.43963         6.51000
|100>    H        5.51488         5.47842         3.77216
|101>    H        4.92304         7.26343         2.18704
|102>    H        2.57358         7.86488         1.79508
|103>    H        0.76201         6.68486         2.95518
|104> *
|105>
|106>                          ****END OF INPUT****

CARTESIAN COORDINATES (ANGSTROEM)
---------------------------------
  C     -5.392330    0.343110    0.617020
  C     -6.133420    1.358990    0.035120
  C     -7.161700    1.983650    0.728950
  C     -7.473790    1.616830    2.028930
  C     -6.738310    0.604820    2.624450
  C     -5.697550   -0.039830    1.914380
  C     -5.104250   -1.052960    2.765590
  C     -3.952340   -1.746270    2.526040
  C     -3.153270   -1.580730    1.371890
  N     -2.443830   -1.503850    0.473930
  C     -3.336520   -2.654500    3.412420
  N     -2.749780   -3.382060    4.081020
  C     -5.941110   -1.135950    3.967890
  C     -6.796220    0.053840    3.967200
  C     -7.365730    0.645680    5.056510
  C     -7.152880    0.235220    6.389150
  N     -6.976650   -0.024880    7.493140
  C     -8.170580    1.805800    4.993200
  N     -8.853830    2.726450    5.006250
  C     -5.945970   -2.193380    4.806610
  C     -6.857410   -2.506030    5.887550
  C     -8.218040   -2.462040    5.827520
  F     -8.937890   -2.023510    4.794770
  S     -9.026640   -3.117850    7.209430
  C     -7.478420   -3.452820    7.904640
  F     -7.413880   -4.000790    9.110660
  C     -6.411190   -3.080300    7.135470
  C     -5.028450   -3.160720    7.525910
  C     -4.120150   -2.326150    6.982990
  C     -2.702980   -2.339790    7.136510
  C     -1.940840   -1.470540    6.320580
  C     -0.501990   -1.452040    6.349570
  N      0.172080   -0.650420    5.496910
  C     -0.492430    0.122730    4.683110
  C     -1.930920    0.121200    4.672960
  N     -2.601530   -0.667570    5.468040
  C     -2.654210    0.935500    3.765630
  N     -3.247990    1.555820    3.006860
  C      0.207190    1.003610    3.822320
  N      0.724580    1.766740    3.141490
  C      0.224310   -2.266990    7.235100
  C     -0.526010   -3.116020    8.060910
  C     -1.971870   -3.171850    8.001690
  N     -2.461290   -4.058580    8.873780
  S     -1.250110   -4.723980    9.680510
  N     -0.040380   -3.944670    8.992330
  C      1.678460   -2.259460    7.261070
  C      2.452570   -3.379670    7.328750
  F      2.035070   -4.637410    7.377470
  S      4.156500   -3.082530    7.219200
  C      3.814880   -1.394320    7.063290
  F      4.828820   -0.546030    6.953230
  C      2.486670   -1.074030    7.116710
  C      1.923080    0.246440    7.053510
  C      2.476990    1.305430    6.415050
  C      1.734710    2.489290    6.213510
  C      2.143510    3.603410    5.531170
  C      1.260220    4.505780    4.809480
  C     -0.109220    4.439730    4.743990
  C     -0.913410    3.465150    5.359730
  N     -1.627610    2.672480    5.791550
  C     -0.914140    5.333830    4.004750
  N     -1.628780    6.038460    3.448740
  C      2.109130    5.396950    4.032440
  C      3.463810    5.067770    4.272580
  C      4.480530    5.734960    3.609870
  C      4.141410    6.738710    2.714770
  C      2.814090    7.075710    2.490880
  C      1.786770    6.410620    3.143300
  C      3.511780    4.029970    5.289640
  C      4.596020    3.702670    6.061200
  C      5.905230    4.166740    5.814770
  N      6.991080    4.499330    5.650220
  C      4.512880    2.977840    7.270370
  N      4.483130    2.469730    8.298920
  H     -4.599210   -0.134690    0.065720
  H     -5.906390    1.667540   -0.973730
  H     -7.726770    2.769520    0.251670
  H     -8.276880    2.107110    2.554760
  H     -5.211130   -2.972090    4.640880
  H     -4.748380   -3.888100    8.273570
  H     -4.462270   -1.543550    6.320790
  H      0.986330    0.382180    7.577320
  H      3.429180    1.197220    5.917630
  H      0.696310    2.439630    6.510000
  H      5.514880    5.478420    3.772160
  H      4.923040    7.263430    2.187040
  H      2.573580    7.864880    1.795080
  H      0.762010    6.684860    2.955180

 Total Charge           Charge          ....    0
 Multiplicity           Mult            ....    1
 Number of Electrons    NEL             ....  520
 Basis Dimension        Dim             .... 1132

ORBITAL ENERGIES
----------------

  NO   OCC          E(Eh)            E(eV)
   0   2.0000     -89.054275     -2423.2900
   1   2.0000     -88.996995     -2421.7314
   2   2.0000     -88.994592     -2421.6660
   3   2.0000     -24.828341      -675.6135
   4   2.0000     -24.823006      -675.4683
   5   2.0000     -24.820746      -675.4068
   6   2.0000     -24.818352      -675.3417
   7   2.0000     -14.470602      -393.7651
   8   2.0000     -14.466530      -393.6543
   9   2.0000     -14.460632      -393.4938
  10   2.0000     -14.458776      -393.4433
  11   2.0000     -14.442579      -393.0026
  12   2.0000     -14.434416      -392.7804
  13   2.0000     -14.432413      -392.7259
  14   2.0000     -14.431659      -392.7054
  15   2.0000     -14.425131      -392.5278
  16   2.0000     -14.425059      -392.5258
  17   2.0000     -14.423681      -392.4883
  18   2.0000     -14.418640      -392.3511
  19   2.0000     -14.416243      -392.2859
  20   2.0000     -14.416107      -392.2822
  21   2.0000     -10.406176      -283.1664
  22   2.0000     -10.404525      -283.1215
  23   2.0000     -10.402563      -283.0681
  24   2.0000     -10.401080      -283.0278
  25   2.0000     -10.390303      -282.7345
  26   2.0000     -10.386457      -282.6299
  27   2.0000     -10.356746      -281.8214
  28   2.0000     -10.356514      -281.8151
  29   2.0000     -10.355198      -281.7793
  30   2.0000     -10.353984      -281.7462
  31   2.0000     -10.351587      -281.6810
  32   2.0000     -10.351273      -281.6724
  33   2.0000     -10.349714      -281.6300
  34   2.0000     -10.349179      -281.6155
  35   2.0000     -10.348739      -281.6035
  36   2.0000     -10.347622      -281.5731
  37   2.0000     -10.346230      -281.5352
  38   2.0000     -10.342650      -281.4378
  39   2.0000     -10.337581      -281.2999
  40   2.0000     -10.336200      -281.2623
  41   2.0000     -10.336140      -281.2607
  42   2.0000     -10.336008      -281.2571
  43   2.0000     -10.329776      -281.0875
  44   2.0000     -10.328178      -281.0440
  45   2.0000     -10.327853      -281.0352
  46   2.0000     -10.327346      -281.0214
  47   2.0000     -10.326988      -281.0116
  48   2.0000     -10.325295      -280.9656
  49   2.0000     -10.323940      -280.9287
  50   2.0000     -10.323606      -280.9196
  51   2.0000     -10.323456      -280.9155
  52   2.0000     -10.320749      -280.8418
  53   2.0000     -10.319075      -280.7963
  54   2.0000     -10.318231      -280.7733
  55   2.0000     -10.317366      -280.7498
  56   2.0000     -10.315185      -280.6904
  57   2.0000     -10.314667      -280.6764
  58   2.0000     -10.313561      -280.6463
  59   2.0000     -10.312155      -280.6080
  60   2.0000     -10.311320      -280.5853
  61   2.0000     -10.309140      -280.5260
  62   2.0000     -10.308658      -280.5129
  63   2.0000     -10.308284      -280.5027
  64   2.0000     -10.302098      -280.3343
  65   2.0000     -10.301173      -280.3092
  66   2.0000     -10.301057      -280.3060
  67   2.0000     -10.300335      -280.2864
  68   2.0000     -10.299038      -280.2511
  69   2.0000     -10.296972      -280.1949
  70   2.0000     -10.296885      -280.1925
  71   2.0000     -10.296249      -280.1752
  72   2.0000     -10.296218      -280.1743
  73   2.0000     -10.294960      -280.1401
  74   2.0000     -10.290464      -280.0178
  75   2.0000      -8.145506      -221.6505
  76   2.0000      -8.093958      -220.2478
  77   2.0000      -8.091843      -220.1902
  78   2.0000      -6.116414      -166.4361
  79   2.0000      -6.108709      -166.2264
  80   2.0000      -6.108569      -166.2226
  81   2.0000      -6.063159      -164.9869
  82   2.0000      -6.061005      -164.9283
  83   2.0000      -6.059485      -164.8870
  84   2.0000      -6.057333      -164.8284
  85   2.0000      -6.055347      -164.7744
  86   2.0000      -6.053239      -164.7170
  87   2.0000      -1.342649       -36.5353
  88   2.0000      -1.339784       -36.4574
  89   2.0000      -1.337783       -36.4029
  90   2.0000      -1.335846       -36.3502
  91   2.0000      -1.150160       -31.2974
  92   2.0000      -1.127346       -30.6767
  93   2.0000      -1.055978       -28.7346
  94   2.0000      -1.041446       -28.3392
  95   2.0000      -1.034994       -28.1636
  96   2.0000      -1.026209       -27.9246
  97   2.0000      -1.025562       -27.9070
  98   2.0000      -1.020306       -27.7639
  99   2.0000      -1.018644       -27.7187
 100   2.0000      -1.017537       -27.6886
 101   2.0000      -1.013570       -27.5806
 102   2.0000      -1.011589       -27.5267
 103   2.0000      -1.007234       -27.4082
 104   2.0000      -1.006130       -27.3782
 105   2.0000      -1.002049       -27.2671
 106   2.0000      -1.001701       -27.2577
 107   2.0000      -0.999062       -27.1859
 108   2.0000      -0.995950       -27.1012
 109   2.0000      -0.984531       -26.7905
 110   2.0000      -0.961855       -26.1734
 111   2.0000      -0.958351       -26.0781
 112   2.0000      -0.945766       -25.7356
 113   2.0000      -0.938418       -25.5357
 114   2.0000      -0.934156       -25.4197
 115   2.0000      -0.930650       -25.3243
 116   2.0000      -0.914323       -24.8800
 117   2.0000      -0.913937       -24.8695
 118   2.0000      -0.900486       -24.5035
 119   2.0000      -0.895169       -24.3588
 120   2.0000      -0.892125       -24.2759
 121   2.0000      -0.881991       -24.0002
 122   2.0000      -0.867574       -23.6079
 123   2.0000      -0.862745       -23.4765
 124   2.0000      -0.859905       -23.3992
 125   2.0000      -0.845483       -23.0068
 126   2.0000      -0.837806       -22.7979
 127   2.0000      -0.830772       -22.6065
 128   2.0000      -0.827118       -22.5070
 129   2.0000      -0.797324       -21.6963
 130   2.0000      -0.795829       -21.6556
 131   2.0000      -0.790189       -21.5021
 132   2.0000      -0.789468       -21.4825
 133   2.0000      -0.784136       -21.3374
 134   2.0000      -0.758267       -20.6335
 135   2.0000      -0.739054       -20.1107
 136   2.0000      -0.733456       -19.9584
 137   2.0000      -0.726227       -19.7616
 138   2.0000      -0.719923       -19.5901
 139   2.0000      -0.718916       -19.5627
 140   2.0000      -0.717429       -19.5222
 141   2.0000      -0.714569       -19.4444
 142   2.0000      -0.710805       -19.3420
 143   2.0000      -0.705239       -19.1905
 144   2.0000      -0.701408       -19.0863
 145   2.0000      -0.695266       -18.9192
 146   2.0000      -0.694277       -18.8922
 147   2.0000      -0.679977       -18.5031
 148   2.0000      -0.677184       -18.4271
 149   2.0000      -0.671088       -18.2612
 150   2.0000      -0.668314       -18.1857
 151   2.0000      -0.665997       -18.1227
 152   2.0000      -0.664743       -18.0886
 153   2.0000      -0.660025       -17.9602
 154   2.0000      -0.652604       -17.7583
 155   2.0000      -0.648845       -17.6560
 156   2.0000      -0.637603       -17.3501
 157   2.0000      -0.631797       -17.1921
 158   2.0000      -0.627460       -17.0741
 159   2.0000      -0.620253       -16.8779
 160   2.0000      -0.618020       -16.8172
 161   2.0000      -0.616933       -16.7876
 162   2.0000      -0.607056       -16.5188
 163   2.0000      -0.603370       -16.4185
 164   2.0000      -0.599327       -16.3085
 165   2.0000      -0.593988       -16.1632
 166   2.0000      -0.591334       -16.0910
 167   2.0000      -0.588386       -16.0108
 168   2.0000      -0.586273       -15.9533
 169   2.0000      -0.584057       -15.8930
 170   2.0000      -0.583296       -15.8723
 171   2.0000      -0.581588       -15.8258
 172   2.0000      -0.580225       -15.7887
 173   2.0000      -0.577953       -15.7269
 174   2.0000      -0.569788       -15.5047
 175   2.0000      -0.568731       -15.4759
 176   2.0000      -0.561909       -15.2903
 177   2.0000      -0.555858       -15.1257
 178   2.0000      -0.551026       -14.9942
 179   2.0000      -0.545902       -14.8548
 180   2.0000      -0.544104       -14.8058
 181   2.0000      -0.540086       -14.6965
 182   2.0000      -0.539263       -14.6741
 183   2.0000      -0.537293       -14.6205
 184   2.0000      -0.535232       -14.5644
 185   2.0000      -0.534721       -14.5505
 186   2.0000      -0.527307       -14.3488
 187   2.0000      -0.521034       -14.1780
 188   2.0000      -0.519294       -14.1307
 189   2.0000      -0.514735       -14.0066
 190   2.0000      -0.513834       -13.9821
 191   2.0000      -0.511675       -13.9234
 192   2.0000      -0.505969       -13.7681
 193   2.0000      -0.500867       -13.6293
 194   2.0000      -0.497352       -13.5336
 195   2.0000      -0.494529       -13.4568
 196   2.0000      -0.492176       -13.3928
 197   2.0000      -0.488440       -13.2911
 198   2.0000      -0.487867       -13.2755
 199   2.0000      -0.485498       -13.2111
 200   2.0000      -0.480693       -13.0803
 201   2.0000      -0.479556       -13.0494
 202   2.0000      -0.476766       -12.9735
 203   2.0000      -0.474463       -12.9108
 204   2.0000      -0.469597       -12.7784
 205   2.0000      -0.467047       -12.7090
 206   2.0000      -0.466692       -12.6993
 207   2.0000      -0.465023       -12.6539
 208   2.0000      -0.464517       -12.6402
 209   2.0000      -0.461842       -12.5674
 210   2.0000      -0.460374       -12.5274
 211   2.0000      -0.459743       -12.5103
 212   2.0000      -0.458765       -12.4836
 213   2.0000      -0.457264       -12.4428
 214   2.0000      -0.456493       -12.4218
 215   2.0000      -0.455670       -12.3994
 216   2.0000      -0.454433       -12.3657
 217   2.0000      -0.453251       -12.3336
 218   2.0000      -0.451248       -12.2791
 219   2.0000      -0.450157       -12.2494
 220   2.0000      -0.448922       -12.2158
 221   2.0000      -0.448872       -12.2144
 222   2.0000      -0.446453       -12.1486
 223   2.0000      -0.444860       -12.1052
 224   2.0000      -0.443081       -12.0569
 225   2.0000      -0.441231       -12.0065
 226   2.0000      -0.439608       -11.9623
 227   2.0000      -0.435704       -11.8561
 228   2.0000      -0.434037       -11.8108
 229   2.0000      -0.433289       -11.7904
 230   2.0000      -0.430043       -11.7021
 231   2.0000      -0.429167       -11.6782
 232   2.0000      -0.428347       -11.6559
 233   2.0000      -0.426430       -11.6038
 234   2.0000      -0.424934       -11.5630
 235   2.0000      -0.422143       -11.4871
 236   2.0000      -0.421145       -11.4599
 237   2.0000      -0.419793       -11.4231
 238   2.0000      -0.417052       -11.3486
 239   2.0000      -0.415385       -11.3032
 240   2.0000      -0.413268       -11.2456
 241   2.0000      -0.410206       -11.1623
 242   2.0000      -0.394883       -10.7453
 243   2.0000      -0.393320       -10.7028
 244   2.0000      -0.388851       -10.5812
 245   2.0000      -0.386144       -10.5075
 246   2.0000      -0.383175       -10.4267
 247   2.0000      -0.370468       -10.0810
 248   2.0000      -0.365930        -9.9575
 249   2.0000      -0.360155        -9.8003
 250   2.0000      -0.353555        -9.6207
 251   2.0000      -0.340579        -9.2676
 252   2.0000      -0.335298        -9.1239
 253   2.0000      -0.330909        -9.0045
 254   2.0000      -0.328047        -8.9266
 255   2.0000      -0.318379        -8.6635
 256   2.0000      -0.311216        -8.4686
 257   2.0000      -0.304719        -8.2918
 258   2.0000      -0.282533        -7.6881
 259   2.0000      -0.272006        -7.4017
 260   0.0000      -0.125746        -3.4217
 261   0.0000      -0.098627        -2.6838
 262   0.0000      -0.093009        -2.5309
 263   0.0000      -0.089656        -2.4397
 264   0.0000      -0.086746        -2.3605

MULLIKEN ATOMIC CHARGES
-----------------------
   0 C :   -0.016100
   1 C :    0.053328
   2 C :    0.051172
   3 C :   -0.026815
   4 C :    0.016750
   5 C :    0.025206
   6 C :    0.294530
   7 C :   -0.368482
   8 C :   -0.203034
   9 N :    0.180262
  10 C :   -0.186341
  11 N :    0.152688
  12 C :   -0.007083
  13 C :    0.253138
  14 C :   -0.328036
  15 C :   -0.192507
  16 N :    0.180916
  17 C :   -0.188328
  18 N :    0.171065
  19 C :   -0.066465
  20 C :   -0.015564
  21 C :    0.100167
  22 F :   -0.152080
  23 S :    0.129360
  24 C :    0.075914
  25 F :   -0.145562
  26 C :    0.112365
  27 C :    0.041294
  28 C :   -0.115013
  29 C :    0.138133
  30 C :   -0.024844
  31 C :   -0.063723
  32 N :    0.049364
  33 C :   -0.117305
  34 C :   -0.114640
  35 N :    0.025958
  36 C :   -0.213568
  37 N :    0.246715
  38 C :   -0.209159
  39 N :    0.233774
  40 C :    0.082467
  41 C :   -0.001874
  42 C :   -0.005443
  43 N :   -0.278437
  44 S :    0.561881
  45 N :   -0.262790
  46 C :   -0.007883
  47 C :    0.072072
  48 F :   -0.141603
  49 S :    0.123791
  50 C :    0.054369
  51 F :   -0.139382
  52 C :    0.101158
  53 C :    0.060003
  54 C :   -0.002655
  55 C :   -0.022890
  56 C :   -0.037331
  57 C :    0.346633
  58 C :   -0.358508
  59 C :   -0.144108
  60 N :    0.103374
  61 C :   -0.182428
  62 N :    0.160847
  63 C :    0.004805
  64 C :    0.008188
  65 C :   -0.032714
  66 C :    0.050074
  67 C :    0.045044
  68 C :   -0.026050
  69 C :    0.255356
  70 C :   -0.328657
  71 C :   -0.181030
  72 N :    0.157183
  73 C :   -0.215289
  74 N :    0.174479
  75 H :    0.005857
  76 H :    0.005379
  77 H :    0.007310
  78 H :    0.007734
  79 H :    0.057002
  80 H :    0.015814
  81 H :    0.042131
  82 H :    0.025723
  83 H :    0.029529
  84 H :    0.017117
  85 H :    0.005242
  86 H :    0.003854
  87 H :    0.003679
  88 H :    0.003528
Sum of atomic charges:   -0.0000000

LOEWDIN ATOMIC CHARGES
----------------------
   0 C :    0.016369
   1 C :    0.008611
   2 C :    0.011869
   3 C :    0.005713
   4 C :   -0.004185
   5 C :   -0.009002
   6 C :    0.088525
   7 C :   -0.136291
   8 C :   -0.022642
   9 N :   -0.039717
  10 C :   -0.020758
  11 N :   -0.059131
  12 C :   -0.038428
  13 C :    0.074283
  14 C :   -0.121056
  15 C :   -0.018817
  16 N :   -0.041003
  17 C :   -0.017728
  18 N :   -0.036937
  19 C :    0.059693
  20 C :   -0.097328
  21 C :   -0.069467
  22 F :   -0.042903
  23 S :    0.449453
  24 C :   -0.065360
  25 F :   -0.038225
  26 C :   -0.081028
  27 C :    0.024946
  28 C :   -0.017524
  29 C :    0.004917
  30 C :    0.001290
  31 C :   -0.003480
  32 N :    0.010935
  33 C :   -0.020406
  34 C :   -0.021464
  35 N :    0.008481
  36 C :   -0.030322
  37 N :   -0.018515
  38 C :   -0.026740
  39 N :   -0.012200
  40 C :   -0.023097
  41 C :   -0.039650
  42 C :   -0.036260
  43 N :   -0.280806
  44 S :    0.697587
  45 N :   -0.279738
  46 C :   -0.081410
  47 C :   -0.064014
  48 F :   -0.033883
  49 S :    0.443574
  50 C :   -0.061548
  51 F :   -0.030247
  52 C :   -0.090746
  53 C :    0.064742
  54 C :   -0.032050
  55 C :    0.064593
  56 C :   -0.060729
  57 C :    0.089653
  58 C :   -0.136590
  59 C :    0.008222
  60 N :   -0.072057
  61 C :   -0.017145
  62 N :   -0.045230
  63 C :   -0.011147
  64 C :   -0.008050
  65 C :    0.001828
  66 C :    0.005241
  67 C :    0.000965
  68 C :    0.008571
  69 C :    0.071486
  70 C :   -0.129249
  71 C :   -0.019289
  72 N :   -0.045541
  73 C :   -0.024044
  74 N :   -0.043682
  75 H :    0.041984
  76 H :    0.038726
  77 H :    0.039016
  78 H :    0.041733
  79 H :    0.053459
  80 H :    0.036124
  81 H :    0.034679
  82 H :    0.038080
  83 H :    0.034380
  84 H :    0.040016
  85 H :    0.040879
  86 H :    0.037384
  87 H :    0.037377
  88 H :    0.041475

  Mayer bond orders larger than 0.100000
B(  0-C ,  1-C ) :   1.3796 B(  0-C ,  5-C ) :   1.3697 B(  0-C , 75-H ) :   0.9839
B(  1-C ,  2-C ) :   1.3701 B(  1-C , 76-H ) :   0.9846 B(  2-C ,  3-C ) :   1.3701
B(  2-C , 77-H ) :   0.9860 B(  3-C ,  4-C ) :   1.3757 B(  3-C , 78-H ) :   0.9846
B(  4-C ,  5-C ) :   1.2989 B(  4-C , 13-C ) :   1.0202 B(  5-C ,  6-C ) :   1.0180
B(  6-C ,  7-C ) :   1.6574 B(  6-C , 12-C ) :   1.0203 B(  7-C ,  8-C ) :   1.1412
B(  7-C , 10-C ) :   1.1532 B(  8-C ,  9-N ) :   2.9956 B( 10-C , 11-N ) :   2.9351
B( 12-C , 13-C ) :   0.9911 B( 12-C , 19-C ) :   1.7342 B( 13-C , 14-C ) :   1.6733
B( 14-C , 15-C ) :   1.1679 B( 14-C , 17-C ) :   1.1312 B( 15-C , 16-N ) :   2.9885
B( 17-C , 18-N ) :   2.9966 B( 19-C , 20-C ) :   1.0119 B( 19-C , 79-H ) :   0.9174
B( 20-C , 21-C ) :   1.4890 B( 20-C , 26-C ) :   1.1603 B( 21-C , 22-F ) :   1.1308
B( 21-C , 23-S ) :   1.1261 B( 23-S , 24-C ) :   1.1212 B( 24-C , 25-F ) :   1.1562
B( 24-C , 26-C ) :   1.4434 B( 26-C , 27-C ) :   1.0711 B( 27-C , 28-C ) :   1.6351
B( 27-C , 80-H ) :   0.9672 B( 28-C , 29-C ) :   1.2070 B( 28-C , 81-H ) :   0.9170
B( 29-C , 30-C ) :   1.2608 B( 29-C , 40-C ) :   0.1400 B( 29-C , 42-C ) :   1.1843
B( 30-C , 31-C ) :   1.1142 B( 30-C , 35-N ) :   1.3972 B( 31-C , 32-N ) :   1.3951
B( 31-C , 40-C ) :   1.3526 B( 32-N , 33-C ) :   1.7521 B( 33-C , 34-C ) :   1.1776
B( 33-C , 38-C ) :   1.1617 B( 34-C , 35-N ) :   1.7417 B( 34-C , 36-C ) :   1.1735
B( 36-C , 37-N ) :   3.0209 B( 38-C , 39-N ) :   2.9883 B( 40-C , 41-C ) :   1.2733
B( 40-C , 46-C ) :   0.9610 B( 41-C , 42-C ) :   1.1020 B( 41-C , 45-N ) :   1.5029
B( 42-C , 43-N ) :   1.5021 B( 43-N , 44-S ) :   1.2936 B( 43-N , 45-N ) :   0.1569
B( 44-S , 45-N ) :   1.3084 B( 46-C , 47-C ) :   1.4955 B( 46-C , 52-C ) :   1.1851
B( 47-C , 48-F ) :   1.1541 B( 47-C , 49-S ) :   1.1137 B( 49-S , 50-C ) :   1.1319
B( 50-C , 51-F ) :   1.1383 B( 50-C , 52-C ) :   1.4350 B( 52-C , 53-C ) :   1.0636
B( 53-C , 54-C ) :   1.6544 B( 53-C , 82-H ) :   0.9470 B( 54-C , 55-C ) :   1.1805
B( 54-C , 83-H ) :   0.9726 B( 55-C , 56-C ) :   1.5093 B( 55-C , 84-H ) :   0.9451
B( 56-C , 57-C ) :   1.0832 B( 56-C , 69-C ) :   1.0523 B( 57-C , 58-C ) :   1.6003
B( 57-C , 63-C ) :   0.9987 B( 58-C , 59-C ) :   1.1724 B( 58-C , 61-C ) :   1.1420
B( 59-C , 60-N ) :   2.8573 B( 61-C , 62-N ) :   2.9772 B( 63-C , 64-C ) :   1.3127
B( 63-C , 68-C ) :   1.3852 B( 64-C , 65-C ) :   1.3829 B( 64-C , 69-C ) :   1.0094
B( 65-C , 66-C ) :   1.3614 B( 65-C , 85-H ) :   0.9865 B( 66-C , 67-C ) :   1.3789
B( 66-C , 86-H ) :   0.9863 B( 67-C , 68-C ) :   1.3671 B( 67-C , 87-H ) :   0.9862
B( 68-C , 88-H ) :   0.9838 B( 69-C , 70-C ) :   1.6301 B( 70-C , 71-C ) :   1.1380
B( 70-C , 73-C ) :   1.1516 B( 71-C , 72-N ) :   2.9886 B( 73-C , 74-N ) :   3.0063

-----------------------------------------------------------------------------
         ABSORPTION SPECTRUM VIA TRANSITION ELECTRIC DIPOLE MOMENTS
-----------------------------------------------------------------------------
State   Energy  Wavelength   fosc         T2         TX        TY        TZ
        (cm-1)    (nm)                  (au**2)     (au)      (au)      (au)
-----------------------------------------------------------------------------
   0   14549.6    687.3   0.295688951   6.69052   2.51958   0.58494  -0.01015
   1   17516.0    570.9   0.012000374   0.22555   0.06290  -0.46993   0.02747
   2   21778.2    459.2   0.021337197   0.32255  -0.24317   0.05602  -0.51017
   3   22210.4    450.2   0.183267085   2.71647  -0.76755   1.38982  -0.44240
   4   22824.8    438.1   0.025653987   0.37002  -0.17995   0.53174  -0.23428
   5   23106.2    432.8   0.200392015   2.85514  -0.09473  -1.60626   0.51584
   6   23339.2    428.5   0.108437184   1.52957  -0.38208  -1.15651   0.21461
   7   23596.7    423.8   0.021602597   0.30139  -0.37266  -0.40247  -0.02301
   8   24344.7    410.8   0.159498995   2.15690   1.42185   0.30538   0.20492
   9   26083.3    383.4   0.002953707   0.03728   0.09110  -0.07234   0.15411
  10   26732.6    374.1   0.009326156   0.11485  -0.23102  -0.12400   0.21473
  11   27147.1    368.4   0.058043409   0.70389   0.44994   0.61519  -0.35069
  12   27959.9    357.7   0.166726975   1.96311   0.42151   1.20511  -0.57720
  13   28037.5    356.7   0.066998100   0.78668  -0.71253   0.01371   0.52801
  14   28166.9    355.0   0.141961288   1.65923   0.73919  -1.04742  -0.12542
  15   28461.3    351.4   0.097033011   1.12238   1.03057   0.08896   0.22891
  16   28721.3    348.2   0.034762009   0.39845  -0.33786   0.34476   0.40675
  17   29221.9    342.2   0.021775597   0.24532  -0.07012   0.39646  -0.28849
  18   29542.9    338.5   0.037272641   0.41535   0.02094   0.16965  -0.62139
  19   29819.2    335.4   0.033548549   0.37038   0.52294   0.17915  -0.25462
  20   30691.5    325.8   0.029787483   0.31952   0.12036  -0.48571   0.26289
  21   30803.7    324.6   0.057525392   0.61480   0.74539   0.10547   0.21925
  22   31237.7    320.1   0.031320015   0.33008   0.33733   0.45046  -0.11567
  23   31332.9    319.2   0.136640434   1.43567  -1.01890   0.60822   0.16607
  24   31623.8    316.2   0.215951660   2.24812   1.00254  -0.59057  -0.94565
  25   31822.1    314.2   0.023987304   0.24816   0.25061  -0.22752  -0.36550
  26   31891.4    313.6   0.104246065   1.07612   0.09884  -0.99549   0.27451
  27   32374.8    308.9   0.147765422   1.50259   0.12404  -0.93336   0.78488
  28   32595.2    306.8   0.288042594   2.90923   1.70153   0.10185  -0.06055
  29   33084.5    302.3   0.579340306   5.76480  -0.98540  -1.75900   1.30373
  30   33259.9    300.7   0.037409593   0.37029   0.56437   0.18588   0.13122
  31   33569.6    297.9   0.105130103   1.03099  -0.99891   0.13960   0.11698
  32   33858.2    295.3   0.015158865   0.14739  -0.09844  -0.29115   0.23008
  33   34025.6    293.9   0.410889802   3.97553   0.96056  -1.39045   1.05806
  34   34169.0    292.7   0.137584446   1.32560   0.45168  -0.28587  -1.01974
  35   34669.7    288.4   0.329260867   3.12655   0.51062   1.18862  -1.20541
  36   34983.6    285.8   0.054065824   0.50878  -0.27345  -0.60345  -0.26432
  37   35103.2    284.9   0.159054873   1.49168   0.04933   0.56886  -1.07965
  38   35357.2    282.8   0.818222290   7.61850  -1.19513   1.32769  -2.10414
  39   35914.3    278.4   0.652453107   5.98078   1.97589   0.64762  -1.28734
  40   36390.3    274.8   0.291503847   2.63715   1.41245  -0.54525   0.58722
  41   36847.1    271.4   0.026760612   0.23909  -0.30149  -0.34111   0.17844
  42   36976.5    270.4   0.050171929   0.44669   0.02830  -0.53473   0.39994
  43   37157.2    269.1   0.114472293   1.01422   0.92627   0.23512  -0.31774
  44   37320.8    267.9   0.011932552   0.10526   0.14713  -0.09960   0.27146
  45   37766.0    264.8   0.030517032   0.26602  -0.22996   0.45325   0.08779
  46   37920.8    263.7   0.018837502   0.16354   0.20869  -0.24120   0.24862
  47   38181.6    261.9   0.002517390   0.02171   0.04799  -0.13872  -0.01264
  48   38341.8    260.8   0.016875793   0.14490   0.21413   0.12281  -0.28977
  49   38998.6    256.4   0.023994842   0.20256  -0.26849   0.25253  -0.25826
  50   39148.9    255.4   0.052644473   0.44270  -0.51389   0.34508  -0.24400
  51   39462.0    253.4   0.001399089   0.01167  -0.08649  -0.05107   0.03979
  52   39911.6    250.6   0.025539628   0.21066   0.15871   0.26438  -0.33997
  53   40111.0    249.3   0.001269804   0.01042  -0.00579  -0.08971   0.04838
  54   40266.9    248.3   0.009517041   0.07781   0.22753   0.13433  -0.08941

FINAL SINGLE POINT ENERGY     -4421.915345295127

DIPOLE MOMENT
-------------
                                X             Y             Z
Electronic contribution:     -5.31326     -40.20552      28.70264
Nuclear contribution   :      4.34587      37.96910     -29.06843
                        -----------------------------------------
Total Dipole Moment    :     -0.96739      -2.23642      -0.36579
                        -----------------------------------------
Magnitude (a.u.)       :      2.46399
Magnitude (Debye)      :      6.26296

Rotational constants in cm-1:     0.001254     0.000683     0.000504
Rotational constants in MHz :    37.580507    20.486310    15.119240

                             ****ORCA TERMINATED NORMALLY****
TOTAL RUN TIME: 0 days 0 hours 11 minutes 55 seconds 879 msec
