                         Program Version 4.2.0 -  RELEASE  -
|  1> # ORCA input file
|  2> # SCF done       -167.294819980044          0.000400820561
|  3> ! CAM-B3LYP def2-SVP def2/J RIJCOSX Grid4 TightSCF
|  4> %maxcore 5000
|  5> %tddft
|  6>     Mode sTDDFT
|  7>     Ethresh 5.0
|  8>     maxcore 5000
|  9> end
| 10>
| 11> %pal
| 12>   nprocs 6
| 13>   end
| 14> * xyz 0 1
| 15>    C       -3.72803         3.79268        -0.85406
| 16>    C       -4.62025         4.50458        -1.64214
| 17>    C       -5.88593         4.00817        -1.91958
| 18>    C       -6.29950         2.78658        -1.40966
| 19>    C       -5.41655         2.06651        -0.62252
| 20>    C       -4.12360         2.56561        -0.34535
| 21>    C       -3.41024         1.59762         0.47883
| 22>    C       -2.17598         1.78265         1.04398
| 23>    C       -1.41119         2.96073         0.90872
| 24>    N       -0.73585         3.88641         0.84165
| 25>    C       -1.50772         0.85348         1.86781
| 26>    N       -0.91109         0.14335         2.54537
| 27>    C       -4.25773         0.41447         0.56460
| 28>    C       -5.57172         0.79399         0.06415
| 29>    C       -6.76346         0.21768         0.41555
| 30>    C       -6.87669        -0.83773         1.34402
| 31>    N       -7.02176        -1.65503         2.13652
| 32>    C       -8.01966         0.67608        -0.03051
| 33>    N       -9.06516         0.99592        -0.37981
| 34>    C       -3.82251        -0.82574         0.94695
| 35>    C       -4.39330        -2.08282         0.65308
| 36>    N       -3.97108        -3.21257         1.29612
| 37>    C       -4.57916        -4.30385         0.76886
| 38>    C       -5.39474        -3.87313        -0.28568
| 39>    C       -5.28519        -2.49784        -0.35142
| 40>    C       -4.36364        -5.58608         1.24890
| 41>    C       -4.15695        -6.69951         1.68755
| 42>    C       -3.89159        -7.93873         2.23319
| 43>    S       -4.60056        -9.42267         1.61814
| 44>    C       -3.07561        -8.22365         3.30322
| 45>    C       -2.21345        -7.48143         4.23294
| 46>    O       -1.96940        -6.30236         4.30184
| 47>    N       -1.68921        -8.45952         5.07441
| 48>    C       -0.77642        -8.16302         6.15044
| 49>    C       -2.12084        -9.75171         4.78367
| 50>    O       -1.78919       -10.74282         5.38563
| 51>    C       -3.01965        -9.59377         3.63173
| 52>    C       -3.78311       -10.40869         2.82554
| 53>    C       -3.92534       -11.81442         2.91454
| 54>    C       -4.66328       -12.56233         2.06099
| 55>    C       -4.82161       -13.96985         2.14829
| 56>    N       -5.54073       -14.66491         1.23439
| 57>    C       -5.52756       -15.99308         1.54391
| 58>    C       -4.77244       -16.14887         2.71967
| 59>    C       -4.33949       -14.89329         3.09525
| 60>    C       -6.16574       -16.93701         0.77123
| 61>    C       -6.77047       -17.64681        -0.02012
| 62>    C       -7.29234       -18.65574        -0.78628
| 63>    C       -8.18801       -18.61884        -1.82587
| 64>    C       -8.66837       -19.83796        -2.46833
| 65>    C       -8.10319       -21.08430        -2.40574
| 66>    C       -6.90837       -21.42387        -1.73477
| 67>    N       -5.93772       -21.78408        -1.23702
| 68>    C       -8.62165       -22.22351        -3.05907
| 69>    N       -8.98313       -23.19323        -3.55544
| 70>    C       -9.84086       -19.47842        -3.24876
| 71>    C      -10.01463       -18.07829        -3.18150
| 72>    C      -11.07479       -17.47743        -3.84271
| 73>    C      -11.95038       -18.27448        -4.56474
| 74>    C      -11.77643       -19.64877        -4.63139
| 75>    C      -10.72120       -20.26416        -3.97541
| 76>    C       -8.94617       -17.50527        -2.36890
| 77>    C       -8.72563       -16.15766        -2.23154
| 78>    C       -9.56298       -15.15548        -2.77539
| 79>    N      -10.18140       -14.26998        -3.16438
| 80>    C       -7.65277       -15.49490        -1.61877
| 81>    N       -6.84254       -14.78806        -1.20988
| 82>    H       -2.74819         4.19334        -0.65336
| 83>    H       -4.32035         5.45882        -2.04743
| 84>    H       -6.55945         4.57781        -2.54136
| 85>    H       -7.28287         2.40716        -1.63599
| 86>    H       -2.87388        -0.87949         1.46576
| 87>    H       -3.35157        -3.23261         2.09205
| 88>    H       -5.98793        -4.50781        -0.91288
| 89>    H       -5.75943        -1.86185        -1.07287
| 90>    H       -0.55993        -7.09678         6.11782
| 91>    H        0.14245        -8.73725         6.02737
| 92>    H       -1.22766        -8.42225         7.10925
| 93>    H       -3.38548       -12.27221         3.73178
| 94>    H       -5.17839       -12.07287         1.24228
| 95>    H       -5.98166       -14.31088         0.38872
| 96>    H       -4.58726       -17.07905         3.21916
| 97>    H       -3.74155       -14.65524         3.95188
| 98>    H       -6.94920       -19.63745        -0.47741
| 99>    H      -11.23408       -16.41332        -3.80159
|100>    H      -12.77938       -17.81396        -5.07993
|101>    H      -12.47051       -20.25033        -5.19793
|102>    H      -10.60192       -21.33331        -4.03188
|103> *
|104>
|105>                          ****END OF INPUT****

CARTESIAN COORDINATES (ANGSTROEM)
---------------------------------
  C     -3.728030    3.792680   -0.854060
  C     -4.620250    4.504580   -1.642140
  C     -5.885930    4.008170   -1.919580
  C     -6.299500    2.786580   -1.409660
  C     -5.416550    2.066510   -0.622520
  C     -4.123600    2.565610   -0.345350
  C     -3.410240    1.597620    0.478830
  C     -2.175980    1.782650    1.043980
  C     -1.411190    2.960730    0.908720
  N     -0.735850    3.886410    0.841650
  C     -1.507720    0.853480    1.867810
  N     -0.911090    0.143350    2.545370
  C     -4.257730    0.414470    0.564600
  C     -5.571720    0.793990    0.064150
  C     -6.763460    0.217680    0.415550
  C     -6.876690   -0.837730    1.344020
  N     -7.021760   -1.655030    2.136520
  C     -8.019660    0.676080   -0.030510
  N     -9.065160    0.995920   -0.379810
  C     -3.822510   -0.825740    0.946950
  C     -4.393300   -2.082820    0.653080
  N     -3.971080   -3.212570    1.296120
  C     -4.579160   -4.303850    0.768860
  C     -5.394740   -3.873130   -0.285680
  C     -5.285190   -2.497840   -0.351420
  C     -4.363640   -5.586080    1.248900
  C     -4.156950   -6.699510    1.687550
  C     -3.891590   -7.938730    2.233190
  S     -4.600560   -9.422670    1.618140
  C     -3.075610   -8.223650    3.303220
  C     -2.213450   -7.481430    4.232940
  O     -1.969400   -6.302360    4.301840
  N     -1.689210   -8.459520    5.074410
  C     -0.776420   -8.163020    6.150440
  C     -2.120840   -9.751710    4.783670
  O     -1.789190  -10.742820    5.385630
  C     -3.019650   -9.593770    3.631730
  C     -3.783110  -10.408690    2.825540
  C     -3.925340  -11.814420    2.914540
  C     -4.663280  -12.562330    2.060990
  C     -4.821610  -13.969850    2.148290
  N     -5.540730  -14.664910    1.234390
  C     -5.527560  -15.993080    1.543910
  C     -4.772440  -16.148870    2.719670
  C     -4.339490  -14.893290    3.095250
  C     -6.165740  -16.937010    0.771230
  C     -6.770470  -17.646810   -0.020120
  C     -7.292340  -18.655740   -0.786280
  C     -8.188010  -18.618840   -1.825870
  C     -8.668370  -19.837960   -2.468330
  C     -8.103190  -21.084300   -2.405740
  C     -6.908370  -21.423870   -1.734770
  N     -5.937720  -21.784080   -1.237020
  C     -8.621650  -22.223510   -3.059070
  N     -8.983130  -23.193230   -3.555440
  C     -9.840860  -19.478420   -3.248760
  C    -10.014630  -18.078290   -3.181500
  C    -11.074790  -17.477430   -3.842710
  C    -11.950380  -18.274480   -4.564740
  C    -11.776430  -19.648770   -4.631390
  C    -10.721200  -20.264160   -3.975410
  C     -8.946170  -17.505270   -2.368900
  C     -8.725630  -16.157660   -2.231540
  C     -9.562980  -15.155480   -2.775390
  N    -10.181400  -14.269980   -3.164380
  C     -7.652770  -15.494900   -1.618770
  N     -6.842540  -14.788060   -1.209880
  H     -2.748190    4.193340   -0.653360
  H     -4.320350    5.458820   -2.047430
  H     -6.559450    4.577810   -2.541360
  H     -7.282870    2.407160   -1.635990
  H     -2.873880   -0.879490    1.465760
  H     -3.351570   -3.232610    2.092050
  H     -5.987930   -4.507810   -0.912880
  H     -5.759430   -1.861850   -1.072870
  H     -0.559930   -7.096780    6.117820
  H      0.142450   -8.737250    6.027370
  H     -1.227660   -8.422250    7.109250
  H     -3.385480  -12.272210    3.731780
  H     -5.178390  -12.072870    1.242280
  H     -5.981660  -14.310880    0.388720
  H     -4.587260  -17.079050    3.219160
  H     -3.741550  -14.655240    3.951880
  H     -6.949200  -19.637450   -0.477410
  H    -11.234080  -16.413320   -3.801590
  H    -12.779380  -17.813960   -5.079930
  H    -12.470510  -20.250330   -5.197930
  H    -10.601920  -21.333310   -4.031880

 Total Charge           Charge          ....    0
 Multiplicity           Mult            ....    1
 Number of Electrons    NEL             ....  448
 Basis Dimension        Dim             .... 1047

ORBITAL ENERGIES
----------------

  NO   OCC          E(Eh)            E(eV)
   0   2.0000     -88.988320     -2421.4953
   1   2.0000     -19.217156      -522.9254
   2   2.0000     -19.216119      -522.8972
   3   2.0000     -14.493217      -394.3805
   4   2.0000     -14.475583      -393.9006
   5   2.0000     -14.461950      -393.5297
   6   2.0000     -14.438282      -392.8856
   7   2.0000     -14.427682      -392.5972
   8   2.0000     -14.426778      -392.5726
   9   2.0000     -14.425511      -392.5381
  10   2.0000     -14.424037      -392.4980
  11   2.0000     -14.423298      -392.4779
  12   2.0000     -14.421652      -392.4331
  13   2.0000     -14.420577      -392.4038
  14   2.0000     -10.400409      -283.0095
  15   2.0000     -10.399912      -282.9960
  16   2.0000     -10.359000      -281.8827
  17   2.0000     -10.358083      -281.8578
  18   2.0000     -10.355728      -281.7937
  19   2.0000     -10.352825      -281.7147
  20   2.0000     -10.352634      -281.7095
  21   2.0000     -10.351817      -281.6873
  22   2.0000     -10.351184      -281.6700
  23   2.0000     -10.350438      -281.6497
  24   2.0000     -10.349117      -281.6138
  25   2.0000     -10.348866      -281.6070
  26   2.0000     -10.348460      -281.5959
  27   2.0000     -10.343476      -281.4603
  28   2.0000     -10.341545      -281.4077
  29   2.0000     -10.334069      -281.2043
  30   2.0000     -10.333067      -281.1770
  31   2.0000     -10.332533      -281.1625
  32   2.0000     -10.332174      -281.1528
  33   2.0000     -10.331039      -281.1219
  34   2.0000     -10.328872      -281.0629
  35   2.0000     -10.327915      -281.0369
  36   2.0000     -10.326586      -281.0007
  37   2.0000     -10.326000      -280.9848
  38   2.0000     -10.325507      -280.9713
  39   2.0000     -10.323437      -280.9150
  40   2.0000     -10.323060      -280.9047
  41   2.0000     -10.320192      -280.8267
  42   2.0000     -10.318174      -280.7718
  43   2.0000     -10.316998      -280.7398
  44   2.0000     -10.315834      -280.7081
  45   2.0000     -10.314848      -280.6813
  46   2.0000     -10.314520      -280.6724
  47   2.0000     -10.310263      -280.5565
  48   2.0000     -10.308537      -280.5096
  49   2.0000     -10.307079      -280.4699
  50   2.0000     -10.306683      -280.4591
  51   2.0000     -10.306027      -280.4413
  52   2.0000     -10.305899      -280.4378
  53   2.0000     -10.305456      -280.4257
  54   2.0000     -10.305022      -280.4139
  55   2.0000     -10.304231      -280.3924
  56   2.0000     -10.303807      -280.3808
  57   2.0000     -10.303027      -280.3596
  58   2.0000     -10.302525      -280.3460
  59   2.0000     -10.302145      -280.3356
  60   2.0000     -10.301874      -280.3282
  61   2.0000     -10.301612      -280.3211
  62   2.0000     -10.300842      -280.3002
  63   2.0000     -10.294281      -280.1216
  64   2.0000     -10.290408      -280.0162
  65   2.0000     -10.290396      -280.0159
  66   2.0000     -10.282158      -279.7918
  67   2.0000      -8.083269      -219.9569
  68   2.0000      -6.052758      -164.7039
  69   2.0000      -6.048447      -164.5866
  70   2.0000      -6.045125      -164.4962
  71   2.0000      -1.162482       -31.6327
  72   2.0000      -1.138812       -30.9886
  73   2.0000      -1.112928       -30.2843
  74   2.0000      -1.102235       -29.9933
  75   2.0000      -1.055222       -28.7141
  76   2.0000      -1.043101       -28.3842
  77   2.0000      -1.038000       -28.2454
  78   2.0000      -1.029973       -28.0270
  79   2.0000      -1.020157       -27.7599
  80   2.0000      -1.016257       -27.6537
  81   2.0000      -1.012082       -27.5402
  82   2.0000      -1.009587       -27.4723
  83   2.0000      -1.009494       -27.4697
  84   2.0000      -1.003477       -27.3060
  85   2.0000      -1.001212       -27.2444
  86   2.0000      -1.000672       -27.2297
  87   2.0000      -0.965726       -26.2787
  88   2.0000      -0.962165       -26.1818
  89   2.0000      -0.947449       -25.7814
  90   2.0000      -0.942246       -25.6398
  91   2.0000      -0.935927       -25.4679
  92   2.0000      -0.923201       -25.1216
  93   2.0000      -0.919543       -25.0220
  94   2.0000      -0.904892       -24.6234
  95   2.0000      -0.902213       -24.5505
  96   2.0000      -0.901808       -24.5395
  97   2.0000      -0.896202       -24.3869
  98   2.0000      -0.893281       -24.3074
  99   2.0000      -0.892093       -24.2751
 100   2.0000      -0.876974       -23.8637
 101   2.0000      -0.871587       -23.7171
 102   2.0000      -0.868289       -23.6273
 103   2.0000      -0.860160       -23.4061
 104   2.0000      -0.836698       -22.7677
 105   2.0000      -0.822258       -22.3748
 106   2.0000      -0.805671       -21.9234
 107   2.0000      -0.801982       -21.8230
 108   2.0000      -0.797167       -21.6920
 109   2.0000      -0.793413       -21.5899
 110   2.0000      -0.788785       -21.4639
 111   2.0000      -0.759441       -20.6654
 112   2.0000      -0.752322       -20.4717
 113   2.0000      -0.727528       -19.7971
 114   2.0000      -0.724830       -19.7236
 115   2.0000      -0.721546       -19.6343
 116   2.0000      -0.720109       -19.5952
 117   2.0000      -0.716878       -19.5072
 118   2.0000      -0.714838       -19.4517
 119   2.0000      -0.709432       -19.3046
 120   2.0000      -0.704861       -19.1802
 121   2.0000      -0.700342       -19.0573
 122   2.0000      -0.694786       -18.9061
 123   2.0000      -0.693827       -18.8800
 124   2.0000      -0.685174       -18.6445
 125   2.0000      -0.674052       -18.3419
 126   2.0000      -0.672813       -18.3082
 127   2.0000      -0.671626       -18.2759
 128   2.0000      -0.667913       -18.1748
 129   2.0000      -0.660863       -17.9830
 130   2.0000      -0.657423       -17.8894
 131   2.0000      -0.644886       -17.5483
 132   2.0000      -0.634400       -17.2629
 133   2.0000      -0.623383       -16.9631
 134   2.0000      -0.607729       -16.5371
 135   2.0000      -0.593902       -16.1609
 136   2.0000      -0.592561       -16.1244
 137   2.0000      -0.589674       -16.0458
 138   2.0000      -0.588986       -16.0271
 139   2.0000      -0.587868       -15.9967
 140   2.0000      -0.583935       -15.8897
 141   2.0000      -0.580028       -15.7834
 142   2.0000      -0.573273       -15.5996
 143   2.0000      -0.559922       -15.2363
 144   2.0000      -0.554887       -15.0993
 145   2.0000      -0.552136       -15.0244
 146   2.0000      -0.551424       -15.0050
 147   2.0000      -0.550450       -14.9785
 148   2.0000      -0.549880       -14.9630
 149   2.0000      -0.545653       -14.8480
 150   2.0000      -0.544062       -14.8047
 151   2.0000      -0.543607       -14.7923
 152   2.0000      -0.541528       -14.7357
 153   2.0000      -0.540741       -14.7143
 154   2.0000      -0.539366       -14.6769
 155   2.0000      -0.539205       -14.6725
 156   2.0000      -0.527662       -14.3584
 157   2.0000      -0.525865       -14.3095
 158   2.0000      -0.521256       -14.1841
 159   2.0000      -0.518192       -14.1007
 160   2.0000      -0.517207       -14.0739
 161   2.0000      -0.516407       -14.0522
 162   2.0000      -0.515060       -14.0155
 163   2.0000      -0.509337       -13.8598
 164   2.0000      -0.507831       -13.8188
 165   2.0000      -0.505064       -13.7435
 166   2.0000      -0.502220       -13.6661
 167   2.0000      -0.497218       -13.5300
 168   2.0000      -0.491710       -13.3801
 169   2.0000      -0.491010       -13.3611
 170   2.0000      -0.487568       -13.2674
 171   2.0000      -0.484640       -13.1877
 172   2.0000      -0.481382       -13.0991
 173   2.0000      -0.479556       -13.0494
 174   2.0000      -0.479199       -13.0397
 175   2.0000      -0.477740       -13.0000
 176   2.0000      -0.472155       -12.8480
 177   2.0000      -0.467947       -12.7335
 178   2.0000      -0.466174       -12.6852
 179   2.0000      -0.464228       -12.6323
 180   2.0000      -0.461041       -12.5456
 181   2.0000      -0.458877       -12.4867
 182   2.0000      -0.457225       -12.4417
 183   2.0000      -0.456803       -12.4302
 184   2.0000      -0.455210       -12.3869
 185   2.0000      -0.451902       -12.2969
 186   2.0000      -0.451591       -12.2884
 187   2.0000      -0.450020       -12.2457
 188   2.0000      -0.448806       -12.2126
 189   2.0000      -0.448311       -12.1992
 190   2.0000      -0.446911       -12.1611
 191   2.0000      -0.445594       -12.1252
 192   2.0000      -0.440954       -11.9990
 193   2.0000      -0.435754       -11.8575
 194   2.0000      -0.435005       -11.8371
 195   2.0000      -0.434560       -11.8250
 196   2.0000      -0.434503       -11.8234
 197   2.0000      -0.432234       -11.7617
 198   2.0000      -0.428802       -11.6683
 199   2.0000      -0.423934       -11.5358
 200   2.0000      -0.420971       -11.4552
 201   2.0000      -0.417631       -11.3643
 202   2.0000      -0.415988       -11.3196
 203   2.0000      -0.413912       -11.2631
 204   2.0000      -0.400114       -10.8877
 205   2.0000      -0.393531       -10.7085
 206   2.0000      -0.387817       -10.5530
 207   2.0000      -0.380056       -10.3418
 208   2.0000      -0.374871       -10.2008
 209   2.0000      -0.369707       -10.0602
 210   2.0000      -0.365064        -9.9339
 211   2.0000      -0.360023        -9.7967
 212   2.0000      -0.356582        -9.7031
 213   2.0000      -0.353688        -9.6243
 214   2.0000      -0.350530        -9.5384
 215   2.0000      -0.349278        -9.5043
 216   2.0000      -0.340478        -9.2649
 217   2.0000      -0.340375        -9.2621
 218   2.0000      -0.336515        -9.1570
 219   2.0000      -0.331057        -9.0085
 220   2.0000      -0.316558        -8.6140
 221   2.0000      -0.307366        -8.3638
 222   2.0000      -0.276000        -7.5103
 223   2.0000      -0.253472        -6.8973
 224   0.0000      -0.112384        -3.0581
 225   0.0000      -0.101640        -2.7658
 226   0.0000      -0.096272        -2.6197
 227   0.0000      -0.089758        -2.4424
 228   0.0000      -0.065118        -1.7719

MULLIKEN ATOMIC CHARGES
-----------------------
   0 C :   -0.030202
   1 C :    0.047342
   2 C :    0.045745
   3 C :   -0.033817
   4 C :    0.005544
   5 C :    0.008975
   6 C :    0.298459
   7 C :   -0.348975
   8 C :   -0.189033
   9 N :    0.160952
  10 C :   -0.177364
  11 N :    0.149681
  12 C :   -0.078689
  13 C :    0.225932
  14 C :   -0.337743
  15 C :   -0.199222
  16 N :    0.181766
  17 C :   -0.183305
  18 N :    0.169221
  19 C :    0.048276
  20 C :    0.044661
  21 N :   -0.025797
  22 C :   -0.001407
  23 C :    0.007685
  24 C :    0.009969
  25 C :    0.088783
  26 C :   -0.019500
  27 C :   -0.221512
  28 S :    0.182332
  29 C :    0.055703
  30 C :    0.179669
  31 O :   -0.155976
  32 N :   -0.319978
  33 C :    0.139512
  34 C :    0.184461
  35 O :   -0.163334
  36 C :    0.007575
  37 C :   -0.117769
  38 C :   -0.005315
  39 C :    0.019297
  40 C :    0.099600
  41 N :   -0.024208
  42 C :   -0.041385
  43 C :    0.037626
  44 C :   -0.037144
  45 C :    0.186558
  46 C :   -0.097864
  47 C :   -0.060426
  48 C :   -0.057380
  49 C :    0.289621
  50 C :   -0.346843
  51 C :   -0.197256
  52 N :    0.173589
  53 C :   -0.192976
  54 N :    0.163922
  55 C :    0.005141
  56 C :   -0.002255
  57 C :   -0.036415
  58 C :    0.048121
  59 C :    0.050229
  60 C :   -0.032399
  61 C :    0.316927
  62 C :   -0.359528
  63 C :   -0.215481
  64 N :    0.159532
  65 C :   -0.112019
  66 N :    0.111302
  67 H :    0.006383
  68 H :    0.004164
  69 H :    0.006195
  70 H :    0.005852
  71 H :    0.005344
  72 H :    0.150827
  73 H :   -0.009712
  74 H :    0.004020
  75 H :    0.053891
  76 H :    0.040354
  77 H :    0.039928
  78 H :    0.017624
  79 H :   -0.000852
  80 H :    0.126962
  81 H :   -0.010012
  82 H :   -0.005436
  83 H :    0.058177
  84 H :    0.006152
  85 H :    0.005136
  86 H :    0.006126
  87 H :    0.007686
Sum of atomic charges:   -0.0000000

LOEWDIN ATOMIC CHARGES
----------------------
   0 C :    0.005415
   1 C :    0.001986
   2 C :    0.004236
   3 C :    0.001069
   4 C :   -0.010810
   5 C :   -0.013273
   6 C :    0.079052
   7 C :   -0.137327
   8 C :   -0.019708
   9 N :   -0.047392
  10 C :   -0.020030
  11 N :   -0.049722
  12 C :   -0.062598
  13 C :    0.066732
  14 C :   -0.132443
  15 C :   -0.018958
  16 N :   -0.038757
  17 C :   -0.021589
  18 N :   -0.044879
  19 C :    0.048347
  20 C :   -0.021274
  21 N :    0.129523
  22 C :   -0.000651
  23 C :   -0.027161
  24 C :   -0.016982
  25 C :   -0.014874
  26 C :   -0.031138
  27 C :   -0.153577
  28 S :    0.461417
  29 C :   -0.073489
  30 C :    0.089098
  31 O :   -0.160745
  32 N :   -0.040563
  33 C :    0.037280
  34 C :    0.088254
  35 O :   -0.163920
  36 C :   -0.091748
  37 C :   -0.127010
  38 C :   -0.024685
  39 C :   -0.019488
  40 C :    0.011511
  41 N :    0.124011
  42 C :   -0.042586
  43 C :   -0.007766
  44 C :   -0.050283
  45 C :    0.034589
  46 C :   -0.059289
  47 C :    0.047952
  48 C :   -0.062316
  49 C :    0.075258
  50 C :   -0.130818
  51 C :   -0.027582
  52 N :   -0.039858
  53 C :   -0.018906
  54 N :   -0.044110
  55 C :   -0.012087
  56 C :   -0.012990
  57 C :    0.003162
  58 C :    0.003633
  59 C :    0.005268
  60 C :    0.004674
  61 C :    0.080791
  62 C :   -0.139261
  63 C :   -0.018519
  64 N :   -0.047120
  65 C :    0.032471
  66 N :   -0.068203
  67 H :    0.041748
  68 H :    0.037804
  69 H :    0.037990
  70 H :    0.040820
  71 H :    0.046698
  72 H :    0.109368
  73 H :    0.036615
  74 H :    0.032864
  75 H :    0.038474
  76 H :    0.033655
  77 H :    0.032972
  78 H :    0.045583
  79 H :    0.029885
  80 H :    0.069909
  81 H :    0.036077
  82 H :    0.032056
  83 H :    0.067941
  84 H :    0.041402
  85 H :    0.038255
  86 H :    0.038537
  87 H :    0.042106

  Mayer bond orders larger than 0.100000
B(  0-C ,  1-C ) :   1.3688 B(  0-C ,  5-C ) :   1.3852 B(  0-C , 67-H ) :   0.9834
B(  1-C ,  2-C ) :   1.3783 B(  1-C , 68-H ) :   0.9864 B(  2-C ,  3-C ) :   1.3643
B(  2-C , 69-H ) :   0.9865 B(  3-C ,  4-C ) :   1.3817 B(  3-C , 70-H ) :   0.9881
B(  4-C ,  5-C ) :   1.3119 B(  4-C , 13-C ) :   1.0097 B(  5-C ,  6-C ) :   0.9960
B(  6-C ,  7-C ) :   1.6309 B(  6-C , 12-C ) :   1.0673 B(  7-C ,  8-C ) :   1.1475
B(  7-C , 10-C ) :   1.1391 B(  8-C ,  9-N ) :   2.9772 B( 10-C , 11-N ) :   2.9642
B( 12-C , 13-C ) :   1.0253 B( 12-C , 19-C ) :   1.5982 B( 13-C , 14-C ) :   1.6530
B( 14-C , 15-C ) :   1.1555 B( 14-C , 17-C ) :   1.1400 B( 15-C , 16-N ) :   3.0051
B( 17-C , 18-N ) :   2.9962 B( 19-C , 20-C ) :   1.1347 B( 19-C , 71-H ) :   0.9174
B( 20-C , 21-N ) :   1.2003 B( 20-C , 22-C ) :   0.1168 B( 20-C , 24-C ) :   1.3369
B( 21-N , 22-C ) :   1.2927 B( 21-N , 72-H ) :   0.9288 B( 22-C , 23-C ) :   1.3615
B( 22-C , 25-C ) :   0.8339 B( 23-C , 24-C ) :   1.3937 B( 23-C , 73-H ) :   1.0145
B( 24-C , 74-H ) :   1.0012 B( 25-C , 26-C ) :   2.2220 B( 26-C , 27-C ) :   1.0098
B( 27-C , 28-S ) :   1.1140 B( 27-C , 29-C ) :   1.5423 B( 28-S , 37-C ) :   1.0984
B( 29-C , 30-C ) :   0.8836 B( 29-C , 36-C ) :   1.2572 B( 30-C , 31-O ) :   2.2203
B( 30-C , 32-N ) :   1.0693 B( 32-N , 33-C ) :   0.9392 B( 32-N , 34-C ) :   1.0697
B( 33-C , 75-H ) :   0.9603 B( 33-C , 76-H ) :   0.9743 B( 33-C , 77-H ) :   0.9770
B( 34-C , 35-O ) :   2.1996 B( 34-C , 36-C ) :   0.8995 B( 36-C , 37-C ) :   1.5050
B( 37-C , 38-C ) :   1.1820 B( 38-C , 39-C ) :   1.6374 B( 38-C , 78-H ) :   0.9730
B( 39-C , 40-C ) :   1.1058 B( 39-C , 79-H ) :   0.9627 B( 40-C , 41-N ) :   1.2689
B( 40-C , 42-C ) :   0.1063 B( 40-C , 44-C ) :   1.3324 B( 41-N , 42-C ) :   1.2480
B( 41-N , 80-H ) :   0.8798 B( 42-C , 43-C ) :   1.3171 B( 42-C , 45-C ) :   0.9203
B( 43-C , 44-C ) :   1.4091 B( 43-C , 81-H ) :   1.0115 B( 44-C , 82-H ) :   1.0041
B( 45-C , 46-C ) :   1.9579 B( 46-C , 47-C ) :   1.0805 B( 47-C , 48-C ) :   1.5470
B( 47-C , 83-H ) :   0.9287 B( 48-C , 49-C ) :   1.0476 B( 48-C , 61-C ) :   1.0412
B( 49-C , 50-C ) :   1.6318 B( 49-C , 55-C ) :   0.9980 B( 50-C , 51-C ) :   1.1347
B( 50-C , 53-C ) :   1.1511 B( 51-C , 52-N ) :   2.9864 B( 53-C , 54-N ) :   2.9762
B( 55-C , 56-C ) :   1.3082 B( 55-C , 60-C ) :   1.3835 B( 56-C , 57-C ) :   1.3792
B( 56-C , 61-C ) :   1.0096 B( 57-C , 58-C ) :   1.3706 B( 57-C , 84-H ) :   0.9811
B( 58-C , 59-C ) :   1.3771 B( 58-C , 85-H ) :   0.9860 B( 59-C , 60-C ) :   1.3654
B( 59-C , 86-H ) :   0.9863 B( 60-C , 87-H ) :   0.9830 B( 61-C , 62-C ) :   1.5835
B( 62-C , 63-C ) :   1.1365 B( 62-C , 65-C ) :   1.1896 B( 63-C , 64-N ) :   2.9768
B( 65-C , 66-N ) :   2.8655 B( 66-N , 80-H ) :   0.1297

-----------------------------------------------------------------------------
         ABSORPTION SPECTRUM VIA TRANSITION ELECTRIC DIPOLE MOMENTS
-----------------------------------------------------------------------------
State   Energy  Wavelength   fosc         T2         TX        TY        TZ
        (cm-1)    (nm)                  (au**2)     (au)      (au)      (au)
-----------------------------------------------------------------------------
   0   15917.2    628.3   1.788150765  36.98400  -1.97607  -5.41687  -1.93304
   1   18693.4    534.9   0.730063754  12.85726   1.44986  -2.82259   1.66977
   2   20649.4    484.3   0.263790163   4.20559   0.70165   1.78373   0.72909
   3   21508.8    464.9   0.135141659   2.06847  -0.90183  -1.04904   0.39331
   4   24343.6    410.8   0.016644828   0.22510   0.14840  -0.42277   0.15602
   5   25452.9    392.9   0.205803576   2.66189  -0.24465   1.30644  -0.94618
   6   27302.5    366.3   0.051958916   0.62652   0.40000  -0.45299   0.51119
   7   27817.6    359.5   0.187607223   2.22027   0.76567   0.96884   0.83388
   8   28455.2    351.4   0.184392192   2.13332  -0.16837  -1.40965   0.34332
   9   29329.6    341.0   0.289121262   3.24526   0.13842  -1.78295  -0.21726
  10   29729.6    336.4   0.128246342   1.42014  -0.61446   0.38035  -0.94758
  11   29967.8    333.7   0.193823642   2.12925  -1.25044  -0.69723  -0.28202
  12   31273.8    319.8   0.117650680   1.23848   0.48139  -0.97989   0.21577
  13   31685.7    315.6   0.099489818   1.03369  -0.06657   0.96483   0.31363
  14   31711.1    315.3   0.159745050   1.65841   1.14333   0.58187   0.11241
  15   32481.2    307.9   0.121014710   1.22654   0.11445  -1.06673   0.27484
  16   33262.6    300.6   0.222154841   2.19875   0.10664   1.47513   0.10656
  17   33358.3    299.8   0.155767035   1.53726  -0.31586  -1.07050  -0.53993
  18   33564.5    297.9   0.508742756   4.98993   2.15569   0.54674   0.20981
  19   34367.4    291.0   0.335913205   3.21778   0.91600  -0.85800   1.28162
  20   34655.4    288.6   0.162051413   1.53942  -1.05218  -0.46717  -0.46270
  21   34843.9    287.0   0.077110506   0.72855  -0.69147   0.08150  -0.49374
  22   35275.0    283.5   0.137034799   1.27891  -0.14129  -0.99793   0.51291
  23   35356.1    282.8   0.001452639   0.01353  -0.11436  -0.00259  -0.02099
  24   35559.8    281.2   0.089038951   0.82432  -0.56018   0.49999  -0.51041
  25   35786.6    279.4   0.041064925   0.37777  -0.22708   0.52103  -0.23394
  26   36458.4    274.3   0.112523362   1.01606  -0.38735   0.66770  -0.64822
  27   36960.7    270.6   0.079812616   0.71090  -0.49512  -0.37615  -0.56945
  28   37462.5    266.9   0.000680050   0.00598  -0.06674  -0.01920   0.03397
  29   38031.9    262.9   0.207508142   1.79623  -0.75634   0.73278  -0.82898
  30   38291.3    261.2   0.002320826   0.01995  -0.04756  -0.07333   0.11097
  31   38352.8    260.7   0.016100007   0.13820   0.21839  -0.16310   0.25279
  32   39027.0    256.2   0.033823559   0.28532  -0.39051   0.19896  -0.30534
  33   39037.5    256.2   0.083961973   0.70807   0.60054  -0.18981   0.55803
  34   40099.9    249.4   0.017526087   0.14389   0.24332  -0.03868   0.28842

FINAL SINGLE POINT ENERGY     -3179.270504431855

DIPOLE MOMENT
-------------
                                X             Y             Z
Electronic contribution:     -1.27003      -4.44010      -2.21423
Nuclear contribution   :      0.16763       4.43074       0.94417
                        -----------------------------------------
Total Dipole Moment    :     -1.10240      -0.00937      -1.27006
                        -----------------------------------------
Magnitude (a.u.)       :      1.68179
Magnitude (Debye)      :      4.27478

Rotational constants in cm-1:     0.001754     0.000257     0.000229
Rotational constants in MHz :    52.572129     7.711839     6.863406

                             ****ORCA TERMINATED NORMALLY****
TOTAL RUN TIME: 0 days 0 hours 10 minutes 54 seconds 417 msec
