                         Program Version 4.2.0 -  RELEASE  -
|  1> # ORCA input file
|  2> # SCF done       -181.155939551579          0.000407049975
|  3> ! CAM-B3LYP def2-SVP def2/J RIJCOSX Grid4 TightSCF
|  4> %maxcore 5000
|  5> %tddft
|  6>     Mode sTDDFT
|  7>     Ethresh 5.0
|  8>     maxcore 5000
|  9> end
| 10>
| 11> %pal
| 12>   nprocs 6
| 13>   end
| 14> * xyz 0 1
| 15>    C       -5.72527         1.24349         5.37668
| 16>    C       -4.99387         0.86940         6.49449
| 17>    C       -4.18970        -0.26063         6.47835
| 18>    C       -4.08529        -1.04465         5.33867
| 19>    C       -4.80846        -0.67900         4.21639
| 20>    C       -5.63836         0.46414         4.23386
| 21>    C       -6.29391         0.58936         2.93805
| 22>    C       -7.11415         1.61700         2.55543
| 23>    C       -7.42173         2.72910         3.36938
| 24>    N       -7.71572         3.66238         3.96925
| 25>    C       -7.75327         1.75015         1.30440
| 26>    N       -8.31230         1.93410         0.31807
| 27>    C       -5.92441        -0.59113         2.16293
| 28>    C       -4.87325        -1.27227         2.88944
| 29>    C       -3.94333        -2.13509         2.35993
| 30>    C       -3.83939        -2.44644         0.99008
| 31>    N       -3.69828        -2.71350        -0.11763
| 32>    C       -2.90894        -2.73628         3.10603
| 33>    N       -2.06169        -3.27988         3.65736
| 34>    C       -6.54249        -0.96550         0.99462
| 35>    C       -6.61046        -2.22906         0.38701
| 36>    S       -7.08054        -2.31211        -1.29876
| 37>    C       -7.05048        -4.05537        -1.31060
| 38>    C       -6.73739        -4.52897        -0.04541
| 39>    C       -6.47496        -3.51893         0.89354
| 40>    S       -6.09067        -4.01708         2.51905
| 41>    C       -6.62570        -5.74393         2.28003
| 42>    S       -6.60888        -6.18294         0.51226
| 43>    C       -7.30107        -4.74293        -2.51724
| 44>    C       -7.26136        -6.09277        -2.67589
| 45>    C       -7.48351        -6.75732        -3.89619
| 46>    S       -7.77916        -5.92305        -5.41216
| 47>    C       -7.90314        -7.39239        -6.34134
| 48>    C       -7.72605        -8.49843        -5.49989
| 49>    C       -7.49223        -8.12496        -4.14227
| 50>    N       -7.33362        -9.25725        -3.41293
| 51>    C       -7.45832       -10.32699        -4.26753
| 52>    N       -7.33586       -11.63386        -3.76092
| 53>    O       -7.12531       -11.73063        -2.56178
| 54>    O       -7.44597       -12.56180        -4.53482
| 55>    C       -7.70010        -9.90738        -5.55898
| 56>    C       -8.13058        -7.37371        -7.72457
| 57>    S       -8.21057        -8.84992        -8.66129
| 58>    C       -8.46121        -7.97078       -10.15749
| 59>    C       -8.47959        -6.60630        -9.90986
| 60>    C       -8.30509        -6.27633        -8.55515
| 61>    S       -8.31342        -4.58855        -8.12328
| 62>    C       -8.99801        -4.04690        -9.72797
| 63>    S       -8.69173        -5.29220       -11.02661
| 64>    C       -8.67815        -8.66958       -11.35929
| 65>    C       -8.69496        -8.10371       -12.59874
| 66>    C       -8.98587        -8.79106       -13.79976
| 67>    C       -9.77672        -9.89618       -13.96541
| 68>    C       -9.72035       -10.78263       -15.12342
| 69>    C       -9.14324       -10.52983       -16.33910
| 70>    C       -8.51754        -9.32439       -16.72212
| 71>    N       -7.99702        -8.37839       -17.11325
| 72>    C       -9.13518       -11.44350       -17.41525
| 73>    N       -9.09057       -12.13371       -18.33122
| 74>    C      -10.40080       -12.01407       -14.74456
| 75>    C      -10.99263       -11.83610       -13.47366
| 76>    C      -11.68356       -12.87133       -12.86536
| 77>    C      -11.78719       -14.08148       -13.53436
| 78>    C      -11.21720       -14.25448       -14.78767
| 79>    C      -10.51892       -13.22722       -15.40458
| 80>    C      -10.74592       -10.46980       -13.03736
| 81>    C      -11.49361        -9.79889       -12.10603
| 82>    C      -12.49223       -10.40547       -11.31527
| 83>    N      -13.30456       -10.83733       -10.62885
| 84>    C      -11.43429        -8.41290       -11.85378
| 85>    N      -11.48983        -7.29107       -11.61473
| 86>    H       -6.34713         2.12256         5.41082
| 87>    H       -5.05681         1.46802         7.39028
| 88>    H       -3.63613        -0.53623         7.36289
| 89>    H       -3.46180        -1.92373         5.33923
| 90>    H       -7.11421        -0.20714         0.47592
| 91>    H       -7.63832        -5.86008         2.66861
| 92>    H       -5.93858        -6.39680         2.81434
| 93>    H       -7.52657        -4.12228        -3.37429
| 94>    H       -7.04080        -6.72821        -1.82901
| 95>    H       -7.14980        -9.35818        -2.42663
| 96>    H       -7.83739       -10.54216        -6.40988
| 97>    H       -8.52584        -3.11033       -10.01600
| 98>    H      -10.07517        -3.91279        -9.62339
| 99>    H       -8.81778        -9.73874       -11.25858
|100>    H       -8.37496        -7.07635       -12.70652
|101>    H       -8.48205        -8.40787       -14.67708
|102>    H      -12.12267       -12.75252       -11.88821
|103>    H      -12.31760       -14.89880       -13.07041
|104>    H      -11.31275       -15.20409       -15.29144
|105>    H      -10.07674       -13.38305       -16.37459
|106> *
|107>
|108>                          ****END OF INPUT****

CARTESIAN COORDINATES (ANGSTROEM)
---------------------------------
  C     -5.725270    1.243490    5.376680
  C     -4.993870    0.869400    6.494490
  C     -4.189700   -0.260630    6.478350
  C     -4.085290   -1.044650    5.338670
  C     -4.808460   -0.679000    4.216390
  C     -5.638360    0.464140    4.233860
  C     -6.293910    0.589360    2.938050
  C     -7.114150    1.617000    2.555430
  C     -7.421730    2.729100    3.369380
  N     -7.715720    3.662380    3.969250
  C     -7.753270    1.750150    1.304400
  N     -8.312300    1.934100    0.318070
  C     -5.924410   -0.591130    2.162930
  C     -4.873250   -1.272270    2.889440
  C     -3.943330   -2.135090    2.359930
  C     -3.839390   -2.446440    0.990080
  N     -3.698280   -2.713500   -0.117630
  C     -2.908940   -2.736280    3.106030
  N     -2.061690   -3.279880    3.657360
  C     -6.542490   -0.965500    0.994620
  C     -6.610460   -2.229060    0.387010
  S     -7.080540   -2.312110   -1.298760
  C     -7.050480   -4.055370   -1.310600
  C     -6.737390   -4.528970   -0.045410
  C     -6.474960   -3.518930    0.893540
  S     -6.090670   -4.017080    2.519050
  C     -6.625700   -5.743930    2.280030
  S     -6.608880   -6.182940    0.512260
  C     -7.301070   -4.742930   -2.517240
  C     -7.261360   -6.092770   -2.675890
  C     -7.483510   -6.757320   -3.896190
  S     -7.779160   -5.923050   -5.412160
  C     -7.903140   -7.392390   -6.341340
  C     -7.726050   -8.498430   -5.499890
  C     -7.492230   -8.124960   -4.142270
  N     -7.333620   -9.257250   -3.412930
  C     -7.458320  -10.326990   -4.267530
  N     -7.335860  -11.633860   -3.760920
  O     -7.125310  -11.730630   -2.561780
  O     -7.445970  -12.561800   -4.534820
  C     -7.700100   -9.907380   -5.558980
  C     -8.130580   -7.373710   -7.724570
  S     -8.210570   -8.849920   -8.661290
  C     -8.461210   -7.970780  -10.157490
  C     -8.479590   -6.606300   -9.909860
  C     -8.305090   -6.276330   -8.555150
  S     -8.313420   -4.588550   -8.123280
  C     -8.998010   -4.046900   -9.727970
  S     -8.691730   -5.292200  -11.026610
  C     -8.678150   -8.669580  -11.359290
  C     -8.694960   -8.103710  -12.598740
  C     -8.985870   -8.791060  -13.799760
  C     -9.776720   -9.896180  -13.965410
  C     -9.720350  -10.782630  -15.123420
  C     -9.143240  -10.529830  -16.339100
  C     -8.517540   -9.324390  -16.722120
  N     -7.997020   -8.378390  -17.113250
  C     -9.135180  -11.443500  -17.415250
  N     -9.090570  -12.133710  -18.331220
  C    -10.400800  -12.014070  -14.744560
  C    -10.992630  -11.836100  -13.473660
  C    -11.683560  -12.871330  -12.865360
  C    -11.787190  -14.081480  -13.534360
  C    -11.217200  -14.254480  -14.787670
  C    -10.518920  -13.227220  -15.404580
  C    -10.745920  -10.469800  -13.037360
  C    -11.493610   -9.798890  -12.106030
  C    -12.492230  -10.405470  -11.315270
  N    -13.304560  -10.837330  -10.628850
  C    -11.434290   -8.412900  -11.853780
  N    -11.489830   -7.291070  -11.614730
  H     -6.347130    2.122560    5.410820
  H     -5.056810    1.468020    7.390280
  H     -3.636130   -0.536230    7.362890
  H     -3.461800   -1.923730    5.339230
  H     -7.114210   -0.207140    0.475920
  H     -7.638320   -5.860080    2.668610
  H     -5.938580   -6.396800    2.814340
  H     -7.526570   -4.122280   -3.374290
  H     -7.040800   -6.728210   -1.829010
  H     -7.149800   -9.358180   -2.426630
  H     -7.837390  -10.542160   -6.409880
  H     -8.525840   -3.110330  -10.016000
  H    -10.075170   -3.912790   -9.623390
  H     -8.817780   -9.738740  -11.258580
  H     -8.374960   -7.076350  -12.706520
  H     -8.482050   -8.407870  -14.677080
  H    -12.122670  -12.752520  -11.888210
  H    -12.317600  -14.898800  -13.070410
  H    -11.312750  -15.204090  -15.291440
  H    -10.076740  -13.383050  -16.374590

 Total Charge           Charge          ....    0
 Multiplicity           Mult            ....    1
 Number of Electrons    NEL             ....  530
 Basis Dimension        Dim             .... 1122

ORBITAL ENERGIES
----------------

  NO   OCC          E(Eh)            E(eV)
   0   2.0000     -88.991402     -2421.5791
   1   2.0000     -88.983528     -2421.3649
   2   2.0000     -88.978212     -2421.2203
   3   2.0000     -88.975892     -2421.1571
   4   2.0000     -88.968442     -2420.9544
   5   2.0000     -88.968052     -2420.9438
   6   2.0000     -88.967266     -2420.9224
   7   2.0000     -19.257641      -524.0270
   8   2.0000     -19.257589      -524.0256
   9   2.0000     -14.667929      -399.1346
  10   2.0000     -14.496205      -394.4618
  11   2.0000     -14.424618      -392.5138
  12   2.0000     -14.424583      -392.5129
  13   2.0000     -14.423825      -392.4922
  14   2.0000     -14.423500      -392.4834
  15   2.0000     -14.421589      -392.4314
  16   2.0000     -14.420662      -392.4062
  17   2.0000     -14.420598      -392.4044
  18   2.0000     -14.420181      -392.3931
  19   2.0000     -10.377201      -282.3780
  20   2.0000     -10.353417      -281.7308
  21   2.0000     -10.353120      -281.7227
  22   2.0000     -10.352543      -281.7070
  23   2.0000     -10.351996      -281.6921
  24   2.0000     -10.351604      -281.6815
  25   2.0000     -10.351593      -281.6812
  26   2.0000     -10.350749      -281.6582
  27   2.0000     -10.350338      -281.6470
  28   2.0000     -10.348803      -281.6052
  29   2.0000     -10.346810      -281.5510
  30   2.0000     -10.346023      -281.5296
  31   2.0000     -10.344552      -281.4896
  32   2.0000     -10.343740      -281.4675
  33   2.0000     -10.343581      -281.4631
  34   2.0000     -10.338453      -281.3236
  35   2.0000     -10.336751      -281.2773
  36   2.0000     -10.335917      -281.2546
  37   2.0000     -10.333618      -281.1920
  38   2.0000     -10.332416      -281.1593
  39   2.0000     -10.329991      -281.0933
  40   2.0000     -10.329831      -281.0890
  41   2.0000     -10.329774      -281.0874
  42   2.0000     -10.326913      -281.0096
  43   2.0000     -10.326870      -281.0084
  44   2.0000     -10.326668      -281.0029
  45   2.0000     -10.326111      -280.9878
  46   2.0000     -10.325747      -280.9779
  47   2.0000     -10.324169      -280.9349
  48   2.0000     -10.323669      -280.9213
  49   2.0000     -10.323564      -280.9185
  50   2.0000     -10.323311      -280.9116
  51   2.0000     -10.321677      -280.8671
  52   2.0000     -10.321416      -280.8600
  53   2.0000     -10.319724      -280.8140
  54   2.0000     -10.316295      -280.7207
  55   2.0000     -10.316049      -280.7140
  56   2.0000     -10.315943      -280.7111
  57   2.0000     -10.314254      -280.6651
  58   2.0000     -10.311363      -280.5865
  59   2.0000     -10.310892      -280.5736
  60   2.0000     -10.310832      -280.5720
  61   2.0000     -10.305954      -280.4393
  62   2.0000     -10.304339      -280.3953
  63   2.0000     -10.303650      -280.3766
  64   2.0000     -10.303462      -280.3715
  65   2.0000     -10.303076      -280.3609
  66   2.0000     -10.302273      -280.3391
  67   2.0000     -10.300158      -280.2815
  68   2.0000     -10.299568      -280.2655
  69   2.0000     -10.299099      -280.2527
  70   2.0000     -10.297527      -280.2100
  71   2.0000      -8.085468      -220.0168
  72   2.0000      -8.078596      -219.8298
  73   2.0000      -8.072530      -219.6647
  74   2.0000      -8.071486      -219.6363
  75   2.0000      -8.063591      -219.4215
  76   2.0000      -8.063546      -219.4203
  77   2.0000      -8.062495      -219.3916
  78   2.0000      -6.054908      -164.7624
  79   2.0000      -6.050707      -164.6481
  80   2.0000      -6.048326      -164.5833
  81   2.0000      -6.047532      -164.5617
  82   2.0000      -6.044163      -164.4700
  83   2.0000      -6.042864      -164.4347
  84   2.0000      -6.041079      -164.3861
  85   2.0000      -6.039861      -164.3530
  86   2.0000      -6.038547      -164.3172
  87   2.0000      -6.036959      -164.2740
  88   2.0000      -6.034136      -164.1972
  89   2.0000      -6.034103      -164.1963
  90   2.0000      -6.033162      -164.1707
  91   2.0000      -6.032859      -164.1624
  92   2.0000      -6.032663      -164.1571
  93   2.0000      -6.029871      -164.0811
  94   2.0000      -6.029823      -164.0798
  95   2.0000      -6.028990      -164.0571
  96   2.0000      -6.023198      -163.8995
  97   2.0000      -6.022973      -163.8934
  98   2.0000      -6.021796      -163.8614
  99   2.0000      -1.338311       -36.4173
 100   2.0000      -1.158392       -31.5214
 101   2.0000      -1.121111       -30.5070
 102   2.0000      -1.039347       -28.2821
 103   2.0000      -1.039266       -28.2799
 104   2.0000      -1.035633       -28.1810
 105   2.0000      -1.028540       -27.9880
 106   2.0000      -1.020925       -27.7808
 107   2.0000      -1.018610       -27.7178
 108   2.0000      -1.010548       -27.4984
 109   2.0000      -1.008012       -27.4294
 110   2.0000      -1.004694       -27.3391
 111   2.0000      -1.001738       -27.2587
 112   2.0000      -1.001194       -27.2439
 113   2.0000      -1.000634       -27.2286
 114   2.0000      -0.998550       -27.1719
 115   2.0000      -0.965848       -26.2821
 116   2.0000      -0.964942       -26.2574
 117   2.0000      -0.961771       -26.1711
 118   2.0000      -0.959165       -26.1002
 119   2.0000      -0.945760       -25.7354
 120   2.0000      -0.942859       -25.6565
 121   2.0000      -0.940852       -25.6019
 122   2.0000      -0.932928       -25.3863
 123   2.0000      -0.926436       -25.2096
 124   2.0000      -0.907977       -24.7073
 125   2.0000      -0.905808       -24.6483
 126   2.0000      -0.896951       -24.4073
 127   2.0000      -0.896053       -24.3828
 128   2.0000      -0.885936       -24.1076
 129   2.0000      -0.873886       -23.7796
 130   2.0000      -0.869510       -23.6606
 131   2.0000      -0.865438       -23.5498
 132   2.0000      -0.863434       -23.4952
 133   2.0000      -0.856372       -23.3031
 134   2.0000      -0.850856       -23.1530
 135   2.0000      -0.847751       -23.0685
 136   2.0000      -0.829105       -22.5611
 137   2.0000      -0.816391       -22.2151
 138   2.0000      -0.800502       -21.7828
 139   2.0000      -0.795147       -21.6371
 140   2.0000      -0.792094       -21.5540
 141   2.0000      -0.790813       -21.5191
 142   2.0000      -0.767657       -20.8890
 143   2.0000      -0.744720       -20.2649
 144   2.0000      -0.737751       -20.0752
 145   2.0000      -0.734707       -19.9924
 146   2.0000      -0.731993       -19.9185
 147   2.0000      -0.719853       -19.5882
 148   2.0000      -0.717857       -19.5339
 149   2.0000      -0.716779       -19.5045
 150   2.0000      -0.716021       -19.4839
 151   2.0000      -0.709402       -19.3038
 152   2.0000      -0.704220       -19.1628
 153   2.0000      -0.700014       -19.0484
 154   2.0000      -0.681363       -18.5408
 155   2.0000      -0.677291       -18.4300
 156   2.0000      -0.672297       -18.2941
 157   2.0000      -0.669180       -18.2093
 158   2.0000      -0.666594       -18.1390
 159   2.0000      -0.666111       -18.1258
 160   2.0000      -0.662005       -18.0141
 161   2.0000      -0.650790       -17.7089
 162   2.0000      -0.650667       -17.7056
 163   2.0000      -0.648581       -17.6488
 164   2.0000      -0.645995       -17.5784
 165   2.0000      -0.634171       -17.2567
 166   2.0000      -0.621085       -16.9006
 167   2.0000      -0.612348       -16.6628
 168   2.0000      -0.606058       -16.4917
 169   2.0000      -0.602546       -16.3961
 170   2.0000      -0.593231       -16.1426
 171   2.0000      -0.589423       -16.0390
 172   2.0000      -0.587750       -15.9935
 173   2.0000      -0.585363       -15.9285
 174   2.0000      -0.581337       -15.8190
 175   2.0000      -0.576489       -15.6871
 176   2.0000      -0.572699       -15.5839
 177   2.0000      -0.570712       -15.5299
 178   2.0000      -0.563735       -15.3400
 179   2.0000      -0.558792       -15.2055
 180   2.0000      -0.556889       -15.1537
 181   2.0000      -0.553616       -15.0647
 182   2.0000      -0.551024       -14.9941
 183   2.0000      -0.547271       -14.8920
 184   2.0000      -0.545684       -14.8488
 185   2.0000      -0.542356       -14.7583
 186   2.0000      -0.541420       -14.7328
 187   2.0000      -0.539181       -14.6719
 188   2.0000      -0.537228       -14.6187
 189   2.0000      -0.536691       -14.6041
 190   2.0000      -0.529863       -14.4183
 191   2.0000      -0.526862       -14.3366
 192   2.0000      -0.524536       -14.2734
 193   2.0000      -0.522203       -14.2099
 194   2.0000      -0.521127       -14.1806
 195   2.0000      -0.518020       -14.0960
 196   2.0000      -0.514863       -14.0101
 197   2.0000      -0.511600       -13.9214
 198   2.0000      -0.509317       -13.8592
 199   2.0000      -0.506127       -13.7724
 200   2.0000      -0.503781       -13.7086
 201   2.0000      -0.499168       -13.5830
 202   2.0000      -0.490153       -13.3377
 203   2.0000      -0.489012       -13.3067
 204   2.0000      -0.484303       -13.1785
 205   2.0000      -0.482319       -13.1246
 206   2.0000      -0.477262       -12.9870
 207   2.0000      -0.474806       -12.9201
 208   2.0000      -0.470812       -12.8115
 209   2.0000      -0.466619       -12.6974
 210   2.0000      -0.464925       -12.6513
 211   2.0000      -0.461450       -12.5567
 212   2.0000      -0.459857       -12.5134
 213   2.0000      -0.459609       -12.5066
 214   2.0000      -0.457992       -12.4626
 215   2.0000      -0.457395       -12.4463
 216   2.0000      -0.455464       -12.3938
 217   2.0000      -0.455245       -12.3878
 218   2.0000      -0.453677       -12.3452
 219   2.0000      -0.450722       -12.2648
 220   2.0000      -0.449609       -12.2345
 221   2.0000      -0.449408       -12.2290
 222   2.0000      -0.448553       -12.2057
 223   2.0000      -0.447251       -12.1703
 224   2.0000      -0.441888       -12.0244
 225   2.0000      -0.441366       -12.0102
 226   2.0000      -0.437485       -11.9046
 227   2.0000      -0.436639       -11.8815
 228   2.0000      -0.435021       -11.8375
 229   2.0000      -0.434016       -11.8102
 230   2.0000      -0.433187       -11.7876
 231   2.0000      -0.433136       -11.7862
 232   2.0000      -0.430350       -11.7104
 233   2.0000      -0.429469       -11.6865
 234   2.0000      -0.428761       -11.6672
 235   2.0000      -0.427223       -11.6253
 236   2.0000      -0.423359       -11.5202
 237   2.0000      -0.417396       -11.3579
 238   2.0000      -0.416747       -11.3403
 239   2.0000      -0.414998       -11.2927
 240   2.0000      -0.414074       -11.2675
 241   2.0000      -0.412109       -11.2141
 242   2.0000      -0.406112       -11.0509
 243   2.0000      -0.403797       -10.9879
 244   2.0000      -0.400683       -10.9031
 245   2.0000      -0.395998       -10.7756
 246   2.0000      -0.393904       -10.7187
 247   2.0000      -0.388830       -10.5806
 248   2.0000      -0.387513       -10.5448
 249   2.0000      -0.385119       -10.4796
 250   2.0000      -0.382531       -10.4092
 251   2.0000      -0.377296       -10.2668
 252   2.0000      -0.364319        -9.9136
 253   2.0000      -0.355697        -9.6790
 254   2.0000      -0.347414        -9.4536
 255   2.0000      -0.337597        -9.1865
 256   2.0000      -0.334198        -9.0940
 257   2.0000      -0.332612        -9.0508
 258   2.0000      -0.325862        -8.8671
 259   2.0000      -0.314629        -8.5615
 260   2.0000      -0.304766        -8.2931
 261   2.0000      -0.293636        -7.9902
 262   2.0000      -0.288652        -7.8546
 263   2.0000      -0.279730        -7.6119
 264   2.0000      -0.241623        -6.5749
 265   0.0000      -0.119407        -3.2492
 266   0.0000      -0.098905        -2.6913
 267   0.0000      -0.090853        -2.4722
 268   0.0000      -0.087595        -2.3836
 269   0.0000      -0.080485        -2.1901

MULLIKEN ATOMIC CHARGES
-----------------------
   0 C :   -0.036064
   1 C :    0.045077
   2 C :    0.049959
   3 C :   -0.042485
   4 C :    0.007532
   5 C :    0.010104
   6 C :    0.306070
   7 C :   -0.351174
   8 C :   -0.187448
   9 N :    0.157926
  10 C :   -0.176338
  11 N :    0.152795
  12 C :   -0.066840
  13 C :    0.234214
  14 C :   -0.352508
  15 C :   -0.200448
  16 N :    0.184841
  17 C :   -0.181545
  18 N :    0.164275
  19 C :    0.063680
  20 C :   -0.200783
  21 S :    0.173702
  22 C :   -0.102988
  23 C :   -0.020224
  24 C :    0.016134
  25 S :    0.081682
  26 C :   -0.076326
  27 S :    0.023881
  28 C :    0.023484
  29 C :   -0.002937
  30 C :   -0.140205
  31 S :    0.146517
  32 C :   -0.101014
  33 C :    0.061479
  34 C :    0.136004
  35 N :   -0.033207
  36 C :    0.140098
  37 N :    0.288062
  38 O :   -0.267201
  39 O :   -0.232351
  40 C :   -0.082331
  41 C :   -0.106009
  42 S :    0.136113
  43 C :   -0.148161
  44 C :    0.024886
  45 C :   -0.037061
  46 S :    0.048512
  47 C :   -0.090455
  48 S :    0.078856
  49 C :    0.068835
  50 C :   -0.030430
  51 C :    0.037958
  52 C :   -0.065119
  53 C :    0.297101
  54 C :   -0.349990
  55 C :   -0.183490
  56 N :    0.160449
  57 C :   -0.186620
  58 N :    0.160178
  59 C :    0.016322
  60 C :   -0.001823
  61 C :   -0.029394
  62 C :    0.046615
  63 C :    0.048049
  64 C :   -0.033781
  65 C :    0.227302
  66 C :   -0.339753
  67 C :   -0.188874
  68 N :    0.164386
  69 C :   -0.193751
  70 N :    0.183405
  71 H :    0.004704
  72 H :    0.002713
  73 H :    0.002424
  74 H :    0.002874
  75 H :    0.014159
  76 H :    0.107391
  77 H :    0.101965
  78 H :   -0.007200
  79 H :   -0.010411
  80 H :    0.146258
  81 H :    0.006749
  82 H :    0.099034
  83 H :    0.120727
  84 H :    0.011742
  85 H :    0.021259
  86 H :    0.024167
  87 H :    0.006476
  88 H :    0.005697
  89 H :    0.005147
  90 H :    0.006771
Sum of atomic charges:   -0.0000000

LOEWDIN ATOMIC CHARGES
----------------------
   0 C :    0.005419
   1 C :   -0.002429
   2 C :    0.003969
   3 C :   -0.002644
   4 C :   -0.008253
   5 C :   -0.016711
   6 C :    0.079911
   7 C :   -0.132536
   8 C :   -0.018387
   9 N :   -0.046771
  10 C :   -0.021607
  11 N :   -0.045316
  12 C :   -0.064568
  13 C :    0.040991
  14 C :   -0.147478
  15 C :   -0.024957
  16 N :   -0.042861
  17 C :   -0.021046
  18 N :   -0.050204
  19 C :    0.026398
  20 C :   -0.196611
  21 S :    0.460346
  22 C :   -0.157332
  23 C :   -0.208079
  24 C :   -0.174295
  25 S :    0.382025
  26 C :   -0.228917
  27 S :    0.309948
  28 C :   -0.060525
  29 C :   -0.025169
  30 C :   -0.206017
  31 S :    0.471753
  32 C :   -0.174879
  33 C :   -0.072754
  34 C :    0.007131
  35 N :    0.072727
  36 C :    0.000682
  37 N :    0.279438
  38 O :   -0.223833
  39 O :   -0.194231
  40 C :   -0.030073
  41 C :   -0.190592
  42 S :    0.438459
  43 C :   -0.194840
  44 C :   -0.176262
  45 C :   -0.206428
  46 S :    0.312763
  47 C :   -0.222960
  48 S :    0.358120
  49 C :    0.011515
  50 C :   -0.048378
  51 C :    0.059388
  52 C :   -0.059526
  53 C :    0.077172
  54 C :   -0.132998
  55 C :   -0.022345
  56 N :   -0.043398
  57 C :   -0.018897
  58 N :   -0.046296
  59 C :   -0.012786
  60 C :   -0.011995
  61 C :    0.001540
  62 C :    0.004729
  63 C :    0.003057
  64 C :    0.005228
  65 C :    0.065103
  66 C :   -0.134463
  67 C :   -0.021508
  68 N :   -0.047479
  69 C :   -0.017743
  70 N :   -0.044124
  71 H :    0.041069
  72 H :    0.036981
  73 H :    0.036907
  74 H :    0.039883
  75 H :    0.045760
  76 H :    0.025583
  77 H :    0.034265
  78 H :    0.026809
  79 H :    0.019222
  80 H :    0.097253
  81 H :    0.036255
  82 H :    0.032740
  83 H :    0.030005
  84 H :    0.035588
  85 H :    0.026988
  86 H :    0.049170
  87 H :    0.041017
  88 H :    0.038145
  89 H :    0.038170
  90 H :    0.041876

  Mayer bond orders larger than 0.100000
B(  0-C ,  1-C ) :   1.3692 B(  0-C ,  5-C ) :   1.3802 B(  0-C , 71-H ) :   0.9834
B(  1-C ,  2-C ) :   1.3810 B(  1-C , 72-H ) :   0.9856 B(  2-C ,  3-C ) :   1.3599
B(  2-C , 73-H ) :   0.9861 B(  3-C ,  4-C ) :   1.3867 B(  3-C , 74-H ) :   0.9871
B(  4-C ,  5-C ) :   1.3150 B(  4-C , 13-C ) :   1.0100 B(  5-C ,  6-C ) :   0.9933
B(  6-C ,  7-C ) :   1.6279 B(  6-C , 12-C ) :   1.0735 B(  7-C ,  8-C ) :   1.1482
B(  7-C , 10-C ) :   1.1369 B(  8-C ,  9-N ) :   2.9738 B( 10-C , 11-N ) :   2.9582
B( 12-C , 13-C ) :   1.0622 B( 12-C , 19-C ) :   1.5464 B( 13-C , 14-C ) :   1.5820
B( 14-C , 15-C ) :   1.1651 B( 14-C , 17-C ) :   1.1453 B( 15-C , 16-N ) :   3.0196
B( 17-C , 18-N ) :   2.9955 B( 19-C , 20-C ) :   1.2522 B( 19-C , 75-H ) :   0.9085
B( 20-C , 21-S ) :   1.0990 B( 20-C , 24-C ) :   1.4506 B( 21-S , 22-C ) :   1.1092
B( 22-C , 23-C ) :   1.5296 B( 22-C , 28-C ) :   1.1724 B( 23-C , 24-C ) :   1.3018
B( 23-C , 27-S ) :   1.0022 B( 24-C , 25-S ) :   1.0581 B( 25-S , 26-C ) :   0.9689
B( 26-C , 27-S ) :   0.9807 B( 26-C , 76-H ) :   0.9468 B( 26-C , 77-H ) :   0.9564
B( 28-C , 29-C ) :   1.5966 B( 28-C , 78-H ) :   0.9580 B( 29-C , 30-C ) :   1.2314
B( 29-C , 79-H ) :   0.9569 B( 30-C , 31-S ) :   1.0763 B( 30-C , 32-C ) :   0.1036
B( 30-C , 34-C ) :   1.3570 B( 31-S , 32-C ) :   1.1515 B( 32-C , 33-C ) :   1.3134
B( 32-C , 41-C ) :   1.2539 B( 33-C , 34-C ) :   1.2365 B( 33-C , 40-C ) :   1.1527
B( 34-C , 35-N ) :   1.1988 B( 35-N , 36-C ) :   1.1696 B( 35-N , 80-H ) :   0.9073
B( 36-C , 37-N ) :   0.9260 B( 36-C , 40-C ) :   1.5270 B( 37-N , 38-O ) :   1.4714
B( 37-N , 39-O ) :   1.5454 B( 38-O , 39-O ) :   0.2715 B( 40-C , 81-H ) :   1.0131
B( 41-C , 42-S ) :   1.1094 B( 41-C , 45-C ) :   1.5055 B( 42-S , 43-C ) :   1.0711
B( 43-C , 44-C ) :   1.5080 B( 43-C , 49-C ) :   1.2139 B( 44-C , 45-C ) :   1.2944
B( 44-C , 48-S ) :   1.0527 B( 45-C , 46-S ) :   1.0210 B( 46-S , 47-C ) :   0.9727
B( 47-C , 48-S ) :   0.9805 B( 47-C , 82-H ) :   0.9576 B( 47-C , 83-H ) :   0.9444
B( 49-C , 50-C ) :   1.5908 B( 49-C , 84-H ) :   0.9507 B( 50-C , 51-C ) :   1.2176
B( 50-C , 85-H ) :   0.9428 B( 51-C , 52-C ) :   1.5916 B( 51-C , 86-H ) :   0.9235
B( 52-C , 53-C ) :   1.0590 B( 52-C , 65-C ) :   1.0199 B( 53-C , 54-C ) :   1.6376
B( 53-C , 59-C ) :   0.9957 B( 54-C , 55-C ) :   1.1381 B( 54-C , 57-C ) :   1.1466
B( 55-C , 56-N ) :   2.9720 B( 57-C , 58-N ) :   2.9773 B( 59-C , 60-C ) :   1.3150
B( 59-C , 64-C ) :   1.3793 B( 60-C , 61-C ) :   1.3793 B( 60-C , 65-C ) :   1.0054
B( 61-C , 62-C ) :   1.3684 B( 61-C , 87-H ) :   0.9863 B( 62-C , 63-C ) :   1.3758
B( 62-C , 88-H ) :   0.9867 B( 63-C , 64-C ) :   1.3722 B( 63-C , 89-H ) :   0.9861
B( 64-C , 90-H ) :   0.9833 B( 65-C , 66-C ) :   1.6502 B( 66-C , 67-C ) :   1.1404
B( 66-C , 69-C ) :   1.1534 B( 67-C , 68-N ) :   2.9945 B( 69-C , 70-N ) :   3.0063

-----------------------------------------------------------------------------
         ABSORPTION SPECTRUM VIA TRANSITION ELECTRIC DIPOLE MOMENTS
-----------------------------------------------------------------------------
State   Energy  Wavelength   fosc         T2         TX        TY        TZ
        (cm-1)    (nm)                  (au**2)     (au)      (au)      (au)
-----------------------------------------------------------------------------
   0   12448.4    803.3   1.727916730  45.69681   1.62884   2.75027   5.95649
   1   17317.2    577.5   0.158903449   3.02086  -0.06884   1.39910   1.02890
   2   19589.9    510.5   0.184064318   3.09324  -0.72541  -1.53171   0.46999
   3   20202.9    495.0   0.070778733   1.15336  -0.07569   0.67384   0.83281
   4   20571.7    486.1   0.058879810   0.94226   0.68221  -0.62734   0.28860
   5   20819.9    480.3   0.102088191   1.61425  -0.32791   0.90451   0.82981
   6   22458.7    445.3   0.026247441   0.38475  -0.17836   0.49141  -0.33384
   7   23485.5    425.8   0.281097140   3.94033  -0.03733  -1.98202   0.10257
   8   25243.4    396.1   0.047873775   0.62435   0.39138   0.24281  -0.64203
   9   25999.4    384.6   0.086537446   1.09576  -0.13409   0.66905   0.79382
  10   26137.9    382.6   0.048341941   0.60888   0.41776   0.65900   0.00869
  11   26691.2    374.7   0.010159016   0.12530   0.11335  -0.26588   0.20435
  12   27265.2    366.8   0.003787741   0.04573  -0.13852  -0.11452  -0.11590
  13   27424.5    364.6   0.110190588   1.32276   0.35597  -0.18193  -1.07840
  14   28261.4    353.8   0.063902732   0.74439   0.51886   0.65082   0.22720
  15   28728.6    348.1   0.193590924   2.21843   0.59095   0.86439   1.05926
  16   29472.2    339.3   0.249790480   2.79022  -0.86901   1.42506   0.06517
  17   29945.0    333.9   0.127698859   1.40391   0.39282   0.53733  -0.98024
  18   30078.1    332.5   0.090215490   0.98743   0.22145  -0.65522  -0.71349
  19   30583.4    327.0   0.110697769   1.19160  -0.31886   0.97161   0.38197
  20   31689.6    315.6   0.045925588   0.47710  -0.40596   0.15287   0.53752
  21   31836.9    314.1   0.099733581   1.03130  -0.01247  -0.91427  -0.44188
  22   32054.0    312.0   0.085766728   0.88087   0.50815  -0.76231  -0.20379
  23   32159.1    311.0   0.016591006   0.16984   0.22110   0.31809   0.14062
  24   32573.1    307.0   0.012656674   0.12792   0.00059  -0.33293   0.13067
  25   32982.7    303.2   0.446906700   4.46073  -0.86094   0.55166   1.84802
  26   33195.3    301.2   0.123250979   1.22233   0.89895   0.22031  -0.60471
  27   33281.6    300.5   0.519657409   5.14030   1.43223  -1.68755   0.49111
  28   33655.6    297.1   0.041401921   0.40498   0.30776  -0.44243   0.33842
  29   33873.9    295.2   0.012842308   0.12481   0.25707  -0.21519  -0.11143
  30   34243.3    292.0   0.079516964   0.76447   0.22403  -0.21525  -0.81728
  31   34899.4    286.5   0.160725893   1.51615   0.61661   1.06271   0.08122
  32   35369.1    282.7   0.042463936   0.39525   0.13206   0.11754  -0.60332
  33   35542.3    281.4   0.002284741   0.02116  -0.02369  -0.04626   0.13587
  34   35776.5    279.5   0.316694722   2.91419  -0.12234  -1.46798  -0.86271
  35   36104.8    277.0   0.027182831   0.24786   0.07949  -0.35954  -0.33507
  36   36547.5    273.6   0.147632580   1.32984  -0.06429   0.89711  -0.72173
  37   36868.6    271.2   0.098829987   0.88249  -0.15252   0.91191  -0.16628
  38   37156.6    269.1   0.029029212   0.25720  -0.16433  -0.45076   0.16436
  39   37551.2    266.3   0.141762803   1.24284  -0.08051  -0.91721   0.62856
  40   37652.5    265.6   0.042329435   0.37010  -0.14148   0.32581  -0.49390
  41   37810.0    264.5   0.036886295   0.32117   0.07303   0.49696   0.26243
  42   37959.0    263.4   0.006981093   0.06055  -0.02567  -0.13216  -0.20596
  43   38279.7    261.2   0.198223619   1.70476   0.27360   0.75291   1.03103
  44   38346.0    260.8   0.013714947   0.11775  -0.08114  -0.25420  -0.21575
  45   38573.2    259.2   0.013551981   0.11566   0.14552  -0.11522   0.28497
  46   38770.5    257.9   0.070734638   0.60063   0.05210  -0.28070   0.72050
  47   38919.0    256.9   0.084668343   0.71620  -0.01366   0.81423  -0.23031
  48   39205.5    255.1   0.002553957   0.02145   0.05444   0.13077   0.03715
  49   39377.3    254.0   0.001261085   0.01054   0.01119  -0.07121   0.07312
  50   39592.9    252.6   0.015747745   0.13094  -0.03146   0.29937  -0.20082
  51   39759.9    251.5   0.120945680   1.00143   0.20317  -0.97905   0.04018
  52   40324.8    248.0   0.029048324   0.23715   0.16004   0.41923  -0.18917

FINAL SINGLE POINT ENERGY     -5474.284636145518

DIPOLE MOMENT
-------------
                                X             Y             Z
Electronic contribution:      3.14675       7.95223      -2.08733
Nuclear contribution   :     -3.47609      -9.32293       4.23444
                        -----------------------------------------
Total Dipole Moment    :     -0.32934      -1.37070       2.14711
                        -----------------------------------------
Magnitude (a.u.)       :      2.56854
Magnitude (Debye)      :      6.52870

Rotational constants in cm-1:     0.002191     0.000242     0.000228
Rotational constants in MHz :    65.697168     7.254715     6.827664

                             ****ORCA TERMINATED NORMALLY****
TOTAL RUN TIME: 0 days 0 hours 9 minutes 58 seconds 995 msec
