                         Program Version 4.2.0 -  RELEASE  -
|  1> # ORCA input file
|  2> # SCF done       -192.073452785495          0.000748059180
|  3> ! CAM-B3LYP def2-SVP def2/J RIJCOSX Grid4 TightSCF
|  4> %maxcore 5000
|  5> %tddft
|  6>     Mode sTDDFT
|  7>     Ethresh 5.0
|  8>     maxcore 5000
|  9> end
| 10>
| 11> %pal
| 12>   nprocs 6
| 13>   end
| 14> * xyz 0 1
| 15>    C        1.02193        -1.18368        -1.75246
| 16>    C        1.27162        -0.89100        -0.41967
| 17>    C        0.64303        -1.59360         0.59798
| 18>    C       -0.25008        -2.61548         0.31187
| 19>    C       -0.51096        -2.91284        -1.01488
| 20>    C        0.12273        -2.19396        -2.05370
| 21>    C       -0.35164        -2.70121        -3.33645
| 22>    C        0.12076        -2.33748        -4.56980
| 23>    C        1.14719        -1.39269        -4.77622
| 24>    N        1.97390        -0.63213        -5.01403
| 25>    C       -0.31054        -2.87910        -5.79898
| 26>    N       -0.59988        -3.27560        -6.83708
| 27>    C       -1.41389        -3.65099        -3.04141
| 28>    C       -1.35475        -3.93485        -1.61639
| 29>    C       -1.78434        -5.08002        -0.99869
| 30>    C       -2.25882        -6.21031        -1.69747
| 31>    N       -2.57620        -7.17491        -2.23267
| 32>    C       -1.72265        -5.29886         0.39067
| 33>    N       -1.74071        -5.51340         1.51891
| 34>    C       -2.38733        -4.02148        -3.93436
| 35>    C       -3.65719        -4.54753        -3.65679
| 36>    O       -4.16756        -4.67621        -2.40045
| 37>    C       -5.41741        -5.17332        -2.47880
| 38>    C       -5.76151        -5.32475        -3.81889
| 39>    C       -4.64074        -4.93334        -4.57566
| 40>    O       -4.50935        -4.90638        -5.90087
| 41>    S       -7.26964        -5.85508        -4.57029
| 42>    C       -6.11971        -5.43793        -1.25348
| 43>    C       -7.26355        -6.20390        -1.22489
| 44>    C       -7.91348        -6.45212        -0.00127
| 45>    C       -9.07431        -7.15409         0.29046
| 46>    C       -9.98009        -7.90133        -0.62501
| 47>    C      -10.53226        -7.02626        -1.76577
| 48>    N      -11.81779        -7.55393        -2.17779
| 49>    C       -9.27815        -9.16002        -1.17201
| 50>    N      -10.25212       -10.02703        -1.81418
| 51>    C       -9.25895        -7.06385         1.72136
| 52>    C      -10.23778        -7.53489         2.51441
| 53>    C      -10.22263        -7.31622         3.98836
| 54>    C       -9.02090        -6.57040         4.49515
| 55>    C       -8.06422        -6.08792         3.68234
| 56>    C       -8.14231        -6.29100         2.28323
| 57>    C       -7.33890        -5.91386         1.22883
| 58>    C       -6.14721        -5.15221         1.16673
| 59>    C       -5.56588        -4.91721        -0.03332
| 60>    C      -10.31408        -8.64420         4.68733
| 61>    C      -11.00275        -8.86250         5.81274
| 62>    C      -11.11421       -10.15532         6.42030
| 63>    O      -10.63324       -11.24065         5.76599
| 64>    C      -10.95036       -12.34993         6.48389
| 65>    C      -11.61356       -11.96368         7.65193
| 66>    C      -11.73078       -10.55696         7.59355
| 67>    O      -12.33131        -9.81624         8.55048
| 68>    S      -12.21419       -12.99353         8.90742
| 69>    C      -10.61086       -13.64564         6.06081
| 70>    C      -10.13280       -14.01447         4.82951
| 71>    C       -9.39162       -15.23917         4.56025
| 72>    C       -9.36002       -16.37472         5.32402
| 73>    C      -10.10178       -16.57851         6.50714
| 74>    N      -10.68068       -16.81479         7.46981
| 75>    C       -8.60632       -17.52338         5.00211
| 76>    N       -8.01631       -18.48669         4.79937
| 77>    C       -8.67592       -15.02679         3.30694
| 78>    C       -9.07682       -13.78849         2.75554
| 79>    C       -8.53132       -13.33272         1.56736
| 80>    C       -7.58198       -14.11766         0.93040
| 81>    C       -7.19454       -15.33850         1.46392
| 82>    C       -7.73567       -15.80646         2.65264
| 83>    C      -10.10447       -13.21909         3.61192
| 84>    C      -11.03881       -12.29303         3.22594
| 85>    C      -10.96733       -11.53375         2.04585
| 86>    N      -10.95557       -10.83936         1.13012
| 87>    C      -12.23182       -12.04191         3.93693
| 88>    N      -13.24169       -11.85328         4.44914
| 89>    H        1.51873        -0.62603        -2.52913
| 90>    H        1.96520        -0.10131        -0.17409
| 91>    H        0.84981        -1.34338         1.62742
| 92>    H       -0.73566        -3.15385         1.10989
| 93>    H       -2.23848        -3.81302        -4.98471
| 94>    H       -5.32727        -5.21428        -6.31931
| 95>    H       -8.07544        -5.10070        -3.82237
| 96>    H       -7.64926        -6.65114        -2.12474
| 97>    H      -10.84906        -8.24287        -0.05620
| 98>    H       -9.79736        -6.98619        -2.58661
| 99>    H      -10.68433        -6.00397        -1.39978
|100>    H      -11.69212        -8.52867        -2.44036
|101>    H      -12.17365        -7.04629        -2.98053
|102>    H       -8.75148        -9.64928        -0.33445
|103>    H       -8.52746        -8.87631        -1.91480
|104>    H      -10.88472       -10.38865        -1.10521
|105>    H       -9.78674       -10.81949        -2.24486
|106>    H      -11.06798        -8.10688         2.12316
|107>    H      -11.11938        -6.73396         4.25214
|108>    H       -8.97075        -6.43671         5.56496
|109>    H       -7.22381        -5.54292         4.08694
|110>    H       -5.71369        -4.76286         2.07550
|111>    H       -4.66401        -4.32928        -0.10104
|112>    H       -9.75179        -9.45082         4.24018
|113>    H      -11.54450        -8.05880         6.29424
|114>    H      -12.35341        -8.88861         8.29145
|115>    H      -12.71309       -11.98078         9.61713
|116>    H      -10.68235       -14.39402         6.83771
|117>    H       -8.82285       -12.38214         1.14966
|118>    H       -7.13856       -13.77223         0.00904
|119>    H       -6.45691       -15.93512         0.94961
|120>    H       -7.41934       -16.75584         3.05199
|121> *
|122>
|123>                          ****END OF INPUT****

CARTESIAN COORDINATES (ANGSTROEM)
---------------------------------
  C      1.021930   -1.183680   -1.752460
  C      1.271620   -0.891000   -0.419670
  C      0.643030   -1.593600    0.597980
  C     -0.250080   -2.615480    0.311870
  C     -0.510960   -2.912840   -1.014880
  C      0.122730   -2.193960   -2.053700
  C     -0.351640   -2.701210   -3.336450
  C      0.120760   -2.337480   -4.569800
  C      1.147190   -1.392690   -4.776220
  N      1.973900   -0.632130   -5.014030
  C     -0.310540   -2.879100   -5.798980
  N     -0.599880   -3.275600   -6.837080
  C     -1.413890   -3.650990   -3.041410
  C     -1.354750   -3.934850   -1.616390
  C     -1.784340   -5.080020   -0.998690
  C     -2.258820   -6.210310   -1.697470
  N     -2.576200   -7.174910   -2.232670
  C     -1.722650   -5.298860    0.390670
  N     -1.740710   -5.513400    1.518910
  C     -2.387330   -4.021480   -3.934360
  C     -3.657190   -4.547530   -3.656790
  O     -4.167560   -4.676210   -2.400450
  C     -5.417410   -5.173320   -2.478800
  C     -5.761510   -5.324750   -3.818890
  C     -4.640740   -4.933340   -4.575660
  O     -4.509350   -4.906380   -5.900870
  S     -7.269640   -5.855080   -4.570290
  C     -6.119710   -5.437930   -1.253480
  C     -7.263550   -6.203900   -1.224890
  C     -7.913480   -6.452120   -0.001270
  C     -9.074310   -7.154090    0.290460
  C     -9.980090   -7.901330   -0.625010
  C    -10.532260   -7.026260   -1.765770
  N    -11.817790   -7.553930   -2.177790
  C     -9.278150   -9.160020   -1.172010
  N    -10.252120  -10.027030   -1.814180
  C     -9.258950   -7.063850    1.721360
  C    -10.237780   -7.534890    2.514410
  C    -10.222630   -7.316220    3.988360
  C     -9.020900   -6.570400    4.495150
  C     -8.064220   -6.087920    3.682340
  C     -8.142310   -6.291000    2.283230
  C     -7.338900   -5.913860    1.228830
  C     -6.147210   -5.152210    1.166730
  C     -5.565880   -4.917210   -0.033320
  C    -10.314080   -8.644200    4.687330
  C    -11.002750   -8.862500    5.812740
  C    -11.114210  -10.155320    6.420300
  O    -10.633240  -11.240650    5.765990
  C    -10.950360  -12.349930    6.483890
  C    -11.613560  -11.963680    7.651930
  C    -11.730780  -10.556960    7.593550
  O    -12.331310   -9.816240    8.550480
  S    -12.214190  -12.993530    8.907420
  C    -10.610860  -13.645640    6.060810
  C    -10.132800  -14.014470    4.829510
  C     -9.391620  -15.239170    4.560250
  C     -9.360020  -16.374720    5.324020
  C    -10.101780  -16.578510    6.507140
  N    -10.680680  -16.814790    7.469810
  C     -8.606320  -17.523380    5.002110
  N     -8.016310  -18.486690    4.799370
  C     -8.675920  -15.026790    3.306940
  C     -9.076820  -13.788490    2.755540
  C     -8.531320  -13.332720    1.567360
  C     -7.581980  -14.117660    0.930400
  C     -7.194540  -15.338500    1.463920
  C     -7.735670  -15.806460    2.652640
  C    -10.104470  -13.219090    3.611920
  C    -11.038810  -12.293030    3.225940
  C    -10.967330  -11.533750    2.045850
  N    -10.955570  -10.839360    1.130120
  C    -12.231820  -12.041910    3.936930
  N    -13.241690  -11.853280    4.449140
  H      1.518730   -0.626030   -2.529130
  H      1.965200   -0.101310   -0.174090
  H      0.849810   -1.343380    1.627420
  H     -0.735660   -3.153850    1.109890
  H     -2.238480   -3.813020   -4.984710
  H     -5.327270   -5.214280   -6.319310
  H     -8.075440   -5.100700   -3.822370
  H     -7.649260   -6.651140   -2.124740
  H    -10.849060   -8.242870   -0.056200
  H     -9.797360   -6.986190   -2.586610
  H    -10.684330   -6.003970   -1.399780
  H    -11.692120   -8.528670   -2.440360
  H    -12.173650   -7.046290   -2.980530
  H     -8.751480   -9.649280   -0.334450
  H     -8.527460   -8.876310   -1.914800
  H    -10.884720  -10.388650   -1.105210
  H     -9.786740  -10.819490   -2.244860
  H    -11.067980   -8.106880    2.123160
  H    -11.119380   -6.733960    4.252140
  H     -8.970750   -6.436710    5.564960
  H     -7.223810   -5.542920    4.086940
  H     -5.713690   -4.762860    2.075500
  H     -4.664010   -4.329280   -0.101040
  H     -9.751790   -9.450820    4.240180
  H    -11.544500   -8.058800    6.294240
  H    -12.353410   -8.888610    8.291450
  H    -12.713090  -11.980780    9.617130
  H    -10.682350  -14.394020    6.837710
  H     -8.822850  -12.382140    1.149660
  H     -7.138560  -13.772230    0.009040
  H     -6.456910  -15.935120    0.949610
  H     -7.419340  -16.755840    3.051990

 Total Charge           Charge          ....    0
 Multiplicity           Mult            ....    1
 Number of Electrons    NEL             ....  514
 Basis Dimension        Dim             .... 1204

ORBITAL ENERGIES
----------------

  NO   OCC          E(Eh)            E(eV)
   0   2.0000     -88.965238     -2420.8672
   1   2.0000     -88.963081     -2420.8085
   2   2.0000     -19.316155      -525.6193
   3   2.0000     -19.309992      -525.4516
   4   2.0000     -19.290090      -524.9100
   5   2.0000     -19.285428      -524.7832
   6   2.0000     -14.439189      -392.9103
   7   2.0000     -14.425433      -392.5360
   8   2.0000     -14.422404      -392.4536
   9   2.0000     -14.421871      -392.4391
  10   2.0000     -14.413261      -392.2048
  11   2.0000     -14.411322      -392.1520
  12   2.0000     -14.409140      -392.0926
  13   2.0000     -14.406055      -392.0087
  14   2.0000     -14.379385      -391.2830
  15   2.0000     -14.357131      -390.6774
  16   2.0000     -10.373231      -282.2700
  17   2.0000     -10.371034      -282.2102
  18   2.0000     -10.368879      -282.1515
  19   2.0000     -10.368352      -282.1372
  20   2.0000     -10.362722      -281.9840
  21   2.0000     -10.354563      -281.7620
  22   2.0000     -10.352792      -281.7138
  23   2.0000     -10.352713      -281.7116
  24   2.0000     -10.351382      -281.6754
  25   2.0000     -10.345335      -281.5109
  26   2.0000     -10.343626      -281.4644
  27   2.0000     -10.343158      -281.4516
  28   2.0000     -10.337764      -281.3049
  29   2.0000     -10.337414      -281.2953
  30   2.0000     -10.336803      -281.2787
  31   2.0000     -10.335671      -281.2479
  32   2.0000     -10.334594      -281.2186
  33   2.0000     -10.327217      -281.0179
  34   2.0000     -10.325911      -280.9823
  35   2.0000     -10.324539      -280.9450
  36   2.0000     -10.321735      -280.8687
  37   2.0000     -10.321010      -280.8490
  38   2.0000     -10.320254      -280.8284
  39   2.0000     -10.317537      -280.7544
  40   2.0000     -10.317137      -280.7436
  41   2.0000     -10.316115      -280.7158
  42   2.0000     -10.313850      -280.6541
  43   2.0000     -10.313610      -280.6476
  44   2.0000     -10.312591      -280.6199
  45   2.0000     -10.312514      -280.6178
  46   2.0000     -10.312231      -280.6101
  47   2.0000     -10.310727      -280.5692
  48   2.0000     -10.309915      -280.5470
  49   2.0000     -10.307183      -280.4727
  50   2.0000     -10.304874      -280.4099
  51   2.0000     -10.304797      -280.4078
  52   2.0000     -10.303598      -280.3751
  53   2.0000     -10.303261      -280.3660
  54   2.0000     -10.303251      -280.3657
  55   2.0000     -10.302926      -280.3569
  56   2.0000     -10.299567      -280.2655
  57   2.0000     -10.292551      -280.0745
  58   2.0000     -10.292082      -280.0618
  59   2.0000     -10.291941      -280.0580
  60   2.0000     -10.290646      -280.0227
  61   2.0000     -10.290574      -280.0208
  62   2.0000     -10.283666      -279.8328
  63   2.0000     -10.283609      -279.8312
  64   2.0000     -10.283116      -279.8178
  65   2.0000     -10.281847      -279.7833
  66   2.0000     -10.278708      -279.6979
  67   2.0000     -10.277679      -279.6699
  68   2.0000     -10.277120      -279.6547
  69   2.0000     -10.275701      -279.6160
  70   2.0000     -10.275084      -279.5992
  71   2.0000     -10.273056      -279.5441
  72   2.0000     -10.270435      -279.4727
  73   2.0000     -10.263874      -279.2942
  74   2.0000      -8.060439      -219.3357
  75   2.0000      -8.057280      -219.2497
  76   2.0000      -6.030658      -164.1026
  77   2.0000      -6.027746      -164.0233
  78   2.0000      -6.026418      -163.9872
  79   2.0000      -6.023627      -163.9112
  80   2.0000      -6.020767      -163.8334
  81   2.0000      -6.017313      -163.7394
  82   2.0000      -1.239039       -33.7160
  83   2.0000      -1.233519       -33.5658
  84   2.0000      -1.181910       -32.1614
  85   2.0000      -1.181838       -32.1594
  86   2.0000      -1.041369       -28.3371
  87   2.0000      -1.026864       -27.9424
  88   2.0000      -1.024921       -27.8895
  89   2.0000      -1.014491       -27.6057
  90   2.0000      -1.007458       -27.4143
  91   2.0000      -1.006058       -27.3762
  92   2.0000      -1.001905       -27.2632
  93   2.0000      -0.997418       -27.1411
  94   2.0000      -0.994107       -27.0510
  95   2.0000      -0.988807       -26.9068
  96   2.0000      -0.987897       -26.8820
  97   2.0000      -0.969032       -26.3687
  98   2.0000      -0.967821       -26.3357
  99   2.0000      -0.962916       -26.2023
 100   2.0000      -0.957313       -26.0498
 101   2.0000      -0.951613       -25.8947
 102   2.0000      -0.945420       -25.7262
 103   2.0000      -0.943946       -25.6861
 104   2.0000      -0.937152       -25.5012
 105   2.0000      -0.935611       -25.4593
 106   2.0000      -0.928608       -25.2687
 107   2.0000      -0.924224       -25.1494
 108   2.0000      -0.908277       -24.7155
 109   2.0000      -0.900492       -24.5036
 110   2.0000      -0.894324       -24.3358
 111   2.0000      -0.883457       -24.0401
 112   2.0000      -0.879539       -23.9335
 113   2.0000      -0.871311       -23.7096
 114   2.0000      -0.865562       -23.5532
 115   2.0000      -0.857615       -23.3369
 116   2.0000      -0.857101       -23.3229
 117   2.0000      -0.850379       -23.1400
 118   2.0000      -0.846281       -23.0285
 119   2.0000      -0.836077       -22.7508
 120   2.0000      -0.832527       -22.6542
 121   2.0000      -0.816861       -22.2279
 122   2.0000      -0.796696       -21.6792
 123   2.0000      -0.792805       -21.5733
 124   2.0000      -0.780649       -21.2425
 125   2.0000      -0.775940       -21.1144
 126   2.0000      -0.764556       -20.8046
 127   2.0000      -0.752930       -20.4883
 128   2.0000      -0.740704       -20.1556
 129   2.0000      -0.728417       -19.8212
 130   2.0000      -0.723116       -19.6770
 131   2.0000      -0.721876       -19.6433
 132   2.0000      -0.719209       -19.5707
 133   2.0000      -0.713219       -19.4077
 134   2.0000      -0.710797       -19.3418
 135   2.0000      -0.706366       -19.2212
 136   2.0000      -0.703824       -19.1520
 137   2.0000      -0.702282       -19.1101
 138   2.0000      -0.687864       -18.7177
 139   2.0000      -0.684699       -18.6316
 140   2.0000      -0.676566       -18.4103
 141   2.0000      -0.670804       -18.2535
 142   2.0000      -0.670225       -18.2378
 143   2.0000      -0.665092       -18.0981
 144   2.0000      -0.663362       -18.0510
 145   2.0000      -0.658234       -17.9115
 146   2.0000      -0.654435       -17.8081
 147   2.0000      -0.652100       -17.7445
 148   2.0000      -0.650125       -17.6908
 149   2.0000      -0.629608       -17.1325
 150   2.0000      -0.628501       -17.1024
 151   2.0000      -0.622223       -16.9315
 152   2.0000      -0.607027       -16.5180
 153   2.0000      -0.605072       -16.4648
 154   2.0000      -0.601246       -16.3607
 155   2.0000      -0.595015       -16.1912
 156   2.0000      -0.591048       -16.0832
 157   2.0000      -0.590434       -16.0665
 158   2.0000      -0.584921       -15.9165
 159   2.0000      -0.583580       -15.8800
 160   2.0000      -0.581370       -15.8199
 161   2.0000      -0.576338       -15.6829
 162   2.0000      -0.575905       -15.6712
 163   2.0000      -0.572854       -15.5881
 164   2.0000      -0.564528       -15.3616
 165   2.0000      -0.561061       -15.2672
 166   2.0000      -0.556752       -15.1500
 167   2.0000      -0.552102       -15.0234
 168   2.0000      -0.549433       -14.9508
 169   2.0000      -0.545545       -14.8450
 170   2.0000      -0.543770       -14.7967
 171   2.0000      -0.542103       -14.7514
 172   2.0000      -0.540092       -14.6966
 173   2.0000      -0.537340       -14.6218
 174   2.0000      -0.532084       -14.4787
 175   2.0000      -0.530646       -14.4396
 176   2.0000      -0.527796       -14.3621
 177   2.0000      -0.527207       -14.3460
 178   2.0000      -0.520902       -14.1745
 179   2.0000      -0.520698       -14.1689
 180   2.0000      -0.517986       -14.0951
 181   2.0000      -0.515776       -14.0350
 182   2.0000      -0.514202       -13.9921
 183   2.0000      -0.513688       -13.9782
 184   2.0000      -0.508731       -13.8433
 185   2.0000      -0.508079       -13.8255
 186   2.0000      -0.506603       -13.7854
 187   2.0000      -0.505008       -13.7420
 188   2.0000      -0.503148       -13.6914
 189   2.0000      -0.500431       -13.6174
 190   2.0000      -0.495588       -13.4856
 191   2.0000      -0.494679       -13.4609
 192   2.0000      -0.490286       -13.3414
 193   2.0000      -0.487538       -13.2666
 194   2.0000      -0.478671       -13.0253
 195   2.0000      -0.476462       -12.9652
 196   2.0000      -0.475734       -12.9454
 197   2.0000      -0.474032       -12.8991
 198   2.0000      -0.471447       -12.8287
 199   2.0000      -0.471049       -12.8179
 200   2.0000      -0.465467       -12.6660
 201   2.0000      -0.463920       -12.6239
 202   2.0000      -0.462064       -12.5734
 203   2.0000      -0.458463       -12.4754
 204   2.0000      -0.456929       -12.4337
 205   2.0000      -0.456664       -12.4265
 206   2.0000      -0.455629       -12.3983
 207   2.0000      -0.455074       -12.3832
 208   2.0000      -0.453653       -12.3445
 209   2.0000      -0.451912       -12.2971
 210   2.0000      -0.450651       -12.2628
 211   2.0000      -0.448938       -12.2162
 212   2.0000      -0.448469       -12.2035
 213   2.0000      -0.444951       -12.1077
 214   2.0000      -0.443666       -12.0728
 215   2.0000      -0.443410       -12.0658
 216   2.0000      -0.440384       -11.9835
 217   2.0000      -0.438394       -11.9293
 218   2.0000      -0.437982       -11.9181
 219   2.0000      -0.435971       -11.8634
 220   2.0000      -0.435222       -11.8430
 221   2.0000      -0.434102       -11.8125
 222   2.0000      -0.433004       -11.7826
 223   2.0000      -0.427970       -11.6457
 224   2.0000      -0.424704       -11.5568
 225   2.0000      -0.423684       -11.5290
 226   2.0000      -0.422366       -11.4932
 227   2.0000      -0.420127       -11.4322
 228   2.0000      -0.417720       -11.3668
 229   2.0000      -0.416865       -11.3435
 230   2.0000      -0.416067       -11.3218
 231   2.0000      -0.414799       -11.2873
 232   2.0000      -0.411555       -11.1990
 233   2.0000      -0.407188       -11.0802
 234   2.0000      -0.405879       -11.0445
 235   2.0000      -0.402688       -10.9577
 236   2.0000      -0.399673       -10.8756
 237   2.0000      -0.391713       -10.6591
 238   2.0000      -0.389926       -10.6104
 239   2.0000      -0.385018       -10.4769
 240   2.0000      -0.376419       -10.2429
 241   2.0000      -0.375022       -10.2049
 242   2.0000      -0.371479       -10.1085
 243   2.0000      -0.367745       -10.0069
 244   2.0000      -0.346716        -9.4346
 245   2.0000      -0.339022        -9.2253
 246   2.0000      -0.332238        -9.0406
 247   2.0000      -0.324849        -8.8396
 248   2.0000      -0.319510        -8.6943
 249   2.0000      -0.319443        -8.6925
 250   2.0000      -0.312901        -8.5145
 251   2.0000      -0.307326        -8.3628
 252   2.0000      -0.303654        -8.2628
 253   2.0000      -0.284456        -7.7405
 254   2.0000      -0.275546        -7.4980
 255   2.0000      -0.266916        -7.2632
 256   2.0000      -0.232127        -6.3165
 257   0.0000      -0.106916        -2.9093
 258   0.0000      -0.094347        -2.5673
 259   0.0000      -0.092327        -2.5123
 260   0.0000      -0.077492        -2.1087
 261   0.0000      -0.070029        -1.9056

MULLIKEN ATOMIC CHARGES
-----------------------
   0 C :   -0.033880
   1 C :    0.042914
   2 C :    0.046334
   3 C :   -0.038401
   4 C :    0.014721
   5 C :    0.008531
   6 C :    0.294942
   7 C :   -0.348748
   8 C :   -0.190641
   9 N :    0.150417
  10 C :   -0.191023
  11 N :    0.157432
  12 C :   -0.060427
  13 C :    0.228271
  14 C :   -0.327224
  15 C :   -0.197754
  16 N :    0.164273
  17 C :   -0.184067
  18 N :    0.145761
  19 C :    0.013577
  20 C :    0.066666
  21 O :   -0.222544
  22 C :    0.178992
  23 C :   -0.150231
  24 C :    0.132193
  25 O :   -0.138578
  26 S :    0.029479
  27 C :    0.048343
  28 C :   -0.084790
  29 C :    0.028345
  30 C :   -0.010112
  31 C :   -0.062438
  32 C :    0.154357
  33 N :   -0.219450
  34 C :    0.148673
  35 N :   -0.220255
  36 C :    0.096798
  37 C :   -0.144215
  38 C :    0.138065
  39 C :   -0.032025
  40 C :    0.029959
  41 C :    0.009911
  42 C :    0.034051
  43 C :    0.008022
  44 C :   -0.003636
  45 C :   -0.049801
  46 C :   -0.023152
  47 C :    0.146575
  48 O :   -0.232139
  49 C :    0.062843
  50 C :   -0.038337
  51 C :    0.091049
  52 O :   -0.183610
  53 S :    0.106973
  54 C :    0.011830
  55 C :   -0.063733
  56 C :    0.293739
  57 C :   -0.342465
  58 C :   -0.183638
  59 N :    0.157254
  60 C :   -0.187447
  61 N :    0.160039
  62 C :    0.010194
  63 C :    0.011109
  64 C :   -0.035254
  65 C :    0.051979
  66 C :    0.043615
  67 C :   -0.029553
  68 C :    0.237418
  69 C :   -0.334651
  70 C :   -0.157769
  71 N :    0.143120
  72 C :   -0.208480
  73 N :    0.175107
  74 H :    0.003900
  75 H :    0.000683
  76 H :   -0.000710
  77 H :    0.000430
  78 H :    0.022440
  79 H :    0.197417
  80 H :    0.088071
  81 H :   -0.035315
  82 H :   -0.013799
  83 H :   -0.039089
  84 H :   -0.008010
  85 H :    0.083809
  86 H :    0.077800
  87 H :   -0.012048
  88 H :   -0.006853
  89 H :    0.103105
  90 H :    0.090454
  91 H :    0.012561
  92 H :    0.039545
  93 H :   -0.016086
  94 H :   -0.029678
  95 H :   -0.026472
  96 H :   -0.010293
  97 H :    0.031542
  98 H :   -0.019082
  99 H :    0.194886
 100 H :    0.092208
 101 H :    0.019164
 102 H :   -0.002212
 103 H :    0.003916
 104 H :    0.007706
 105 H :    0.006607
Sum of atomic charges:   -0.0000000

LOEWDIN ATOMIC CHARGES
----------------------
   0 C :    0.003569
   1 C :   -0.003296
   2 C :    0.000286
   3 C :   -0.003369
   4 C :   -0.008760
   5 C :   -0.013838
   6 C :    0.079762
   7 C :   -0.143348
   8 C :   -0.018935
   9 N :   -0.056124
  10 C :   -0.023593
  11 N :   -0.048952
  12 C :   -0.076265
  13 C :    0.068913
  14 C :   -0.137140
  15 C :   -0.024688
  16 N :   -0.060339
  17 C :   -0.019658
  18 N :   -0.059796
  19 C :    0.051035
  20 C :   -0.026792
  21 O :    0.027945
  22 C :    0.083908
  23 C :   -0.256677
  24 C :    0.053079
  25 O :   -0.009548
  26 S :    0.237719
  27 C :   -0.055523
  28 C :    0.011771
  29 C :   -0.028682
  30 C :   -0.000848
  31 C :   -0.041014
  32 C :    0.029747
  33 N :   -0.128202
  34 C :    0.030646
  35 N :   -0.105645
  36 C :   -0.016119
  37 C :    0.074672
  38 C :   -0.030316
  39 C :   -0.038250
  40 C :   -0.009542
  41 C :   -0.042650
  42 C :   -0.024300
  43 C :    0.000779
  44 C :   -0.022564
  45 C :    0.030952
  46 C :   -0.060217
  47 C :    0.026380
  48 O :    0.014762
  49 C :   -0.010714
  50 C :   -0.164635
  51 C :   -0.008101
  52 O :   -0.044238
  53 S :    0.294805
  54 C :    0.044102
  55 C :   -0.064876
  56 C :    0.077615
  57 C :   -0.134441
  58 C :   -0.022312
  59 N :   -0.043360
  60 C :   -0.019569
  61 N :   -0.046075
  62 C :   -0.011581
  63 C :   -0.010730
  64 C :   -0.003550
  65 C :    0.004047
  66 C :    0.003064
  67 C :    0.006652
  68 C :    0.077152
  69 C :   -0.140778
  70 C :    0.004071
  71 N :   -0.060371
  72 C :   -0.025808
  73 N :   -0.053124
  74 H :    0.040787
  75 H :    0.035932
  76 H :    0.035365
  77 H :    0.038900
  78 H :    0.056653
  79 H :    0.098476
  80 H :   -0.009862
  81 H :    0.013235
  82 H :    0.027748
  83 H :   -0.009703
  84 H :    0.013218
  85 H :    0.036493
  86 H :    0.048071
  87 H :   -0.002541
  88 H :    0.014113
  89 H :    0.046796
  90 H :    0.054659
  91 H :    0.036085
  92 H :    0.059540
  93 H :    0.022762
  94 H :    0.032797
  95 H :    0.032228
  96 H :    0.028875
  97 H :    0.034644
  98 H :    0.028718
  99 H :    0.103289
 100 H :   -0.003212
 101 H :    0.051289
 102 H :    0.037844
 103 H :    0.037581
 104 H :    0.038891
 105 H :    0.042148

  Mayer bond orders larger than 0.100000
B(  0-C ,  1-C ) :   1.3678 B(  0-C ,  5-C ) :   1.3864 B(  0-C , 74-H ) :   0.9840
B(  1-C ,  2-C ) :   1.3795 B(  1-C , 75-H ) :   0.9866 B(  2-C ,  3-C ) :   1.3629
B(  2-C , 76-H ) :   0.9871 B(  3-C ,  4-C ) :   1.3866 B(  3-C , 77-H ) :   0.9863
B(  4-C ,  5-C ) :   1.3142 B(  4-C , 13-C ) :   1.0127 B(  5-C ,  6-C ) :   0.9989
B(  6-C ,  7-C ) :   1.6238 B(  6-C , 12-C ) :   1.0758 B(  7-C ,  8-C ) :   1.1499
B(  7-C , 10-C ) :   1.1373 B(  8-C ,  9-N ) :   2.9743 B( 10-C , 11-N ) :   2.9785
B( 12-C , 13-C ) :   1.0416 B( 12-C , 19-C ) :   1.4735 B( 13-C , 14-C ) :   1.6422
B( 14-C , 15-C ) :   1.1535 B( 14-C , 17-C ) :   1.1469 B( 15-C , 16-N ) :   3.0138
B( 17-C , 18-N ) :   2.9788 B( 19-C , 20-C ) :   1.2755 B( 19-C , 78-H ) :   0.9295
B( 20-C , 21-O ) :   1.0515 B( 20-C , 22-C ) :   0.1041 B( 20-C , 24-C ) :   1.3253
B( 21-O , 22-C ) :   1.1846 B( 22-C , 23-C ) :   1.4532 B( 22-C , 27-C ) :   1.0794
B( 23-C , 24-C ) :   1.2749 B( 23-C , 26-S ) :   1.0093 B( 24-C , 25-O ) :   1.3258
B( 25-O , 79-H ) :   0.9326 B( 26-S , 80-H ) :   0.9437 B( 27-C , 28-C ) :   1.5031
B( 27-C , 44-C ) :   1.1058 B( 28-C , 29-C ) :   1.1644 B( 28-C , 81-H ) :   0.9809
B( 29-C , 30-C ) :   1.4568 B( 29-C , 42-C ) :   1.1093 B( 30-C , 31-C ) :   1.0324
B( 30-C , 36-C ) :   1.1150 B( 31-C , 32-C ) :   1.0231 B( 31-C , 34-C ) :   1.0434
B( 31-C , 82-H ) :   0.8794 B( 32-C , 33-N ) :   1.1172 B( 32-C , 83-H ) :   0.9169
B( 32-C , 84-H ) :   0.9479 B( 33-N , 85-H ) :   0.9403 B( 33-N , 86-H ) :   0.9663
B( 34-C , 35-N ) :   1.1002 B( 34-C , 87-H ) :   0.9366 B( 34-C , 88-H ) :   0.9334
B( 35-N , 85-H ) :   0.1035 B( 35-N , 89-H ) :   0.9544 B( 35-N , 90-H ) :   0.9649
B( 36-C , 37-C ) :   1.6653 B( 36-C , 41-C ) :   1.0431 B( 37-C , 38-C ) :   0.9493
B( 37-C , 91-H ) :   0.9766 B( 38-C , 39-C ) :   0.9848 B( 38-C , 45-C ) :   0.9511
B( 38-C , 92-H ) :   0.8664 B( 39-C , 40-C ) :   1.7235 B( 39-C , 93-H ) :   0.9691
B( 40-C , 41-C ) :   1.1302 B( 40-C , 94-H ) :   0.9877 B( 41-C , 42-C ) :   1.4497
B( 42-C , 43-C ) :   1.1321 B( 43-C , 44-C ) :   1.6090 B( 43-C , 95-H ) :   0.9953
B( 44-C , 96-H ) :   0.9888 B( 45-C , 46-C ) :   1.7845 B( 45-C , 97-H ) :   0.9784
B( 46-C , 47-C ) :   1.1027 B( 46-C , 98-H ) :   0.9574 B( 47-C , 48-O ) :   1.1163
B( 47-C , 51-C ) :   1.3749 B( 48-O , 49-C ) :   1.0871 B( 49-C , 50-C ) :   1.3828
B( 49-C , 54-C ) :   1.2671 B( 50-C , 51-C ) :   1.2999 B( 50-C , 53-S ) :   1.1072
B( 51-C , 52-O ) :   1.2329 B( 52-O , 99-H ) :   0.9538 B( 53-S ,100-H ) :   0.9429
B( 54-C , 55-C ) :   1.5311 B( 54-C ,101-H ) :   0.9235 B( 55-C , 56-C ) :   1.0645
B( 55-C , 68-C ) :   1.0381 B( 56-C , 57-C ) :   1.6360 B( 56-C , 62-C ) :   0.9989
B( 57-C , 58-C ) :   1.1361 B( 57-C , 60-C ) :   1.1476 B( 58-C , 59-N ) :   2.9723
B( 60-C , 61-N ) :   2.9760 B( 62-C , 63-C ) :   1.3108 B( 62-C , 67-C ) :   1.3870
B( 63-C , 64-C ) :   1.3835 B( 63-C , 68-C ) :   1.0169 B( 64-C , 65-C ) :   1.3634
B( 64-C ,102-H ) :   0.9875 B( 65-C , 66-C ) :   1.3801 B( 65-C ,103-H ) :   0.9871
B( 66-C , 67-C ) :   1.3677 B( 66-C ,104-H ) :   0.9861 B( 67-C ,105-H ) :   0.9845
B( 68-C , 69-C ) :   1.6281 B( 69-C , 70-C ) :   1.1616 B( 69-C , 72-C ) :   1.1529
B( 70-C , 71-N ) :   2.9258 B( 72-C , 73-N ) :   3.0155

-----------------------------------------------------------------------------
         ABSORPTION SPECTRUM VIA TRANSITION ELECTRIC DIPOLE MOMENTS
-----------------------------------------------------------------------------
State   Energy  Wavelength   fosc         T2         TX        TY        TZ
        (cm-1)    (nm)                  (au**2)     (au)      (au)      (au)
-----------------------------------------------------------------------------
   0   13228.3    756.0   0.157013042   3.90757   1.56816   1.20310  -0.03163
   1   14239.3    702.3   0.024564912   0.56794   0.38897  -0.58247   0.27815
   2   17883.3    559.2   0.348625331   6.41781   2.13282   1.24467  -0.56539
   3   18646.2    536.3   0.138113111   2.43848   0.52639  -1.29472  -0.69648
   4   18727.2    534.0   0.180428446   3.17181   0.57995  -0.65613  -1.55079
   5   20339.4    491.7   0.367345334   5.94583   1.76388   1.10982  -1.26603
   6   21172.1    472.3   0.173748335   2.70167   1.52790   0.47141   0.38073
   7   22115.7    452.2   0.269974997   4.01881   0.76914  -1.85115   0.02140
   8   24441.8    409.1   0.099651348   1.34223  -0.73861  -0.56933   0.68742
   9   24497.6    408.2   0.128604473   1.72826  -0.52355  -0.66415   1.00651
  10   25747.6    388.4   0.004093450   0.05234   0.10381  -0.03782   0.20033
  11   25800.6    387.6   0.009316278   0.11887   0.05642   0.31809  -0.12045
  12   26733.1    374.1   0.308197620   3.79539   0.61063   0.90004  -1.61631
  13   27029.4    370.0   0.014228629   0.17330   0.20620   0.16546  -0.32156
  14   27259.3    366.8   0.021975314   0.26540   0.02216  -0.37955   0.34763
  15   27612.1    362.2   0.179310273   2.13787  -0.90123   0.76984   0.85616
  16   28360.9    352.6   0.139680500   1.62140   1.03266   0.74496   0.00685
  17   29176.1    342.7   0.003664296   0.04135  -0.07901   0.02612   0.18553
  18   29418.7    339.9   0.009044956   0.10122  -0.12856  -0.03255   0.28919
  19   29473.9    339.3   0.008149011   0.09102   0.15397  -0.18519   0.18172
  20   30075.3    332.5   0.203783430   2.23067   0.71644   0.43674  -1.23557
  21   30142.4    331.8   0.035318638   0.38575   0.06493   0.42514  -0.44810
  22   30926.3    323.3   0.257361730   2.73963  -0.36293   1.17267  -1.11029
  23   30975.6    322.8   0.138307743   1.46995   0.18838   0.36032   1.14221
  24   31545.2    317.0   0.400334889   4.17798  -0.91431  -1.19213   1.38595
  25   31746.3    315.0   0.015706744   0.16288  -0.04983   0.37295   0.14596
  26   32554.8    307.2   0.133546598   1.35049   0.12613   0.19329  -1.13896
  27   32808.1    304.8   0.499546872   5.01269  -0.95354   1.88252  -0.74805
  28   32967.7    303.3   0.008147935   0.08136  -0.19430   0.15604   0.13879
  29   33342.7    299.9   0.010401897   0.10270   0.16388   0.11053  -0.25225
  30   33741.8    296.4   0.538260238   5.25170  -1.27362  -1.40909   1.28221
  31   33785.9    296.0   0.004570773   0.04454  -0.12503   0.13127  -0.10805
  32   34137.7    292.9   0.002973306   0.02867  -0.06303  -0.01678  -0.15626
  33   34451.4    290.3   0.091870178   0.87790   0.58356   0.25884   0.68582
  34   34706.9    288.1   0.275384126   2.61215   1.24072   0.50163  -0.90616
  35   35174.9    284.3   0.289197736   2.70668   0.12525  -0.34774  -1.60314
  36   35731.7    279.9   0.135266124   1.24627  -0.02196  -0.24514  -1.08889
  37   35978.5    277.9   0.010905328   0.09979  -0.05286  -0.04149  -0.30866
  38   36257.1    275.8   0.006207620   0.05636   0.00127  -0.12307  -0.20302
  39   36410.4    274.6   0.016383181   0.14813  -0.00727   0.15938  -0.35025
  40   36657.3    272.8   0.005692234   0.05112   0.21975  -0.00267   0.05314
  41   36791.8    271.8   0.133571685   1.19520   0.34201   0.01965  -1.03819
  42   36999.3    270.3   0.087269955   0.77651   0.45243   0.44579  -0.61081
  43   37314.5    268.0   0.004693848   0.04141   0.05037  -0.01663  -0.19646
  44   37451.3    267.0   0.106546563   0.93659   0.29065  -0.91722  -0.10403
  45   37812.3    264.5   0.041012987   0.35708   0.08534   0.19435   0.55859
  46   38090.5    262.5   0.005441156   0.04703  -0.00268   0.02743   0.21510
  47   38101.9    262.5   0.022408248   0.19361   0.07491  -0.00930  -0.43349
  48   38240.7    261.5   0.263971545   2.27251  -0.38133   0.17354   1.44810
  49   39194.5    255.1   0.019766239   0.16603  -0.07637  -0.25301  -0.31013
  50   39463.3    253.4   0.082687599   0.68980   0.10549  -0.14228  -0.81144
  51   39760.8    251.5   0.046416727   0.38432  -0.18514  -0.42761   0.40890
  52   40112.2    249.3   0.117243370   0.96225   0.70395   0.49307   0.47285

FINAL SINGLE POINT ENERGY     -3869.828945693928

DIPOLE MOMENT
-------------
                                X             Y             Z
Electronic contribution:     22.76215     -12.20472       9.30588
Nuclear contribution   :    -25.45155      13.90992      -6.92559
                        -----------------------------------------
Total Dipole Moment    :     -2.68940       1.70520       2.38029
                        -----------------------------------------
Magnitude (a.u.)       :      3.97572
Magnitude (Debye)      :     10.10548

Rotational constants in cm-1:     0.001644     0.000331     0.000329
Rotational constants in MHz :    49.286619     9.925449     9.853516

                             ****ORCA TERMINATED NORMALLY****
TOTAL RUN TIME: 0 days 0 hours 12 minutes 47 seconds 316 msec
