                         Program Version 4.2.0 -  RELEASE  -
|  1> # ORCA input file
|  2> # SCF done       -173.468497165138          0.000940667603
|  3> ! CAM-B3LYP def2-SVP def2/J RIJCOSX Grid4 TightSCF
|  4> %maxcore 5000
|  5> %tddft
|  6>     Mode sTDDFT
|  7>     Ethresh 5.0
|  8>     maxcore 5000
|  9> end
| 10>
| 11> %pal
| 12>   nprocs 6
| 13>   end
| 14> * xyz 0 1
| 15>    C       -2.02989         2.65952        -5.36978
| 16>    C       -0.86999         3.22557        -4.86108
| 17>    C       -0.34020         2.80763        -3.64879
| 18>    C       -0.95835         1.81265        -2.90605
| 19>    C       -2.11428         1.23735        -3.40613
| 20>    C       -2.65358         1.65821        -4.64297
| 21>    C       -3.85414         0.87907        -4.92212
| 22>    C       -4.74036         1.10646        -5.94165
| 23>    C       -4.59495         2.12905        -6.90227
| 24>    N       -4.53682         2.93775        -7.71506
| 25>    C       -5.94577         0.40119        -6.13974
| 26>    N       -6.95029        -0.11740        -6.34200
| 27>    C       -3.92290        -0.16078        -3.90408
| 28>    C       -2.98012         0.20509        -2.85798
| 29>    C       -3.07017        -0.14740        -1.53698
| 30>    C       -4.12078        -0.92618        -1.01014
| 31>    N       -4.98559        -1.50792        -0.52896
| 32>    C       -2.18339         0.30695        -0.54066
| 33>    N       -1.47799         0.63390         0.30401
| 34>    C       -4.65428        -1.31264        -4.02220
| 35>    C       -4.45560        -2.54281        -3.36350
| 36>    N       -5.39919        -3.53162        -3.44645
| 37>    C       -4.95233        -4.66347        -2.85542
| 38>    C       -3.66165        -4.40239        -2.37835
| 39>    C       -3.35049        -3.09556        -2.69787
| 40>    C       -5.69668        -5.87400        -2.69583
| 41>    S       -5.45835        -6.70667        -1.19717
| 42>    C       -6.62185        -7.92355        -1.57289
| 43>    C       -7.22779        -7.65515        -2.80452
| 44>    C       -6.65012        -6.52726        -3.48469
| 45>    C       -7.05952        -6.28988        -4.82989
| 46>    C       -6.33146        -5.38709        -5.77899
| 47>    F       -5.01222        -5.29766        -5.54216
| 48>    F       -6.44337        -5.80370        -7.04827
| 49>    F       -6.79947        -4.11517        -5.77962
| 50>    C       -8.13029        -6.98143        -5.33770
| 51>    C       -8.83646        -7.92393        -4.58241
| 52>    C       -8.39304        -8.29339        -3.33443
| 53>    O       -8.99382        -9.20007        -2.54271
| 54>    C      -10.19383        -9.81028        -2.96845
| 55>    C       -6.76049        -9.03487        -0.68848
| 56>    C       -6.97269       -10.30313        -1.10547
| 57>    C       -7.15020       -11.42712        -0.25717
| 58>    N       -7.25882       -12.68277        -0.75874
| 59>    C       -7.52042       -13.58363         0.23622
| 60>    C       -7.53639       -12.85392         1.43862
| 61>    C       -7.29380       -11.52979         1.13545
| 62>    C       -7.58621       -14.96371        -0.03562
| 63>    C       -8.09018       -15.95649         0.76465
| 64>    C       -7.72353       -17.36154         0.68145
| 65>    C       -7.07541       -17.99483        -0.34815
| 66>    C       -6.68894       -17.38625        -1.55893
| 67>    N       -6.35732       -16.94588        -2.56726
| 68>    C       -6.74102       -19.36504        -0.35221
| 69>    N       -6.43720       -20.46970        -0.42481
| 70>    C       -8.16871       -17.98499         1.92217
| 71>    C       -8.90689       -17.03964         2.67073
| 72>    C       -9.43081       -17.37125         3.90867
| 73>    C       -9.21520       -18.65170         4.39678
| 74>    C       -8.50042       -19.58457         3.65953
| 75>    C       -7.97171       -19.26388         2.41759
| 76>    C       -8.99334       -15.81243         1.89507
| 77>    C       -9.95191       -14.84158         2.03331
| 78>    C      -10.86362       -14.78720         3.10630
| 79>    N      -11.61414       -14.68962         3.96944
| 80>    C      -10.20492       -13.85490         1.05904
| 81>    N      -10.49388       -13.07450         0.26767
| 82>    H       -2.42405         2.99442        -6.31511
| 83>    H       -0.37220         4.00183        -5.42197
| 84>    H        0.56659         3.25986        -3.27716
| 85>    H       -0.53524         1.49063        -1.96814
| 86>    H       -5.42627        -1.33586        -4.78128
| 87>    H       -6.32220        -3.38449        -3.82157
| 88>    H       -3.03015        -5.11251        -1.88278
| 89>    H       -2.41299        -2.60833        -2.51721
| 90>    H       -8.44767        -6.79641        -6.35219
| 91>    H       -9.71230        -8.37438        -5.01724
| 92>    H      -10.04420       -10.39431        -3.88132
| 93>    H      -10.98114        -9.06997        -3.13329
| 94>    H      -10.48275       -10.47421        -2.15512
| 95>    H       -6.59181        -8.83635         0.36060
| 96>    H       -7.01471       -10.50639        -2.16625
| 97>    H       -7.22816       -12.91577        -1.73879
| 98>    H       -7.66879       -13.26635         2.41978
| 99>    H       -7.23740       -10.71871         1.83280
|100>    H       -7.10599       -15.26310        -0.95817
|101>    H       -9.98393       -16.65232         4.49135
|102>    H       -9.60985       -18.92314         5.36388
|103>    H       -8.34850       -20.57649         4.05681
|104>    H       -7.41693       -20.00128         1.86125
|105> *
|106>
|107>                          ****END OF INPUT****

CARTESIAN COORDINATES (ANGSTROEM)
---------------------------------
  C     -2.029890    2.659520   -5.369780
  C     -0.869990    3.225570   -4.861080
  C     -0.340200    2.807630   -3.648790
  C     -0.958350    1.812650   -2.906050
  C     -2.114280    1.237350   -3.406130
  C     -2.653580    1.658210   -4.642970
  C     -3.854140    0.879070   -4.922120
  C     -4.740360    1.106460   -5.941650
  C     -4.594950    2.129050   -6.902270
  N     -4.536820    2.937750   -7.715060
  C     -5.945770    0.401190   -6.139740
  N     -6.950290   -0.117400   -6.342000
  C     -3.922900   -0.160780   -3.904080
  C     -2.980120    0.205090   -2.857980
  C     -3.070170   -0.147400   -1.536980
  C     -4.120780   -0.926180   -1.010140
  N     -4.985590   -1.507920   -0.528960
  C     -2.183390    0.306950   -0.540660
  N     -1.477990    0.633900    0.304010
  C     -4.654280   -1.312640   -4.022200
  C     -4.455600   -2.542810   -3.363500
  N     -5.399190   -3.531620   -3.446450
  C     -4.952330   -4.663470   -2.855420
  C     -3.661650   -4.402390   -2.378350
  C     -3.350490   -3.095560   -2.697870
  C     -5.696680   -5.874000   -2.695830
  S     -5.458350   -6.706670   -1.197170
  C     -6.621850   -7.923550   -1.572890
  C     -7.227790   -7.655150   -2.804520
  C     -6.650120   -6.527260   -3.484690
  C     -7.059520   -6.289880   -4.829890
  C     -6.331460   -5.387090   -5.778990
  F     -5.012220   -5.297660   -5.542160
  F     -6.443370   -5.803700   -7.048270
  F     -6.799470   -4.115170   -5.779620
  C     -8.130290   -6.981430   -5.337700
  C     -8.836460   -7.923930   -4.582410
  C     -8.393040   -8.293390   -3.334430
  O     -8.993820   -9.200070   -2.542710
  C    -10.193830   -9.810280   -2.968450
  C     -6.760490   -9.034870   -0.688480
  C     -6.972690  -10.303130   -1.105470
  C     -7.150200  -11.427120   -0.257170
  N     -7.258820  -12.682770   -0.758740
  C     -7.520420  -13.583630    0.236220
  C     -7.536390  -12.853920    1.438620
  C     -7.293800  -11.529790    1.135450
  C     -7.586210  -14.963710   -0.035620
  C     -8.090180  -15.956490    0.764650
  C     -7.723530  -17.361540    0.681450
  C     -7.075410  -17.994830   -0.348150
  C     -6.688940  -17.386250   -1.558930
  N     -6.357320  -16.945880   -2.567260
  C     -6.741020  -19.365040   -0.352210
  N     -6.437200  -20.469700   -0.424810
  C     -8.168710  -17.984990    1.922170
  C     -8.906890  -17.039640    2.670730
  C     -9.430810  -17.371250    3.908670
  C     -9.215200  -18.651700    4.396780
  C     -8.500420  -19.584570    3.659530
  C     -7.971710  -19.263880    2.417590
  C     -8.993340  -15.812430    1.895070
  C     -9.951910  -14.841580    2.033310
  C    -10.863620  -14.787200    3.106300
  N    -11.614140  -14.689620    3.969440
  C    -10.204920  -13.854900    1.059040
  N    -10.493880  -13.074500    0.267670
  H     -2.424050    2.994420   -6.315110
  H     -0.372200    4.001830   -5.421970
  H      0.566590    3.259860   -3.277160
  H     -0.535240    1.490630   -1.968140
  H     -5.426270   -1.335860   -4.781280
  H     -6.322200   -3.384490   -3.821570
  H     -3.030150   -5.112510   -1.882780
  H     -2.412990   -2.608330   -2.517210
  H     -8.447670   -6.796410   -6.352190
  H     -9.712300   -8.374380   -5.017240
  H    -10.044200  -10.394310   -3.881320
  H    -10.981140   -9.069970   -3.133290
  H    -10.482750  -10.474210   -2.155120
  H     -6.591810   -8.836350    0.360600
  H     -7.014710  -10.506390   -2.166250
  H     -7.228160  -12.915770   -1.738790
  H     -7.668790  -13.266350    2.419780
  H     -7.237400  -10.718710    1.832800
  H     -7.105990  -15.263100   -0.958170
  H     -9.983930  -16.652320    4.491350
  H     -9.609850  -18.923140    5.363880
  H     -8.348500  -20.576490    4.056810
  H     -7.416930  -20.001280    1.861250

 Total Charge           Charge          ....    0
 Multiplicity           Mult            ....    1
 Number of Electrons    NEL             ....  456
 Basis Dimension        Dim             .... 1057

ORBITAL ENERGIES
----------------

  NO   OCC          E(Eh)            E(eV)
   0   2.0000     -88.986982     -2421.4589
   1   2.0000     -24.808748      -675.0803
   2   2.0000     -24.807020      -675.0333
   3   2.0000     -24.804912      -674.9760
   4   2.0000     -19.275539      -524.5141
   5   2.0000     -14.493300      -394.3828
   6   2.0000     -14.480562      -394.0361
   7   2.0000     -14.427096      -392.5812
   8   2.0000     -14.426131      -392.5550
   9   2.0000     -14.423629      -392.4869
  10   2.0000     -14.420763      -392.4089
  11   2.0000     -14.417689      -392.3253
  12   2.0000     -14.417193      -392.3118
  13   2.0000     -14.415568      -392.2675
  14   2.0000     -14.413804      -392.2196
  15   2.0000     -10.526055      -286.4285
  16   2.0000     -10.368398      -282.1384
  17   2.0000     -10.352395      -281.7030
  18   2.0000     -10.350873      -281.6616
  19   2.0000     -10.350280      -281.6454
  20   2.0000     -10.349934      -281.6360
  21   2.0000     -10.345020      -281.5023
  22   2.0000     -10.343213      -281.4531
  23   2.0000     -10.342607      -281.4366
  24   2.0000     -10.342082      -281.4224
  25   2.0000     -10.341612      -281.4096
  26   2.0000     -10.339585      -281.3544
  27   2.0000     -10.337263      -281.2912
  28   2.0000     -10.332933      -281.1734
  29   2.0000     -10.332481      -281.1611
  30   2.0000     -10.330066      -281.0954
  31   2.0000     -10.329798      -281.0881
  32   2.0000     -10.328905      -281.0638
  33   2.0000     -10.328546      -281.0540
  34   2.0000     -10.326213      -280.9905
  35   2.0000     -10.324183      -280.9353
  36   2.0000     -10.323837      -280.9259
  37   2.0000     -10.322054      -280.8774
  38   2.0000     -10.320219      -280.8274
  39   2.0000     -10.319899      -280.8187
  40   2.0000     -10.318102      -280.7698
  41   2.0000     -10.318033      -280.7679
  42   2.0000     -10.317357      -280.7496
  43   2.0000     -10.317001      -280.7399
  44   2.0000     -10.315333      -280.6945
  45   2.0000     -10.315003      -280.6855
  46   2.0000     -10.309859      -280.5455
  47   2.0000     -10.308508      -280.5088
  48   2.0000     -10.308207      -280.5006
  49   2.0000     -10.308200      -280.5004
  50   2.0000     -10.307511      -280.4816
  51   2.0000     -10.306444      -280.4526
  52   2.0000     -10.305840      -280.4362
  53   2.0000     -10.305602      -280.4297
  54   2.0000     -10.303915      -280.3838
  55   2.0000     -10.303221      -280.3649
  56   2.0000     -10.302410      -280.3428
  57   2.0000     -10.301519      -280.3186
  58   2.0000     -10.297433      -280.2074
  59   2.0000     -10.296816      -280.1906
  60   2.0000     -10.296427      -280.1800
  61   2.0000     -10.296214      -280.1742
  62   2.0000     -10.295333      -280.1503
  63   2.0000     -10.289461      -279.9905
  64   2.0000     -10.288329      -279.9597
  65   2.0000     -10.286557      -279.9114
  66   2.0000     -10.279243      -279.7124
  67   2.0000      -8.082355      -219.9321
  68   2.0000      -6.051324      -164.6649
  69   2.0000      -6.047059      -164.5488
  70   2.0000      -6.045224      -164.4989
  71   2.0000      -1.396864       -38.0106
  72   2.0000      -1.298768       -35.3413
  73   2.0000      -1.297558       -35.3083
  74   2.0000      -1.182370       -32.1739
  75   2.0000      -1.113162       -30.2907
  76   2.0000      -1.103720       -30.0338
  77   2.0000      -1.038626       -28.2624
  78   2.0000      -1.030950       -28.0536
  79   2.0000      -1.021556       -27.7980
  80   2.0000      -1.019316       -27.7370
  81   2.0000      -1.013188       -27.5703
  82   2.0000      -1.011061       -27.5124
  83   2.0000      -1.002927       -27.2910
  84   2.0000      -1.002831       -27.2884
  85   2.0000      -1.001921       -27.2637
  86   2.0000      -0.994651       -27.0658
  87   2.0000      -0.994095       -27.0507
  88   2.0000      -0.962995       -26.2044
  89   2.0000      -0.960543       -26.1377
  90   2.0000      -0.955501       -26.0005
  91   2.0000      -0.942750       -25.6535
  92   2.0000      -0.935077       -25.4447
  93   2.0000      -0.933028       -25.3890
  94   2.0000      -0.915265       -24.9056
  95   2.0000      -0.904345       -24.6085
  96   2.0000      -0.900112       -24.4933
  97   2.0000      -0.896854       -24.4046
  98   2.0000      -0.894202       -24.3325
  99   2.0000      -0.890442       -24.2301
 100   2.0000      -0.888408       -24.1748
 101   2.0000      -0.869008       -23.6469
 102   2.0000      -0.862356       -23.4659
 103   2.0000      -0.860878       -23.4257
 104   2.0000      -0.859182       -23.3795
 105   2.0000      -0.840521       -22.8717
 106   2.0000      -0.825439       -22.4613
 107   2.0000      -0.814952       -22.1760
 108   2.0000      -0.793974       -21.6051
 109   2.0000      -0.790418       -21.5084
 110   2.0000      -0.786253       -21.3950
 111   2.0000      -0.777581       -21.1590
 112   2.0000      -0.768329       -20.9073
 113   2.0000      -0.738971       -20.1084
 114   2.0000      -0.726683       -19.7740
 115   2.0000      -0.722759       -19.6673
 116   2.0000      -0.721679       -19.6379
 117   2.0000      -0.716516       -19.4974
 118   2.0000      -0.714548       -19.4438
 119   2.0000      -0.713266       -19.4090
 120   2.0000      -0.710375       -19.3303
 121   2.0000      -0.708546       -19.2805
 122   2.0000      -0.703722       -19.1492
 123   2.0000      -0.700462       -19.0605
 124   2.0000      -0.691436       -18.8149
 125   2.0000      -0.682125       -18.5616
 126   2.0000      -0.680364       -18.5137
 127   2.0000      -0.676539       -18.4096
 128   2.0000      -0.672495       -18.2995
 129   2.0000      -0.669492       -18.2178
 130   2.0000      -0.666445       -18.1349
 131   2.0000      -0.661723       -18.0064
 132   2.0000      -0.658234       -17.9115
 133   2.0000      -0.643032       -17.4978
 134   2.0000      -0.640785       -17.4366
 135   2.0000      -0.631330       -17.1794
 136   2.0000      -0.624391       -16.9905
 137   2.0000      -0.615405       -16.7460
 138   2.0000      -0.605410       -16.4741
 139   2.0000      -0.595060       -16.1924
 140   2.0000      -0.588649       -16.0179
 141   2.0000      -0.587633       -15.9903
 142   2.0000      -0.581757       -15.8304
 143   2.0000      -0.581102       -15.8126
 144   2.0000      -0.579528       -15.7697
 145   2.0000      -0.575346       -15.6560
 146   2.0000      -0.568557       -15.4712
 147   2.0000      -0.563782       -15.3413
 148   2.0000      -0.560130       -15.2419
 149   2.0000      -0.556512       -15.1435
 150   2.0000      -0.553665       -15.0660
 151   2.0000      -0.549288       -14.9469
 152   2.0000      -0.546479       -14.8704
 153   2.0000      -0.543633       -14.7930
 154   2.0000      -0.542030       -14.7494
 155   2.0000      -0.541373       -14.7315
 156   2.0000      -0.539967       -14.6933
 157   2.0000      -0.535956       -14.5841
 158   2.0000      -0.535481       -14.5712
 159   2.0000      -0.534927       -14.5561
 160   2.0000      -0.530647       -14.4396
 161   2.0000      -0.528477       -14.3806
 162   2.0000      -0.526058       -14.3148
 163   2.0000      -0.523965       -14.2578
 164   2.0000      -0.520827       -14.1724
 165   2.0000      -0.516771       -14.0621
 166   2.0000      -0.511316       -13.9136
 167   2.0000      -0.509186       -13.8557
 168   2.0000      -0.507174       -13.8009
 169   2.0000      -0.504976       -13.7411
 170   2.0000      -0.501384       -13.6433
 171   2.0000      -0.499383       -13.5889
 172   2.0000      -0.497788       -13.5455
 173   2.0000      -0.493456       -13.4276
 174   2.0000      -0.491736       -13.3808
 175   2.0000      -0.489245       -13.3130
 176   2.0000      -0.486004       -13.2248
 177   2.0000      -0.484022       -13.1709
 178   2.0000      -0.480097       -13.0641
 179   2.0000      -0.477063       -12.9815
 180   2.0000      -0.471268       -12.8239
 181   2.0000      -0.468603       -12.7513
 182   2.0000      -0.462436       -12.5835
 183   2.0000      -0.462074       -12.5737
 184   2.0000      -0.460529       -12.5316
 185   2.0000      -0.459951       -12.5159
 186   2.0000      -0.458663       -12.4809
 187   2.0000      -0.455426       -12.3928
 188   2.0000      -0.454010       -12.3542
 189   2.0000      -0.452021       -12.3001
 190   2.0000      -0.450315       -12.2537
 191   2.0000      -0.450162       -12.2495
 192   2.0000      -0.449035       -12.2189
 193   2.0000      -0.448657       -12.2086
 194   2.0000      -0.444322       -12.0906
 195   2.0000      -0.443831       -12.0773
 196   2.0000      -0.442687       -12.0461
 197   2.0000      -0.440389       -11.9836
 198   2.0000      -0.436727       -11.8839
 199   2.0000      -0.436016       -11.8646
 200   2.0000      -0.434793       -11.8313
 201   2.0000      -0.434153       -11.8139
 202   2.0000      -0.429041       -11.6748
 203   2.0000      -0.428357       -11.6562
 204   2.0000      -0.427960       -11.6454
 205   2.0000      -0.425625       -11.5818
 206   2.0000      -0.423461       -11.5230
 207   2.0000      -0.420895       -11.4531
 208   2.0000      -0.419518       -11.4157
 209   2.0000      -0.414900       -11.2900
 210   2.0000      -0.411737       -11.2039
 211   2.0000      -0.407740       -11.0952
 212   2.0000      -0.400794       -10.9062
 213   2.0000      -0.388341       -10.5673
 214   2.0000      -0.381029       -10.3683
 215   2.0000      -0.377264       -10.2659
 216   2.0000      -0.363097        -9.8804
 217   2.0000      -0.357926        -9.7397
 218   2.0000      -0.346960        -9.4413
 219   2.0000      -0.343656        -9.3514
 220   2.0000      -0.340055        -9.2534
 221   2.0000      -0.337023        -9.1709
 222   2.0000      -0.330217        -8.9857
 223   2.0000      -0.317336        -8.6352
 224   2.0000      -0.314440        -8.5564
 225   2.0000      -0.296619        -8.0714
 226   2.0000      -0.273247        -7.4354
 227   2.0000      -0.245703        -6.6859
 228   0.0000      -0.105716        -2.8767
 229   0.0000      -0.091411        -2.4874
 230   0.0000      -0.090084        -2.4513
 231   0.0000      -0.083021        -2.2591
 232   0.0000      -0.060386        -1.6432

MULLIKEN ATOMIC CHARGES
-----------------------
   0 C :   -0.032044
   1 C :    0.043049
   2 C :    0.047630
   3 C :   -0.033118
   4 C :    0.006829
   5 C :    0.012258
   6 C :    0.294248
   7 C :   -0.346410
   8 C :   -0.188513
   9 N :    0.154821
  10 C :   -0.184635
  11 N :    0.149110
  12 C :   -0.083564
  13 C :    0.226153
  14 C :   -0.334097
  15 C :   -0.198360
  16 N :    0.171211
  17 C :   -0.182728
  18 N :    0.157562
  19 C :    0.043529
  20 C :    0.042774
  21 N :   -0.016490
  22 C :    0.066769
  23 C :   -0.038964
  24 C :    0.016300
  25 C :   -0.185233
  26 S :    0.206332
  27 C :   -0.145718
  28 C :    0.055200
  29 C :    0.168520
  30 C :   -0.173630
  31 C :    0.502306
  32 F :   -0.154961
  33 F :   -0.155152
  34 F :   -0.177966
  35 C :    0.025858
  36 C :   -0.112668
  37 C :    0.202597
  38 O :   -0.298482
  39 C :    0.160480
  40 C :    0.011215
  41 C :    0.072269
  42 C :    0.088723
  43 N :   -0.023805
  44 C :    0.036514
  45 C :    0.019736
  46 C :   -0.034967
  47 C :    0.039914
  48 C :   -0.085530
  49 C :    0.304432
  50 C :   -0.356430
  51 C :   -0.174954
  52 N :    0.140991
  53 C :   -0.187015
  54 N :    0.157623
  55 C :    0.013789
  56 C :    0.005713
  57 C :   -0.037012
  58 C :    0.049368
  59 C :    0.048698
  60 C :   -0.038010
  61 C :    0.225284
  62 C :   -0.338219
  63 C :   -0.183198
  64 N :    0.163597
  65 C :   -0.188774
  66 N :    0.161979
  67 H :    0.004880
  68 H :    0.003556
  69 H :    0.002657
  70 H :    0.004009
  71 H :    0.005129
  72 H :    0.138042
  73 H :   -0.014170
  74 H :    0.000450
  75 H :    0.008036
  76 H :   -0.019024
  77 H :    0.028574
  78 H :    0.036486
  79 H :    0.063681
  80 H :    0.002321
  81 H :   -0.017759
  82 H :    0.134273
  83 H :    0.001340
  84 H :   -0.007935
  85 H :    0.000557
  86 H :    0.006935
  87 H :    0.004230
  88 H :    0.004097
  89 H :    0.006899
Sum of atomic charges:   -0.0000000

LOEWDIN ATOMIC CHARGES
----------------------
   0 C :    0.004402
   1 C :   -0.000047
   2 C :    0.002245
   3 C :    0.000162
   4 C :   -0.010863
   5 C :   -0.012452
   6 C :    0.080049
   7 C :   -0.141434
   8 C :   -0.019632
   9 N :   -0.052458
  10 C :   -0.021045
  11 N :   -0.052089
  12 C :   -0.070866
  13 C :    0.068562
  14 C :   -0.137920
  15 C :   -0.017557
  16 N :   -0.045247
  17 C :   -0.021641
  18 N :   -0.050897
  19 C :    0.050708
  20 C :   -0.027219
  21 N :    0.120570
  22 C :   -0.007277
  23 C :   -0.057664
  24 C :   -0.011369
  25 C :   -0.196221
  26 S :    0.517202
  27 C :   -0.163733
  28 C :   -0.063568
  29 C :   -0.029914
  30 C :   -0.116738
  31 C :    0.170723
  32 F :   -0.052751
  33 F :   -0.052204
  34 F :   -0.073680
  35 C :    0.023539
  36 C :   -0.096692
  37 C :    0.079440
  38 O :   -0.073231
  39 C :    0.080728
  40 C :   -0.031994
  41 C :   -0.015033
  42 C :    0.022138
  43 N :    0.117297
  44 C :   -0.030075
  45 C :   -0.011074
  46 C :   -0.045427
  47 C :    0.045782
  48 C :   -0.071385
  49 C :    0.079403
  50 C :   -0.142334
  51 C :   -0.017513
  52 N :   -0.058024
  53 C :   -0.020444
  54 N :   -0.049792
  55 C :   -0.012731
  56 C :   -0.011523
  57 C :    0.000925
  58 C :    0.003855
  59 C :    0.001810
  60 C :    0.004694
  61 C :    0.069673
  62 C :   -0.138662
  63 C :   -0.022537
  64 N :   -0.048064
  65 C :   -0.010582
  66 N :   -0.057183
  67 H :    0.041226
  68 H :    0.037098
  69 H :    0.036807
  70 H :    0.040189
  71 H :    0.046514
  72 H :    0.087344
  73 H :    0.027529
  74 H :    0.031820
  75 H :    0.039600
  76 H :    0.032818
  77 H :    0.017804
  78 H :    0.022534
  79 H :    0.038788
  80 H :    0.032483
  81 H :    0.029735
  82 H :    0.098380
  83 H :    0.032641
  84 H :    0.031235
  85 H :    0.044268
  86 H :    0.040896
  87 H :    0.037619
  88 H :    0.037756
  89 H :    0.041798

  Mayer bond orders larger than 0.100000
B(  0-C ,  1-C ) :   1.3680 B(  0-C ,  5-C ) :   1.3868 B(  0-C , 67-H ) :   0.9839
B(  1-C ,  2-C ) :   1.3798 B(  1-C , 68-H ) :   0.9862 B(  2-C ,  3-C ) :   1.3637
B(  2-C , 69-H ) :   0.9867 B(  3-C ,  4-C ) :   1.3848 B(  3-C , 70-H ) :   0.9874
B(  4-C ,  5-C ) :   1.3137 B(  4-C , 13-C ) :   1.0065 B(  5-C ,  6-C ) :   0.9962
B(  6-C ,  7-C ) :   1.6251 B(  6-C , 12-C ) :   1.0725 B(  7-C ,  8-C ) :   1.1469
B(  7-C , 10-C ) :   1.1399 B(  8-C ,  9-N ) :   2.9782 B( 10-C , 11-N ) :   2.9753
B( 12-C , 13-C ) :   1.0336 B( 12-C , 19-C ) :   1.5660 B( 13-C , 14-C ) :   1.6445
B( 14-C , 15-C ) :   1.1527 B( 14-C , 17-C ) :   1.1400 B( 15-C , 16-N ) :   3.0059
B( 17-C , 18-N ) :   2.9927 B( 19-C , 20-C ) :   1.1561 B( 19-C , 71-H ) :   0.9224
B( 20-C , 21-N ) :   1.1839 B( 20-C , 22-C ) :   0.1106 B( 20-C , 24-C ) :   1.3356
B( 21-N , 22-C ) :   1.3068 B( 21-N , 72-H ) :   0.9171 B( 22-C , 23-C ) :   1.3665
B( 22-C , 25-C ) :   1.0462 B( 23-C , 24-C ) :   1.3956 B( 23-C , 73-H ) :   1.0076
B( 24-C , 74-H ) :   1.0025 B( 25-C , 26-S ) :   1.1858 B( 25-C , 27-C ) :   0.1228
B( 25-C , 29-C ) :   1.3933 B( 26-S , 27-C ) :   1.1696 B( 27-C , 28-C ) :   1.3728
B( 27-C , 40-C ) :   1.1013 B( 28-C , 29-C ) :   1.2218 B( 28-C , 37-C ) :   1.1702
B( 29-C , 30-C ) :   1.1824 B( 30-C , 31-C ) :   0.9653 B( 30-C , 35-C ) :   1.5509
B( 31-C , 32-F ) :   1.1481 B( 31-C , 33-F ) :   1.1660 B( 31-C , 34-F ) :   1.1186
B( 35-C , 36-C ) :   1.2035 B( 35-C , 75-H ) :   0.9851 B( 36-C , 37-C ) :   1.4316
B( 36-C , 76-H ) :   0.9964 B( 37-C , 38-O ) :   1.2153 B( 38-O , 39-C ) :   0.9378
B( 39-C , 77-H ) :   0.9692 B( 39-C , 78-H ) :   0.9706 B( 39-C , 79-H ) :   0.9750
B( 40-C , 41-C ) :   1.7197 B( 40-C , 80-H ) :   0.9539 B( 41-C , 42-C ) :   1.1310
B( 41-C , 81-H ) :   0.9462 B( 42-C , 43-N ) :   1.2539 B( 42-C , 44-C ) :   0.1002
B( 42-C , 46-C ) :   1.3299 B( 43-N , 44-C ) :   1.1882 B( 43-N , 82-H ) :   0.9303
B( 44-C , 45-C ) :   1.3213 B( 44-C , 47-C ) :   1.1577 B( 45-C , 46-C ) :   1.4151
B( 45-C , 83-H ) :   1.0077 B( 46-C , 84-H ) :   1.0059 B( 47-C , 48-C ) :   1.5646
B( 47-C , 85-H ) :   0.9188 B( 48-C , 49-C ) :   1.0783 B( 48-C , 61-C ) :   1.0384
B( 49-C , 50-C ) :   1.6180 B( 49-C , 55-C ) :   0.9950 B( 50-C , 51-C ) :   1.1446
B( 50-C , 53-C ) :   1.1489 B( 51-C , 52-N ) :   2.9580 B( 53-C , 54-N ) :   2.9752
B( 55-C , 56-C ) :   1.3105 B( 55-C , 60-C ) :   1.3864 B( 56-C , 57-C ) :   1.3855
B( 56-C , 61-C ) :   1.0084 B( 57-C , 58-C ) :   1.3611 B( 57-C , 86-H ) :   0.9875
B( 58-C , 59-C ) :   1.3798 B( 58-C , 87-H ) :   0.9866 B( 59-C , 60-C ) :   1.3669
B( 59-C , 88-H ) :   0.9862 B( 60-C , 89-H ) :   0.9836 B( 61-C , 62-C ) :   1.6387
B( 62-C , 63-C ) :   1.1411 B( 62-C , 65-C ) :   1.1542 B( 63-C , 64-N ) :   2.9947
B( 65-C , 66-N ) :   3.0068

-----------------------------------------------------------------------------
         ABSORPTION SPECTRUM VIA TRANSITION ELECTRIC DIPOLE MOMENTS
-----------------------------------------------------------------------------
State   Energy  Wavelength   fosc         T2         TX        TY        TZ
        (cm-1)    (nm)                  (au**2)     (au)      (au)      (au)
-----------------------------------------------------------------------------
   0   15446.4    647.4   1.808407151  38.54294  -1.66564  -5.76526   1.59070
   1   18516.0    540.1   0.091332165   1.62387   0.17711   1.05812   0.68766
   2   19853.5    503.7   0.158212564   2.62349   0.73335  -1.42536   0.23243
   3   20604.3    485.3   0.106244799   1.69756  -0.03111  -0.54350   1.18372
   4   22883.9    437.0   0.042159548   0.60651  -0.16500  -0.75556  -0.09175
   5   24878.5    402.0   0.051591436   0.68270  -0.41027  -0.33246   0.63549
   6   26091.3    383.3   0.014468388   0.18256  -0.09438  -0.33564  -0.24697
   7   27688.8    361.2   0.085879950   1.02109   0.63990  -0.53252  -0.57275
   8   28343.4    352.8   0.133778815   1.55386   0.19387  -1.14660   0.44897
   9   29054.2    344.2   0.103921322   1.17753  -0.66743  -0.83139  -0.20213
  10   29385.8    340.3   0.105528994   1.18225   0.18594   0.90712  -0.56992
  11   29502.5    339.0   0.071443018   0.79722  -0.39488   0.19820  -0.77589
  12   31093.2    321.6   0.139546538   1.47751  -0.50085   0.63395  -0.90817
  13   31378.4    318.7   0.284494593   2.98483   1.00866  -1.13817  -0.81976
  14   31879.3    313.7   0.280500961   2.89668  -0.46977   0.52908  -1.54793
  15   33193.1    301.3   0.022479679   0.22296   0.23349  -0.38274   0.14816
  16   33414.4    299.3   0.192760115   1.89915  -0.69076   1.10913   0.43799
  17   33626.5    297.4   0.246614492   2.41442  -0.97676   1.10991   0.47797
  18   34136.3    292.9   0.299440213   2.88782  -0.29996   0.50250  -1.59541
  19   34442.4    290.3   0.452767083   4.32770  -0.48088  -1.28096   1.56704
  20   34921.8    286.4   0.157146430   1.48144  -1.02931  -0.20371  -0.61682
  21   35104.3    284.9   0.032791962   0.30753   0.28477   0.45974  -0.12277
  22   35342.1    282.9   0.087337285   0.81355  -0.75536  -0.43133  -0.23860
  23   35689.0    280.2   0.007451732   0.06874  -0.23482  -0.09892   0.06176
  24   36018.5    277.6   0.087609722   0.80076  -0.51629  -0.60642   0.40800
  25   36324.8    275.3   0.254726732   2.30859   1.08430   0.94982  -0.48033
  26   36762.4    272.0   0.065781474   0.58908  -0.47835  -0.03005  -0.59946
  27   37212.0    268.7   0.096640412   0.85497  -0.16779  -0.67046   0.61425
  28   38053.4    262.8   0.006144894   0.05316  -0.03596  -0.03937   0.22432
  29   38997.7    256.4   0.103618817   0.87473   0.45031   0.76954   0.28242
  30   39194.5    255.1   0.011072718   0.09300   0.02852   0.29610   0.06721
  31   39398.8    253.8   0.127055488   1.06166  -0.67319  -0.72468  -0.28865
  32   39485.0    253.3   0.016593470   0.13835   0.07529   0.11228   0.34652
  33   40126.5    249.2   0.007735111   0.06346  -0.12813  -0.17442  -0.12892

FINAL SINGLE POINT ENERGY     -3311.892890795765

DIPOLE MOMENT
-------------
                                X             Y             Z
Electronic contribution:      5.08241      20.12425     -19.33893
Nuclear contribution   :     -4.48002     -21.92340      20.32580
                        -----------------------------------------
Total Dipole Moment    :      0.60239      -1.79915       0.98688
                        -----------------------------------------
Magnitude (a.u.)       :      2.13863
Magnitude (Debye)      :      5.43597

Rotational constants in cm-1:     0.002948     0.000305     0.000295
Rotational constants in MHz :    88.393081     9.139555     8.840661

                             ****ORCA TERMINATED NORMALLY****
TOTAL RUN TIME: 0 days 0 hours 9 minutes 39 seconds 923 msec
