                         Program Version 4.2.0 -  RELEASE  -
|  1> # ORCA input file
|  2> # SCF done       -205.507571687836          0.000677837167
|  3> ! CAM-B3LYP def2-SVP def2/J RIJCOSX Grid4 TightSCF
|  4> %maxcore 5000
|  5> %tddft
|  6>     Mode sTDDFT
|  7>     Ethresh 5.0
|  8>     maxcore 5000
|  9> end
| 10>
| 11> %pal
| 12>   nprocs 6
| 13>   end
| 14> * xyz 0 1
| 15>    C       -7.78819         2.37542         3.70147
| 16>    C       -9.09224         2.45698         4.16538
| 17>    C       -9.86901         1.31756         4.32571
| 18>    C       -9.35876         0.06109         4.03816
| 19>    C       -8.05491        -0.03416         3.57911
| 20>    C       -7.26683         1.12644         3.39974
| 21>    C       -5.96437         0.74037         2.87498
| 22>    C       -4.89346         1.56827         2.68062
| 23>    C       -4.89632         2.94872         2.97628
| 24>    N       -4.83267         4.07400         3.19170
| 25>    C       -3.63106         1.16377         2.19565
| 26>    N       -2.58216         0.90406         1.80831
| 27>    C       -6.03834        -0.68996         2.58694
| 28>    C       -7.25246        -1.19582         3.23265
| 29>    C       -7.47735        -2.47223         3.66786
| 30>    C       -6.55989        -3.53755         3.58706
| 31>    N       -5.84243        -4.43378         3.63728
| 32>    C       -8.64203        -2.86756         4.35997
| 33>    N       -9.56707        -3.24764         4.92223
| 34>    C       -5.19635        -1.37408         1.76787
| 35>    C       -5.45686        -2.66039         1.20883
| 36>    S       -4.18385        -3.84964         1.23617
| 37>    C       -5.26416        -5.06211         0.62028
| 38>    C       -6.49016        -4.52977         0.28756
| 39>    C       -6.60530        -3.16981         0.63184
| 40>    C       -7.83038        -2.39425         0.27524
| 41>    C       -9.05260        -3.31347         0.28945
| 42>    O       -9.25631        -3.73805         1.61831
| 43>    C      -10.50524        -4.34053         1.86966
| 44>    C       -8.80487        -4.47725        -0.69552
| 45>    O       -8.56877        -3.88270        -1.95512
| 46>    C       -8.76593        -4.73426        -3.05740
| 47>    C       -7.63906        -5.34794        -0.20819
| 48>    C       -4.85740        -6.43214         0.67500
| 49>    S       -4.96539        -7.58464        -0.62653
| 50>    C       -4.24947        -8.88659         0.29663
| 51>    C       -3.96174        -8.42918         1.58743
| 52>    C       -4.30041        -7.05144         1.77417
| 53>    N       -4.02810        -6.69712         3.05430
| 54>    C       -3.53279        -7.81081         3.68249
| 55>    N       -3.16483        -7.74561         5.04317
| 56>    O       -3.30729        -6.66984         5.59716
| 57>    O       -2.73276        -8.75378         5.56308
| 58>    C       -3.45892        -8.89028         2.82464
| 59>    C       -4.03409       -10.17336        -0.23259
| 60>    S       -3.42655       -11.42442         0.80479
| 61>    C       -3.50298       -12.60400        -0.47978
| 62>    C       -3.92124       -12.00186        -1.67068
| 63>    C       -4.22732       -10.64829        -1.53245
| 64>    C       -4.68519        -9.79348        -2.66601
| 65>    C       -4.79556       -10.55335        -3.99322
| 66>    O       -6.07179       -11.15153        -4.04068
| 67>    C       -6.50145       -11.55846        -5.31696
| 68>    C       -3.66000       -11.59313        -4.08727
| 69>    O       -2.45413       -10.88439        -3.92644
| 70>    C       -1.28824       -11.64229        -4.14146
| 71>    C       -3.92365       -12.65310        -3.00870
| 72>    C       -3.07288       -13.90876        -0.19219
| 73>    C       -3.38883       -15.08784        -0.82984
| 74>    C       -2.56886       -16.29036        -0.77773
| 75>    C       -1.45545       -16.51048        -0.00868
| 76>    C       -0.87600       -15.59857         0.89840
| 77>    N       -0.32747       -14.91400         1.63991
| 78>    C       -0.71738       -17.71332        -0.01118
| 79>    N       -0.07124       -18.66066         0.04348
| 80>    C       -3.11862       -17.22211        -1.75556
| 81>    C       -4.27985       -16.65313        -2.32429
| 82>    C       -4.98089       -17.32157        -3.31382
| 83>    C       -4.52131       -18.56242        -3.73001
| 84>    C       -3.38943       -19.12905        -3.16340
| 85>    C       -2.67754       -18.46763        -2.17339
| 86>    C       -4.53464       -15.37854        -1.66830
| 87>    C       -5.74005       -14.71883        -1.66532
| 88>    C       -6.82572       -15.05674        -2.49781
| 89>    N       -7.72775       -15.25455        -3.18029
| 90>    C       -6.08303       -13.68028        -0.77641
| 91>    N       -6.45017       -12.87606        -0.04400
| 92>    H       -7.20296         3.27133         3.57583
| 93>    H       -9.50898         3.42442         4.39999
| 94>    H      -10.88483         1.40895         4.67846
| 95>    H       -9.97161        -0.81753         4.15688
| 96>    H       -4.24696        -0.92793         1.50242
| 97>    H       -7.71975        -2.01421        -0.74397
| 98>    H       -7.99541        -1.55240         0.94551
| 99>    H       -9.93149        -2.74965        -0.06379
|100>    H      -10.58533        -4.42787         2.95201
|101>    H      -10.57809        -5.33591         1.42026
|102>    H      -11.32321        -3.71690         1.49175
|103>    H       -9.70925        -5.10398        -0.75833
|104>    H       -8.63509        -4.11505        -3.94242
|105>    H       -9.77760        -5.15741        -3.05439
|106>    H       -8.03948        -5.55352        -3.08273
|107>    H       -7.31315        -6.01204        -1.01090
|108>    H       -7.99332        -5.97440         0.61612
|109>    H       -4.29973        -5.83535         3.51715
|110>    H       -3.09806        -9.86554         3.07838
|111>    H       -3.98754        -8.96207        -2.79062
|112>    H       -5.67448        -9.38578        -2.44129
|113>    H       -4.68807        -9.83755        -4.82291
|114>    H       -6.47028       -10.72432        -6.02768
|115>    H       -7.52862       -11.89584        -5.19373
|116>    H       -5.90093       -12.38385        -5.71449
|117>    H       -3.66951       -12.08246        -5.07635
|118>    H       -0.46430       -10.93169        -4.14994
|119>    H       -1.32704       -12.16687        -5.10361
|120>    H       -1.12016       -12.37261        -3.34245
|121>    H       -3.19432       -13.46531        -3.05259
|122>    H       -4.91211       -13.07334        -3.22315
|123>    H       -2.37053       -13.97226         0.62913
|124>    H       -5.86031       -16.89107        -3.76433
|125>    H       -5.05467       -19.09175        -4.50475
|126>    H       -3.05225       -20.09841        -3.49712
|127>    H       -1.79983       -18.92411        -1.74724
|128> *
|129>
|130>                          ****END OF INPUT****

CARTESIAN COORDINATES (ANGSTROEM)
---------------------------------
  C     -7.788190    2.375420    3.701470
  C     -9.092240    2.456980    4.165380
  C     -9.869010    1.317560    4.325710
  C     -9.358760    0.061090    4.038160
  C     -8.054910   -0.034160    3.579110
  C     -7.266830    1.126440    3.399740
  C     -5.964370    0.740370    2.874980
  C     -4.893460    1.568270    2.680620
  C     -4.896320    2.948720    2.976280
  N     -4.832670    4.074000    3.191700
  C     -3.631060    1.163770    2.195650
  N     -2.582160    0.904060    1.808310
  C     -6.038340   -0.689960    2.586940
  C     -7.252460   -1.195820    3.232650
  C     -7.477350   -2.472230    3.667860
  C     -6.559890   -3.537550    3.587060
  N     -5.842430   -4.433780    3.637280
  C     -8.642030   -2.867560    4.359970
  N     -9.567070   -3.247640    4.922230
  C     -5.196350   -1.374080    1.767870
  C     -5.456860   -2.660390    1.208830
  S     -4.183850   -3.849640    1.236170
  C     -5.264160   -5.062110    0.620280
  C     -6.490160   -4.529770    0.287560
  C     -6.605300   -3.169810    0.631840
  C     -7.830380   -2.394250    0.275240
  C     -9.052600   -3.313470    0.289450
  O     -9.256310   -3.738050    1.618310
  C    -10.505240   -4.340530    1.869660
  C     -8.804870   -4.477250   -0.695520
  O     -8.568770   -3.882700   -1.955120
  C     -8.765930   -4.734260   -3.057400
  C     -7.639060   -5.347940   -0.208190
  C     -4.857400   -6.432140    0.675000
  S     -4.965390   -7.584640   -0.626530
  C     -4.249470   -8.886590    0.296630
  C     -3.961740   -8.429180    1.587430
  C     -4.300410   -7.051440    1.774170
  N     -4.028100   -6.697120    3.054300
  C     -3.532790   -7.810810    3.682490
  N     -3.164830   -7.745610    5.043170
  O     -3.307290   -6.669840    5.597160
  O     -2.732760   -8.753780    5.563080
  C     -3.458920   -8.890280    2.824640
  C     -4.034090  -10.173360   -0.232590
  S     -3.426550  -11.424420    0.804790
  C     -3.502980  -12.604000   -0.479780
  C     -3.921240  -12.001860   -1.670680
  C     -4.227320  -10.648290   -1.532450
  C     -4.685190   -9.793480   -2.666010
  C     -4.795560  -10.553350   -3.993220
  O     -6.071790  -11.151530   -4.040680
  C     -6.501450  -11.558460   -5.316960
  C     -3.660000  -11.593130   -4.087270
  O     -2.454130  -10.884390   -3.926440
  C     -1.288240  -11.642290   -4.141460
  C     -3.923650  -12.653100   -3.008700
  C     -3.072880  -13.908760   -0.192190
  C     -3.388830  -15.087840   -0.829840
  C     -2.568860  -16.290360   -0.777730
  C     -1.455450  -16.510480   -0.008680
  C     -0.876000  -15.598570    0.898400
  N     -0.327470  -14.914000    1.639910
  C     -0.717380  -17.713320   -0.011180
  N     -0.071240  -18.660660    0.043480
  C     -3.118620  -17.222110   -1.755560
  C     -4.279850  -16.653130   -2.324290
  C     -4.980890  -17.321570   -3.313820
  C     -4.521310  -18.562420   -3.730010
  C     -3.389430  -19.129050   -3.163400
  C     -2.677540  -18.467630   -2.173390
  C     -4.534640  -15.378540   -1.668300
  C     -5.740050  -14.718830   -1.665320
  C     -6.825720  -15.056740   -2.497810
  N     -7.727750  -15.254550   -3.180290
  C     -6.083030  -13.680280   -0.776410
  N     -6.450170  -12.876060   -0.044000
  H     -7.202960    3.271330    3.575830
  H     -9.508980    3.424420    4.399990
  H    -10.884830    1.408950    4.678460
  H     -9.971610   -0.817530    4.156880
  H     -4.246960   -0.927930    1.502420
  H     -7.719750   -2.014210   -0.743970
  H     -7.995410   -1.552400    0.945510
  H     -9.931490   -2.749650   -0.063790
  H    -10.585330   -4.427870    2.952010
  H    -10.578090   -5.335910    1.420260
  H    -11.323210   -3.716900    1.491750
  H     -9.709250   -5.103980   -0.758330
  H     -8.635090   -4.115050   -3.942420
  H     -9.777600   -5.157410   -3.054390
  H     -8.039480   -5.553520   -3.082730
  H     -7.313150   -6.012040   -1.010900
  H     -7.993320   -5.974400    0.616120
  H     -4.299730   -5.835350    3.517150
  H     -3.098060   -9.865540    3.078380
  H     -3.987540   -8.962070   -2.790620
  H     -5.674480   -9.385780   -2.441290
  H     -4.688070   -9.837550   -4.822910
  H     -6.470280  -10.724320   -6.027680
  H     -7.528620  -11.895840   -5.193730
  H     -5.900930  -12.383850   -5.714490
  H     -3.669510  -12.082460   -5.076350
  H     -0.464300  -10.931690   -4.149940
  H     -1.327040  -12.166870   -5.103610
  H     -1.120160  -12.372610   -3.342450
  H     -3.194320  -13.465310   -3.052590
  H     -4.912110  -13.073340   -3.223150
  H     -2.370530  -13.972260    0.629130
  H     -5.860310  -16.891070   -3.764330
  H     -5.054670  -19.091750   -4.504750
  H     -3.052250  -20.098410   -3.497120
  H     -1.799830  -18.924110   -1.747240

 Total Charge           Charge          ....    0
 Multiplicity           Mult            ....    1
 Number of Electrons    NEL             ....  550
 Basis Dimension        Dim             .... 1270

ORBITAL ENERGIES
----------------

  NO   OCC          E(Eh)            E(eV)
   0   2.0000     -88.984837     -2421.4005
   1   2.0000     -88.971315     -2421.0326
   2   2.0000     -88.967968     -2420.9415
   3   2.0000     -19.240739      -523.5671
   4   2.0000     -19.240198      -523.5524
   5   2.0000     -19.237145      -523.4693
   6   2.0000     -19.233785      -523.3779
   7   2.0000     -19.229332      -523.2567
   8   2.0000     -19.228342      -523.2298
   9   2.0000     -14.650540      -398.6615
  10   2.0000     -14.468465      -393.7069
  11   2.0000     -14.434875      -392.7929
  12   2.0000     -14.428697      -392.6248
  13   2.0000     -14.428515      -392.6198
  14   2.0000     -14.426197      -392.5568
  15   2.0000     -14.418790      -392.3552
  16   2.0000     -14.418479      -392.3468
  17   2.0000     -14.415919      -392.2771
  18   2.0000     -14.414701      -392.2440
  19   2.0000     -10.360965      -281.9362
  20   2.0000     -10.359593      -281.8989
  21   2.0000     -10.357781      -281.8495
  22   2.0000     -10.355697      -281.7928
  23   2.0000     -10.355176      -281.7787
  24   2.0000     -10.345778      -281.5229
  25   2.0000     -10.344849      -281.4976
  26   2.0000     -10.343792      -281.4689
  27   2.0000     -10.341337      -281.4021
  28   2.0000     -10.339818      -281.3608
  29   2.0000     -10.336107      -281.2598
  30   2.0000     -10.335690      -281.2484
  31   2.0000     -10.335111      -281.2327
  32   2.0000     -10.331826      -281.1433
  33   2.0000     -10.331694      -281.1397
  34   2.0000     -10.331007      -281.1210
  35   2.0000     -10.330257      -281.1006
  36   2.0000     -10.329500      -281.0800
  37   2.0000     -10.329365      -281.0763
  38   2.0000     -10.329098      -281.0690
  39   2.0000     -10.328476      -281.0521
  40   2.0000     -10.327502      -281.0256
  41   2.0000     -10.325521      -280.9717
  42   2.0000     -10.324987      -280.9572
  43   2.0000     -10.324580      -280.9461
  44   2.0000     -10.322713      -280.8953
  45   2.0000     -10.321832      -280.8713
  46   2.0000     -10.321635      -280.8660
  47   2.0000     -10.321307      -280.8571
  48   2.0000     -10.321281      -280.8563
  49   2.0000     -10.320502      -280.8351
  50   2.0000     -10.319369      -280.8043
  51   2.0000     -10.319166      -280.7988
  52   2.0000     -10.319022      -280.7949
  53   2.0000     -10.318526      -280.7814
  54   2.0000     -10.317054      -280.7413
  55   2.0000     -10.316605      -280.7291
  56   2.0000     -10.312346      -280.6132
  57   2.0000     -10.309191      -280.5274
  58   2.0000     -10.309063      -280.5239
  59   2.0000     -10.308765      -280.5158
  60   2.0000     -10.308493      -280.5083
  61   2.0000     -10.307912      -280.4926
  62   2.0000     -10.307159      -280.4720
  63   2.0000     -10.304163      -280.3905
  64   2.0000     -10.303411      -280.3701
  65   2.0000     -10.298058      -280.2244
  66   2.0000     -10.297621      -280.2125
  67   2.0000     -10.297320      -280.2043
  68   2.0000     -10.297287      -280.2034
  69   2.0000     -10.296120      -280.1717
  70   2.0000     -10.294635      -280.1313
  71   2.0000     -10.294001      -280.1140
  72   2.0000     -10.292721      -280.0792
  73   2.0000     -10.286551      -279.9113
  74   2.0000     -10.285834      -279.8918
  75   2.0000     -10.284865      -279.8654
  76   2.0000     -10.281479      -279.7733
  77   2.0000      -8.078027      -219.8143
  78   2.0000      -8.066421      -219.4985
  79   2.0000      -8.063207      -219.4110
  80   2.0000      -6.047495      -164.5607
  81   2.0000      -6.043123      -164.4417
  82   2.0000      -6.040386      -164.3673
  83   2.0000      -6.035782      -164.2420
  84   2.0000      -6.032691      -164.1579
  85   2.0000      -6.031681      -164.1304
  86   2.0000      -6.028494      -164.0437
  87   2.0000      -6.028352      -164.0398
  88   2.0000      -6.024961      -163.9475
  89   2.0000      -1.321655       -35.9640
  90   2.0000      -1.142407       -31.0865
  91   2.0000      -1.141018       -31.0487
  92   2.0000      -1.138012       -30.9669
  93   2.0000      -1.130110       -30.7518
  94   2.0000      -1.125317       -30.6214
  95   2.0000      -1.101177       -29.9645
  96   2.0000      -1.044999       -28.4359
  97   2.0000      -1.032711       -28.1015
  98   2.0000      -1.027571       -27.9616
  99   2.0000      -1.016824       -27.6692
 100   2.0000      -1.015852       -27.6427
 101   2.0000      -1.014134       -27.5960
 102   2.0000      -1.010832       -27.5061
 103   2.0000      -1.005932       -27.3728
 104   2.0000      -1.005038       -27.3485
 105   2.0000      -1.004157       -27.3245
 106   2.0000      -0.995736       -27.0954
 107   2.0000      -0.994583       -27.0640
 108   2.0000      -0.984506       -26.7898
 109   2.0000      -0.966814       -26.3083
 110   2.0000      -0.955688       -26.0056
 111   2.0000      -0.948553       -25.8114
 112   2.0000      -0.936113       -25.4729
 113   2.0000      -0.925626       -25.1876
 114   2.0000      -0.923396       -25.1269
 115   2.0000      -0.920631       -25.0517
 116   2.0000      -0.906752       -24.6740
 117   2.0000      -0.901434       -24.5293
 118   2.0000      -0.901058       -24.5190
 119   2.0000      -0.890646       -24.2357
 120   2.0000      -0.884422       -24.0663
 121   2.0000      -0.874467       -23.7955
 122   2.0000      -0.870076       -23.6760
 123   2.0000      -0.864513       -23.5246
 124   2.0000      -0.862848       -23.4793
 125   2.0000      -0.849306       -23.1108
 126   2.0000      -0.843979       -22.9658
 127   2.0000      -0.843752       -22.9597
 128   2.0000      -0.829054       -22.5597
 129   2.0000      -0.811962       -22.0946
 130   2.0000      -0.800203       -21.7746
 131   2.0000      -0.795166       -21.6376
 132   2.0000      -0.791519       -21.5383
 133   2.0000      -0.788202       -21.4481
 134   2.0000      -0.786899       -21.4126
 135   2.0000      -0.780910       -21.2496
 136   2.0000      -0.766035       -20.8449
 137   2.0000      -0.762578       -20.7508
 138   2.0000      -0.753716       -20.5097
 139   2.0000      -0.728519       -19.8240
 140   2.0000      -0.725710       -19.7476
 141   2.0000      -0.724424       -19.7126
 142   2.0000      -0.720894       -19.6165
 143   2.0000      -0.717986       -19.5374
 144   2.0000      -0.715886       -19.4803
 145   2.0000      -0.712378       -19.3848
 146   2.0000      -0.706615       -19.2280
 147   2.0000      -0.705596       -19.2002
 148   2.0000      -0.686744       -18.6872
 149   2.0000      -0.682135       -18.5618
 150   2.0000      -0.677744       -18.4423
 151   2.0000      -0.674086       -18.3428
 152   2.0000      -0.666746       -18.1431
 153   2.0000      -0.663721       -18.0608
 154   2.0000      -0.662097       -18.0166
 155   2.0000      -0.659107       -17.9352
 156   2.0000      -0.654810       -17.8183
 157   2.0000      -0.641614       -17.4592
 158   2.0000      -0.638640       -17.3783
 159   2.0000      -0.633582       -17.2406
 160   2.0000      -0.633046       -17.2261
 161   2.0000      -0.631137       -17.1741
 162   2.0000      -0.616956       -16.7882
 163   2.0000      -0.608911       -16.5693
 164   2.0000      -0.605590       -16.4790
 165   2.0000      -0.596081       -16.2202
 166   2.0000      -0.595924       -16.2159
 167   2.0000      -0.595144       -16.1947
 168   2.0000      -0.593230       -16.1426
 169   2.0000      -0.589330       -16.0365
 170   2.0000      -0.587980       -15.9997
 171   2.0000      -0.585383       -15.9291
 172   2.0000      -0.584340       -15.9007
 173   2.0000      -0.582082       -15.8393
 174   2.0000      -0.573816       -15.6143
 175   2.0000      -0.569058       -15.4849
 176   2.0000      -0.566541       -15.4164
 177   2.0000      -0.561238       -15.2721
 178   2.0000      -0.559233       -15.2175
 179   2.0000      -0.556640       -15.1469
 180   2.0000      -0.554928       -15.1004
 181   2.0000      -0.553411       -15.0591
 182   2.0000      -0.549495       -14.9525
 183   2.0000      -0.546075       -14.8595
 184   2.0000      -0.545627       -14.8473
 185   2.0000      -0.544059       -14.8046
 186   2.0000      -0.540185       -14.6992
 187   2.0000      -0.537206       -14.6181
 188   2.0000      -0.535390       -14.5687
 189   2.0000      -0.533021       -14.5042
 190   2.0000      -0.532178       -14.4813
 191   2.0000      -0.527108       -14.3433
 192   2.0000      -0.525661       -14.3040
 193   2.0000      -0.523070       -14.2335
 194   2.0000      -0.521430       -14.1888
 195   2.0000      -0.520900       -14.1744
 196   2.0000      -0.518134       -14.0991
 197   2.0000      -0.515033       -14.0148
 198   2.0000      -0.512306       -13.9406
 199   2.0000      -0.505332       -13.7508
 200   2.0000      -0.504390       -13.7252
 201   2.0000      -0.503444       -13.6994
 202   2.0000      -0.502169       -13.6647
 203   2.0000      -0.499616       -13.5952
 204   2.0000      -0.496597       -13.5131
 205   2.0000      -0.495405       -13.4806
 206   2.0000      -0.492176       -13.3928
 207   2.0000      -0.489841       -13.3292
 208   2.0000      -0.486586       -13.2407
 209   2.0000      -0.485560       -13.2128
 210   2.0000      -0.480492       -13.0748
 211   2.0000      -0.477591       -12.9959
 212   2.0000      -0.475837       -12.9482
 213   2.0000      -0.473661       -12.8890
 214   2.0000      -0.470765       -12.8102
 215   2.0000      -0.469101       -12.7649
 216   2.0000      -0.465932       -12.6787
 217   2.0000      -0.462260       -12.5787
 218   2.0000      -0.461209       -12.5501
 219   2.0000      -0.459190       -12.4952
 220   2.0000      -0.457885       -12.4597
 221   2.0000      -0.457200       -12.4410
 222   2.0000      -0.453844       -12.3497
 223   2.0000      -0.452451       -12.3118
 224   2.0000      -0.451129       -12.2758
 225   2.0000      -0.450069       -12.2470
 226   2.0000      -0.449111       -12.2209
 227   2.0000      -0.446029       -12.1371
 228   2.0000      -0.445319       -12.1177
 229   2.0000      -0.444663       -12.0999
 230   2.0000      -0.443663       -12.0727
 231   2.0000      -0.441496       -12.0137
 232   2.0000      -0.437897       -11.9158
 233   2.0000      -0.437271       -11.8988
 234   2.0000      -0.435923       -11.8621
 235   2.0000      -0.435054       -11.8384
 236   2.0000      -0.432853       -11.7785
 237   2.0000      -0.429971       -11.7001
 238   2.0000      -0.428485       -11.6597
 239   2.0000      -0.428062       -11.6482
 240   2.0000      -0.425957       -11.5909
 241   2.0000      -0.424171       -11.5423
 242   2.0000      -0.423940       -11.5360
 243   2.0000      -0.422320       -11.4919
 244   2.0000      -0.419347       -11.4110
 245   2.0000      -0.417174       -11.3519
 246   2.0000      -0.413861       -11.2617
 247   2.0000      -0.410817       -11.1789
 248   2.0000      -0.409647       -11.1471
 249   2.0000      -0.407959       -11.1011
 250   2.0000      -0.404300       -11.0016
 251   2.0000      -0.398139       -10.8339
 252   2.0000      -0.392181       -10.6718
 253   2.0000      -0.391314       -10.6482
 254   2.0000      -0.388788       -10.5795
 255   2.0000      -0.386353       -10.5132
 256   2.0000      -0.382107       -10.3977
 257   2.0000      -0.378354       -10.2955
 258   2.0000      -0.369852       -10.0642
 259   2.0000      -0.368980       -10.0404
 260   2.0000      -0.360351        -9.8056
 261   2.0000      -0.355576        -9.6757
 262   2.0000      -0.346811        -9.4372
 263   2.0000      -0.345276        -9.3954
 264   2.0000      -0.342094        -9.3089
 265   2.0000      -0.341343        -9.2884
 266   2.0000      -0.331311        -9.0154
 267   2.0000      -0.329865        -8.9761
 268   2.0000      -0.323728        -8.8091
 269   2.0000      -0.322413        -8.7733
 270   2.0000      -0.318283        -8.6609
 271   2.0000      -0.317198        -8.6314
 272   2.0000      -0.301531        -8.2051
 273   2.0000      -0.288540        -7.8516
 274   2.0000      -0.244168        -6.6441
 275   0.0000      -0.106106        -2.8873
 276   0.0000      -0.097235        -2.6459
 277   0.0000      -0.094465        -2.5705
 278   0.0000      -0.085598        -2.3292
 279   0.0000      -0.060655        -1.6505

MULLIKEN ATOMIC CHARGES
-----------------------
   0 C :   -0.033667
   1 C :    0.048096
   2 C :    0.050798
   3 C :   -0.032239
   4 C :    0.009620
   5 C :    0.015482
   6 C :    0.298064
   7 C :   -0.343147
   8 C :   -0.190188
   9 N :    0.163296
  10 C :   -0.179311
  11 N :    0.163752
  12 C :   -0.069612
  13 C :    0.208074
  14 C :   -0.329619
  15 C :   -0.122064
  16 N :    0.166384
  17 C :   -0.156248
  18 N :    0.149322
  19 C :    0.049050
  20 C :   -0.261261
  21 S :    0.185855
  22 C :   -0.143110
  23 C :   -0.056581
  24 C :   -0.027832
  25 C :    0.236317
  26 C :    0.103544
  27 O :   -0.384850
  28 C :    0.179026
  29 C :    0.084803
  30 O :   -0.386813
  31 C :    0.189436
  32 C :    0.233219
  33 C :   -0.209010
  34 S :    0.144354
  35 C :   -0.127194
  36 C :    0.074688
  37 C :    0.135886
  38 N :   -0.012529
  39 C :    0.147973
  40 N :    0.277248
  41 O :   -0.248968
  42 O :   -0.233825
  43 C :   -0.093976
  44 C :   -0.046368
  45 S :    0.149215
  46 C :   -0.172979
  47 C :   -0.066422
  48 C :   -0.115129
  49 C :    0.198707
  50 C :    0.120585
  51 O :   -0.378883
  52 C :    0.189103
  53 C :    0.112928
  54 O :   -0.376262
  55 C :    0.188057
  56 C :    0.185870
  57 C :    0.052071
  58 C :   -0.089623
  59 C :    0.309290
  60 C :   -0.353630
  61 C :   -0.186564
  62 N :    0.156626
  63 C :   -0.191067
  64 N :    0.156613
  65 C :    0.011320
  66 C :    0.002434
  67 C :   -0.037901
  68 C :    0.043930
  69 C :    0.047108
  70 C :   -0.036305
  71 C :    0.254613
  72 C :   -0.379827
  73 C :   -0.183681
  74 N :    0.154479
  75 C :   -0.201228
  76 N :    0.187569
  77 H :    0.007089
  78 H :    0.006453
  79 H :    0.006440
  80 H :    0.006256
  81 H :    0.033983
  82 H :    0.039855
  83 H :    0.006921
  84 H :   -0.004368
  85 H :    0.047427
  86 H :    0.010599
  87 H :    0.003362
  88 H :   -0.009298
  89 H :    0.033194
  90 H :    0.005506
  91 H :    0.009679
  92 H :   -0.006684
  93 H :    0.029239
  94 H :    0.144540
  95 H :    0.008999
  96 H :    0.030269
  97 H :    0.031961
  98 H :   -0.006951
  99 H :    0.005536
 100 H :    0.042920
 101 H :    0.005074
 102 H :   -0.011465
 103 H :    0.035198
 104 H :    0.001832
 105 H :    0.015920
 106 H :    0.017726
 107 H :    0.043131
 108 H :    0.024496
 109 H :    0.000309
 110 H :    0.002247
 111 H :    0.001470
 112 H :    0.004241
Sum of atomic charges:   -0.0000000

LOEWDIN ATOMIC CHARGES
----------------------
   0 C :    0.006145
   1 C :    0.004525
   2 C :    0.005787
   3 C :    0.002387
   4 C :   -0.011241
   5 C :   -0.012202
   6 C :    0.076519
   7 C :   -0.129029
   8 C :   -0.019209
   9 N :   -0.042361
  10 C :   -0.021486
  11 N :   -0.038929
  12 C :   -0.053676
  13 C :    0.066639
  14 C :   -0.113066
  15 C :    0.020347
  16 N :   -0.057761
  17 C :   -0.004195
  18 N :   -0.050747
  19 C :    0.048570
  20 C :   -0.202813
  21 S :    0.472134
  22 C :   -0.171927
  23 C :   -0.044680
  24 C :   -0.021214
  25 C :   -0.025352
  26 C :    0.064027
  27 O :   -0.162655
  28 C :    0.068296
  29 C :    0.056533
  30 O :   -0.167311
  31 C :    0.071061
  32 C :   -0.034868
  33 C :   -0.232588
  34 S :    0.495293
  35 C :   -0.188603
  36 C :   -0.063345
  37 C :    0.003524
  38 N :    0.076082
  39 C :    0.010964
  40 N :    0.278074
  41 O :   -0.211690
  42 O :   -0.196965
  43 C :   -0.043922
  44 C :   -0.144143
  45 S :    0.475670
  46 C :   -0.183975
  47 C :   -0.006815
  48 C :   -0.045328
  49 C :   -0.040121
  50 C :    0.067709
  51 O :   -0.162992
  52 C :    0.068838
  53 C :    0.054957
  54 O :   -0.164275
  55 C :    0.071514
  56 C :   -0.039076
  57 C :    0.036626
  58 C :   -0.075827
  59 C :    0.076319
  60 C :   -0.136967
  61 C :   -0.023949
  62 N :   -0.045701
  63 C :   -0.018907
  64 N :   -0.050500
  65 C :   -0.014991
  66 C :   -0.011802
  67 C :   -0.003147
  68 C :    0.000852
  69 C :   -0.001627
  70 C :    0.003948
  71 C :    0.063609
  72 C :   -0.140730
  73 C :   -0.019913
  74 N :   -0.058141
  75 C :   -0.018139
  76 N :   -0.042662
  77 H :    0.042298
  78 H :    0.038755
  79 H :    0.038515
  80 H :    0.041174
  81 H :    0.047945
  82 H :    0.049349
  83 H :    0.029196
  84 H :    0.012940
  85 H :    0.026587
  86 H :    0.005577
  87 H :    0.009273
  88 H :    0.009365
  89 H :    0.026347
  90 H :    0.009353
  91 H :    0.006814
  92 H :    0.024412
  93 H :    0.046153
  94 H :    0.075212
  95 H :    0.034368
  96 H :    0.035407
  97 H :    0.032784
  98 H :    0.012947
  99 H :    0.008829
 100 H :    0.030113
 101 H :    0.003663
 102 H :    0.007704
 103 H :    0.027392
 104 H :    0.007866
 105 H :    0.008936
 106 H :    0.031613
 107 H :    0.044895
 108 H :    0.045541
 109 H :    0.039178
 110 H :    0.036420
 111 H :    0.036610
 112 H :    0.041084

  Mayer bond orders larger than 0.100000
B(  0-C ,  1-C ) :   1.3736 B(  0-C ,  5-C ) :   1.3752 B(  0-C , 77-H ) :   0.9853
B(  1-C ,  2-C ) :   1.3725 B(  1-C , 78-H ) :   0.9864 B(  2-C ,  3-C ) :   1.3678
B(  2-C , 79-H ) :   0.9862 B(  3-C ,  4-C ) :   1.3765 B(  3-C , 80-H ) :   0.9881
B(  4-C ,  5-C ) :   1.3106 B(  4-C , 13-C ) :   1.0063 B(  5-C ,  6-C ) :   1.0028
B(  6-C ,  7-C ) :   1.6529 B(  6-C , 12-C ) :   1.0397 B(  7-C ,  8-C ) :   1.1449
B(  7-C , 10-C ) :   1.1366 B(  8-C ,  9-N ) :   2.9786 B( 10-C , 11-N ) :   2.9744
B( 12-C , 13-C ) :   0.9954 B( 12-C , 19-C ) :   1.6936 B( 13-C , 14-C ) :   1.6861
B( 14-C , 15-C ) :   1.1664 B( 14-C , 17-C ) :   1.1517 B( 15-C , 16-N ) :   2.9446
B( 17-C , 18-N ) :   2.9184 B( 19-C , 20-C ) :   1.0789 B( 19-C , 81-H ) :   0.9210
B( 20-C , 21-S ) :   1.1100 B( 20-C , 22-C ) :   0.1074 B( 20-C , 24-C ) :   1.4821
B( 21-S , 22-C ) :   1.1421 B( 22-C , 23-C ) :   1.5341 B( 22-C , 33-C ) :   1.0241
B( 23-C , 24-C ) :   1.3143 B( 23-C , 32-C ) :   1.0363 B( 24-C , 25-C ) :   1.0469
B( 25-C , 26-C ) :   1.0444 B( 25-C , 82-H ) :   0.8863 B( 25-C , 83-H ) :   0.9006
B( 26-C , 27-O ) :   1.0234 B( 26-C , 29-C ) :   0.9991 B( 26-C , 84-H ) :   0.9220
B( 27-O , 28-C ) :   0.9700 B( 28-C , 85-H ) :   0.9697 B( 28-C , 86-H ) :   0.9672
B( 28-C , 87-H ) :   0.9638 B( 29-C , 30-O ) :   1.0090 B( 29-C , 32-C ) :   1.0215
B( 29-C , 88-H ) :   0.9226 B( 30-O , 31-C ) :   0.9879 B( 31-C , 89-H ) :   0.9817
B( 31-C , 90-H ) :   0.9664 B( 31-C , 91-H ) :   0.9656 B( 32-C , 92-H ) :   0.8918
B( 32-C , 93-H ) :   0.8886 B( 33-C , 34-S ) :   1.1237 B( 33-C , 35-C ) :   0.1189
B( 33-C , 37-C ) :   1.4275 B( 34-S , 35-C ) :   1.1367 B( 35-C , 36-C ) :   1.3202
B( 35-C , 44-C ) :   1.2167 B( 36-C , 37-C ) :   1.2270 B( 36-C , 43-C ) :   1.1508
B( 37-C , 38-N ) :   1.2153 B( 38-N , 39-C ) :   1.1978 B( 38-N , 94-H ) :   0.8637
B( 39-C , 40-N ) :   0.9167 B( 39-C , 43-C ) :   1.5152 B( 40-N , 41-O ) :   1.4971
B( 40-N , 42-O ) :   1.5424 B( 41-O , 42-O ) :   0.2762 B( 43-C , 95-H ) :   1.0117
B( 44-C , 45-S ) :   1.1451 B( 44-C , 48-C ) :   1.4304 B( 45-S , 46-C ) :   1.0930
B( 46-C , 47-C ) :   1.3728 B( 46-C , 57-C ) :   1.2373 B( 47-C , 48-C ) :   1.3949
B( 47-C , 56-C ) :   1.0647 B( 48-C , 49-C ) :   1.0599 B( 49-C , 50-C ) :   1.0154
B( 49-C , 96-H ) :   0.8900 B( 49-C , 97-H ) :   0.8879 B( 50-C , 51-O ) :   1.0420
B( 50-C , 53-C ) :   1.0090 B( 50-C , 98-H ) :   0.9190 B( 51-O , 52-C ) :   0.9784
B( 52-C , 99-H ) :   0.9657 B( 52-C ,100-H ) :   0.9818 B( 52-C ,101-H ) :   0.9646
B( 53-C , 54-O ) :   1.0419 B( 53-C , 56-C ) :   1.0131 B( 53-C ,102-H ) :   0.9182
B( 54-O , 55-C ) :   0.9853 B( 55-C ,103-H ) :   0.9818 B( 55-C ,104-H ) :   0.9637
B( 55-C ,105-H ) :   0.9687 B( 56-C ,106-H ) :   0.9019 B( 56-C ,107-H ) :   0.8474
B( 57-C , 58-C ) :   1.5208 B( 57-C ,108-H ) :   0.9108 B( 58-C , 59-C ) :   1.0800
B( 58-C , 71-C ) :   1.0693 B( 59-C , 60-C ) :   1.6161 B( 59-C , 65-C ) :   0.9901
B( 60-C , 61-C ) :   1.1390 B( 60-C , 63-C ) :   1.1513 B( 61-C , 62-N ) :   2.9622
B( 63-C , 64-N ) :   2.9715 B( 65-C , 66-C ) :   1.3156 B( 65-C , 70-C ) :   1.3805
B( 66-C , 67-C ) :   1.3850 B( 66-C , 71-C ) :   1.0048 B( 67-C , 68-C ) :   1.3584
B( 67-C ,109-H ) :   0.9871 B( 68-C , 69-C ) :   1.3819 B( 68-C ,110-H ) :   0.9868
B( 69-C , 70-C ) :   1.3670 B( 69-C ,111-H ) :   0.9857 B( 70-C ,112-H ) :   0.9835
B( 71-C , 72-C ) :   1.5965 B( 72-C , 73-C ) :   1.1453 B( 72-C , 75-C ) :   1.1697
B( 73-C , 74-N ) :   2.9774 B( 75-C , 76-N ) :   3.0088

-----------------------------------------------------------------------------
         ABSORPTION SPECTRUM VIA TRANSITION ELECTRIC DIPOLE MOMENTS
-----------------------------------------------------------------------------
State   Energy  Wavelength   fosc         T2         TX        TY        TZ
        (cm-1)    (nm)                  (au**2)     (au)      (au)      (au)
-----------------------------------------------------------------------------
   0   14564.9    686.6   1.293166235  29.22950   0.68239  -5.11510  -1.61233
   1   17044.9    586.7   0.110295057   2.13028  -0.28740  -1.41907  -0.18415
   2   19567.7    511.0   0.129626515   2.18087  -1.14647   0.88600  -0.28546
   3   20201.1    495.0   0.043841260   0.71447  -0.32513  -0.77794  -0.05980
   4   23556.2    424.5   0.082711478   1.15594   0.29610  -0.43109  -0.93938
   5   23758.6    420.9   0.008662284   0.12003   0.10109   0.01431   0.33107
   6   25670.9    389.5   0.018102831   0.23216  -0.10499   0.46659  -0.05853
   7   26767.8    373.6   0.131648143   1.61911   0.67300   1.06056  -0.20347
   8   28029.5    356.8   0.093205415   1.09471  -0.67262  -0.51704  -0.61234
   9   28251.7    354.0   0.093988701   1.09523  -0.62327   0.83913   0.05116
  10   29109.2    343.5   0.065487946   0.74064   0.31670  -0.06032  -0.79793
  11   29387.9    340.3   0.091090321   1.02042  -0.10564   0.95752   0.30401
  12   29907.3    334.4   0.158391734   1.74354  -1.13151   0.53124  -0.42544
  13   30362.3    329.4   0.254872505   2.76353   1.16775  -0.84685   0.82627
  14   31246.4    320.0   0.188140398   1.98225  -0.29091   1.16251   0.73904
  15   31457.0    317.9   0.204049926   2.13548   0.42205  -1.30798   0.49653
  16   31817.8    314.3   0.102394813   1.05946   0.73182   0.72141  -0.05884
  17   32103.1    311.5   0.069445159   0.71215  -0.41971   0.72896   0.06789
  18   32405.9    308.6   0.061390238   0.62366  -0.74395  -0.25576   0.06918
  19   32754.3    305.3   0.132495159   1.33170   0.48445  -0.55006   0.89132
  20   32947.7    303.5   0.106878858   1.06793  -1.00480  -0.12261   0.20801
  21   33292.8    300.4   0.088552757   0.87564   0.02602   0.93380   0.05467
  22   33403.3    299.4   0.047776663   0.47087  -0.40338   0.44228  -0.33548
  23   33664.9    297.0   0.009663626   0.09450   0.23009  -0.02178  -0.20269
  24   34017.2    294.0   0.108829321   1.05323  -0.79152  -0.36346  -0.54280
  25   34207.1    292.3   0.215123982   2.07037   1.13254   0.14711   0.87526
  26   34428.7    290.5   0.412111631   3.94067   0.95578   1.69395  -0.39709
  27   34766.2    287.6   0.085823134   0.81269  -0.36488   0.70934   0.41999
  28   34965.8    286.0   0.060465339   0.56930   0.38745  -0.64710   0.02103
  29   35237.3    283.8   0.323556593   3.02290   0.49614  -1.16453  -1.19190
  30   35307.0    283.2   0.250229439   2.33321   1.27239  -0.83578  -0.12538
  31   35738.0    279.8   0.005402827   0.04977  -0.13740  -0.12152  -0.12699
  32   35866.2    278.8   0.040549767   0.37220  -0.44126   0.41431  -0.07644
  33   36254.0    275.8   0.021803497   0.19799  -0.32099  -0.18067  -0.24963
  34   36440.7    274.4   0.012413275   0.11214  -0.27773   0.15410  -0.10612
  35   37063.3    269.8   0.009521869   0.08458  -0.17544   0.23167   0.01132
  36   37329.2    267.9   0.002471027   0.02179  -0.10629  -0.00045   0.10244
  37   37339.8    267.8   0.000051160   0.00045  -0.01892   0.00962   0.00080
  38   37870.7    264.1   0.051472950   0.44746   0.30160  -0.21162  -0.55831
  39   38197.2    261.8   0.071043422   0.61230   0.31644  -0.47784   0.53276
  40   38396.5    260.4   0.005310471   0.04553   0.02152  -0.18613  -0.10211
  41   38778.5    257.9   0.014368290   0.12198   0.10065   0.32844   0.06305
  42   39288.1    254.5   0.032290233   0.27057  -0.30615   0.17789  -0.38105
  43   39415.8    253.7   0.010825906   0.09042  -0.07777  -0.07373  -0.28096
  44   39457.6    253.4   0.074563478   0.62212  -0.17845   0.17685  -0.74766
  45   39715.9    251.8   0.069363955   0.57497  -0.19858   0.21316  -0.70007

FINAL SINGLE POINT ENERGY     -4420.536561833113

DIPOLE MOMENT
-------------
                                X             Y             Z
Electronic contribution:     33.70329       5.16736      52.59719
Nuclear contribution   :    -37.10511      -3.86795     -57.10374
                        -----------------------------------------
Total Dipole Moment    :     -3.40182       1.29941      -4.50655
                        -----------------------------------------
Magnitude (a.u.)       :      5.79395
Magnitude (Debye)      :     14.72706

Rotational constants in cm-1:     0.001950     0.000342     0.000324
Rotational constants in MHz :    58.449640    10.256074     9.701383

                             ****ORCA TERMINATED NORMALLY****
TOTAL RUN TIME: 0 days 0 hours 17 minutes 45 seconds 331 msec
