                         Program Version 4.2.0 -  RELEASE  -
|  1> # ORCA input file
|  2> # SCF done       -191.234723621980          0.000412395729
|  3> ! CAM-B3LYP def2-SVP def2/J RIJCOSX Grid4 TightSCF
|  4> %maxcore 5000
|  5> %tddft
|  6>     Mode sTDDFT
|  7>     Ethresh 5.0
|  8>     maxcore 5000
|  9> end
| 10>
| 11> %pal
| 12>   nprocs 6
| 13>   end
| 14> * xyz 0 1
| 15>    C      -15.36339        -4.59684         6.46659
| 16>    C      -16.44335        -4.53864         5.59762
| 17>    C      -16.46456        -5.28802         4.43094
| 18>    C      -15.40825        -6.12527         4.10375
| 19>    C      -14.32540        -6.19136         4.96403
| 20>    C      -14.29669        -5.42153         6.14777
| 21>    C      -13.03475        -5.66715         6.83765
| 22>    C      -12.68636        -5.15294         8.06091
| 23>    C      -13.52276        -4.32496         8.83806
| 24>    N      -14.14487        -3.64865         9.52687
| 25>    C      -11.47562        -5.38435         8.74559
| 26>    N      -10.52098        -5.51606         9.37127
| 27>    C      -12.23796        -6.51960         5.97000
| 28>    C      -13.10683        -6.98612         4.90582
| 29>    C      -12.95049        -8.12979         4.16199
| 30>    C      -11.90476        -9.05802         4.33335
| 31>    N      -11.10901        -9.87768         4.45046
| 32>    C      -13.86330        -8.56543         3.18199
| 33>    N      -14.54617        -8.95647         2.34517
| 34>    C      -10.88873        -6.73975         6.13705
| 35>    C       -9.93720        -7.12784         5.18367
| 36>    S       -8.35932        -7.66129         5.77975
| 37>    C       -7.79446        -7.85537         4.17153
| 38>    C       -8.78417        -7.48122         3.23007
| 39>    C       -9.98413        -7.07956         3.79163
| 40>    N       -8.24034        -7.62766         1.99156
| 41>    C       -6.96085        -8.11014         2.11506
| 42>    C       -6.66154        -8.25414         3.47001
| 43>    C       -6.10742        -8.36054         0.97946
| 44>    C       -5.01566        -9.18746         1.10592
| 45>    C       -4.15121        -9.40309         0.01347
| 46>    C       -2.99359       -10.15609        -0.11362
| 47>    C       -2.32750       -11.03239         0.89455
| 48>    C       -1.80437       -10.21801         2.09354
| 49>    N       -0.70768       -10.93393         2.71718
| 50>    C       -3.26426       -12.17065         1.33833
| 51>    N       -2.54177       -13.15069         2.13620
| 52>    C       -2.49028        -9.91787        -1.44617
| 53>    C       -1.35905       -10.32459        -2.05080
| 54>    C       -0.99720        -9.85518        -3.42032
| 55>    C       -2.05039        -9.04427        -4.10073
| 56>    C       -3.17450        -8.64227        -3.47966
| 57>    C       -3.42788        -9.02467        -2.14061
| 58>    C       -4.43087        -8.71888        -1.24546
| 59>    C       -5.57275        -7.89149        -1.35160
| 60>    C       -6.38317        -7.72448        -0.27772
| 61>    C       -0.46617       -11.00423        -4.23555
| 62>    C       -1.07214       -11.51552        -5.31018
| 63>    C       -0.54289       -12.57117        -6.12467
| 64>    S       -1.44623       -13.02472        -7.56415
| 65>    C       -0.22594       -14.16576        -7.99211
| 66>    C        0.80959       -14.18613        -7.02873
| 67>    C        0.62675       -13.28317        -5.97767
| 68>    N        1.71506       -15.10655        -7.42354
| 69>    C        1.32777       -15.63492        -8.64002
| 70>    C        0.09606       -15.06118        -8.99826
| 71>    C        2.09017       -16.66116        -9.23087
| 72>    C        2.03741       -17.14676       -10.51133
| 73>    C        2.51799       -18.46221       -10.91069
| 74>    C        3.35063       -19.29561       -10.20887
| 75>    C        3.93570       -19.00339        -8.96036
| 76>    N        4.44568       -18.82597        -7.94590
| 77>    C        3.77587       -20.56051       -10.66650
| 78>    N        4.16261       -21.59680       -10.97363
| 79>    C        1.93925       -18.74215       -12.21903
| 80>    C        1.25467       -17.59150       -12.67179
| 81>    C        0.59356       -17.59493       -13.88841
| 82>    C        0.61963       -18.75230       -14.65240
| 83>    C        1.29906       -19.88000       -14.21482
| 84>    C        1.96503       -19.88803       -12.99800
| 85>    C        1.43377       -16.53641       -11.68617
| 86>    C        1.32810       -15.19260       -11.93350
| 87>    C        0.80932       -14.65124       -13.12703
| 88>    N        0.37497       -14.15678       -14.06749
| 89>    C        1.82491       -14.19550       -11.06971
| 90>    N        2.27005       -13.35214       -10.43059
| 91>    H      -15.36527        -4.00441         7.36634
| 92>    H      -17.27742        -3.89617         5.83544
| 93>    H      -17.31241        -5.22092         3.76635
| 94>    H      -15.43388        -6.69919         3.19161
| 95>    H      -10.47519        -6.52103         7.11280
| 96>    H      -10.83510        -6.72172         3.24026
| 97>    H       -8.72866        -7.51221         1.11991
| 98>    H       -5.72927        -8.57667         3.88495
| 99>    H       -4.82180        -9.67355         2.04769
|100>    H       -1.44780       -11.49208         0.43331
|101>    H       -2.63969       -10.00601         2.77978
|102>    H       -1.41945        -9.25794         1.73187
|103>    H       -1.04614       -11.84616         3.01320
|104>    H       -0.37869       -10.43327         3.53574
|105>    H       -3.72844       -12.60628         0.43645
|106>    H       -4.06767       -11.77030         1.96019
|107>    H       -1.84700       -13.62173         1.56485
|108>    H       -3.18037       -13.85493         2.49007
|109>    H       -0.64748       -10.97446        -1.55985
|110>    H       -0.13294        -9.18034        -3.27055
|111>    H       -1.83387        -8.74526        -5.11486
|112>    H       -3.89481        -8.02183        -3.99279
|113>    H       -5.78069        -7.38973        -2.28522
|114>    H       -7.23608        -7.06585        -0.35274
|115>    H        0.47096       -11.41534        -3.88796
|116>    H       -2.01957       -11.10922        -5.63674
|117>    H        1.31116       -13.14955        -5.16133
|118>    H        2.59204       -15.31222        -6.97359
|119>    H       -0.49222       -15.30606        -9.85963
|120>    H        2.75270       -17.16882        -8.54165
|121>    H        0.05826       -16.72598       -14.23560
|122>    H        0.10304       -18.77302       -15.59973
|123>    H        1.30938       -20.76857       -14.82730
|124>    H        2.48427       -20.77474       -12.67388
|125> *
|126>
|127>                          ****END OF INPUT****

CARTESIAN COORDINATES (ANGSTROEM)
---------------------------------
  C    -15.363390   -4.596840    6.466590
  C    -16.443350   -4.538640    5.597620
  C    -16.464560   -5.288020    4.430940
  C    -15.408250   -6.125270    4.103750
  C    -14.325400   -6.191360    4.964030
  C    -14.296690   -5.421530    6.147770
  C    -13.034750   -5.667150    6.837650
  C    -12.686360   -5.152940    8.060910
  C    -13.522760   -4.324960    8.838060
  N    -14.144870   -3.648650    9.526870
  C    -11.475620   -5.384350    8.745590
  N    -10.520980   -5.516060    9.371270
  C    -12.237960   -6.519600    5.970000
  C    -13.106830   -6.986120    4.905820
  C    -12.950490   -8.129790    4.161990
  C    -11.904760   -9.058020    4.333350
  N    -11.109010   -9.877680    4.450460
  C    -13.863300   -8.565430    3.181990
  N    -14.546170   -8.956470    2.345170
  C    -10.888730   -6.739750    6.137050
  C     -9.937200   -7.127840    5.183670
  S     -8.359320   -7.661290    5.779750
  C     -7.794460   -7.855370    4.171530
  C     -8.784170   -7.481220    3.230070
  C     -9.984130   -7.079560    3.791630
  N     -8.240340   -7.627660    1.991560
  C     -6.960850   -8.110140    2.115060
  C     -6.661540   -8.254140    3.470010
  C     -6.107420   -8.360540    0.979460
  C     -5.015660   -9.187460    1.105920
  C     -4.151210   -9.403090    0.013470
  C     -2.993590  -10.156090   -0.113620
  C     -2.327500  -11.032390    0.894550
  C     -1.804370  -10.218010    2.093540
  N     -0.707680  -10.933930    2.717180
  C     -3.264260  -12.170650    1.338330
  N     -2.541770  -13.150690    2.136200
  C     -2.490280   -9.917870   -1.446170
  C     -1.359050  -10.324590   -2.050800
  C     -0.997200   -9.855180   -3.420320
  C     -2.050390   -9.044270   -4.100730
  C     -3.174500   -8.642270   -3.479660
  C     -3.427880   -9.024670   -2.140610
  C     -4.430870   -8.718880   -1.245460
  C     -5.572750   -7.891490   -1.351600
  C     -6.383170   -7.724480   -0.277720
  C     -0.466170  -11.004230   -4.235550
  C     -1.072140  -11.515520   -5.310180
  C     -0.542890  -12.571170   -6.124670
  S     -1.446230  -13.024720   -7.564150
  C     -0.225940  -14.165760   -7.992110
  C      0.809590  -14.186130   -7.028730
  C      0.626750  -13.283170   -5.977670
  N      1.715060  -15.106550   -7.423540
  C      1.327770  -15.634920   -8.640020
  C      0.096060  -15.061180   -8.998260
  C      2.090170  -16.661160   -9.230870
  C      2.037410  -17.146760  -10.511330
  C      2.517990  -18.462210  -10.910690
  C      3.350630  -19.295610  -10.208870
  C      3.935700  -19.003390   -8.960360
  N      4.445680  -18.825970   -7.945900
  C      3.775870  -20.560510  -10.666500
  N      4.162610  -21.596800  -10.973630
  C      1.939250  -18.742150  -12.219030
  C      1.254670  -17.591500  -12.671790
  C      0.593560  -17.594930  -13.888410
  C      0.619630  -18.752300  -14.652400
  C      1.299060  -19.880000  -14.214820
  C      1.965030  -19.888030  -12.998000
  C      1.433770  -16.536410  -11.686170
  C      1.328100  -15.192600  -11.933500
  C      0.809320  -14.651240  -13.127030
  N      0.374970  -14.156780  -14.067490
  C      1.824910  -14.195500  -11.069710
  N      2.270050  -13.352140  -10.430590
  H    -15.365270   -4.004410    7.366340
  H    -17.277420   -3.896170    5.835440
  H    -17.312410   -5.220920    3.766350
  H    -15.433880   -6.699190    3.191610
  H    -10.475190   -6.521030    7.112800
  H    -10.835100   -6.721720    3.240260
  H     -8.728660   -7.512210    1.119910
  H     -5.729270   -8.576670    3.884950
  H     -4.821800   -9.673550    2.047690
  H     -1.447800  -11.492080    0.433310
  H     -2.639690  -10.006010    2.779780
  H     -1.419450   -9.257940    1.731870
  H     -1.046140  -11.846160    3.013200
  H     -0.378690  -10.433270    3.535740
  H     -3.728440  -12.606280    0.436450
  H     -4.067670  -11.770300    1.960190
  H     -1.847000  -13.621730    1.564850
  H     -3.180370  -13.854930    2.490070
  H     -0.647480  -10.974460   -1.559850
  H     -0.132940   -9.180340   -3.270550
  H     -1.833870   -8.745260   -5.114860
  H     -3.894810   -8.021830   -3.992790
  H     -5.780690   -7.389730   -2.285220
  H     -7.236080   -7.065850   -0.352740
  H      0.470960  -11.415340   -3.887960
  H     -2.019570  -11.109220   -5.636740
  H      1.311160  -13.149550   -5.161330
  H      2.592040  -15.312220   -6.973590
  H     -0.492220  -15.306060   -9.859630
  H      2.752700  -17.168820   -8.541650
  H      0.058260  -16.725980  -14.235600
  H      0.103040  -18.773020  -15.599730
  H      1.309380  -20.768570  -14.827300
  H      2.484270  -20.774740  -12.673880

 Total Charge           Charge          ....    0
 Multiplicity           Mult            ....    1
 Number of Electrons    NEL             ....  522
 Basis Dimension        Dim             .... 1242

ORBITAL ENERGIES
----------------

  NO   OCC          E(Eh)            E(eV)
   0   2.0000     -88.970152     -2421.0009
   1   2.0000     -88.964753     -2420.8540
   2   2.0000     -14.487824      -394.2337
   3   2.0000     -14.480259      -394.0279
   4   2.0000     -14.425537      -392.5388
   5   2.0000     -14.421725      -392.4351
   6   2.0000     -14.420924      -392.4133
   7   2.0000     -14.419112      -392.3640
   8   2.0000     -14.414850      -392.2480
   9   2.0000     -14.413957      -392.2237
  10   2.0000     -14.412980      -392.1971
  11   2.0000     -14.410412      -392.1273
  12   2.0000     -14.396480      -391.7481
  13   2.0000     -14.362567      -390.8253
  14   2.0000     -10.350449      -281.6500
  15   2.0000     -10.349171      -281.6153
  16   2.0000     -10.348561      -281.5987
  17   2.0000     -10.347700      -281.5752
  18   2.0000     -10.341002      -281.3930
  19   2.0000     -10.339638      -281.3559
  20   2.0000     -10.339242      -281.3451
  21   2.0000     -10.338665      -281.3294
  22   2.0000     -10.334255      -281.2094
  23   2.0000     -10.334075      -281.2045
  24   2.0000     -10.333074      -281.1773
  25   2.0000     -10.330440      -281.1056
  26   2.0000     -10.328538      -281.0538
  27   2.0000     -10.328003      -281.0393
  28   2.0000     -10.324281      -280.9380
  29   2.0000     -10.322804      -280.8978
  30   2.0000     -10.322260      -280.8830
  31   2.0000     -10.322216      -280.8818
  32   2.0000     -10.321127      -280.8521
  33   2.0000     -10.318208      -280.7727
  34   2.0000     -10.316722      -280.7323
  35   2.0000     -10.316584      -280.7285
  36   2.0000     -10.316408      -280.7237
  37   2.0000     -10.316257      -280.7196
  38   2.0000     -10.314770      -280.6792
  39   2.0000     -10.313840      -280.6539
  40   2.0000     -10.313424      -280.6425
  41   2.0000     -10.313101      -280.6337
  42   2.0000     -10.311060      -280.5782
  43   2.0000     -10.308363      -280.5048
  44   2.0000     -10.307893      -280.4920
  45   2.0000     -10.306063      -280.4422
  46   2.0000     -10.305525      -280.4276
  47   2.0000     -10.305232      -280.4196
  48   2.0000     -10.304900      -280.4106
  49   2.0000     -10.303664      -280.3769
  50   2.0000     -10.301881      -280.3284
  51   2.0000     -10.301444      -280.3165
  52   2.0000     -10.301104      -280.3073
  53   2.0000     -10.300690      -280.2960
  54   2.0000     -10.299789      -280.2715
  55   2.0000     -10.299678      -280.2685
  56   2.0000     -10.297355      -280.2053
  57   2.0000     -10.296869      -280.1920
  58   2.0000     -10.294665      -280.1321
  59   2.0000     -10.293713      -280.1062
  60   2.0000     -10.293602      -280.1031
  61   2.0000     -10.293473      -280.0996
  62   2.0000     -10.292569      -280.0750
  63   2.0000     -10.285774      -279.8901
  64   2.0000     -10.285121      -279.8724
  65   2.0000     -10.284976      -279.8684
  66   2.0000     -10.284850      -279.8650
  67   2.0000     -10.284674      -279.8602
  68   2.0000     -10.282316      -279.7960
  69   2.0000     -10.280431      -279.7447
  70   2.0000     -10.279392      -279.7165
  71   2.0000     -10.276117      -279.6274
  72   2.0000     -10.274571      -279.5853
  73   2.0000     -10.274085      -279.5721
  74   2.0000     -10.272422      -279.5268
  75   2.0000     -10.272251      -279.5221
  76   2.0000      -8.065525      -219.4741
  77   2.0000      -8.059788      -219.3180
  78   2.0000      -6.035155      -164.2249
  79   2.0000      -6.031159      -164.1162
  80   2.0000      -6.029371      -164.0675
  81   2.0000      -6.026809      -163.9978
  82   2.0000      -6.025371      -163.9587
  83   2.0000      -6.021211      -163.8455
  84   2.0000      -1.108688       -30.1689
  85   2.0000      -1.101263       -29.9669
  86   2.0000      -1.036507       -28.2048
  87   2.0000      -1.028177       -27.9781
  88   2.0000      -1.019403       -27.7394
  89   2.0000      -1.010727       -27.5033
  90   2.0000      -1.008743       -27.4493
  91   2.0000      -1.000374       -27.2216
  92   2.0000      -1.000170       -27.2160
  93   2.0000      -0.999690       -27.2029
  94   2.0000      -0.995908       -27.1000
  95   2.0000      -0.993548       -27.0358
  96   2.0000      -0.990519       -26.9534
  97   2.0000      -0.990405       -26.9503
  98   2.0000      -0.984020       -26.7766
  99   2.0000      -0.978861       -26.6362
 100   2.0000      -0.960377       -26.1332
 101   2.0000      -0.958090       -26.0709
 102   2.0000      -0.950726       -25.8706
 103   2.0000      -0.944234       -25.6939
 104   2.0000      -0.940686       -25.5974
 105   2.0000      -0.931624       -25.3508
 106   2.0000      -0.928497       -25.2657
 107   2.0000      -0.912520       -24.8309
 108   2.0000      -0.903322       -24.5806
 109   2.0000      -0.901848       -24.5405
 110   2.0000      -0.894485       -24.3402
 111   2.0000      -0.888770       -24.1847
 112   2.0000      -0.885597       -24.0983
 113   2.0000      -0.880682       -23.9646
 114   2.0000      -0.868243       -23.6261
 115   2.0000      -0.866979       -23.5917
 116   2.0000      -0.859397       -23.3854
 117   2.0000      -0.851966       -23.1832
 118   2.0000      -0.846727       -23.0406
 119   2.0000      -0.841240       -22.8913
 120   2.0000      -0.840531       -22.8720
 121   2.0000      -0.831148       -22.6167
 122   2.0000      -0.819886       -22.3102
 123   2.0000      -0.809400       -22.0249
 124   2.0000      -0.792125       -21.5548
 125   2.0000      -0.786458       -21.4006
 126   2.0000      -0.783912       -21.3313
 127   2.0000      -0.768133       -20.9020
 128   2.0000      -0.767050       -20.8725
 129   2.0000      -0.745531       -20.2869
 130   2.0000      -0.728493       -19.8233
 131   2.0000      -0.725240       -19.7348
 132   2.0000      -0.718967       -19.5641
 133   2.0000      -0.715432       -19.4679
 134   2.0000      -0.713958       -19.4278
 135   2.0000      -0.713743       -19.4219
 136   2.0000      -0.707568       -19.2539
 137   2.0000      -0.706468       -19.2240
 138   2.0000      -0.701547       -19.0901
 139   2.0000      -0.695262       -18.9190
 140   2.0000      -0.690026       -18.7766
 141   2.0000      -0.679761       -18.4972
 142   2.0000      -0.673832       -18.3359
 143   2.0000      -0.669906       -18.2291
 144   2.0000      -0.665959       -18.1217
 145   2.0000      -0.663720       -18.0607
 146   2.0000      -0.660875       -17.9833
 147   2.0000      -0.659276       -17.9398
 148   2.0000      -0.656509       -17.8645
 149   2.0000      -0.651991       -17.7416
 150   2.0000      -0.646812       -17.6007
 151   2.0000      -0.636727       -17.3262
 152   2.0000      -0.625158       -17.0114
 153   2.0000      -0.623856       -16.9760
 154   2.0000      -0.616771       -16.7832
 155   2.0000      -0.614840       -16.7306
 156   2.0000      -0.608476       -16.5575
 157   2.0000      -0.592100       -16.1118
 158   2.0000      -0.590879       -16.0786
 159   2.0000      -0.586692       -15.9647
 160   2.0000      -0.585813       -15.9408
 161   2.0000      -0.581788       -15.8313
 162   2.0000      -0.578531       -15.7426
 163   2.0000      -0.578105       -15.7310
 164   2.0000      -0.568879       -15.4800
 165   2.0000      -0.567004       -15.4290
 166   2.0000      -0.559825       -15.2336
 167   2.0000      -0.555646       -15.1199
 168   2.0000      -0.553819       -15.0702
 169   2.0000      -0.550966       -14.9926
 170   2.0000      -0.547191       -14.8898
 171   2.0000      -0.546203       -14.8629
 172   2.0000      -0.541575       -14.7370
 173   2.0000      -0.540536       -14.7087
 174   2.0000      -0.540364       -14.7040
 175   2.0000      -0.539654       -14.6847
 176   2.0000      -0.538123       -14.6431
 177   2.0000      -0.536060       -14.5869
 178   2.0000      -0.534226       -14.5370
 179   2.0000      -0.533431       -14.5154
 180   2.0000      -0.530636       -14.4393
 181   2.0000      -0.527414       -14.3517
 182   2.0000      -0.523755       -14.2521
 183   2.0000      -0.520190       -14.1551
 184   2.0000      -0.516971       -14.0675
 185   2.0000      -0.510003       -13.8779
 186   2.0000      -0.508838       -13.8462
 187   2.0000      -0.508433       -13.8352
 188   2.0000      -0.505009       -13.7420
 189   2.0000      -0.503185       -13.6924
 190   2.0000      -0.501375       -13.6431
 191   2.0000      -0.497572       -13.5396
 192   2.0000      -0.496619       -13.5137
 193   2.0000      -0.492229       -13.3942
 194   2.0000      -0.484616       -13.1871
 195   2.0000      -0.484029       -13.1711
 196   2.0000      -0.482375       -13.1261
 197   2.0000      -0.478448       -13.0192
 198   2.0000      -0.476158       -12.9569
 199   2.0000      -0.474478       -12.9112
 200   2.0000      -0.473044       -12.8722
 201   2.0000      -0.470975       -12.8159
 202   2.0000      -0.468145       -12.7389
 203   2.0000      -0.467890       -12.7319
 204   2.0000      -0.464421       -12.6375
 205   2.0000      -0.459772       -12.5110
 206   2.0000      -0.457476       -12.4486
 207   2.0000      -0.456751       -12.4288
 208   2.0000      -0.456726       -12.4281
 209   2.0000      -0.454572       -12.3695
 210   2.0000      -0.452785       -12.3209
 211   2.0000      -0.450492       -12.2585
 212   2.0000      -0.449308       -12.2263
 213   2.0000      -0.448335       -12.1998
 214   2.0000      -0.448115       -12.1938
 215   2.0000      -0.447743       -12.1837
 216   2.0000      -0.445443       -12.1211
 217   2.0000      -0.441693       -12.0191
 218   2.0000      -0.440731       -11.9929
 219   2.0000      -0.439645       -11.9634
 220   2.0000      -0.436383       -11.8746
 221   2.0000      -0.434365       -11.8197
 222   2.0000      -0.433880       -11.8065
 223   2.0000      -0.433569       -11.7980
 224   2.0000      -0.431497       -11.7416
 225   2.0000      -0.428204       -11.6520
 226   2.0000      -0.426362       -11.6019
 227   2.0000      -0.426037       -11.5931
 228   2.0000      -0.425025       -11.5655
 229   2.0000      -0.422930       -11.5085
 230   2.0000      -0.420815       -11.4510
 231   2.0000      -0.419245       -11.4082
 232   2.0000      -0.416825       -11.3424
 233   2.0000      -0.416604       -11.3364
 234   2.0000      -0.412931       -11.2364
 235   2.0000      -0.410130       -11.1602
 236   2.0000      -0.407288       -11.0829
 237   2.0000      -0.406799       -11.0696
 238   2.0000      -0.403084       -10.9685
 239   2.0000      -0.398354       -10.8398
 240   2.0000      -0.392910       -10.6916
 241   2.0000      -0.386414       -10.5149
 242   2.0000      -0.380146       -10.3443
 243   2.0000      -0.379513       -10.3271
 244   2.0000      -0.377196       -10.2640
 245   2.0000      -0.375983       -10.2310
 246   2.0000      -0.357652        -9.7322
 247   2.0000      -0.343943        -9.3592
 248   2.0000      -0.338828        -9.2200
 249   2.0000      -0.334831        -9.1112
 250   2.0000      -0.327635        -8.9154
 251   2.0000      -0.322596        -8.7783
 252   2.0000      -0.318678        -8.6717
 253   2.0000      -0.313499        -8.5307
 254   2.0000      -0.309450        -8.4206
 255   2.0000      -0.306393        -8.3374
 256   2.0000      -0.300157        -8.1677
 257   2.0000      -0.292064        -7.9475
 258   2.0000      -0.262533        -7.1439
 259   2.0000      -0.259588        -7.0638
 260   2.0000      -0.231220        -6.2918
 261   0.0000      -0.100225        -2.7273
 262   0.0000      -0.097140        -2.6433
 263   0.0000      -0.088864        -2.4181
 264   0.0000      -0.081501        -2.2178
 265   0.0000      -0.074973        -2.0401

MULLIKEN ATOMIC CHARGES
-----------------------
   0 C :   -0.035248
   1 C :    0.044848
   2 C :    0.045799
   3 C :   -0.037212
   4 C :    0.000082
   5 C :    0.011727
   6 C :    0.309193
   7 C :   -0.357001
   8 C :   -0.187322
   9 N :    0.150831
  10 C :   -0.182188
  11 N :    0.148311
  12 C :   -0.088166
  13 C :    0.240436
  14 C :   -0.355647
  15 C :   -0.209773
  16 N :    0.183460
  17 C :   -0.181453
  18 N :    0.149626
  19 C :    0.085950
  20 C :   -0.164319
  21 S :    0.165488
  22 C :    0.020633
  23 C :    0.089609
  24 C :    0.002309
  25 N :   -0.027219
  26 C :    0.088191
  27 C :   -0.127881
  28 C :    0.121011
  29 C :   -0.092135
  30 C :    0.053970
  31 C :   -0.023625
  32 C :   -0.055493
  33 C :    0.161989
  34 N :   -0.227921
  35 C :    0.138044
  36 N :   -0.217379
  37 C :    0.091876
  38 C :   -0.122759
  39 C :    0.176096
  40 C :   -0.064224
  41 C :    0.020355
  42 C :    0.014848
  43 C :    0.024357
  44 C :   -0.001002
  45 C :   -0.033623
  46 C :   -0.103428
  47 C :    0.089113
  48 C :   -0.079194
  49 S :    0.144497
  50 C :   -0.027936
  51 C :    0.114683
  52 C :   -0.049069
  53 N :   -0.016878
  54 C :    0.053618
  55 C :   -0.068476
  56 C :    0.035927
  57 C :   -0.079116
  58 C :    0.301869
  59 C :   -0.360448
  60 C :   -0.174382
  61 N :    0.140937
  62 C :   -0.187263
  63 N :    0.160423
  64 C :    0.014417
  65 C :    0.002460
  66 C :   -0.033328
  67 C :    0.048058
  68 C :    0.046531
  69 C :   -0.034246
  70 C :    0.229478
  71 C :   -0.338767
  72 C :   -0.180317
  73 N :    0.162072
  74 C :   -0.201403
  75 N :    0.174634
  76 H :    0.004393
  77 H :    0.001322
  78 H :    0.001543
  79 H :    0.001988
  80 H :    0.014788
  81 H :   -0.000827
  82 H :    0.133145
  83 H :   -0.017089
  84 H :   -0.036363
  85 H :   -0.035928
  86 H :   -0.028683
  87 H :   -0.003947
  88 H :    0.081333
  89 H :    0.082979
  90 H :   -0.001974
  91 H :   -0.007193
  92 H :    0.100972
  93 H :    0.100642
  94 H :   -0.000398
  95 H :    0.058485
  96 H :   -0.002195
  97 H :   -0.033594
  98 H :   -0.033253
  99 H :   -0.044927
 100 H :    0.001819
 101 H :   -0.001594
 102 H :   -0.022603
 103 H :    0.138131
 104 H :    0.002342
 105 H :   -0.003764
 106 H :    0.005378
 107 H :    0.003996
 108 H :    0.004391
 109 H :    0.004770
Sum of atomic charges:   -0.0000000

LOEWDIN ATOMIC CHARGES
----------------------
   0 C :    0.003363
   1 C :   -0.001364
   2 C :    0.000184
   3 C :   -0.002130
   4 C :   -0.011946
   5 C :   -0.012733
   6 C :    0.078258
   7 C :   -0.143008
   8 C :   -0.018730
   9 N :   -0.055691
  10 C :   -0.022572
  11 N :   -0.051204
  12 C :   -0.080453
  13 C :    0.066341
  14 C :   -0.146908
  15 C :   -0.021823
  16 N :   -0.043716
  17 C :   -0.021892
  18 N :   -0.058057
  19 C :    0.043175
  20 C :   -0.179269
  21 S :    0.444321
  22 C :   -0.164564
  23 C :   -0.025707
  24 C :   -0.021305
  25 N :    0.080719
  26 C :    0.042553
  27 C :   -0.087695
  28 C :   -0.040832
  29 C :    0.001911
  30 C :   -0.022149
  31 C :   -0.024245
  32 C :   -0.041353
  33 C :    0.032656
  34 N :   -0.132198
  35 C :    0.027825
  36 N :   -0.101930
  37 C :   -0.017954
  38 C :    0.073318
  39 C :   -0.031195
  40 C :   -0.034823
  41 C :   -0.013483
  42 C :   -0.035148
  43 C :   -0.029839
  44 C :    0.000044
  45 C :   -0.039869
  46 C :    0.004063
  47 C :   -0.046740
  48 C :   -0.133857
  49 S :    0.421068
  50 C :   -0.196339
  51 C :    0.004948
  52 C :   -0.078666
  53 N :    0.094947
  54 C :   -0.018240
  55 C :   -0.029308
  56 C :    0.044992
  57 C :   -0.070365
  58 C :    0.080157
  59 C :   -0.142692
  60 C :   -0.017932
  61 N :   -0.058112
  62 C :   -0.020233
  63 N :   -0.050230
  64 C :   -0.013424
  65 C :   -0.010708
  66 C :    0.000364
  67 C :    0.003705
  68 C :    0.000795
  69 C :    0.004887
  70 C :    0.067257
  71 C :   -0.137200
  72 C :   -0.022106
  73 N :   -0.048372
  74 C :   -0.017975
  75 N :   -0.043878
  76 H :    0.041058
  77 H :    0.036444
  78 H :    0.036145
  79 H :    0.039476
  80 H :    0.045173
  81 H :    0.036204
  82 H :    0.092707
  83 H :    0.030065
  84 H :    0.022878
  85 H :    0.020660
  86 H :   -0.004086
  87 H :    0.016419
  88 H :    0.035064
  89 H :    0.050356
  90 H :    0.004519
  91 H :    0.016503
  92 H :    0.056264
  93 H :    0.059458
  94 H :    0.031714
  95 H :    0.073602
  96 H :    0.027118
  97 H :    0.030790
  98 H :    0.029244
  99 H :    0.018587
 100 H :    0.024802
 101 H :    0.031821
 102 H :    0.031032
 103 H :    0.100276
 104 H :    0.034383
 105 H :    0.044592
 106 H :    0.040591
 107 H :    0.037505
 108 H :    0.037576
 109 H :    0.041372

  Mayer bond orders larger than 0.100000
B(  0-C ,  1-C ) :   1.3666 B(  0-C ,  5-C ) :   1.3861 B(  0-C , 76-H ) :   0.9826
B(  1-C ,  2-C ) :   1.3815 B(  1-C , 77-H ) :   0.9858 B(  2-C ,  3-C ) :   1.3640
B(  2-C , 78-H ) :   0.9860 B(  3-C ,  4-C ) :   1.3839 B(  3-C , 79-H ) :   0.9859
B(  4-C ,  5-C ) :   1.3181 B(  4-C , 13-C ) :   1.0033 B(  5-C ,  6-C ) :   0.9860
B(  6-C ,  7-C ) :   1.6101 B(  6-C , 12-C ) :   1.0939 B(  7-C ,  8-C ) :   1.1522
B(  7-C , 10-C ) :   1.1389 B(  8-C ,  9-N ) :   2.9704 B( 10-C , 11-N ) :   2.9598
B( 12-C , 13-C ) :   1.0539 B( 12-C , 19-C ) :   1.5211 B( 13-C , 14-C ) :   1.6123
B( 14-C , 15-C ) :   1.1616 B( 14-C , 17-C ) :   1.1427 B( 15-C , 16-N ) :   3.0137
B( 17-C , 18-N ) :   2.9850 B( 19-C , 20-C ) :   1.2696 B( 19-C , 80-H ) :   0.9096
B( 20-C , 21-S ) :   1.0789 B( 20-C , 24-C ) :   1.3437 B( 21-S , 22-C ) :   1.0763
B( 22-C , 23-C ) :   1.3112 B( 22-C , 27-C ) :   1.3095 B( 23-C , 24-C ) :   1.3304
B( 23-C , 25-N ) :   1.1643 B( 24-C , 81-H ) :   1.0000 B( 25-N , 26-C ) :   1.2272
B( 25-N , 82-H ) :   0.9284 B( 26-C , 27-C ) :   1.4395 B( 26-C , 28-C ) :   1.0013
B( 27-C , 83-H ) :   1.0137 B( 28-C , 29-C ) :   1.5510 B( 28-C , 45-C ) :   1.0985
B( 29-C , 30-C ) :   1.1262 B( 29-C , 84-H ) :   0.9884 B( 30-C , 31-C ) :   1.4677
B( 30-C , 43-C ) :   1.1153 B( 31-C , 32-C ) :   1.0254 B( 31-C , 37-C ) :   1.1186
B( 32-C , 33-C ) :   1.0286 B( 32-C , 35-C ) :   1.0423 B( 32-C , 85-H ) :   0.8768
B( 33-C , 34-N ) :   1.1064 B( 33-C , 86-H ) :   0.9247 B( 33-C , 87-H ) :   0.9457
B( 34-N , 88-H ) :   0.9418 B( 34-N , 89-H ) :   0.9664 B( 35-C , 36-N ) :   1.0839
B( 35-C , 90-H ) :   0.9476 B( 35-C , 91-H ) :   0.9331 B( 36-N , 88-H ) :   0.1024
B( 36-N , 92-H ) :   0.9634 B( 36-N , 93-H ) :   0.9665 B( 37-C , 38-C ) :   1.6819
B( 37-C , 42-C ) :   1.0432 B( 38-C , 39-C ) :   0.9624 B( 38-C , 94-H ) :   0.9660
B( 39-C , 40-C ) :   1.0081 B( 39-C , 46-C ) :   0.9516 B( 39-C , 95-H ) :   0.8319
B( 40-C , 41-C ) :   1.7103 B( 40-C , 96-H ) :   0.9678 B( 41-C , 42-C ) :   1.1291
B( 41-C , 97-H ) :   0.9902 B( 42-C , 43-C ) :   1.4428 B( 43-C , 44-C ) :   1.1487
B( 44-C , 45-C ) :   1.6220 B( 44-C , 98-H ) :   0.9895 B( 45-C , 99-H ) :   0.9818
B( 46-C , 47-C ) :   1.8658 B( 46-C ,100-H ) :   0.9678 B( 47-C , 48-C ) :   1.0770
B( 47-C ,101-H ) :   0.9442 B( 48-C , 49-S ) :   1.1131 B( 48-C , 52-C ) :   1.5192
B( 49-S , 50-C ) :   1.0262 B( 50-C , 51-C ) :   1.3226 B( 50-C , 55-C ) :   1.3907
B( 51-C , 52-C ) :   1.2113 B( 51-C , 53-N ) :   1.2357 B( 52-C ,102-H ) :   1.0082
B( 53-N , 54-C ) :   1.1589 B( 53-N ,103-H ) :   0.9283 B( 54-C , 55-C ) :   1.3529
B( 54-C , 56-C ) :   1.1664 B( 55-C ,104-H ) :   1.0107 B( 56-C , 57-C ) :   1.5653
B( 56-C ,105-H ) :   0.9169 B( 57-C , 58-C ) :   1.0785 B( 57-C , 70-C ) :   1.0308
B( 58-C , 59-C ) :   1.6161 B( 58-C , 64-C ) :   0.9959 B( 59-C , 60-C ) :   1.1453
B( 59-C , 62-C ) :   1.1499 B( 60-C , 61-N ) :   2.9574 B( 62-C , 63-N ) :   2.9758
B( 64-C , 65-C ) :   1.3122 B( 64-C , 69-C ) :   1.3839 B( 65-C , 66-C ) :   1.3853
B( 65-C , 70-C ) :   1.0069 B( 66-C , 67-C ) :   1.3620 B( 66-C ,106-H ) :   0.9870
B( 67-C , 68-C ) :   1.3801 B( 67-C ,107-H ) :   0.9863 B( 68-C , 69-C ) :   1.3687
B( 68-C ,108-H ) :   0.9857 B( 69-C ,109-H ) :   0.9839 B( 70-C , 71-C ) :   1.6424
B( 71-C , 72-C ) :   1.1383 B( 71-C , 74-C ) :   1.1570 B( 72-C , 73-N ) :   2.9935
B( 74-C , 75-N ) :   3.0060

-----------------------------------------------------------------------------
         ABSORPTION SPECTRUM VIA TRANSITION ELECTRIC DIPOLE MOMENTS
-----------------------------------------------------------------------------
State   Energy  Wavelength   fosc         T2         TX        TY        TZ
        (cm-1)    (nm)                  (au**2)     (au)      (au)      (au)
-----------------------------------------------------------------------------
   0   14274.1    700.6   0.248128991   5.72275   2.07258  -1.08100  -0.50852
   1   16602.4    602.3   1.032603747  20.47564   3.46745  -0.77138  -2.80311
   2   18124.5    551.7   0.652672914  11.85508  -1.02984   1.84426   2.71905
   3   19377.2    516.1   0.052417317   0.89055   0.07281  -0.49002  -0.80320
   4   19777.7    505.6   0.249315896   4.15001  -0.76910   1.01255   1.59161
   5   20659.6    484.0   0.227453425   3.62449  -1.52218   0.85443   0.75988
   6   20844.3    479.7   0.266092339   4.20262   0.74389  -1.87645  -0.35803
   7   24034.3    416.1   0.005142352   0.07044  -0.12557   0.23232  -0.02644
   8   25271.9    395.7   0.186812115   2.43356  -0.66758   0.73303   1.20439
   9   25839.0    387.0   0.016733930   0.21321  -0.05879  -0.26907  -0.37061
  10   26016.1    384.4   0.036187848   0.45793   0.46978  -0.13745  -0.46727
  11   26664.7    375.0   0.037222577   0.45956  -0.51733  -0.04159  -0.43613
  12   26761.4    373.7   0.000754050   0.00928  -0.02524  -0.05341   0.07607
  13   27194.1    367.7   0.013233187   0.16020   0.22720  -0.25813   0.20481
  14   27922.2    358.1   0.095688895   1.12820   0.72629  -0.58635  -0.50685
  15   28166.0    355.0   0.138104499   1.61420  -1.16468   0.50203   0.07553
  16   28371.4    352.5   0.200538100   2.32698   0.07719   0.94979   1.19118
  17   30877.7    323.9   0.290568088   3.09798  -0.01338   1.11796   1.35940
  18   31031.6    322.3   0.358285010   3.80101   0.82570  -1.71110   0.43745
  19   31210.3    320.4   0.071149705   0.75050   0.21104   0.01142  -0.84014
  20   31480.6    317.7   0.005480662   0.05731   0.05270  -0.10402  -0.20909
  21   31723.7    315.2   0.002181128   0.02263  -0.05705  -0.01437   0.13847
  22   32062.5    311.9   0.027661823   0.28403   0.11765   0.28028   0.43775
  23   32239.6    310.2   0.041285292   0.42158  -0.02981   0.04817  -0.64682
  24   32378.3    308.8   0.025203290   0.25626   0.29995  -0.23354   0.33428
  25   32493.8    307.8   0.014012420   0.14197   0.19624  -0.02394  -0.32075
  26   33313.2    300.2   0.000359418   0.00355   0.02556  -0.00656  -0.05344
  27   33484.5    298.6   0.624664113   6.14155  -0.54851   1.74298   1.67413
  28   33647.2    297.2   0.452576192   4.42811   1.01240  -1.76114   0.54913
  29   33798.7    295.9   0.361051740   3.51677   1.61249  -0.28614  -0.91365
  30   33916.8    294.8   0.039739378   0.38573   0.50770  -0.17251  -0.31339
  31   34349.0    291.1   0.000508919   0.00488  -0.01416  -0.04546  -0.05109
  32   34439.2    290.4   0.224496811   2.14602  -0.65194  -0.72643  -1.09238
  33   34671.5    288.4   0.152193333   1.44510  -0.79334   0.53297   0.72916
  34   34942.8    286.2   0.356390964   3.35772   0.62745   0.33708   1.68832
  35   35398.2    282.5   0.295156398   2.74503  -0.09871   1.26411   1.06644
  36   36124.4    276.8   0.082491106   0.75176  -0.63760   0.20270  -0.55149
  37   36653.6    272.8   0.010690175   0.09602  -0.18172  -0.04543   0.24684
  38   36776.6    271.9   0.054175501   0.48496   0.17499   0.07519  -0.66984
  39   37074.0    269.7   0.067959561   0.60347   0.59185  -0.47250  -0.17300
  40   37242.0    268.5   0.005357788   0.04736  -0.20940   0.00835  -0.05868
  41   37541.0    266.4   0.000622825   0.00546  -0.01362   0.04419  -0.05765
  42   37573.7    266.1   0.023293598   0.20409   0.34482  -0.26226   0.12810
  43   37997.6    263.2   0.000022193   0.00019  -0.00117   0.01017  -0.00936
  44   38107.5    262.4   0.015536822   0.13422   0.35887  -0.04345  -0.05958
  45   38444.0    260.1   0.004792041   0.04104  -0.17357   0.10443   0.00188
  46   38669.6    258.6   0.048328527   0.41144   0.56842  -0.29690  -0.01398
  47   38759.3    258.0   0.000214510   0.00182   0.03321  -0.01454  -0.02253
  48   39353.7    254.1   0.027653099   0.23133  -0.05420   0.08095  -0.47100
  49   39595.7    252.6   0.000280300   0.00233  -0.04305   0.00938   0.01973
  50   40071.7    249.6   0.193959393   1.59349  -0.53858  -0.02042   1.14149

FINAL SINGLE POINT ENERGY     -3832.067340114961

DIPOLE MOMENT
-------------
                                X             Y             Z
Electronic contribution:    -18.00677      -3.97881     -13.26199
Nuclear contribution   :     18.41721       4.09407      10.52735
                        -----------------------------------------
Total Dipole Moment    :      0.41044       0.11526      -2.73464
                        -----------------------------------------
Magnitude (a.u.)       :      2.76767
Magnitude (Debye)      :      7.03486

Rotational constants in cm-1:     0.002087     0.000158     0.000154
Rotational constants in MHz :    62.554481     4.743089     4.614750

                             ****ORCA TERMINATED NORMALLY****
TOTAL RUN TIME: 0 days 0 hours 10 minutes 58 seconds 119 msec
