                         Program Version 4.2.0 -  RELEASE  -
|  1> # ORCA input file
|  2> # SCF done       -194.055782837137          0.000659072292
|  3> ! CAM-B3LYP def2-SVP def2/J RIJCOSX Grid4 TightSCF
|  4> %maxcore 5000
|  5> %tddft
|  6>     Mode sTDDFT
|  7>     Ethresh 5.0
|  8>     maxcore 5000
|  9> end
| 10>
| 11> %pal
| 12>   nprocs 6
| 13>   end
| 14> * xyz 0 1
| 15>    C        5.00176        -0.54969         3.24859
| 16>    O        4.27598         0.53700         2.70111
| 17>    C        4.75412         1.26698         1.69220
| 18>    C        4.02048         2.39063         1.25619
| 19>    C        2.80763         2.88472         1.76015
| 20>    C        2.15408         3.96813         1.24148
| 21>    C        0.96489         4.50449         1.75107
| 22>    S        0.20803         3.88765         3.17947
| 23>    C       -1.11376         5.01881         3.09050
| 24>    C       -2.11526         4.93574         4.06212
| 25>    C       -3.38914         5.44289         3.98515
| 26>    C       -4.33887         5.35874         5.01577
| 27>    C       -4.10153         5.22982         6.36787
| 28>    C       -5.04894         4.68188         7.32412
| 29>    C       -6.38433         4.43231         7.13083
| 30>    C       -7.23935         3.89620         8.11616
| 31>    N       -7.99385         3.46389         8.86609
| 32>    C       -7.11321         4.69667         5.95345
| 33>    N       -7.77915         4.88042         5.03536
| 34>    C       -4.30632         4.41143         8.55044
| 35>    C       -4.68744         3.78657         9.72686
| 36>    C       -3.74763         3.63893        10.73675
| 37>    C       -2.44993         4.10300        10.58080
| 38>    C       -2.05682         4.73898         9.41249
| 39>    C       -2.98769         4.89509         8.39949
| 40>    C       -2.88218         5.53754         7.09717
| 41>    C       -1.94013         6.47881         6.76246
| 42>    C       -2.00679         7.30487         5.62378
| 43>    N       -2.02678         8.04718         4.74748
| 44>    C       -0.82304         6.79426         7.56033
| 45>    N        0.11948         7.07872         8.15153
| 46>    C       -0.93684         5.90033         1.99716
| 47>    C       -1.70502         7.02711         1.66203
| 48>    C       -1.36253         7.77117         0.56230
| 49>    C       -0.25439         7.43237        -0.22708
| 50>    C        0.54436         6.37031         0.10695
| 51>    C        0.22667         5.59694         1.23437
| 52>    O        4.67559         2.98767         0.23643
| 53>    C        5.81449         2.31050        -0.00821
| 54>    C        6.69086         2.79595        -1.00036
| 55>    C        6.41472         3.91878        -1.73020
| 56>    C        7.27624         4.48187        -2.68152
| 57>    S        8.84109         3.83404        -3.01435
| 58>    C        9.26227         5.14069        -4.08156
| 59>    C       10.55624         5.16614        -4.60989
| 60>    C       11.27349         6.24511        -5.08721
| 61>    C       12.39033         6.14198        -6.01112
| 62>    C       13.02791         5.00156        -6.43012
| 63>    C       14.11006         4.98688        -7.33508
| 64>    N       14.99303         4.89551        -8.06330
| 65>    C       12.72895         3.68609        -6.02000
| 66>    N       12.54655         2.58603        -5.74316
| 67>    C       12.69506         7.49583        -6.46171
| 68>    C       13.59567         7.95925        -7.40689
| 69>    C       13.65288         9.32231        -7.66029
| 70>    C       12.82907        10.21069        -6.98565
| 71>    C       11.93001         9.76218        -6.02902
| 72>    C       11.86579         8.40426        -5.76676
| 73>    C       11.06280         7.65343        -4.81207
| 74>    C       10.43029         8.19100        -3.71696
| 75>    C        9.93663         7.44622        -2.62952
| 76>    N        9.57130         6.90357        -1.68537
| 77>    C       10.27214         9.57330        -3.49713
| 78>    N       10.08098        10.68379        -3.27597
| 79>    C        8.15452         6.00490        -4.26458
| 80>    C        8.03550         7.07501        -5.16493
| 81>    C        6.87898         7.81149        -5.18813
| 82>    C        5.80998         7.50157        -4.33652
| 83>    C        5.87479         6.42166        -3.49448
| 84>    C        7.04187         5.64475        -3.45621
| 85>    C        5.90083         1.21305         0.87148
| 86>    C        6.99311         0.20091         0.88944
| 87>    F        6.53260        -1.05815         0.73714
| 88>    F        7.89803         0.36892        -0.07901
| 89>    F        7.68975         0.20060         2.04465
| 90>    H        5.98783        -0.23990         3.59835
| 91>    H        5.09651        -1.36982         2.53493
| 92>    H        4.40806        -0.88221         4.09831
| 93>    H        2.40442         2.35027         2.60756
| 94>    H        2.58029         4.45468         0.37596
| 95>    H       -1.86417         4.34072         4.93404
| 96>    H       -3.74302         5.81769         3.03643
| 97>    H       -5.37150         5.34354         4.69437
| 98>    H       -5.68903         3.41497         9.86603
| 99>    H       -4.03383         3.15098        11.65593
|100>    H       -1.73385         3.96877        11.37710
|101>    H       -1.04387         5.09001         9.30004
|102>    H       -2.52367         7.33195         2.29028
|103>    H       -1.94679         8.64073         0.30352
|104>    H       -0.01709         8.03420        -1.09121
|105>    H        1.41781         6.13455        -0.48065
|106>    H        7.61619         2.27007        -1.16722
|107>    H        5.47867         4.42923        -1.55529
|108>    H       11.04228         4.19996        -4.65576
|109>    H       14.24244         7.28548        -7.94373
|110>    H       14.34883         9.69265        -8.39736
|111>    H       12.88536        11.26589        -7.20514
|112>    H       11.29177        10.46174        -5.51430
|113>    H        8.83706         7.29814        -5.85172
|114>    H        6.78528         8.63968        -5.87393
|115>    H        4.91894         8.10952        -4.36761
|116>    H        5.03249         6.16150        -2.87320
|117> *
|118>
|119>                          ****END OF INPUT****

CARTESIAN COORDINATES (ANGSTROEM)
---------------------------------
  C      5.001760   -0.549690    3.248590
  O      4.275980    0.537000    2.701110
  C      4.754120    1.266980    1.692200
  C      4.020480    2.390630    1.256190
  C      2.807630    2.884720    1.760150
  C      2.154080    3.968130    1.241480
  C      0.964890    4.504490    1.751070
  S      0.208030    3.887650    3.179470
  C     -1.113760    5.018810    3.090500
  C     -2.115260    4.935740    4.062120
  C     -3.389140    5.442890    3.985150
  C     -4.338870    5.358740    5.015770
  C     -4.101530    5.229820    6.367870
  C     -5.048940    4.681880    7.324120
  C     -6.384330    4.432310    7.130830
  C     -7.239350    3.896200    8.116160
  N     -7.993850    3.463890    8.866090
  C     -7.113210    4.696670    5.953450
  N     -7.779150    4.880420    5.035360
  C     -4.306320    4.411430    8.550440
  C     -4.687440    3.786570    9.726860
  C     -3.747630    3.638930   10.736750
  C     -2.449930    4.103000   10.580800
  C     -2.056820    4.738980    9.412490
  C     -2.987690    4.895090    8.399490
  C     -2.882180    5.537540    7.097170
  C     -1.940130    6.478810    6.762460
  C     -2.006790    7.304870    5.623780
  N     -2.026780    8.047180    4.747480
  C     -0.823040    6.794260    7.560330
  N      0.119480    7.078720    8.151530
  C     -0.936840    5.900330    1.997160
  C     -1.705020    7.027110    1.662030
  C     -1.362530    7.771170    0.562300
  C     -0.254390    7.432370   -0.227080
  C      0.544360    6.370310    0.106950
  C      0.226670    5.596940    1.234370
  O      4.675590    2.987670    0.236430
  C      5.814490    2.310500   -0.008210
  C      6.690860    2.795950   -1.000360
  C      6.414720    3.918780   -1.730200
  C      7.276240    4.481870   -2.681520
  S      8.841090    3.834040   -3.014350
  C      9.262270    5.140690   -4.081560
  C     10.556240    5.166140   -4.609890
  C     11.273490    6.245110   -5.087210
  C     12.390330    6.141980   -6.011120
  C     13.027910    5.001560   -6.430120
  C     14.110060    4.986880   -7.335080
  N     14.993030    4.895510   -8.063300
  C     12.728950    3.686090   -6.020000
  N     12.546550    2.586030   -5.743160
  C     12.695060    7.495830   -6.461710
  C     13.595670    7.959250   -7.406890
  C     13.652880    9.322310   -7.660290
  C     12.829070   10.210690   -6.985650
  C     11.930010    9.762180   -6.029020
  C     11.865790    8.404260   -5.766760
  C     11.062800    7.653430   -4.812070
  C     10.430290    8.191000   -3.716960
  C      9.936630    7.446220   -2.629520
  N      9.571300    6.903570   -1.685370
  C     10.272140    9.573300   -3.497130
  N     10.080980   10.683790   -3.275970
  C      8.154520    6.004900   -4.264580
  C      8.035500    7.075010   -5.164930
  C      6.878980    7.811490   -5.188130
  C      5.809980    7.501570   -4.336520
  C      5.874790    6.421660   -3.494480
  C      7.041870    5.644750   -3.456210
  C      5.900830    1.213050    0.871480
  C      6.993110    0.200910    0.889440
  F      6.532600   -1.058150    0.737140
  F      7.898030    0.368920   -0.079010
  F      7.689750    0.200600    2.044650
  H      5.987830   -0.239900    3.598350
  H      5.096510   -1.369820    2.534930
  H      4.408060   -0.882210    4.098310
  H      2.404420    2.350270    2.607560
  H      2.580290    4.454680    0.375960
  H     -1.864170    4.340720    4.934040
  H     -3.743020    5.817690    3.036430
  H     -5.371500    5.343540    4.694370
  H     -5.689030    3.414970    9.866030
  H     -4.033830    3.150980   11.655930
  H     -1.733850    3.968770   11.377100
  H     -1.043870    5.090010    9.300040
  H     -2.523670    7.331950    2.290280
  H     -1.946790    8.640730    0.303520
  H     -0.017090    8.034200   -1.091210
  H      1.417810    6.134550   -0.480650
  H      7.616190    2.270070   -1.167220
  H      5.478670    4.429230   -1.555290
  H     11.042280    4.199960   -4.655760
  H     14.242440    7.285480   -7.943730
  H     14.348830    9.692650   -8.397360
  H     12.885360   11.265890   -7.205140
  H     11.291770   10.461740   -5.514300
  H      8.837060    7.298140   -5.851720
  H      6.785280    8.639680   -5.873930
  H      4.918940    8.109520   -4.367610
  H      5.032490    6.161500   -2.873200

 Total Charge           Charge          ....    0
 Multiplicity           Mult            ....    1
 Number of Electrons    NEL             ....  518
 Basis Dimension        Dim             .... 1193

ORBITAL ENERGIES
----------------

  NO   OCC          E(Eh)            E(eV)
   0   2.0000     -88.993522     -2421.6368
   1   2.0000     -88.985600     -2421.4213
   2   2.0000     -24.829127      -675.6349
   3   2.0000     -24.820959      -675.4126
   4   2.0000     -24.820276      -675.3940
   5   2.0000     -19.329635      -525.9861
   6   2.0000     -19.287742      -524.8461
   7   2.0000     -14.422191      -392.4478
   8   2.0000     -14.419120      -392.3642
   9   2.0000     -14.418540      -392.3484
  10   2.0000     -14.417776      -392.3276
  11   2.0000     -14.414511      -392.2388
  12   2.0000     -14.414214      -392.2307
  13   2.0000     -14.412476      -392.1834
  14   2.0000     -14.411365      -392.1532
  15   2.0000     -10.549502      -287.0665
  16   2.0000     -10.384552      -282.5780
  17   2.0000     -10.381843      -282.5043
  18   2.0000     -10.360969      -281.9363
  19   2.0000     -10.347709      -281.5755
  20   2.0000     -10.346893      -281.5533
  21   2.0000     -10.346169      -281.5336
  22   2.0000     -10.345428      -281.5134
  23   2.0000     -10.345055      -281.5032
  24   2.0000     -10.343251      -281.4542
  25   2.0000     -10.339862      -281.3620
  26   2.0000     -10.339633      -281.3557
  27   2.0000     -10.339021      -281.3391
  28   2.0000     -10.338970      -281.3377
  29   2.0000     -10.337512      -281.2980
  30   2.0000     -10.332059      -281.1496
  31   2.0000     -10.330166      -281.0981
  32   2.0000     -10.329107      -281.0693
  33   2.0000     -10.324837      -280.9531
  34   2.0000     -10.322200      -280.8813
  35   2.0000     -10.321987      -280.8755
  36   2.0000     -10.321704      -280.8678
  37   2.0000     -10.320839      -280.8443
  38   2.0000     -10.320130      -280.8250
  39   2.0000     -10.319354      -280.8039
  40   2.0000     -10.317824      -280.7623
  41   2.0000     -10.317028      -280.7406
  42   2.0000     -10.316091      -280.7151
  43   2.0000     -10.315682      -280.7040
  44   2.0000     -10.315583      -280.7013
  45   2.0000     -10.314762      -280.6789
  46   2.0000     -10.314759      -280.6789
  47   2.0000     -10.313536      -280.6456
  48   2.0000     -10.312775      -280.6249
  49   2.0000     -10.310837      -280.5721
  50   2.0000     -10.310647      -280.5670
  51   2.0000     -10.310248      -280.5561
  52   2.0000     -10.308762      -280.5157
  53   2.0000     -10.305655      -280.4311
  54   2.0000     -10.305337      -280.4225
  55   2.0000     -10.305301      -280.4215
  56   2.0000     -10.303661      -280.3769
  57   2.0000     -10.303581      -280.3747
  58   2.0000     -10.302762      -280.3524
  59   2.0000     -10.300719      -280.2968
  60   2.0000     -10.299232      -280.2564
  61   2.0000     -10.299016      -280.2505
  62   2.0000     -10.298373      -280.2330
  63   2.0000     -10.298316      -280.2314
  64   2.0000     -10.297174      -280.2004
  65   2.0000     -10.296839      -280.1912
  66   2.0000     -10.294901      -280.1385
  67   2.0000     -10.294589      -280.1300
  68   2.0000     -10.294210      -280.1197
  69   2.0000     -10.294031      -280.1148
  70   2.0000     -10.293122      -280.0901
  71   2.0000     -10.290841      -280.0280
  72   2.0000     -10.288880      -279.9747
  73   2.0000     -10.288014      -279.9511
  74   2.0000     -10.285564      -279.8844
  75   2.0000      -8.088600      -220.1020
  76   2.0000      -8.080928      -219.8932
  77   2.0000      -6.057518      -164.8334
  78   2.0000      -6.053489      -164.7238
  79   2.0000      -6.051374      -164.6662
  80   2.0000      -6.049816      -164.6239
  81   2.0000      -6.045913      -164.5176
  82   2.0000      -6.043662      -164.4564
  83   2.0000      -1.414878       -38.5008
  84   2.0000      -1.318503       -35.8783
  85   2.0000      -1.311219       -35.6801
  86   2.0000      -1.251468       -34.0542
  87   2.0000      -1.190762       -32.4023
  88   2.0000      -1.036505       -28.2047
  89   2.0000      -1.027928       -27.9714
  90   2.0000      -1.024830       -27.8870
  91   2.0000      -1.017176       -27.6788
  92   2.0000      -1.016399       -27.6576
  93   2.0000      -1.010659       -27.5014
  94   2.0000      -1.006487       -27.3879
  95   2.0000      -1.000346       -27.2208
  96   2.0000      -0.998134       -27.1606
  97   2.0000      -0.997066       -27.1316
  98   2.0000      -0.992342       -27.0030
  99   2.0000      -0.991183       -26.9715
 100   2.0000      -0.963543       -26.2193
 101   2.0000      -0.959700       -26.1148
 102   2.0000      -0.954746       -25.9800
 103   2.0000      -0.954120       -25.9629
 104   2.0000      -0.950963       -25.8770
 105   2.0000      -0.945543       -25.7295
 106   2.0000      -0.938149       -25.5283
 107   2.0000      -0.935072       -25.4446
 108   2.0000      -0.931317       -25.3424
 109   2.0000      -0.921059       -25.0633
 110   2.0000      -0.903853       -24.5951
 111   2.0000      -0.893255       -24.3067
 112   2.0000      -0.887622       -24.1534
 113   2.0000      -0.884500       -24.0685
 114   2.0000      -0.870149       -23.6780
 115   2.0000      -0.864578       -23.5264
 116   2.0000      -0.862862       -23.4797
 117   2.0000      -0.859783       -23.3959
 118   2.0000      -0.855907       -23.2904
 119   2.0000      -0.850266       -23.1369
 120   2.0000      -0.845988       -23.0205
 121   2.0000      -0.839070       -22.8323
 122   2.0000      -0.822991       -22.3947
 123   2.0000      -0.814743       -22.1703
 124   2.0000      -0.808818       -22.0090
 125   2.0000      -0.795432       -21.6448
 126   2.0000      -0.790407       -21.5081
 127   2.0000      -0.784023       -21.3343
 128   2.0000      -0.769922       -20.9507
 129   2.0000      -0.750371       -20.4186
 130   2.0000      -0.742688       -20.2096
 131   2.0000      -0.733892       -19.9702
 132   2.0000      -0.730944       -19.8900
 133   2.0000      -0.722245       -19.6533
 134   2.0000      -0.721861       -19.6428
 135   2.0000      -0.716075       -19.4854
 136   2.0000      -0.713427       -19.4133
 137   2.0000      -0.710900       -19.3446
 138   2.0000      -0.708651       -19.2834
 139   2.0000      -0.706895       -19.2356
 140   2.0000      -0.705845       -19.2070
 141   2.0000      -0.696369       -18.9492
 142   2.0000      -0.685658       -18.6577
 143   2.0000      -0.681902       -18.5555
 144   2.0000      -0.673673       -18.3316
 145   2.0000      -0.672719       -18.3056
 146   2.0000      -0.664474       -18.0812
 147   2.0000      -0.661577       -18.0024
 148   2.0000      -0.660390       -17.9701
 149   2.0000      -0.659757       -17.9529
 150   2.0000      -0.657986       -17.9047
 151   2.0000      -0.651700       -17.7336
 152   2.0000      -0.637809       -17.3557
 153   2.0000      -0.632938       -17.2231
 154   2.0000      -0.629701       -17.1350
 155   2.0000      -0.616849       -16.7853
 156   2.0000      -0.615511       -16.7489
 157   2.0000      -0.609870       -16.5954
 158   2.0000      -0.606915       -16.5150
 159   2.0000      -0.597739       -16.2653
 160   2.0000      -0.593251       -16.1432
 161   2.0000      -0.584923       -15.9166
 162   2.0000      -0.583872       -15.8880
 163   2.0000      -0.578227       -15.7344
 164   2.0000      -0.577981       -15.7277
 165   2.0000      -0.577546       -15.7158
 166   2.0000      -0.575230       -15.6528
 167   2.0000      -0.572851       -15.5881
 168   2.0000      -0.571217       -15.5436
 169   2.0000      -0.567720       -15.4484
 170   2.0000      -0.565530       -15.3889
 171   2.0000      -0.562563       -15.3081
 172   2.0000      -0.560097       -15.2410
 173   2.0000      -0.556145       -15.1335
 174   2.0000      -0.551203       -14.9990
 175   2.0000      -0.545206       -14.8358
 176   2.0000      -0.541549       -14.7363
 177   2.0000      -0.540352       -14.7037
 178   2.0000      -0.537492       -14.6259
 179   2.0000      -0.536181       -14.5902
 180   2.0000      -0.534952       -14.5568
 181   2.0000      -0.533109       -14.5066
 182   2.0000      -0.533011       -14.5040
 183   2.0000      -0.529677       -14.4132
 184   2.0000      -0.528620       -14.3845
 185   2.0000      -0.528503       -14.3813
 186   2.0000      -0.523875       -14.2554
 187   2.0000      -0.523599       -14.2478
 188   2.0000      -0.519190       -14.1279
 189   2.0000      -0.518234       -14.1019
 190   2.0000      -0.513260       -13.9665
 191   2.0000      -0.509700       -13.8696
 192   2.0000      -0.508969       -13.8498
 193   2.0000      -0.506456       -13.7814
 194   2.0000      -0.502943       -13.6858
 195   2.0000      -0.501991       -13.6599
 196   2.0000      -0.498006       -13.5514
 197   2.0000      -0.495753       -13.4901
 198   2.0000      -0.490511       -13.3475
 199   2.0000      -0.484266       -13.1775
 200   2.0000      -0.482336       -13.1250
 201   2.0000      -0.480684       -13.0801
 202   2.0000      -0.477921       -13.0049
 203   2.0000      -0.472812       -12.8659
 204   2.0000      -0.468336       -12.7441
 205   2.0000      -0.465721       -12.6729
 206   2.0000      -0.463742       -12.6191
 207   2.0000      -0.462881       -12.5956
 208   2.0000      -0.458115       -12.4659
 209   2.0000      -0.457109       -12.4386
 210   2.0000      -0.454192       -12.3592
 211   2.0000      -0.454039       -12.3550
 212   2.0000      -0.452586       -12.3155
 213   2.0000      -0.452165       -12.3040
 214   2.0000      -0.451818       -12.2946
 215   2.0000      -0.450436       -12.2570
 216   2.0000      -0.449772       -12.2389
 217   2.0000      -0.447858       -12.1868
 218   2.0000      -0.446559       -12.1515
 219   2.0000      -0.446129       -12.1398
 220   2.0000      -0.445848       -12.1321
 221   2.0000      -0.443113       -12.0577
 222   2.0000      -0.442128       -12.0309
 223   2.0000      -0.440442       -11.9850
 224   2.0000      -0.440057       -11.9746
 225   2.0000      -0.439630       -11.9629
 226   2.0000      -0.438129       -11.9221
 227   2.0000      -0.433674       -11.8009
 228   2.0000      -0.431330       -11.7371
 229   2.0000      -0.431217       -11.7340
 230   2.0000      -0.429534       -11.6882
 231   2.0000      -0.428928       -11.6717
 232   2.0000      -0.426231       -11.5983
 233   2.0000      -0.425048       -11.5661
 234   2.0000      -0.423487       -11.5237
 235   2.0000      -0.420976       -11.4553
 236   2.0000      -0.417819       -11.3694
 237   2.0000      -0.413390       -11.2489
 238   2.0000      -0.410597       -11.1729
 239   2.0000      -0.407920       -11.1001
 240   2.0000      -0.407569       -11.0905
 241   2.0000      -0.403878       -10.9901
 242   2.0000      -0.394008       -10.7215
 243   2.0000      -0.384133       -10.4528
 244   2.0000      -0.378902       -10.3104
 245   2.0000      -0.377608       -10.2752
 246   2.0000      -0.365224        -9.9383
 247   2.0000      -0.357510        -9.7284
 248   2.0000      -0.349745        -9.5171
 249   2.0000      -0.340675        -9.2702
 250   2.0000      -0.335052        -9.1172
 251   2.0000      -0.332290        -9.0421
 252   2.0000      -0.330243        -8.9864
 253   2.0000      -0.327659        -8.9161
 254   2.0000      -0.312083        -8.4922
 255   2.0000      -0.305563        -8.3148
 256   2.0000      -0.292217        -7.9516
 257   2.0000      -0.265076        -7.2131
 258   2.0000      -0.233748        -6.3606
 259   0.0000      -0.129991        -3.5372
 260   0.0000      -0.105043        -2.8584
 261   0.0000      -0.088142        -2.3985
 262   0.0000      -0.081706        -2.2233
 263   0.0000      -0.064286        -1.7493

MULLIKEN ATOMIC CHARGES
-----------------------
   0 C :    0.173226
   1 O :   -0.290240
   2 C :    0.166701
   3 C :    0.108808
   4 C :   -0.027935
   5 C :   -0.007817
   6 C :   -0.060848
   7 S :    0.161319
   8 C :   -0.132453
   9 C :    0.074698
  10 C :   -0.042341
  11 C :    0.041118
  12 C :   -0.082011
  13 C :    0.306381
  14 C :   -0.356464
  15 C :   -0.188630
  16 N :    0.150893
  17 C :   -0.179836
  18 N :    0.147255
  19 C :    0.015983
  20 C :   -0.037799
  21 C :    0.047412
  22 C :    0.044584
  23 C :   -0.035116
  24 C :   -0.002833
  25 C :    0.224009
  26 C :   -0.347627
  27 C :   -0.182476
  28 N :    0.166530
  29 C :   -0.184888
  30 N :    0.152225
  31 C :    0.126085
  32 C :   -0.023637
  33 C :    0.034913
  34 C :    0.032178
  35 C :   -0.033838
  36 C :    0.105118
  37 O :   -0.200588
  38 C :    0.133867
  39 C :   -0.043613
  40 C :    0.004205
  41 C :   -0.040770
  42 S :    0.204711
  43 C :   -0.180842
  44 C :    0.061951
  45 C :   -0.083765
  46 C :    0.308188
  47 C :   -0.356994
  48 C :   -0.188281
  49 N :    0.157641
  50 C :   -0.183232
  51 N :    0.151843
  52 C :    0.014428
  53 C :   -0.037570
  54 C :    0.046293
  55 C :    0.046154
  56 C :   -0.039117
  57 C :    0.005728
  58 C :    0.211523
  59 C :   -0.334588
  60 C :   -0.190796
  61 N :    0.170704
  62 C :   -0.189992
  63 N :    0.156984
  64 C :    0.096121
  65 C :    0.014271
  66 C :    0.023083
  67 C :    0.038472
  68 C :   -0.030241
  69 C :    0.116826
  70 C :   -0.157897
  71 C :    0.519999
  72 F :   -0.162417
  73 F :   -0.142052
  74 F :   -0.160066
  75 H :    0.040219
  76 H :    0.043293
  77 H :    0.045265
  78 H :    0.017309
  79 H :   -0.003067
  80 H :    0.012119
  81 H :    0.008709
  82 H :    0.020122
  83 H :    0.002850
  84 H :    0.000330
  85 H :    0.001740
  86 H :    0.002297
  87 H :   -0.002247
  88 H :   -0.002028
  89 H :   -0.009251
  90 H :   -0.028336
  91 H :    0.023065
  92 H :    0.006243
  93 H :    0.017444
  94 H :    0.004757
  95 H :    0.002570
  96 H :    0.002963
  97 H :    0.002723
  98 H :   -0.005814
  99 H :    0.002087
 100 H :   -0.004017
 101 H :   -0.024163
Sum of atomic charges:   -0.0000000

LOEWDIN ATOMIC CHARGES
----------------------
   0 C :    0.078693
   1 O :   -0.080390
   2 C :    0.044196
   3 C :    0.005629
   4 C :   -0.017786
   5 C :   -0.045347
   6 C :   -0.139541
   7 S :    0.483194
   8 C :   -0.180515
   9 C :    0.013569
  10 C :   -0.053189
  11 C :    0.054522
  12 C :   -0.075993
  13 C :    0.077197
  14 C :   -0.141844
  15 C :   -0.019051
  16 N :   -0.055174
  17 C :   -0.021374
  18 N :   -0.052423
  19 C :   -0.012902
  20 C :    0.002901
  21 C :   -0.001374
  22 C :    0.000083
  23 C :   -0.001537
  24 C :   -0.011902
  25 C :    0.064365
  26 C :   -0.147357
  27 C :   -0.009588
  28 N :   -0.053158
  29 C :   -0.022112
  30 N :   -0.058286
  31 C :   -0.019748
  32 C :   -0.002115
  33 C :   -0.003185
  34 C :   -0.017962
  35 C :   -0.011566
  36 C :   -0.043441
  37 O :    0.027697
  38 C :    0.064343
  39 C :   -0.030671
  40 C :   -0.020408
  41 C :   -0.130427
  42 S :    0.522475
  43 C :   -0.181086
  44 C :    0.025920
  45 C :   -0.074736
  46 C :    0.077110
  47 C :   -0.138519
  48 C :   -0.018988
  49 N :   -0.050579
  50 C :   -0.021786
  51 N :   -0.050482
  52 C :   -0.014716
  53 C :    0.004028
  54 C :   -0.001127
  55 C :    0.002026
  56 C :   -0.002473
  57 C :   -0.012031
  58 C :    0.057619
  59 C :   -0.135583
  60 C :   -0.013479
  61 N :   -0.055346
  62 C :   -0.019917
  63 N :   -0.054037
  64 C :   -0.025345
  65 C :   -0.014378
  66 C :    0.002381
  67 C :   -0.017035
  68 C :   -0.001473
  69 C :   -0.034529
  70 C :   -0.152415
  71 C :    0.174808
  72 F :   -0.060779
  73 F :   -0.040368
  74 F :   -0.061076
  75 H :    0.019811
  76 H :    0.020108
  77 H :    0.033648
  78 H :    0.038511
  79 H :    0.034437
  80 H :    0.034280
  81 H :    0.037399
  82 H :    0.047041
  83 H :    0.040770
  84 H :    0.036168
  85 H :    0.036148
  86 H :    0.039743
  87 H :    0.033451
  88 H :    0.035316
  89 H :    0.031662
  90 H :    0.027024
  91 H :    0.032552
  92 H :    0.037057
  93 H :    0.044886
  94 H :    0.041107
  95 H :    0.036958
  96 H :    0.036876
  97 H :    0.039982
  98 H :    0.034257
  99 H :    0.036770
 100 H :    0.034098
 101 H :    0.029833

  Mayer bond orders larger than 0.100000
B(  0-C ,  1-O ) :   0.9113 B(  0-C , 75-H ) :   0.9650 B(  0-C , 76-H ) :   0.9666
B(  0-C , 77-H ) :   0.9770 B(  1-O ,  2-C ) :   1.2590 B(  2-C ,  3-C ) :   1.3293
B(  2-C , 70-C ) :   1.2608 B(  3-C ,  4-C ) :   1.2371 B(  3-C , 37-O ) :   1.1124
B(  3-C , 38-C ) :   0.1068 B(  4-C ,  5-C ) :   1.5254 B(  4-C , 78-H ) :   0.9592
B(  5-C ,  6-C ) :   1.2217 B(  5-C , 79-H ) :   0.9762 B(  6-C ,  7-S ) :   1.1735
B(  6-C , 36-C ) :   1.2469 B(  7-S ,  8-C ) :   1.1060 B(  8-C ,  9-C ) :   1.2907
B(  8-C , 31-C ) :   1.2561 B(  9-C , 10-C ) :   1.5057 B(  9-C , 80-H ) :   0.9401
B( 10-C , 11-C ) :   1.2852 B( 10-C , 81-H ) :   0.9578 B( 11-C , 12-C ) :   1.4910
B( 11-C , 82-H ) :   0.9280 B( 12-C , 13-C ) :   1.0908 B( 12-C , 25-C ) :   1.0510
B( 13-C , 14-C ) :   1.6120 B( 13-C , 19-C ) :   0.9857 B( 14-C , 15-C ) :   1.1523
B( 14-C , 17-C ) :   1.1376 B( 15-C , 16-N ) :   2.9702 B( 17-C , 18-N ) :   2.9637
B( 19-C , 20-C ) :   1.3858 B( 19-C , 24-C ) :   1.3182 B( 20-C , 21-C ) :   1.3670
B( 20-C , 83-H ) :   0.9829 B( 21-C , 22-C ) :   1.3812 B( 21-C , 84-H ) :   0.9855
B( 22-C , 23-C ) :   1.3626 B( 22-C , 85-H ) :   0.9864 B( 23-C , 24-C ) :   1.3836
B( 23-C , 86-H ) :   0.9865 B( 24-C , 25-C ) :   1.0033 B( 25-C , 26-C ) :   1.6150
B( 26-C , 27-C ) :   1.1607 B( 26-C , 29-C ) :   1.1451 B( 27-C , 28-N ) :   2.9853
B( 29-C , 30-N ) :   2.9869 B( 31-C , 32-C ) :   1.2521 B( 31-C , 36-C ) :   1.2418
B( 32-C , 33-C ) :   1.5092 B( 32-C , 87-H ) :   0.9822 B( 33-C , 34-C ) :   1.2467
B( 33-C , 88-H ) :   0.9869 B( 34-C , 35-C ) :   1.5146 B( 34-C , 89-H ) :   0.9862
B( 35-C , 36-C ) :   1.2429 B( 35-C , 90-H ) :   0.9916 B( 37-O , 38-C ) :   1.1735
B( 38-C , 39-C ) :   1.2309 B( 38-C , 70-C ) :   1.3514 B( 39-C , 40-C ) :   1.5549
B( 39-C , 91-H ) :   0.9552 B( 40-C , 41-C ) :   1.2083 B( 40-C , 92-H ) :   0.9756
B( 41-C , 42-S ) :   1.1869 B( 41-C , 69-C ) :   1.2457 B( 42-S , 43-C ) :   1.1302
B( 43-C , 44-C ) :   1.2798 B( 43-C , 64-C ) :   1.2383 B( 44-C , 45-C ) :   1.4993
B( 44-C , 93-H ) :   0.9088 B( 45-C , 46-C ) :   1.0943 B( 45-C , 58-C ) :   1.0622
B( 46-C , 47-C ) :   1.6122 B( 46-C , 52-C ) :   0.9878 B( 47-C , 48-C ) :   1.1534
B( 47-C , 50-C ) :   1.1404 B( 48-C , 49-N ) :   2.9715 B( 50-C , 51-N ) :   2.9584
B( 52-C , 53-C ) :   1.3842 B( 52-C , 57-C ) :   1.3150 B( 53-C , 54-C ) :   1.3650
B( 53-C , 94-H ) :   0.9833 B( 54-C , 55-C ) :   1.3816 B( 54-C , 95-H ) :   0.9862
B( 55-C , 56-C ) :   1.3592 B( 55-C , 96-H ) :   0.9864 B( 56-C , 57-C ) :   1.3879
B( 56-C , 97-H ) :   0.9867 B( 57-C , 58-C ) :   1.0045 B( 58-C , 59-C ) :   1.6127
B( 59-C , 60-C ) :   1.1723 B( 59-C , 62-C ) :   1.1445 B( 60-C , 61-N ) :   3.0022
B( 62-C , 63-N ) :   2.9855 B( 64-C , 65-C ) :   1.2792 B( 64-C , 69-C ) :   1.2500
B( 65-C , 66-C ) :   1.4914 B( 65-C , 98-H ) :   0.9788 B( 66-C , 67-C ) :   1.2536
B( 66-C , 99-H ) :   0.9889 B( 67-C , 68-C ) :   1.5015 B( 67-C ,100-H ) :   0.9866
B( 68-C , 69-C ) :   1.2481 B( 68-C ,101-H ) :   0.9896 B( 70-C , 71-C ) :   0.9414
B( 71-C , 72-F ) :   1.1552 B( 71-C , 73-F ) :   1.1552 B( 71-C , 74-F ) :   1.1596

-----------------------------------------------------------------------------
         ABSORPTION SPECTRUM VIA TRANSITION ELECTRIC DIPOLE MOMENTS
-----------------------------------------------------------------------------
State   Energy  Wavelength   fosc         T2         TX        TY        TZ
        (cm-1)    (nm)                  (au**2)     (au)      (au)      (au)
-----------------------------------------------------------------------------
   0    9248.1   1081.3   1.564816275  55.70397  -5.89028  -0.31276   4.57283
   1   14274.1    700.6   0.151413030   3.49213   0.36042   1.74208   0.57217
   2   16353.9    611.5   0.085953282   1.73028  -0.96809  -0.79006   0.41095
   3   18487.8    540.9   0.136604349   2.43251  -1.53276  -0.15102   0.24564
   4   19217.1    520.4   0.084384993   1.44562  -0.60993   0.75969   0.70461
   5   21258.1    470.4   0.027109098   0.41982   0.11475  -0.54941   0.32373
   6   22569.5    443.1   0.060595013   0.88388  -0.19816  -0.61223   0.68541
   7   23255.0    430.0   0.016507013   0.23368  -0.42262  -0.08058   0.22041
   8   24444.3    409.1   0.011899402   0.16026   0.38770   0.03793  -0.09224
   9   24893.0    401.7   0.032461572   0.42931  -0.08268  -0.42914   0.48817
  10   26280.4    380.5   0.042268785   0.52950   0.26199  -0.26597  -0.62460
  11   26365.2    379.3   0.154113366   1.92435  -0.76792   0.79114  -0.84187
  12   28166.9    355.0   0.171130580   2.00016   1.34738   0.39884   0.16017
  13   28775.2    347.5   0.063795195   0.72987   0.09977   0.38526  -0.75597
  14   29039.2    344.4   0.026595320   0.30151   0.05342  -0.14589  -0.52666
  15   29213.0    342.3   0.068742786   0.77469  -0.50976  -0.30732   0.64837
  16   29538.7    338.5   0.192491318   2.14534  -0.61841   0.99446  -0.87975
  17   30107.8    332.1   0.019348351   0.21156  -0.40863  -0.20931  -0.02775
  18   30232.0    330.8   0.088224552   0.96072  -0.41853  -0.75731   0.46047
  19   30558.6    327.2   0.354989574   3.82435  -1.22858   1.31335   0.76816
  20   30897.8    323.6   0.047047848   0.50129   0.10621  -0.11664   0.69022
  21   31397.7    318.5   0.185031025   1.94009   0.51389  -1.09032  -0.69801
  22   31595.5    316.5   0.273596327   2.85076  -0.82190  -0.60698   1.34418
  23   31987.3    312.6   0.225633118   2.32220   1.02257  -1.09497  -0.27854
  24   32193.0    310.6   0.408364556   4.17601  -1.81375  -0.92669   0.16599
  25   33039.5    302.7   0.125021427   1.24574  -0.17326   0.86588  -0.68262
  26   33761.3    296.2   0.048647738   0.47437   0.35768  -0.07497   0.58379
  27   34201.6    292.4   0.144543776   1.39132   0.09316  -0.53804   1.04554
  28   34504.0    289.8   0.222101484   2.11913   0.19218  -1.22566   0.76155
  29   34613.1    288.9   0.168911376   1.60655   0.82911   0.94594  -0.15594
  30   34685.8    288.3   0.089135171   0.84601  -0.60653  -0.37171   0.58305
  31   35379.3    282.7   0.015988155   0.14877  -0.01732  -0.38234   0.04789
  32   35624.6    280.7   0.024746596   0.22869   0.39413  -0.13211  -0.23642
  33   35949.8    278.2   0.002384652   0.02184  -0.05973  -0.11487   0.07123
  34   36243.4    275.9   0.529628454   4.81081   0.33055  -1.67388   1.37828
  35   36986.6    270.4   0.073628680   0.65536   0.69684  -0.36355   0.19390
  36   37104.1    269.5   0.065242055   0.57887  -0.21467   0.70345  -0.19481
  37   37328.5    267.9   0.067564788   0.59588  -0.33149   0.38359  -0.58211
  38   37357.1    267.7   0.049836683   0.43919   0.06868  -0.02780   0.65856
  39   37635.4    265.7   0.052784248   0.46173   0.54593  -0.35450   0.19497
  40   38163.4    262.0   0.012075876   0.10417   0.21880   0.23619  -0.02259
  41   38259.6    261.4   0.132429182   1.13951   0.10658   0.69355  -0.80445
  42   38791.0    257.8   0.036716211   0.31160  -0.37829  -0.38281   0.14816
  43   38991.0    256.5   0.030315234   0.25596   0.32893   0.13651   0.35935
  44   39460.1    253.4   0.013656861   0.11394  -0.22562  -0.13181   0.21367
  45   39897.0    250.6   0.030712415   0.25343   0.25804  -0.16252   0.40054
  46   40120.3    249.3   0.049181700   0.40357  -0.39217  -0.49070   0.09476
  47   40226.2    248.6   0.011397262   0.09328   0.16951  -0.20375   0.15174
  48   40290.6    248.2   0.012488789   0.10205   0.17823  -0.02829  -0.26359

FINAL SINGLE POINT ENERGY     -3982.537658922937

DIPOLE MOMENT
-------------
                                X             Y             Z
Electronic contribution:     22.80426     -25.31450       0.63508
Nuclear contribution   :    -21.93868      24.29724      -2.10014
                        -----------------------------------------
Total Dipole Moment    :      0.86558      -1.01726      -1.46506
                        -----------------------------------------
Magnitude (a.u.)       :      1.98253
Magnitude (Debye)      :      5.03920

Rotational constants in cm-1:     0.001782     0.000249     0.000232
Rotational constants in MHz :    53.420766     7.471059     6.942599

                             ****ORCA TERMINATED NORMALLY****
TOTAL RUN TIME: 0 days 0 hours 12 minutes 2 seconds 257 msec
