                         Program Version 4.2.0 -  RELEASE  -
|  1> # ORCA input file
|  2> # SCF done       -193.841662940714          0.000640087698
|  3> ! CAM-B3LYP def2-SVP def2/J RIJCOSX Grid4 TightSCF
|  4> %maxcore 5000
|  5> %tddft
|  6>     Mode sTDDFT
|  7>     Ethresh 5.0
|  8>     maxcore 5000
|  9> end
| 10>
| 11> %pal
| 12>   nprocs 6
| 13>   end
| 14> * xyz 0 1
| 15>    C       -2.41563         0.48933         6.19427
| 16>    C       -1.57948         1.47723         5.69714
| 17>    C       -1.43203         1.67052         4.33013
| 18>    C       -2.12234         0.88483         3.41978
| 19>    C       -2.95987        -0.10691         3.90348
| 20>    C       -3.10580        -0.31033         5.29573
| 21>    C       -4.02536        -1.41648         5.51815
| 22>    C       -4.53564        -1.82329         6.71942
| 23>    C       -4.21749        -1.22419         7.95772
| 24>    N       -3.99914        -0.78284         8.99398
| 25>    C       -5.47922        -2.86095         6.88355
| 26>    N       -6.24952        -3.68804         7.08293
| 27>    C       -4.30104        -1.99831         4.20507
| 28>    C       -3.83633        -1.03441         3.20595
| 29>    C       -4.30773        -0.88751         1.93459
| 30>    C       -5.43602        -1.57687         1.43320
| 31>    N       -6.41814        -2.01170         1.02929
| 32>    C       -3.79256         0.02850         0.99552
| 33>    N       -3.39000         0.72241         0.17481
| 34>    C       -4.69213        -3.28949         4.01427
| 35>    C       -4.63051        -4.01351         2.80000
| 36>    S       -5.27788        -5.65559         2.69044
| 37>    C       -4.76404        -5.71882         1.03617
| 38>    C       -4.14071        -4.50600         0.70915
| 39>    N       -4.08772        -3.61009         1.69316
| 40>    C       -3.61646        -4.12911        -0.62080
| 41>    O       -3.52465        -4.87233        -1.56797
| 42>    O       -3.27387        -2.84275        -0.63430
| 43>    C       -2.78968        -2.32712        -1.86693
| 44>    C       -4.98041        -6.81783         0.17532
| 45>    C       -5.64910        -7.94270         0.52901
| 46>    C       -5.88596        -9.03320        -0.34263
| 47>    S       -5.27834        -9.04150        -1.97176
| 48>    C       -6.01007       -10.57999        -2.27726
| 49>    C       -6.69282       -11.05904        -1.16539
| 50>    C       -6.61109       -10.18920        -0.07140
| 51>    C       -7.26813       -10.47960         1.24227
| 52>    C       -7.63191       -11.96842         1.35537
| 53>    C       -6.43266       -12.75260         1.54973
| 54>    N       -5.48036       -13.36729         1.69146
| 55>    C       -8.35713       -12.44603         0.07646
| 56>    C       -9.52542       -11.62202        -0.14062
| 57>    N      -10.44042       -10.95703        -0.29997
| 58>    C       -7.41841       -12.36269        -1.13535
| 59>    C       -5.90133       -11.20967        -3.54191
| 60>    S       -5.01637       -10.49215        -4.87717
| 61>    C       -5.42242       -11.87020        -5.86030
| 62>    C       -6.20511       -12.74686        -5.10005
| 63>    N       -6.44332       -12.35195        -3.84080
| 64>    C       -6.86016       -14.01517        -5.50587
| 65>    O       -6.45137       -14.79880        -6.33166
| 66>    O       -7.97430       -14.19956        -4.81105
| 67>    C       -8.70589       -15.38201        -5.10647
| 68>    C       -5.00499       -11.85432        -7.21814
| 69>    C       -5.14403       -12.87207        -8.10234
| 70>    C       -4.77316       -12.76924        -9.46469
| 71>    C       -5.16589       -13.65171       -10.43040
| 72>    C       -4.53741       -13.82979       -11.73461
| 73>    C       -3.72623       -12.94121       -12.38555
| 74>    C       -3.40189       -11.65059       -11.91476
| 75>    N       -3.10417       -10.58974       -11.59296
| 76>    C       -3.13389       -13.18313       -13.64372
| 77>    N       -2.62088       -13.31826       -14.66127
| 78>    C       -4.93578       -15.14737       -12.21186
| 79>    C       -5.88246       -15.69527       -11.31498
| 80>    C       -6.41607       -16.95472       -11.53330
| 81>    C       -6.00006       -17.66535       -12.64896
| 82>    C       -5.07609       -17.12723       -13.53405
| 83>    C       -4.53611       -15.86665       -13.32757
| 84>    C       -6.15490       -14.71384       -10.27779
| 85>    C       -7.25574       -14.68470        -9.46663
| 86>    C       -8.17294       -15.74791        -9.33119
| 87>    N       -8.94387       -16.57776        -9.14616
| 88>    C       -7.68929       -13.55377        -8.73939
| 89>    N       -8.15146       -12.65937        -8.18805
| 90>    H       -2.51545         0.35034         7.25827
| 91>    H       -1.03367         2.10288         6.38656
| 92>    H       -0.77094         2.44321         3.96866
| 93>    H       -1.99771         1.03939         2.36026
| 94>    H       -5.00582        -3.86842         4.87149
| 95>    H       -2.71708        -1.25053        -1.73261
| 96>    H       -3.48056        -2.57109        -2.67613
| 97>    H       -1.81140        -2.75453        -2.09668
| 98>    H       -4.58321        -6.70575        -0.82536
| 99>    H       -6.04970        -8.02453         1.53180
|100>    H       -8.18303        -9.88394         1.32947
|101>    H       -6.60748       -10.20187         2.06738
|102>    H       -8.27862       -12.11909         2.22861
|103>    H       -8.69443       -13.48142         0.20558
|104>    H       -7.97204       -12.49670        -2.06723
|105>    H       -6.68639       -13.17472        -1.08526
|106>    H       -9.54186       -15.40117        -4.41271
|107>    H       -8.07387       -16.26304        -4.97750
|108>    H       -9.06712       -15.35772        -6.13695
|109>    H       -4.58381       -10.91605        -7.55914
|110>    H       -5.52996       -13.81699        -7.75194
|111>    H       -4.08649       -11.97669        -9.72974
|112>    H       -7.13012       -17.38318       -10.84858
|113>    H       -6.40162       -18.65071       -12.82942
|114>    H       -4.76894       -17.69764       -14.39720
|115>    H       -3.81801       -15.46619       -14.02415
|116> *
|117>
|118>                          ****END OF INPUT****

CARTESIAN COORDINATES (ANGSTROEM)
---------------------------------
  C     -2.415630    0.489330    6.194270
  C     -1.579480    1.477230    5.697140
  C     -1.432030    1.670520    4.330130
  C     -2.122340    0.884830    3.419780
  C     -2.959870   -0.106910    3.903480
  C     -3.105800   -0.310330    5.295730
  C     -4.025360   -1.416480    5.518150
  C     -4.535640   -1.823290    6.719420
  C     -4.217490   -1.224190    7.957720
  N     -3.999140   -0.782840    8.993980
  C     -5.479220   -2.860950    6.883550
  N     -6.249520   -3.688040    7.082930
  C     -4.301040   -1.998310    4.205070
  C     -3.836330   -1.034410    3.205950
  C     -4.307730   -0.887510    1.934590
  C     -5.436020   -1.576870    1.433200
  N     -6.418140   -2.011700    1.029290
  C     -3.792560    0.028500    0.995520
  N     -3.390000    0.722410    0.174810
  C     -4.692130   -3.289490    4.014270
  C     -4.630510   -4.013510    2.800000
  S     -5.277880   -5.655590    2.690440
  C     -4.764040   -5.718820    1.036170
  C     -4.140710   -4.506000    0.709150
  N     -4.087720   -3.610090    1.693160
  C     -3.616460   -4.129110   -0.620800
  O     -3.524650   -4.872330   -1.567970
  O     -3.273870   -2.842750   -0.634300
  C     -2.789680   -2.327120   -1.866930
  C     -4.980410   -6.817830    0.175320
  C     -5.649100   -7.942700    0.529010
  C     -5.885960   -9.033200   -0.342630
  S     -5.278340   -9.041500   -1.971760
  C     -6.010070  -10.579990   -2.277260
  C     -6.692820  -11.059040   -1.165390
  C     -6.611090  -10.189200   -0.071400
  C     -7.268130  -10.479600    1.242270
  C     -7.631910  -11.968420    1.355370
  C     -6.432660  -12.752600    1.549730
  N     -5.480360  -13.367290    1.691460
  C     -8.357130  -12.446030    0.076460
  C     -9.525420  -11.622020   -0.140620
  N    -10.440420  -10.957030   -0.299970
  C     -7.418410  -12.362690   -1.135350
  C     -5.901330  -11.209670   -3.541910
  S     -5.016370  -10.492150   -4.877170
  C     -5.422420  -11.870200   -5.860300
  C     -6.205110  -12.746860   -5.100050
  N     -6.443320  -12.351950   -3.840800
  C     -6.860160  -14.015170   -5.505870
  O     -6.451370  -14.798800   -6.331660
  O     -7.974300  -14.199560   -4.811050
  C     -8.705890  -15.382010   -5.106470
  C     -5.004990  -11.854320   -7.218140
  C     -5.144030  -12.872070   -8.102340
  C     -4.773160  -12.769240   -9.464690
  C     -5.165890  -13.651710  -10.430400
  C     -4.537410  -13.829790  -11.734610
  C     -3.726230  -12.941210  -12.385550
  C     -3.401890  -11.650590  -11.914760
  N     -3.104170  -10.589740  -11.592960
  C     -3.133890  -13.183130  -13.643720
  N     -2.620880  -13.318260  -14.661270
  C     -4.935780  -15.147370  -12.211860
  C     -5.882460  -15.695270  -11.314980
  C     -6.416070  -16.954720  -11.533300
  C     -6.000060  -17.665350  -12.648960
  C     -5.076090  -17.127230  -13.534050
  C     -4.536110  -15.866650  -13.327570
  C     -6.154900  -14.713840  -10.277790
  C     -7.255740  -14.684700   -9.466630
  C     -8.172940  -15.747910   -9.331190
  N     -8.943870  -16.577760   -9.146160
  C     -7.689290  -13.553770   -8.739390
  N     -8.151460  -12.659370   -8.188050
  H     -2.515450    0.350340    7.258270
  H     -1.033670    2.102880    6.386560
  H     -0.770940    2.443210    3.968660
  H     -1.997710    1.039390    2.360260
  H     -5.005820   -3.868420    4.871490
  H     -2.717080   -1.250530   -1.732610
  H     -3.480560   -2.571090   -2.676130
  H     -1.811400   -2.754530   -2.096680
  H     -4.583210   -6.705750   -0.825360
  H     -6.049700   -8.024530    1.531800
  H     -8.183030   -9.883940    1.329470
  H     -6.607480  -10.201870    2.067380
  H     -8.278620  -12.119090    2.228610
  H     -8.694430  -13.481420    0.205580
  H     -7.972040  -12.496700   -2.067230
  H     -6.686390  -13.174720   -1.085260
  H     -9.541860  -15.401170   -4.412710
  H     -8.073870  -16.263040   -4.977500
  H     -9.067120  -15.357720   -6.136950
  H     -4.583810  -10.916050   -7.559140
  H     -5.529960  -13.816990   -7.751940
  H     -4.086490  -11.976690   -9.729740
  H     -7.130120  -17.383180  -10.848580
  H     -6.401620  -18.650710  -12.829420
  H     -4.768940  -17.697640  -14.397200
  H     -3.818010  -15.466190  -14.024150

 Total Charge           Charge          ....    0
 Multiplicity           Mult            ....    1
 Number of Electrons    NEL             ....  526
 Basis Dimension        Dim             .... 1192

ORBITAL ENERGIES
----------------

  NO   OCC          E(Eh)            E(eV)
   0   2.0000     -88.993201     -2421.6281
   1   2.0000     -88.987819     -2421.4817
   2   2.0000     -88.981007     -2421.2963
   3   2.0000     -19.272520      -524.4319
   4   2.0000     -19.269170      -524.3408
   5   2.0000     -19.222658      -523.0751
   6   2.0000     -19.217254      -522.9281
   7   2.0000     -14.440648      -392.9500
   8   2.0000     -14.432233      -392.7210
   9   2.0000     -14.430953      -392.6862
  10   2.0000     -14.428942      -392.6315
  11   2.0000     -14.428048      -392.6071
  12   2.0000     -14.426827      -392.5739
  13   2.0000     -14.426577      -392.5671
  14   2.0000     -14.424275      -392.5045
  15   2.0000     -14.423173      -392.4745
  16   2.0000     -14.421664      -392.4334
  17   2.0000     -14.418606      -392.3502
  18   2.0000     -14.418589      -392.3497
  19   2.0000     -10.419831      -283.5380
  20   2.0000     -10.414599      -283.3956
  21   2.0000     -10.366693      -282.0921
  22   2.0000     -10.364018      -282.0193
  23   2.0000     -10.360370      -281.9200
  24   2.0000     -10.357141      -281.8321
  25   2.0000     -10.357118      -281.8315
  26   2.0000     -10.356386      -281.8116
  27   2.0000     -10.355535      -281.7884
  28   2.0000     -10.352315      -281.7008
  29   2.0000     -10.350308      -281.6462
  30   2.0000     -10.349185      -281.6157
  31   2.0000     -10.348313      -281.5919
  32   2.0000     -10.346338      -281.5382
  33   2.0000     -10.344726      -281.4943
  34   2.0000     -10.340076      -281.3678
  35   2.0000     -10.338471      -281.3241
  36   2.0000     -10.337243      -281.2907
  37   2.0000     -10.334941      -281.2280
  38   2.0000     -10.334661      -281.2204
  39   2.0000     -10.332625      -281.1650
  40   2.0000     -10.330749      -281.1140
  41   2.0000     -10.330083      -281.0959
  42   2.0000     -10.328788      -281.0606
  43   2.0000     -10.328608      -281.0557
  44   2.0000     -10.328483      -281.0523
  45   2.0000     -10.328127      -281.0426
  46   2.0000     -10.327121      -281.0153
  47   2.0000     -10.326607      -281.0013
  48   2.0000     -10.326508      -280.9986
  49   2.0000     -10.326301      -280.9929
  50   2.0000     -10.322674      -280.8942
  51   2.0000     -10.322645      -280.8935
  52   2.0000     -10.322418      -280.8873
  53   2.0000     -10.320035      -280.8224
  54   2.0000     -10.319423      -280.8058
  55   2.0000     -10.319160      -280.7986
  56   2.0000     -10.318954      -280.7930
  57   2.0000     -10.317109      -280.7428
  58   2.0000     -10.316955      -280.7386
  59   2.0000     -10.316903      -280.7372
  60   2.0000     -10.316735      -280.7326
  61   2.0000     -10.315226      -280.6916
  62   2.0000     -10.309759      -280.5428
  63   2.0000     -10.309285      -280.5299
  64   2.0000     -10.307059      -280.4693
  65   2.0000     -10.306040      -280.4416
  66   2.0000     -10.305580      -280.4291
  67   2.0000     -10.305076      -280.4154
  68   2.0000     -10.304848      -280.4092
  69   2.0000     -10.304723      -280.4058
  70   2.0000     -10.304114      -280.3892
  71   2.0000     -10.303883      -280.3829
  72   2.0000     -10.302872      -280.3554
  73   2.0000     -10.299834      -280.2727
  74   2.0000     -10.296256      -280.1754
  75   2.0000      -8.088933      -220.1111
  76   2.0000      -8.084109      -219.9798
  77   2.0000      -8.076432      -219.7709
  78   2.0000      -6.057797      -164.8410
  79   2.0000      -6.054025      -164.7384
  80   2.0000      -6.053170      -164.7151
  81   2.0000      -6.051404      -164.6671
  82   2.0000      -6.049115      -164.6048
  83   2.0000      -6.046329      -164.5290
  84   2.0000      -6.045644      -164.5103
  85   2.0000      -6.041682      -164.4025
  86   2.0000      -6.038480      -164.3154
  87   2.0000      -1.209657       -32.9164
  88   2.0000      -1.203463       -32.7479
  89   2.0000      -1.113629       -30.3034
  90   2.0000      -1.109599       -30.1937
  91   2.0000      -1.098166       -29.8826
  92   2.0000      -1.092117       -29.7180
  93   2.0000      -1.042294       -28.3623
  94   2.0000      -1.040190       -28.3050
  95   2.0000      -1.028562       -27.9886
  96   2.0000      -1.024242       -27.8711
  97   2.0000      -1.022580       -27.8258
  98   2.0000      -1.013892       -27.5894
  99   2.0000      -1.011986       -27.5375
 100   2.0000      -1.009541       -27.4710
 101   2.0000      -1.007573       -27.4175
 102   2.0000      -1.004933       -27.3456
 103   2.0000      -1.003712       -27.3124
 104   2.0000      -1.003338       -27.3022
 105   2.0000      -1.001170       -27.2432
 106   2.0000      -0.967257       -26.3204
 107   2.0000      -0.965576       -26.2746
 108   2.0000      -0.964988       -26.2587
 109   2.0000      -0.952877       -25.9291
 110   2.0000      -0.948438       -25.8083
 111   2.0000      -0.946037       -25.7430
 112   2.0000      -0.944517       -25.7016
 113   2.0000      -0.924525       -25.1576
 114   2.0000      -0.920633       -25.0517
 115   2.0000      -0.914595       -24.8874
 116   2.0000      -0.900206       -24.4959
 117   2.0000      -0.898653       -24.4536
 118   2.0000      -0.891251       -24.2522
 119   2.0000      -0.886305       -24.1176
 120   2.0000      -0.872182       -23.7333
 121   2.0000      -0.871579       -23.7169
 122   2.0000      -0.870298       -23.6820
 123   2.0000      -0.865651       -23.5556
 124   2.0000      -0.856392       -23.3036
 125   2.0000      -0.836680       -22.7672
 126   2.0000      -0.825783       -22.4707
 127   2.0000      -0.816167       -22.2090
 128   2.0000      -0.801973       -21.8228
 129   2.0000      -0.797329       -21.6964
 130   2.0000      -0.795885       -21.6571
 131   2.0000      -0.792055       -21.5529
 132   2.0000      -0.771709       -20.9993
 133   2.0000      -0.763324       -20.7711
 134   2.0000      -0.757827       -20.6215
 135   2.0000      -0.741676       -20.1820
 136   2.0000      -0.734448       -19.9854
 137   2.0000      -0.722247       -19.6533
 138   2.0000      -0.721088       -19.6218
 139   2.0000      -0.718660       -19.5557
 140   2.0000      -0.717970       -19.5369
 141   2.0000      -0.710696       -19.3390
 142   2.0000      -0.696113       -18.9422
 143   2.0000      -0.688559       -18.7366
 144   2.0000      -0.683392       -18.5960
 145   2.0000      -0.676295       -18.4029
 146   2.0000      -0.673018       -18.3138
 147   2.0000      -0.670997       -18.2588
 148   2.0000      -0.667506       -18.1638
 149   2.0000      -0.665851       -18.1187
 150   2.0000      -0.662516       -18.0280
 151   2.0000      -0.652173       -17.7465
 152   2.0000      -0.647511       -17.6197
 153   2.0000      -0.640289       -17.4232
 154   2.0000      -0.637048       -17.3349
 155   2.0000      -0.631601       -17.1867
 156   2.0000      -0.625940       -17.0327
 157   2.0000      -0.620447       -16.8832
 158   2.0000      -0.609081       -16.5739
 159   2.0000      -0.606304       -16.4984
 160   2.0000      -0.602816       -16.4035
 161   2.0000      -0.593494       -16.1498
 162   2.0000      -0.592455       -16.1215
 163   2.0000      -0.591182       -16.0869
 164   2.0000      -0.584888       -15.9156
 165   2.0000      -0.583893       -15.8885
 166   2.0000      -0.582785       -15.8584
 167   2.0000      -0.578713       -15.7476
 168   2.0000      -0.575354       -15.6562
 169   2.0000      -0.565948       -15.4002
 170   2.0000      -0.564508       -15.3610
 171   2.0000      -0.558675       -15.2023
 172   2.0000      -0.555564       -15.1177
 173   2.0000      -0.554038       -15.0762
 174   2.0000      -0.551749       -15.0138
 175   2.0000      -0.549114       -14.9422
 176   2.0000      -0.546759       -14.8781
 177   2.0000      -0.545791       -14.8517
 178   2.0000      -0.543462       -14.7883
 179   2.0000      -0.542992       -14.7756
 180   2.0000      -0.542460       -14.7611
 181   2.0000      -0.537593       -14.6287
 182   2.0000      -0.532830       -14.4990
 183   2.0000      -0.528999       -14.3948
 184   2.0000      -0.525734       -14.3060
 185   2.0000      -0.522755       -14.2249
 186   2.0000      -0.521068       -14.1790
 187   2.0000      -0.520189       -14.1550
 188   2.0000      -0.515598       -14.0301
 189   2.0000      -0.512032       -13.9331
 190   2.0000      -0.510660       -13.8958
 191   2.0000      -0.508590       -13.8394
 192   2.0000      -0.504362       -13.7244
 193   2.0000      -0.503435       -13.6992
 194   2.0000      -0.496027       -13.4976
 195   2.0000      -0.494483       -13.4556
 196   2.0000      -0.489823       -13.3288
 197   2.0000      -0.487952       -13.2779
 198   2.0000      -0.485651       -13.2152
 199   2.0000      -0.483261       -13.1502
 200   2.0000      -0.482111       -13.1189
 201   2.0000      -0.479077       -13.0364
 202   2.0000      -0.473475       -12.8839
 203   2.0000      -0.470510       -12.8032
 204   2.0000      -0.468131       -12.7385
 205   2.0000      -0.465573       -12.6689
 206   2.0000      -0.464662       -12.6441
 207   2.0000      -0.462182       -12.5766
 208   2.0000      -0.461362       -12.5543
 209   2.0000      -0.460555       -12.5323
 210   2.0000      -0.460289       -12.5251
 211   2.0000      -0.459465       -12.5027
 212   2.0000      -0.459315       -12.4986
 213   2.0000      -0.457567       -12.4510
 214   2.0000      -0.456135       -12.4121
 215   2.0000      -0.455547       -12.3961
 216   2.0000      -0.452433       -12.3113
 217   2.0000      -0.452106       -12.3024
 218   2.0000      -0.450953       -12.2711
 219   2.0000      -0.450489       -12.2584
 220   2.0000      -0.449156       -12.2222
 221   2.0000      -0.445205       -12.1147
 222   2.0000      -0.444056       -12.0834
 223   2.0000      -0.441749       -12.0206
 224   2.0000      -0.440558       -11.9882
 225   2.0000      -0.438706       -11.9378
 226   2.0000      -0.437608       -11.9079
 227   2.0000      -0.437107       -11.8943
 228   2.0000      -0.436088       -11.8666
 229   2.0000      -0.435636       -11.8543
 230   2.0000      -0.434717       -11.8293
 231   2.0000      -0.434655       -11.8276
 232   2.0000      -0.431824       -11.7505
 233   2.0000      -0.431533       -11.7426
 234   2.0000      -0.423940       -11.5360
 235   2.0000      -0.421536       -11.4706
 236   2.0000      -0.420042       -11.4299
 237   2.0000      -0.419898       -11.4260
 238   2.0000      -0.418597       -11.3906
 239   2.0000      -0.416752       -11.3404
 240   2.0000      -0.411750       -11.2043
 241   2.0000      -0.411438       -11.1958
 242   2.0000      -0.406360       -11.0576
 243   2.0000      -0.393232       -10.7004
 244   2.0000      -0.391946       -10.6654
 245   2.0000      -0.388395       -10.5688
 246   2.0000      -0.386855       -10.5269
 247   2.0000      -0.386643       -10.5211
 248   2.0000      -0.381188       -10.3727
 249   2.0000      -0.377808       -10.2807
 250   2.0000      -0.375636       -10.2216
 251   2.0000      -0.374231       -10.1833
 252   2.0000      -0.362386        -9.8610
 253   2.0000      -0.359791        -9.7904
 254   2.0000      -0.356985        -9.7141
 255   2.0000      -0.339862        -9.2481
 256   2.0000      -0.338378        -9.2077
 257   2.0000      -0.336956        -9.1690
 258   2.0000      -0.335887        -9.1399
 259   2.0000      -0.321611        -8.7515
 260   2.0000      -0.310154        -8.4397
 261   2.0000      -0.293132        -7.9765
 262   2.0000      -0.262803        -7.1512
 263   0.0000      -0.118997        -3.2381
 264   0.0000      -0.107253        -2.9185
 265   0.0000      -0.091439        -2.4882
 266   0.0000      -0.090782        -2.4703
 267   0.0000      -0.074519        -2.0278

MULLIKEN ATOMIC CHARGES
-----------------------
   0 C :   -0.030435
   1 C :    0.045404
   2 C :    0.050440
   3 C :   -0.035282
   4 C :    0.018544
   5 C :    0.007399
   6 C :    0.279475
   7 C :   -0.333694
   8 C :   -0.188317
   9 N :    0.169552
  10 C :   -0.186185
  11 N :    0.163081
  12 C :   -0.040063
  13 C :    0.221779
  14 C :   -0.263754
  15 C :   -0.188316
  16 N :    0.169408
  17 C :   -0.160006
  18 N :    0.142093
  19 C :    0.108105
  20 C :   -0.123296
  21 S :    0.152948
  22 C :   -0.046967
  23 C :    0.018969
  24 N :   -0.040289
  25 C :    0.170617
  26 O :   -0.202445
  27 O :   -0.282885
  28 C :    0.180186
  29 C :   -0.026908
  30 C :    0.005520
  31 C :   -0.083195
  32 S :    0.157116
  33 C :   -0.059607
  34 C :   -0.079256
  35 C :   -0.068239
  36 C :    0.142338
  37 C :   -0.084681
  38 C :   -0.245213
  39 N :    0.148613
  40 C :   -0.065578
  41 C :   -0.249094
  42 N :    0.147140
  43 C :    0.178761
  44 C :   -0.116798
  45 S :    0.148411
  46 C :   -0.071436
  47 C :    0.039414
  48 N :   -0.059316
  49 C :    0.193801
  50 O :   -0.229351
  51 O :   -0.265476
  52 C :    0.183921
  53 C :    0.049473
  54 C :   -0.023048
  55 C :    0.027971
  56 C :   -0.050984
  57 C :    0.298150
  58 C :   -0.341604
  59 C :   -0.183096
  60 N :    0.160021
  61 C :   -0.189155
  62 N :    0.163123
  63 C :    0.013813
  64 C :    0.012048
  65 C :   -0.036119
  66 C :    0.050974
  67 C :    0.049392
  68 C :   -0.035432
  69 C :    0.238091
  70 C :   -0.310401
  71 C :   -0.172568
  72 N :    0.153987
  73 C :   -0.213450
  74 N :    0.167958
  75 H :    0.008202
  76 H :    0.006002
  77 H :    0.006804
  78 H :    0.007536
  79 H :    0.008839
  80 H :    0.049639
  81 H :    0.038297
  82 H :    0.030383
  83 H :    0.035134
  84 H :   -0.003166
  85 H :    0.061935
  86 H :    0.044860
  87 H :    0.056625
  88 H :    0.054512
  89 H :    0.062875
  90 H :    0.050826
  91 H :    0.038696
  92 H :    0.035621
  93 H :    0.044083
  94 H :    0.009909
  95 H :    0.062978
  96 H :    0.018279
  97 H :    0.007675
  98 H :    0.005279
  99 H :    0.005347
 100 H :    0.006737
Sum of atomic charges:   -0.0000000

LOEWDIN ATOMIC CHARGES
----------------------
   0 C :    0.006600
   1 C :    0.000519
   2 C :    0.008301
   3 C :   -0.000590
   4 C :   -0.003947
   5 C :   -0.017198
   6 C :    0.077753
   7 C :   -0.127160
   8 C :   -0.019341
   9 N :   -0.039369
  10 C :   -0.022598
  11 N :   -0.040640
  12 C :   -0.021463
  13 C :    0.062486
  14 C :   -0.095166
  15 C :   -0.018305
  16 N :   -0.048276
  17 C :   -0.007409
  18 N :   -0.049003
  19 C :    0.019222
  20 C :   -0.137934
  21 S :    0.452582
  22 C :   -0.131202
  23 C :   -0.073529
  24 N :   -0.038068
  25 C :    0.081891
  26 O :   -0.174791
  27 O :   -0.070384
  28 C :    0.083395
  29 C :   -0.042860
  30 C :   -0.016860
  31 C :   -0.160563
  32 S :    0.463801
  33 C :   -0.198428
  34 C :   -0.028860
  35 C :   -0.047496
  36 C :   -0.007152
  37 C :   -0.034067
  38 C :   -0.037074
  39 N :   -0.049880
  40 C :   -0.035625
  41 C :   -0.037017
  42 N :   -0.050347
  43 C :   -0.007571
  44 C :   -0.133788
  45 S :    0.443346
  46 C :   -0.157773
  47 C :   -0.054484
  48 N :   -0.072661
  49 C :    0.092685
  50 O :   -0.174921
  51 O :   -0.058498
  52 C :    0.084200
  53 C :    0.001593
  54 C :   -0.016444
  55 C :    0.061602
  56 C :   -0.049130
  57 C :    0.077086
  58 C :   -0.128654
  59 C :   -0.020705
  60 N :   -0.043216
  61 C :   -0.019106
  62 N :   -0.042912
  63 C :   -0.013320
  64 C :   -0.008959
  65 C :    0.002141
  66 C :    0.005991
  67 C :    0.002827
  68 C :    0.005735
  69 C :    0.072280
  70 C :   -0.118590
  71 C :   -0.014173
  72 N :   -0.047642
  73 C :   -0.018775
  74 N :   -0.050205
  75 H :    0.041918
  76 H :    0.038300
  77 H :    0.038547
  78 H :    0.041219
  79 H :    0.046776
  80 H :    0.029817
  81 H :    0.025665
  82 H :    0.023489
  83 H :    0.036848
  84 H :    0.028352
  85 H :    0.049660
  86 H :    0.043222
  87 H :    0.062539
  88 H :    0.062712
  89 H :    0.050275
  90 H :    0.050154
  91 H :    0.028544
  92 H :    0.025305
  93 H :    0.028434
  94 H :    0.037750
  95 H :    0.032843
  96 H :    0.045884
  97 H :    0.041568
  98 H :    0.038158
  99 H :    0.038222
 100 H :    0.041886

  Mayer bond orders larger than 0.100000
B(  0-C ,  1-C ) :   1.3768 B(  0-C ,  5-C ) :   1.3775 B(  0-C , 75-H ) :   0.9844
B(  1-C ,  2-C ) :   1.3734 B(  1-C , 76-H ) :   0.9860 B(  2-C ,  3-C ) :   1.3676
B(  2-C , 77-H ) :   0.9865 B(  3-C ,  4-C ) :   1.3844 B(  3-C , 78-H ) :   0.9863
B(  4-C ,  5-C ) :   1.3076 B(  4-C , 13-C ) :   1.0166 B(  5-C ,  6-C ) :   1.0122
B(  6-C ,  7-C ) :   1.6561 B(  6-C , 12-C ) :   1.0351 B(  7-C ,  8-C ) :   1.1430
B(  7-C , 10-C ) :   1.1319 B(  8-C ,  9-N ) :   2.9835 B( 10-C , 11-N ) :   2.9912
B( 12-C , 13-C ) :   0.9991 B( 12-C , 19-C ) :   1.6559 B( 13-C , 14-C ) :   1.7033
B( 14-C , 15-C ) :   1.1337 B( 14-C , 17-C ) :   1.1630 B( 15-C , 16-N ) :   2.9954
B( 17-C , 18-N ) :   2.9224 B( 19-C , 20-C ) :   1.1381 B( 19-C , 79-H ) :   0.9215
B( 20-C , 21-S ) :   1.0824 B( 20-C , 24-N ) :   1.6089 B( 21-S , 22-C ) :   1.1612
B( 21-S , 24-N ) :   0.1031 B( 22-C , 23-C ) :   1.4015 B( 22-C , 29-C ) :   1.1964
B( 23-C , 24-N ) :   1.4001 B( 23-C , 25-C ) :   0.9298 B( 25-C , 26-O ) :   2.0713
B( 25-C , 27-O ) :   1.2769 B( 27-O , 28-C ) :   0.9105 B( 28-C , 80-H ) :   0.9745
B( 28-C , 81-H ) :   0.9732 B( 28-C , 82-H ) :   0.9781 B( 29-C , 30-C ) :   1.6085
B( 29-C , 83-H ) :   0.9489 B( 30-C , 31-C ) :   1.1839 B( 30-C , 84-H ) :   0.9653
B( 31-C , 32-S ) :   1.1218 B( 31-C , 33-C ) :   0.1150 B( 31-C , 35-C ) :   1.4695
B( 32-S , 33-C ) :   1.1319 B( 33-C , 34-C ) :   1.5221 B( 33-C , 44-C ) :   1.0893
B( 34-C , 35-C ) :   1.3250 B( 34-C , 43-C ) :   1.0544 B( 35-C , 36-C ) :   1.0341
B( 36-C , 37-C ) :   1.0645 B( 36-C , 85-H ) :   0.9020 B( 36-C , 86-H ) :   0.9130
B( 37-C , 38-C ) :   1.1053 B( 37-C , 40-C ) :   1.0732 B( 37-C , 87-H ) :   0.8578
B( 38-C , 39-N ) :   3.1083 B( 40-C , 41-C ) :   1.1053 B( 40-C , 43-C ) :   1.0364
B( 40-C , 88-H ) :   0.8551 B( 41-C , 42-N ) :   3.1052 B( 43-C , 89-H ) :   0.8970
B( 43-C , 90-H ) :   0.8965 B( 44-C , 45-S ) :   1.1209 B( 44-C , 48-N ) :   1.6685
B( 45-S , 46-C ) :   1.1316 B( 46-C , 47-C ) :   1.4473 B( 46-C , 53-C ) :   1.1271
B( 47-C , 48-N ) :   1.3893 B( 47-C , 49-C ) :   0.9113 B( 49-C , 50-O ) :   1.9804
B( 49-C , 51-O ) :   1.2984 B( 50-O , 95-H ) :   0.1089 B( 51-O , 52-C ) :   0.9129
B( 52-C , 91-H ) :   0.9793 B( 52-C , 92-H ) :   0.9727 B( 52-C , 93-H ) :   0.9779
B( 53-C , 54-C ) :   1.6727 B( 53-C , 94-H ) :   0.9652 B( 54-C , 55-C ) :   1.1388
B( 54-C , 95-H ) :   0.9218 B( 55-C , 56-C ) :   1.5899 B( 55-C , 96-H ) :   0.9531
B( 56-C , 57-C ) :   1.0372 B( 56-C , 69-C ) :   1.0185 B( 57-C , 58-C ) :   1.6466
B( 57-C , 63-C ) :   1.0043 B( 58-C , 59-C ) :   1.1374 B( 58-C , 61-C ) :   1.1459
B( 59-C , 60-N ) :   2.9801 B( 61-C , 62-N ) :   2.9788 B( 63-C , 64-C ) :   1.3065
B( 63-C , 68-C ) :   1.3794 B( 64-C , 65-C ) :   1.3812 B( 64-C , 69-C ) :   1.0170
B( 65-C , 66-C ) :   1.3660 B( 65-C , 97-H ) :   0.9868 B( 66-C , 67-C ) :   1.3752
B( 66-C , 98-H ) :   0.9862 B( 67-C , 68-C ) :   1.3715 B( 67-C , 99-H ) :   0.9864
B( 68-C ,100-H ) :   0.9854 B( 69-C , 70-C ) :   1.6475 B( 70-C , 71-C ) :   1.1488
B( 70-C , 73-C ) :   1.1623 B( 71-C , 72-N ) :   2.9625 B( 73-C , 74-N ) :   2.9756

-----------------------------------------------------------------------------
         ABSORPTION SPECTRUM VIA TRANSITION ELECTRIC DIPOLE MOMENTS
-----------------------------------------------------------------------------
State   Energy  Wavelength   fosc         T2         TX        TY        TZ
        (cm-1)    (nm)                  (au**2)     (au)      (au)      (au)
-----------------------------------------------------------------------------
   0   16577.0    603.2   1.871270848  37.16261  -0.41683  -4.00050  -4.58092
   1   19754.5    506.2   0.140922373   2.34850   0.23231   0.73950  -1.32200
   2   23355.1    428.2   0.172282304   2.42848   0.79319   0.13009  -1.33507
   3   24076.6    415.3   0.043715071   0.59774  -0.11204   0.09986   0.75843
   4   24201.0    413.2   0.070892072   0.96436   0.59331   0.44432   0.64415
   5   25353.8    394.4   0.073028207   0.94825   0.25653   0.93553  -0.08498
   6   26670.3    374.9   0.095924324   1.18407  -0.29131  -1.01816  -0.25011
   7   27911.1    358.3   0.085283693   1.00592  -0.58178  -0.66198   0.47879
   8   29396.4    340.2   0.204304520   2.28802   0.19786   1.22942   0.85872
   9   30019.1    333.1   0.147895112   1.62193   0.64137   0.88608   0.65226
  10   30547.2    327.4   0.130283811   1.40409   0.90839   0.24489  -0.72037
  11   30665.6    326.1   0.198525374   2.13128   0.22244  -0.01593  -1.44276
  12   32287.0    309.7   0.104834135   1.06893  -0.38260   0.08959   0.95631
  13   32435.3    308.3   0.064776351   0.65747   0.55622   0.57170  -0.14576
  14   32516.0    307.5   0.277172695   2.80627  -0.10350   0.37860  -1.62856
  15   32673.9    306.1   0.012890442   0.12988  -0.13503  -0.32994  -0.05277
  16   32890.4    304.0   0.016842898   0.16859  -0.11144   0.00789   0.39510
  17   33111.9    302.0   0.089319581   0.88805   0.04634  -0.36177   0.86892
  18   33438.5    299.1   0.631173708   6.21409   1.72621   0.81049  -1.60543
  19   34098.8    293.3   0.070743194   0.68300  -0.09036  -0.76414   0.30153
  20   34125.7    293.0   0.109867008   1.05989  -0.22904  -0.04803  -1.00256
  21   35084.2    285.0   0.344775028   3.23519   0.40320  -1.02591  -1.42131
  22   35334.7    283.0   0.517340301   4.82004   1.53638   1.56183  -0.14242
  23   35727.6    279.9   0.081347828   0.74958   0.39666   0.74336   0.19915
  24   35812.9    279.2   0.019087924   0.17547   0.21457   0.06599  -0.35366
  25   36163.9    276.5   0.005892857   0.05364   0.18793  -0.05859   0.12204
  26   36670.5    272.7   0.005768433   0.05179   0.07073   0.19267  -0.09830
  27   37224.6    268.6   0.015861165   0.14027   0.15838   0.20927   0.26720
  28   37600.7    266.0   0.040684306   0.35621   0.10534  -0.52848  -0.25656
  29   38315.9    261.0   0.107932351   0.92736  -0.37691  -0.87241   0.15555
  30   38937.5    256.8   0.005799087   0.04903   0.07773   0.19163  -0.07917
  31   39054.0    256.1   0.006914732   0.05829   0.00987  -0.22169  -0.09510
  32   39187.8    255.2   0.010656261   0.08952   0.22451   0.12756   0.15115
  33   39374.8    254.0   0.010761894   0.08998  -0.20983  -0.18517  -0.10800
  34   39821.0    251.1   0.105524114   0.87240   0.37038   0.85743  -0.00596
  35   40023.0    249.9   0.024311635   0.19998  -0.24751  -0.28638   0.23812

FINAL SINGLE POINT ENERGY     -4297.614745481213

DIPOLE MOMENT
-------------
                                X             Y             Z
Electronic contribution:      3.18001      16.88025       5.90743
Nuclear contribution   :     -1.55596     -18.17891      -5.29257
                        -----------------------------------------
Total Dipole Moment    :      1.62406      -1.29866       0.61487
                        -----------------------------------------
Magnitude (a.u.)       :      2.16844
Magnitude (Debye)      :      5.51174

Rotational constants in cm-1:     0.001756     0.000253     0.000226
Rotational constants in MHz :    52.649402     7.573900     6.782512

                             ****ORCA TERMINATED NORMALLY****
TOTAL RUN TIME: 0 days 0 hours 10 minutes 35 seconds 652 msec
