                         Program Version 4.2.0 -  RELEASE  -
|  1> # ORCA input file
|  2> # SCF done       -184.309190121292          0.000781793714
|  3> ! CAM-B3LYP def2-SVP def2/J RIJCOSX Grid4 TightSCF
|  4> %maxcore 5000
|  5> %tddft
|  6>     Mode sTDDFT
|  7>     Ethresh 5.0
|  8>     maxcore 5000
|  9> end
| 10>
| 11> %pal
| 12>   nprocs 6
| 13>   end
| 14> * xyz 0 1
| 15>    C       -1.81178         0.91688        -0.22486
| 16>    C       -1.04482         0.78926         0.92473
| 17>    C       -1.33127        -0.18136         1.87267
| 18>    C       -2.40031        -1.04948         1.70264
| 19>    C       -3.17049        -0.93164         0.55918
| 20>    C       -2.87560         0.05028        -0.41274
| 21>    C       -3.83322        -0.07077        -1.50794
| 22>    C       -3.91540         0.76688        -2.59439
| 23>    C       -3.07883         1.88257        -2.79891
| 24>    N       -2.43737         2.80634        -3.03155
| 25>    C       -4.85716         0.66416        -3.63657
| 26>    N       -5.59908         0.64468        -4.51461
| 27>    C       -4.64379        -1.23909        -1.22986
| 28>    C       -4.35897        -1.65418         0.12869
| 29>    C       -5.21029        -2.34271         0.95920
| 30>    C       -6.51785        -2.71799         0.59305
| 31>    N       -7.60473        -2.99434         0.34417
| 32>    C       -4.91757        -2.66521         2.29736
| 33>    N       -4.72254        -2.98068         3.38444
| 34>    C       -5.47449        -1.84970        -2.15152
| 35>    C       -5.90113        -3.17272        -2.20396
| 36>    C       -6.93404        -3.67478        -3.03582
| 37>    C       -7.11438        -5.07672        -2.90964
| 38>    C       -8.13971        -5.71581        -3.62287
| 39>    C       -8.94782        -4.97504        -4.44519
| 40>    C       -8.75640        -3.59218        -4.58342
| 41>    C       -7.77096        -2.93961        -3.88808
| 42>    C       -6.18765        -5.67613        -2.02150
| 43>    S       -5.13930        -4.48178        -1.33723
| 44>    C       -6.10580        -7.03255        -1.69828
| 45>    C       -5.20833        -7.59187        -0.82813
| 46>    C       -5.23596        -8.95639        -0.50962
| 47>    S       -4.12919        -9.67644         0.63574
| 48>    C       -4.86807       -11.25110         0.53363
| 49>    C       -4.32750       -12.40985         1.29084
| 50>    C       -3.09128       -12.98896         0.59678
| 51>    C       -5.90380       -11.21343        -0.35047
| 52>    C       -6.12678        -9.93437        -0.96127
| 53>    N       -7.14614        -9.88315        -1.82679
| 54>    C       -7.76362       -11.02292        -1.92967
| 55>    S       -7.08957       -12.34350        -0.92444
| 56>    C       -8.89841       -11.24692        -2.73726
| 57>    C       -9.33433       -10.31243        -3.62889
| 58>    C      -10.50059       -10.40288        -4.40394
| 59>    C      -10.91517        -9.51129        -5.42017
| 60>    C      -12.18600        -9.84832        -5.96221
| 61>    C      -12.72778        -9.06990        -6.99699
| 62>    C      -12.02125        -7.99577        -7.47074
| 63>    C      -10.76651        -7.66391        -6.93627
| 64>    C      -10.21325        -8.40444        -5.92533
| 65>    C      -12.75218       -10.99506        -5.35576
| 66>    S      -11.67570       -11.65059        -4.16374
| 67>    C      -13.99653       -11.56585        -5.63079
| 68>    C      -14.51572       -12.66092        -4.98890
| 69>    C      -15.78934       -13.21237        -5.19835
| 70>    C      -16.64525       -13.05586        -6.26759
| 71>    C      -18.08822       -13.22839        -6.17886
| 72>    C      -18.80300       -13.81048        -5.16347
| 73>    C      -18.26802       -14.40336        -4.00081
| 74>    N      -17.92123       -14.90639        -3.02798
| 75>    C      -20.20888       -13.93124        -5.15558
| 76>    N      -21.34657       -14.06509        -5.07950
| 77>    C      -18.66130       -12.63229        -7.38045
| 78>    C      -17.61019       -12.24241        -8.23959
| 79>    C      -17.87841       -11.61875        -9.44653
| 80>    C      -19.20139       -11.38786        -9.79339
| 81>    C      -20.23553       -11.77808        -8.95563
| 82>    C      -19.97853       -12.40289        -7.74387
| 83>    C      -16.34764       -12.62583        -7.62355
| 84>    C      -15.16276       -12.78790        -8.29778
| 85>    C      -14.96260       -12.41253        -9.64108
| 86>    N      -14.72783       -12.10159       -10.72129
| 87>    C      -14.01095       -13.39479        -7.75972
| 88>    N      -13.04830       -13.90256        -7.39396
| 89>    H       -1.57251         1.67734        -0.94971
| 90>    H       -0.21140         1.45756         1.07907
| 91>    H       -0.71682        -0.26472         2.75611
| 92>    H       -2.61238        -1.80336         2.44351
| 93>    H       -5.78457        -1.24987        -2.99649
| 94>    H       -8.29270        -6.77747        -3.50678
| 95>    H       -9.74691        -5.45501        -4.99029
| 96>    H       -9.40396        -3.03454        -5.24273
| 97>    H       -7.64057        -1.87420        -3.99395
| 98>    H       -6.82654        -7.69259        -2.15907
| 99>    H       -4.46095        -6.97708        -0.34437
|100>    H       -5.10390       -13.17538         1.35784
|101>    H       -4.05828       -12.09445         2.30098
|102>    H       -3.34146       -13.32189        -0.40790
|103>    H       -2.71197       -13.83717         1.15971
|104>    H       -2.30902       -12.23630         0.52967
|105>    H       -9.41541       -12.18883        -2.62414
|106>    H       -8.73550        -9.42037        -3.74639
|107>    H      -13.68706        -9.32169        -7.42194
|108>    H      -12.42739        -7.39670        -8.27127
|109>    H      -10.23106        -6.81752        -7.33939
|110>    H       -9.24195        -8.15240        -5.52970
|111>    H      -14.59645       -11.05602        -6.37295
|112>    H      -13.93921       -13.08593        -4.17728
|113>    H      -16.17305       -13.77940        -4.36051
|114>    H      -17.08365       -11.30455       -10.10338
|115>    H      -19.42536       -10.89619       -10.72766
|116>    H      -21.25802       -11.59052        -9.24558
|117>    H      -20.79592       -12.69337        -7.10523
|118> *
|119>
|120>                          ****END OF INPUT****

CARTESIAN COORDINATES (ANGSTROEM)
---------------------------------
  C     -1.811780    0.916880   -0.224860
  C     -1.044820    0.789260    0.924730
  C     -1.331270   -0.181360    1.872670
  C     -2.400310   -1.049480    1.702640
  C     -3.170490   -0.931640    0.559180
  C     -2.875600    0.050280   -0.412740
  C     -3.833220   -0.070770   -1.507940
  C     -3.915400    0.766880   -2.594390
  C     -3.078830    1.882570   -2.798910
  N     -2.437370    2.806340   -3.031550
  C     -4.857160    0.664160   -3.636570
  N     -5.599080    0.644680   -4.514610
  C     -4.643790   -1.239090   -1.229860
  C     -4.358970   -1.654180    0.128690
  C     -5.210290   -2.342710    0.959200
  C     -6.517850   -2.717990    0.593050
  N     -7.604730   -2.994340    0.344170
  C     -4.917570   -2.665210    2.297360
  N     -4.722540   -2.980680    3.384440
  C     -5.474490   -1.849700   -2.151520
  C     -5.901130   -3.172720   -2.203960
  C     -6.934040   -3.674780   -3.035820
  C     -7.114380   -5.076720   -2.909640
  C     -8.139710   -5.715810   -3.622870
  C     -8.947820   -4.975040   -4.445190
  C     -8.756400   -3.592180   -4.583420
  C     -7.770960   -2.939610   -3.888080
  C     -6.187650   -5.676130   -2.021500
  S     -5.139300   -4.481780   -1.337230
  C     -6.105800   -7.032550   -1.698280
  C     -5.208330   -7.591870   -0.828130
  C     -5.235960   -8.956390   -0.509620
  S     -4.129190   -9.676440    0.635740
  C     -4.868070  -11.251100    0.533630
  C     -4.327500  -12.409850    1.290840
  C     -3.091280  -12.988960    0.596780
  C     -5.903800  -11.213430   -0.350470
  C     -6.126780   -9.934370   -0.961270
  N     -7.146140   -9.883150   -1.826790
  C     -7.763620  -11.022920   -1.929670
  S     -7.089570  -12.343500   -0.924440
  C     -8.898410  -11.246920   -2.737260
  C     -9.334330  -10.312430   -3.628890
  C    -10.500590  -10.402880   -4.403940
  C    -10.915170   -9.511290   -5.420170
  C    -12.186000   -9.848320   -5.962210
  C    -12.727780   -9.069900   -6.996990
  C    -12.021250   -7.995770   -7.470740
  C    -10.766510   -7.663910   -6.936270
  C    -10.213250   -8.404440   -5.925330
  C    -12.752180  -10.995060   -5.355760
  S    -11.675700  -11.650590   -4.163740
  C    -13.996530  -11.565850   -5.630790
  C    -14.515720  -12.660920   -4.988900
  C    -15.789340  -13.212370   -5.198350
  C    -16.645250  -13.055860   -6.267590
  C    -18.088220  -13.228390   -6.178860
  C    -18.803000  -13.810480   -5.163470
  C    -18.268020  -14.403360   -4.000810
  N    -17.921230  -14.906390   -3.027980
  C    -20.208880  -13.931240   -5.155580
  N    -21.346570  -14.065090   -5.079500
  C    -18.661300  -12.632290   -7.380450
  C    -17.610190  -12.242410   -8.239590
  C    -17.878410  -11.618750   -9.446530
  C    -19.201390  -11.387860   -9.793390
  C    -20.235530  -11.778080   -8.955630
  C    -19.978530  -12.402890   -7.743870
  C    -16.347640  -12.625830   -7.623550
  C    -15.162760  -12.787900   -8.297780
  C    -14.962600  -12.412530   -9.641080
  N    -14.727830  -12.101590  -10.721290
  C    -14.010950  -13.394790   -7.759720
  N    -13.048300  -13.902560   -7.393960
  H     -1.572510    1.677340   -0.949710
  H     -0.211400    1.457560    1.079070
  H     -0.716820   -0.264720    2.756110
  H     -2.612380   -1.803360    2.443510
  H     -5.784570   -1.249870   -2.996490
  H     -8.292700   -6.777470   -3.506780
  H     -9.746910   -5.455010   -4.990290
  H     -9.403960   -3.034540   -5.242730
  H     -7.640570   -1.874200   -3.993950
  H     -6.826540   -7.692590   -2.159070
  H     -4.460950   -6.977080   -0.344370
  H     -5.103900  -13.175380    1.357840
  H     -4.058280  -12.094450    2.300980
  H     -3.341460  -13.321890   -0.407900
  H     -2.711970  -13.837170    1.159710
  H     -2.309020  -12.236300    0.529670
  H     -9.415410  -12.188830   -2.624140
  H     -8.735500   -9.420370   -3.746390
  H    -13.687060   -9.321690   -7.421940
  H    -12.427390   -7.396700   -8.271270
  H    -10.231060   -6.817520   -7.339390
  H     -9.241950   -8.152400   -5.529700
  H    -14.596450  -11.056020   -6.372950
  H    -13.939210  -13.085930   -4.177280
  H    -16.173050  -13.779400   -4.360510
  H    -17.083650  -11.304550  -10.103380
  H    -19.425360  -10.896190  -10.727660
  H    -21.258020  -11.590520   -9.245580
  H    -20.795920  -12.693370   -7.105230

 Total Charge           Charge          ....    0
 Multiplicity           Mult            ....    1
 Number of Electrons    NEL             ....  522
 Basis Dimension        Dim             .... 1197

ORBITAL ENERGIES
----------------

  NO   OCC          E(Eh)            E(eV)
   0   2.0000     -88.998252     -2421.7656
   1   2.0000     -88.981488     -2421.3094
   2   2.0000     -88.980172     -2421.2736
   3   2.0000     -88.979369     -2421.2517
   4   2.0000     -14.435870      -392.8200
   5   2.0000     -14.426398      -392.5622
   6   2.0000     -14.425382      -392.5346
   7   2.0000     -14.424606      -392.5135
   8   2.0000     -14.420958      -392.4142
   9   2.0000     -14.410947      -392.1418
  10   2.0000     -14.408075      -392.0637
  11   2.0000     -14.406025      -392.0079
  12   2.0000     -14.404890      -391.9770
  13   2.0000     -10.370187      -282.1871
  14   2.0000     -10.353903      -281.7440
  15   2.0000     -10.351834      -281.6877
  16   2.0000     -10.351740      -281.6852
  17   2.0000     -10.350254      -281.6447
  18   2.0000     -10.344225      -281.4807
  19   2.0000     -10.338654      -281.3291
  20   2.0000     -10.337627      -281.3011
  21   2.0000     -10.333475      -281.1882
  22   2.0000     -10.333135      -281.1789
  23   2.0000     -10.332591      -281.1641
  24   2.0000     -10.331799      -281.1425
  25   2.0000     -10.331717      -281.1403
  26   2.0000     -10.331176      -281.1256
  27   2.0000     -10.328612      -281.0558
  28   2.0000     -10.328288      -281.0470
  29   2.0000     -10.327742      -281.0322
  30   2.0000     -10.327526      -281.0263
  31   2.0000     -10.326918      -281.0097
  32   2.0000     -10.324400      -280.9412
  33   2.0000     -10.323836      -280.9259
  34   2.0000     -10.323368      -280.9131
  35   2.0000     -10.321010      -280.8490
  36   2.0000     -10.320382      -280.8319
  37   2.0000     -10.317388      -280.7504
  38   2.0000     -10.316231      -280.7189
  39   2.0000     -10.316044      -280.7138
  40   2.0000     -10.315862      -280.7089
  41   2.0000     -10.315798      -280.7071
  42   2.0000     -10.315410      -280.6966
  43   2.0000     -10.315080      -280.6876
  44   2.0000     -10.314618      -280.6750
  45   2.0000     -10.313994      -280.6580
  46   2.0000     -10.311593      -280.5927
  47   2.0000     -10.308941      -280.5206
  48   2.0000     -10.308891      -280.5192
  49   2.0000     -10.307123      -280.4711
  50   2.0000     -10.305591      -280.4294
  51   2.0000     -10.304440      -280.3981
  52   2.0000     -10.304363      -280.3960
  53   2.0000     -10.303278      -280.3664
  54   2.0000     -10.302967      -280.3580
  55   2.0000     -10.302916      -280.3566
  56   2.0000     -10.302116      -280.3348
  57   2.0000     -10.301982      -280.3312
  58   2.0000     -10.301493      -280.3179
  59   2.0000     -10.301200      -280.3099
  60   2.0000     -10.298948      -280.2486
  61   2.0000     -10.298624      -280.2398
  62   2.0000     -10.297857      -280.2189
  63   2.0000     -10.296947      -280.1942
  64   2.0000     -10.294660      -280.1319
  65   2.0000     -10.294319      -280.1226
  66   2.0000     -10.289735      -279.9979
  67   2.0000     -10.288592      -279.9668
  68   2.0000     -10.288165      -279.9552
  69   2.0000     -10.287944      -279.9492
  70   2.0000     -10.286876      -279.9201
  71   2.0000     -10.286453      -279.9086
  72   2.0000     -10.285927      -279.8943
  73   2.0000     -10.278443      -279.6907
  74   2.0000      -8.093163      -220.2261
  75   2.0000      -8.076660      -219.7771
  76   2.0000      -8.075886      -219.7560
  77   2.0000      -8.073996      -219.7046
  78   2.0000      -6.062022      -164.9560
  79   2.0000      -6.058044      -164.8477
  80   2.0000      -6.056056      -164.7936
  81   2.0000      -6.046013      -164.5204
  82   2.0000      -6.045395      -164.5035
  83   2.0000      -6.043071      -164.4403
  84   2.0000      -6.041828      -164.4065
  85   2.0000      -6.041637      -164.4013
  86   2.0000      -6.039044      -164.3307
  87   2.0000      -6.038752      -164.3228
  88   2.0000      -6.037052      -164.2765
  89   2.0000      -6.036494      -164.2613
  90   2.0000      -1.092164       -29.7193
  91   2.0000      -1.039393       -28.2833
  92   2.0000      -1.030277       -28.0353
  93   2.0000      -1.023713       -27.8566
  94   2.0000      -1.021785       -27.8042
  95   2.0000      -1.012223       -27.5440
  96   2.0000      -1.011133       -27.5143
  97   2.0000      -1.004755       -27.3408
  98   2.0000      -1.004260       -27.3273
  99   2.0000      -1.000855       -27.2347
 100   2.0000      -1.000029       -27.2122
 101   2.0000      -0.994528       -27.0625
 102   2.0000      -0.986279       -26.8380
 103   2.0000      -0.985635       -26.8205
 104   2.0000      -0.966053       -26.2876
 105   2.0000      -0.961486       -26.1634
 106   2.0000      -0.949161       -25.8280
 107   2.0000      -0.948471       -25.8092
 108   2.0000      -0.946462       -25.7545
 109   2.0000      -0.943088       -25.6627
 110   2.0000      -0.934863       -25.4389
 111   2.0000      -0.925211       -25.1763
 112   2.0000      -0.922496       -25.1024
 113   2.0000      -0.912317       -24.8254
 114   2.0000      -0.899003       -24.4631
 115   2.0000      -0.894911       -24.3518
 116   2.0000      -0.893605       -24.3162
 117   2.0000      -0.881210       -23.9789
 118   2.0000      -0.876415       -23.8485
 119   2.0000      -0.869475       -23.6596
 120   2.0000      -0.865469       -23.5506
 121   2.0000      -0.858751       -23.3678
 122   2.0000      -0.858202       -23.3529
 123   2.0000      -0.853618       -23.2281
 124   2.0000      -0.845841       -23.0165
 125   2.0000      -0.843628       -22.9563
 126   2.0000      -0.824674       -22.4405
 127   2.0000      -0.819976       -22.3127
 128   2.0000      -0.802082       -21.8258
 129   2.0000      -0.795937       -21.6585
 130   2.0000      -0.793408       -21.5897
 131   2.0000      -0.777421       -21.1547
 132   2.0000      -0.772489       -21.0205
 133   2.0000      -0.760242       -20.6872
 134   2.0000      -0.738818       -20.1043
 135   2.0000      -0.735842       -20.0233
 136   2.0000      -0.729413       -19.8483
 137   2.0000      -0.724735       -19.7210
 138   2.0000      -0.719350       -19.5745
 139   2.0000      -0.718619       -19.5546
 140   2.0000      -0.717448       -19.5227
 141   2.0000      -0.703908       -19.1543
 142   2.0000      -0.702814       -19.1246
 143   2.0000      -0.695230       -18.9182
 144   2.0000      -0.690624       -18.7928
 145   2.0000      -0.686923       -18.6921
 146   2.0000      -0.677403       -18.4331
 147   2.0000      -0.670930       -18.2569
 148   2.0000      -0.668742       -18.1974
 149   2.0000      -0.667190       -18.1552
 150   2.0000      -0.660482       -17.9726
 151   2.0000      -0.654188       -17.8014
 152   2.0000      -0.653375       -17.7792
 153   2.0000      -0.650003       -17.6875
 154   2.0000      -0.646041       -17.5797
 155   2.0000      -0.634793       -17.2736
 156   2.0000      -0.630254       -17.1501
 157   2.0000      -0.621351       -16.9078
 158   2.0000      -0.619145       -16.8478
 159   2.0000      -0.600286       -16.3346
 160   2.0000      -0.597206       -16.2508
 161   2.0000      -0.589392       -16.0382
 162   2.0000      -0.588948       -16.0261
 163   2.0000      -0.585001       -15.9187
 164   2.0000      -0.584066       -15.8932
 165   2.0000      -0.577434       -15.7128
 166   2.0000      -0.571857       -15.5610
 167   2.0000      -0.571635       -15.5550
 168   2.0000      -0.566162       -15.4061
 169   2.0000      -0.562789       -15.3143
 170   2.0000      -0.561710       -15.2849
 171   2.0000      -0.554697       -15.0941
 172   2.0000      -0.553873       -15.0716
 173   2.0000      -0.551033       -14.9944
 174   2.0000      -0.544394       -14.8137
 175   2.0000      -0.543027       -14.7765
 176   2.0000      -0.542355       -14.7582
 177   2.0000      -0.537738       -14.6326
 178   2.0000      -0.536585       -14.6012
 179   2.0000      -0.534972       -14.5573
 180   2.0000      -0.533795       -14.5253
 181   2.0000      -0.533408       -14.5148
 182   2.0000      -0.529422       -14.4063
 183   2.0000      -0.527100       -14.3431
 184   2.0000      -0.525065       -14.2877
 185   2.0000      -0.522914       -14.2292
 186   2.0000      -0.522300       -14.2125
 187   2.0000      -0.518727       -14.1153
 188   2.0000      -0.517187       -14.0734
 189   2.0000      -0.511486       -13.9182
 190   2.0000      -0.508705       -13.8426
 191   2.0000      -0.507053       -13.7976
 192   2.0000      -0.498684       -13.5699
 193   2.0000      -0.496471       -13.5097
 194   2.0000      -0.493857       -13.4385
 195   2.0000      -0.491080       -13.3630
 196   2.0000      -0.489684       -13.3250
 197   2.0000      -0.488889       -13.3033
 198   2.0000      -0.479990       -13.0612
 199   2.0000      -0.478377       -13.0173
 200   2.0000      -0.475010       -12.9257
 201   2.0000      -0.472037       -12.8448
 202   2.0000      -0.470247       -12.7961
 203   2.0000      -0.464873       -12.6498
 204   2.0000      -0.463458       -12.6113
 205   2.0000      -0.461655       -12.5623
 206   2.0000      -0.461276       -12.5520
 207   2.0000      -0.459035       -12.4910
 208   2.0000      -0.455700       -12.4002
 209   2.0000      -0.455360       -12.3910
 210   2.0000      -0.454002       -12.3540
 211   2.0000      -0.452945       -12.3253
 212   2.0000      -0.452555       -12.3146
 213   2.0000      -0.451415       -12.2836
 214   2.0000      -0.449490       -12.2312
 215   2.0000      -0.448605       -12.2072
 216   2.0000      -0.446099       -12.1390
 217   2.0000      -0.444758       -12.1025
 218   2.0000      -0.443386       -12.0652
 219   2.0000      -0.442797       -12.0491
 220   2.0000      -0.442352       -12.0370
 221   2.0000      -0.440505       -11.9868
 222   2.0000      -0.440087       -11.9754
 223   2.0000      -0.437964       -11.9176
 224   2.0000      -0.436367       -11.8741
 225   2.0000      -0.436053       -11.8656
 226   2.0000      -0.435090       -11.8394
 227   2.0000      -0.433247       -11.7893
 228   2.0000      -0.433083       -11.7848
 229   2.0000      -0.430399       -11.7118
 230   2.0000      -0.429450       -11.6859
 231   2.0000      -0.429004       -11.6738
 232   2.0000      -0.424711       -11.5570
 233   2.0000      -0.421338       -11.4652
 234   2.0000      -0.420185       -11.4338
 235   2.0000      -0.418424       -11.3859
 236   2.0000      -0.417620       -11.3640
 237   2.0000      -0.413164       -11.2428
 238   2.0000      -0.413117       -11.2415
 239   2.0000      -0.404668       -11.0116
 240   2.0000      -0.402629       -10.9561
 241   2.0000      -0.399228       -10.8636
 242   2.0000      -0.389855       -10.6085
 243   2.0000      -0.389164       -10.5897
 244   2.0000      -0.387816       -10.5530
 245   2.0000      -0.374625       -10.1941
 246   2.0000      -0.373005       -10.1500
 247   2.0000      -0.371418       -10.1068
 248   2.0000      -0.359242        -9.7755
 249   2.0000      -0.346619        -9.4320
 250   2.0000      -0.341731        -9.2990
 251   2.0000      -0.338003        -9.1975
 252   2.0000      -0.337320        -9.1789
 253   2.0000      -0.330270        -8.9871
 254   2.0000      -0.324354        -8.8261
 255   2.0000      -0.321384        -8.7453
 256   2.0000      -0.307963        -8.3801
 257   2.0000      -0.305092        -8.3020
 258   2.0000      -0.287410        -7.8208
 259   2.0000      -0.259322        -7.0565
 260   2.0000      -0.237073        -6.4511
 261   0.0000      -0.132638        -3.6093
 262   0.0000      -0.107703        -2.9307
 263   0.0000      -0.092145        -2.5074
 264   0.0000      -0.076014        -2.0685
 265   0.0000      -0.073920        -2.0115

MULLIKEN ATOMIC CHARGES
-----------------------
   0 C :   -0.036638
   1 C :    0.042581
   2 C :    0.046245
   3 C :   -0.037946
   4 C :    0.007928
   5 C :    0.007415
   6 C :    0.306895
   7 C :   -0.360103
   8 C :   -0.191681
   9 N :    0.146140
  10 C :   -0.178764
  11 N :    0.135046
  12 C :   -0.085893
  13 C :    0.215763
  14 C :   -0.350065
  15 C :   -0.210440
  16 N :    0.174851
  17 C :   -0.177002
  18 N :    0.146777
  19 C :    0.009602
  20 C :   -0.136824
  21 C :    0.151844
  22 C :    0.100465
  23 C :   -0.018383
  24 C :    0.027856
  25 C :    0.044139
  26 C :   -0.029024
  27 C :   -0.019629
  28 S :    0.168388
  29 C :   -0.039786
  30 C :    0.052053
  31 C :   -0.167171
  32 S :    0.162566
  33 C :   -0.328200
  34 C :    0.078289
  35 C :    0.015631
  36 C :    0.045302
  37 C :    0.097535
  38 N :   -0.044750
  39 C :   -0.075125
  40 S :    0.114729
  41 C :    0.037316
  42 C :    0.011501
  43 C :   -0.066578
  44 C :    0.115669
  45 C :    0.123502
  46 C :   -0.032371
  47 C :    0.034405
  48 C :    0.034176
  49 C :   -0.034265
  50 C :   -0.089517
  51 S :    0.181453
  52 C :    0.031992
  53 C :   -0.016239
  54 C :    0.035960
  55 C :   -0.064501
  56 C :    0.304202
  57 C :   -0.348901
  58 C :   -0.179755
  59 N :    0.154019
  60 C :   -0.190484
  61 N :    0.156990
  62 C :    0.012719
  63 C :    0.002355
  64 C :   -0.037551
  65 C :    0.048283
  66 C :    0.045753
  67 C :   -0.034348
  68 C :    0.235442
  69 C :   -0.364538
  70 C :   -0.179747
  71 N :    0.162372
  72 C :   -0.198376
  73 N :    0.181224
  74 H :    0.002431
  75 H :   -0.001085
  76 H :   -0.001349
  77 H :    0.001483
  78 H :    0.010930
  79 H :   -0.039611
  80 H :   -0.023308
  81 H :   -0.002796
  82 H :    0.002453
  83 H :    0.001380
  84 H :   -0.009457
  85 H :    0.020976
  86 H :    0.025033
  87 H :    0.022508
  88 H :    0.028525
  89 H :    0.019209
  90 H :    0.004647
  91 H :    0.015022
  92 H :   -0.017333
  93 H :    0.001757
  94 H :    0.003754
  95 H :   -0.019382
  96 H :    0.022926
  97 H :    0.007631
  98 H :    0.022243
  99 H :    0.003710
 100 H :    0.003891
 101 H :    0.004642
 102 H :    0.006391
Sum of atomic charges:   -0.0000000

LOEWDIN ATOMIC CHARGES
----------------------
   0 C :    0.001915
   1 C :   -0.004350
   2 C :   -0.001511
   3 C :   -0.003481
   4 C :   -0.009993
   5 C :   -0.013411
   6 C :    0.079545
   7 C :   -0.152064
   8 C :   -0.019991
   9 N :   -0.061179
  10 C :   -0.017802
  11 N :   -0.065469
  12 C :   -0.091065
  13 C :    0.058714
  14 C :   -0.155837
  15 C :   -0.035890
  16 N :   -0.056380
  17 C :   -0.020970
  18 N :   -0.061667
  19 C :    0.034069
  20 C :   -0.190789
  21 C :   -0.000271
  22 C :   -0.048414
  23 C :   -0.004867
  24 C :   -0.029365
  25 C :    0.002497
  26 C :   -0.008812
  27 C :   -0.106811
  28 S :    0.498151
  29 C :   -0.055169
  30 C :    0.002971
  31 C :   -0.195842
  32 S :    0.457087
  33 C :   -0.172606
  34 C :   -0.042904
  35 C :   -0.047261
  36 C :   -0.214340
  37 C :   -0.041386
  38 N :   -0.095506
  39 C :   -0.090061
  40 S :    0.374803
  41 C :   -0.056729
  42 C :    0.006608
  43 C :   -0.153804
  44 C :   -0.034861
  45 C :   -0.023248
  46 C :   -0.011284
  47 C :   -0.005184
  48 C :   -0.014153
  49 C :   -0.010039
  50 C :   -0.167532
  51 S :    0.508511
  52 C :    0.024175
  53 C :   -0.045775
  54 C :    0.055147
  55 C :   -0.064921
  56 C :    0.076617
  57 C :   -0.135040
  58 C :   -0.022511
  59 N :   -0.045872
  60 C :   -0.018899
  61 N :   -0.048100
  62 C :   -0.012749
  63 C :   -0.012902
  64 C :   -0.000944
  65 C :    0.002960
  66 C :    0.002191
  67 C :    0.004891
  68 C :    0.063124
  69 C :   -0.143259
  70 C :   -0.022530
  71 N :   -0.050163
  72 C :   -0.018707
  73 N :   -0.040533
  74 H :    0.040414
  75 H :    0.035246
  76 H :    0.034972
  77 H :    0.039046
  78 H :    0.047294
  79 H :    0.026453
  80 H :    0.027480
  81 H :    0.034935
  82 H :    0.038181
  83 H :    0.033362
  84 H :    0.029134
  85 H :    0.035941
  86 H :    0.036659
  87 H :    0.027822
  88 H :    0.028972
  89 H :    0.024294
  90 H :    0.029585
  91 H :    0.040818
  92 H :    0.031324
  93 H :    0.036530
  94 H :    0.034642
  95 H :    0.030510
  96 H :    0.039993
  97 H :    0.030929
  98 H :    0.049495
  99 H :    0.040021
 100 H :    0.037481
 101 H :    0.037879
 102 H :    0.041812

  Mayer bond orders larger than 0.100000
B(  0-C ,  1-C ) :   1.3614 B(  0-C ,  5-C ) :   1.3927 B(  0-C , 74-H ) :   0.9835
B(  1-C ,  2-C ) :   1.3873 B(  1-C , 75-H ) :   0.9861 B(  2-C ,  3-C ) :   1.3548
B(  2-C , 76-H ) :   0.9866 B(  3-C ,  4-C ) :   1.3893 B(  3-C , 77-H ) :   0.9871
B(  4-C ,  5-C ) :   1.3191 B(  4-C , 13-C ) :   1.0061 B(  5-C ,  6-C ) :   0.9875
B(  6-C ,  7-C ) :   1.5921 B(  6-C , 12-C ) :   1.1154 B(  7-C ,  8-C ) :   1.1536
B(  7-C , 10-C ) :   1.1460 B(  8-C ,  9-N ) :   2.9707 B( 10-C , 11-N ) :   2.9668
B( 12-C , 13-C ) :   1.0678 B( 12-C , 19-C ) :   1.4321 B( 13-C , 14-C ) :   1.6014
B( 14-C , 15-C ) :   1.1598 B( 14-C , 17-C ) :   1.1484 B( 15-C , 16-N ) :   3.0230
B( 17-C , 18-N ) :   2.9870 B( 19-C , 20-C ) :   1.3547 B( 19-C , 78-H ) :   0.9244
B( 20-C , 21-C ) :   1.2061 B( 20-C , 28-S ) :   1.0811 B( 21-C , 22-C ) :   1.2450
B( 21-C , 26-C ) :   1.2654 B( 22-C , 23-C ) :   1.2539 B( 22-C , 27-C ) :   1.2327
B( 23-C , 24-C ) :   1.5046 B( 23-C , 79-H ) :   0.9869 B( 24-C , 25-C ) :   1.2497
B( 24-C , 80-H ) :   0.9812 B( 25-C , 26-C ) :   1.5032 B( 25-C , 81-H ) :   0.9849
B( 26-C , 82-H ) :   0.9869 B( 27-C , 28-S ) :   1.1779 B( 27-C , 29-C ) :   1.2501
B( 29-C , 30-C ) :   1.5463 B( 29-C , 83-H ) :   0.9472 B( 30-C , 31-C ) :   1.2189
B( 30-C , 84-H ) :   0.9607 B( 31-C , 32-S ) :   1.0945 B( 31-C , 37-C ) :   1.3634
B( 32-S , 33-C ) :   1.1565 B( 33-C , 34-C ) :   1.0566 B( 33-C , 36-C ) :   1.5825
B( 34-C , 35-C ) :   1.0978 B( 34-C , 85-H ) :   0.9337 B( 34-C , 86-H ) :   0.9221
B( 35-C , 87-H ) :   0.9716 B( 35-C , 88-H ) :   0.9686 B( 35-C , 89-H ) :   0.9709
B( 36-C , 37-C ) :   1.2095 B( 36-C , 40-S ) :   1.0208 B( 37-C , 38-N ) :   1.3416
B( 38-N , 39-C ) :   1.6875 B( 38-N , 40-S ) :   0.1000 B( 39-C , 40-S ) :   1.0411
B( 39-C , 41-C ) :   1.1332 B( 41-C , 42-C ) :   1.6386 B( 41-C , 90-H ) :   0.9523
B( 42-C , 43-C ) :   1.2083 B( 42-C , 91-H ) :   0.9683 B( 43-C , 44-C ) :   1.2682
B( 43-C , 51-S ) :   1.1632 B( 44-C , 45-C ) :   1.2324 B( 44-C , 49-C ) :   1.2335
B( 45-C , 46-C ) :   1.2371 B( 45-C , 50-C ) :   1.2557 B( 46-C , 47-C ) :   1.5274
B( 46-C , 92-H ) :   0.9912 B( 47-C , 48-C ) :   1.2373 B( 47-C , 93-H ) :   0.9859
B( 48-C , 49-C ) :   1.5234 B( 48-C , 94-H ) :   0.9827 B( 49-C , 95-H ) :   0.9884
B( 50-C , 51-S ) :   1.1280 B( 50-C , 52-C ) :   1.3086 B( 52-C , 53-C ) :   1.5093
B( 52-C , 96-H ) :   0.9531 B( 53-C , 54-C ) :   1.2763 B( 53-C , 97-H ) :   0.9559
B( 54-C , 55-C ) :   1.5174 B( 54-C , 98-H ) :   0.9234 B( 55-C , 56-C ) :   1.0821
B( 55-C , 68-C ) :   1.0434 B( 56-C , 57-C ) :   1.6195 B( 56-C , 62-C ) :   0.9889
B( 57-C , 58-C ) :   1.1372 B( 57-C , 60-C ) :   1.1511 B( 58-C , 59-N ) :   2.9641
B( 60-C , 61-N ) :   2.9727 B( 62-C , 63-C ) :   1.3154 B( 62-C , 67-C ) :   1.3827
B( 63-C , 64-C ) :   1.3810 B( 63-C , 68-C ) :   1.0055 B( 64-C , 65-C ) :   1.3623
B( 64-C , 99-H ) :   0.9877 B( 65-C , 66-C ) :   1.3805 B( 65-C ,100-H ) :   0.9862
B( 66-C , 67-C ) :   1.3677 B( 66-C ,101-H ) :   0.9864 B( 67-C ,102-H ) :   0.9835
B( 68-C , 69-C ) :   1.6213 B( 69-C , 70-C ) :   1.1423 B( 69-C , 72-C ) :   1.1654
B( 70-C , 71-N ) :   2.9884 B( 72-C , 73-N ) :   2.9977

-----------------------------------------------------------------------------
         ABSORPTION SPECTRUM VIA TRANSITION ELECTRIC DIPOLE MOMENTS
-----------------------------------------------------------------------------
State   Energy  Wavelength   fosc         T2         TX        TY        TZ
        (cm-1)    (nm)                  (au**2)     (au)      (au)      (au)
-----------------------------------------------------------------------------
   0    9759.9   1024.6   1.018595633  34.35840   3.50187   4.40867   1.63062
   1   13309.7    751.3   0.511342919  12.64797   3.16206  -0.70754   1.46585
   2   13942.5    717.2   0.203326782   4.80097   0.74883   1.99560   0.50775
   3   18773.5    532.7   0.183722278   3.22175  -0.54299  -1.29002   1.12372
   4   19455.8    514.0   0.041432928   0.70109  -0.75548   0.24620   0.26405
   5   20285.0    493.0   0.085008366   1.37963  -1.12795  -0.14959   0.29152
   6   21376.3    467.8   0.099026130   1.52508   0.28883   1.06612  -0.55232
   7   22904.5    436.6   0.073088990   1.05052   0.88274  -0.36487   0.37171
   8   23477.0    425.9   0.037284917   0.52284  -0.09308   0.67410  -0.24447
   9   24281.4    411.8   0.067505781   0.91526   0.42829   0.85232  -0.07334
  10   24945.8    400.9   0.038568108   0.50899  -0.68667   0.15423  -0.11700
  11   25714.4    388.9   0.001753179   0.02245  -0.04412   0.05728   0.13122
  12   25806.8    387.5   0.357569844   4.56144   1.17247  -1.03925   1.45145
  13   26905.6    371.7   0.141009473   1.72536  -0.39906   0.83330  -0.93366
  14   27523.0    363.3   0.036331679   0.43458  -0.39958   0.13555  -0.50650
  15   28554.5    350.2   0.026653035   0.30729  -0.34385  -0.02574  -0.43404
  16   28826.5    346.9   0.059011825   0.67394   0.49563   0.54233  -0.36629
  17   29047.3    344.3   0.085772956   0.97212   0.83587   0.44009   0.28242
  18   29165.8    342.9   0.047761848   0.53912  -0.58322  -0.09560  -0.43570
  19   29480.2    339.2   0.096632129   1.07911  -0.85574  -0.17162  -0.56335
  20   29784.2    335.7   0.063981349   0.70720  -0.49988  -0.67619  -0.00914
  21   30239.4    330.7   0.027914728   0.30390  -0.29379   0.17600  -0.43199
  22   30596.8    326.8   0.260998133   2.80826  -0.15072  -0.92603   1.38853
  23   31392.2    318.6   0.438963082   4.60343  -1.30671  -0.62280   1.58368
  24   31562.5    316.8   0.113739219   1.18635   0.68928   0.03068  -0.84280
  25   31654.7    315.9   0.160510809   1.66933   1.24684   0.08724  -0.32727
  26   31922.1    313.3   0.261653587   2.69843   0.87908   1.00856  -0.95313
  27   32419.6    308.5   0.077677333   0.78879  -0.32962   0.54508  -0.61889
  28   32692.5    305.9   0.372333985   3.74938   0.64625  -1.01499   1.51708
  29   32859.1    304.3   0.061626079   0.61743  -0.27717   0.46500  -0.56954
  30   33170.7    301.5   0.089419369   0.88747   0.92182  -0.18966  -0.04176
  31   33752.5    296.3   0.147384986   1.43755   0.99241   0.30313   0.60065
  32   33923.7    294.8   0.033881149   0.32880  -0.09893  -0.19306   0.53079
  33   34211.8    292.3   0.120063477   1.15534  -0.34782   0.42196  -0.92537
  34   34453.6    290.2   0.052494765   0.50160  -0.08377  -0.69627   0.09894
  35   34991.0    285.8   0.068551056   0.64496  -0.78774   0.03597  -0.15209
  36   35067.9    285.2   0.070459425   0.66146   0.51059  -0.29001   0.56272
  37   35232.0    283.8   0.047175560   0.44081  -0.55953  -0.04690  -0.35432
  38   35884.6    278.7   0.028413785   0.26067   0.37040  -0.07469   0.34336
  39   36073.2    277.2   0.291230954   2.65784   1.12188  -0.38233   1.11940
  40   36502.0    274.0   0.003671084   0.03311  -0.10911   0.13997  -0.04015
  41   36686.4    272.6   0.006215095   0.05577  -0.04984   0.23058  -0.01098
  42   36969.4    270.5   0.010613797   0.09452   0.21672   0.20366   0.07791
  43   37614.6    265.9   0.057330320   0.50177   0.62663  -0.03025   0.32892
  44   38221.9    261.6   0.063107825   0.54356  -0.54010  -0.49470  -0.08439
  45   38399.4    260.4   0.084486553   0.72433   0.48800  -0.04742   0.69566
  46   38507.2    259.7   0.018757115   0.16036   0.20502   0.13630   0.31583
  47   38597.0    259.1   0.103235144   0.88054  -0.79911  -0.08720  -0.48411
  48   38829.7    257.5   0.022226236   0.18844   0.37489   0.06233   0.20980
  49   39450.7    253.5   0.007836620   0.06540   0.02561   0.25126  -0.04012
  50   39669.3    252.1   0.011197192   0.09292   0.29809   0.05733   0.02794
  51   39718.7    251.8   0.023371211   0.19371  -0.23588  -0.34088   0.14790
  52   39823.5    251.1   0.062113540   0.51348   0.59704  -0.26449   0.29508
  53   39972.2    250.2   0.147633127   1.21591   0.58911   0.41770  -0.83330
  54   40079.7    249.5   0.135676443   1.11444   0.03325   0.31445  -1.00720
  55   40274.9    248.3   0.035388782   0.28927   0.33916   0.28337  -0.30650
  56   40292.8    248.2   0.087366426   0.71383  -0.50906  -0.60188   0.30402

FINAL SINGLE POINT ENERGY     -4423.124366159350

DIPOLE MOMENT
-------------
                                X             Y             Z
Electronic contribution:     -8.87947       4.47972       3.70797
Nuclear contribution   :      9.88418      -6.92276      -4.18792
                        -----------------------------------------
Total Dipole Moment    :      1.00471      -2.44304      -0.47994
                        -----------------------------------------
Magnitude (a.u.)       :      2.68481
Magnitude (Debye)      :      6.82426

Rotational constants in cm-1:     0.001372     0.000286     0.000254
Rotational constants in MHz :    41.144658     8.586676     7.606644

                             ****ORCA TERMINATED NORMALLY****
TOTAL RUN TIME: 0 days 0 hours 11 minutes 49 seconds 720 msec
