                         Program Version 4.2.0 -  RELEASE  -
|  1> # ORCA input file
|  2> # SCF done       -220.994011905434          0.000337335760
|  3> ! CAM-B3LYP def2-SVP def2/J RIJCOSX Grid4 TightSCF
|  4> %maxcore 5000
|  5> %tddft
|  6>     Mode sTDDFT
|  7>     Ethresh 5.0
|  8>     maxcore 5000
|  9> end
| 10>
| 11> %pal
| 12>   nprocs 6
| 13>   end
| 14> * xyz 0 1
| 15>    C        6.08302         0.72481        -7.52820
| 16>    C        7.19706         0.90062        -6.72225
| 17>    C        7.09175         0.87694        -5.33756
| 18>    C        5.86658         0.68557        -4.71847
| 19>    C        4.74376         0.51333        -5.51280
| 20>    C        4.85041         0.52575        -6.92406
| 21>    C        3.54153         0.27554        -7.50374
| 22>    C        3.21170         0.32144        -8.82569
| 23>    C        4.12054         0.67096        -9.85123
| 24>    N        4.80347         0.95268       -10.72848
| 25>    C        1.93545         0.04977        -9.37194
| 26>    N        0.94523        -0.17393        -9.90626
| 27>    C        2.65240        -0.06284        -6.38368
| 28>    C        3.35250         0.31810        -5.15289
| 29>    C        2.77852         0.59901        -3.94684
| 30>    C        1.38901         0.64171        -3.71229
| 31>    N        0.27055         0.73668        -3.47183
| 32>    C        3.51082         0.96744        -2.79553
| 33>    N        4.05108         1.25507        -1.82589
| 34>    C        1.51003        -0.76428        -6.50849
| 35>    C        0.71244        -1.39463        -5.47276
| 36>    C       -0.66838        -1.19803        -5.45999
| 37>    C       -1.47173        -0.27307        -6.29640
| 38>    O       -1.09613         0.50204        -7.13714
| 39>    N       -2.78969        -0.46106        -5.89500
| 40>    C       -2.91110        -1.36419        -4.84334
| 41>    O       -3.93401        -1.68828        -4.30085
| 42>    C       -1.52128        -1.81924        -4.55344
| 43>    C       -1.04328        -2.67736        -3.58019
| 44>    C        0.33085        -2.88952        -3.57879
| 45>    C        1.19500        -2.28544        -4.49494
| 46>    C        2.60225        -2.70234        -4.35245
| 47>    O        3.54224        -2.38271        -5.02406
| 48>    S        2.75433        -3.82081        -2.96163
| 49>    C        0.98973        -3.78417        -2.60514
| 50>    O        0.48527        -4.40002        -1.72010
| 51>    C       -3.84396         0.25631        -6.48506
| 52>    C       -5.05977        -0.28612        -6.62786
| 53>    N       -6.18962         0.28453        -7.13319
| 54>    C       -6.37987         1.54095        -7.67269
| 55>    C       -5.45419         2.30181        -8.33031
| 56>    S       -6.10487         3.77313        -8.93073
| 57>    C       -7.65317         3.38406        -8.31787
| 58>    C       -7.66957         2.18484        -7.66286
| 59>    N       -8.83585         1.65953        -7.11623
| 60>    C       -8.94726         0.84050        -6.05570
| 61>    C      -10.14345         0.35211        -5.63497
| 62>    C      -10.34871        -0.53957        -4.55038
| 63>    C      -11.60629        -0.57666        -3.90467
| 64>    C      -12.84363         0.13636        -4.25585
| 65>    O      -13.07870         0.90266        -5.15414
| 66>    N      -13.80702        -0.26553        -3.30350
| 67>    C      -13.27462        -1.16345        -2.36926
| 68>    O      -13.87050        -1.68232        -1.46517
| 69>    C      -11.85822        -1.34478        -2.77061
| 70>    C      -10.88696        -2.13838        -2.18638
| 71>    C       -9.67484        -2.19823        -2.86254
| 72>    C       -9.40805        -1.47267        -4.02525
| 73>    C       -8.18653        -1.92351        -4.70126
| 74>    O       -7.81090        -1.66872        -5.81652
| 75>    S       -7.29746        -3.08567        -3.66779
| 76>    C       -8.58839        -3.10243        -2.42600
| 77>    O       -8.54730        -3.76055        -1.43263
| 78>    C      -15.09038         0.23262        -3.34718
| 79>    C      -16.06845        -0.07003        -2.47398
| 80>    C      -17.37255         0.48112        -2.59101
| 81>    C      -18.33961         0.41001        -1.63469
| 82>    C      -19.76881         0.61175        -1.86237
| 83>    C      -20.34990         1.28185        -2.90265
| 84>    C      -19.64573         1.95258        -3.92604
| 85>    N      -19.13647         2.52195        -4.78282
| 86>    C      -21.74398         1.42875        -3.07063
| 87>    N      -22.86402         1.58283        -3.26653
| 88>    C      -20.46076        -0.04377        -0.76169
| 89>    C      -19.50679        -0.48143         0.18655
| 90>    C      -19.90574        -1.16010         1.32639
| 91>    C      -21.25875        -1.39746         1.51612
| 92>    C      -22.19729        -0.96008         0.59174
| 93>    C      -21.81095        -0.28007        -0.55323
| 94>    C      -18.18731        -0.06430        -0.26185
| 95>    C      -17.07623         0.07532         0.52362
| 96>    C      -17.00642        -0.36499         1.86343
| 97>    N      -16.89594        -0.71577         2.95002
| 98>    C      -15.91856         0.79134         0.14488
| 99>    N      -14.98842         1.42203        -0.08699
|100>    H        6.18521         0.73443        -8.60095
|101>    H        8.16219         1.05078        -7.18132
|102>    H        7.97622         1.00520        -4.73272
|103>    H        5.79920         0.65603        -3.64322
|104>    H        1.11029        -0.91361        -7.50388
|105>    H       -1.68644        -3.15637        -2.85953
|106>    H       -3.56027         1.24411        -6.80521
|107>    H       -5.23226        -1.29251        -6.27465
|108>    H       -7.01020        -0.30355        -7.07005
|109>    H       -4.43368         2.06472        -8.54368
|110>    H       -8.47338         4.05895        -8.45856
|111>    H       -9.70016         1.97951        -7.53669
|112>    H       -8.03455         0.63469        -5.51964
|113>    H      -11.04192         0.71624        -6.11368
|114>    H      -11.06403        -2.71110        -1.29107
|115>    H      -15.23643         0.94364        -4.15190
|116>    H      -15.87020        -0.77068        -1.67784
|117>    H      -17.62247         0.91954        -3.54724
|118>    H      -19.18565        -1.51048         2.04791
|119>    H      -21.58395        -1.93148         2.39574
|120>    H      -23.24515        -1.15439         0.76187
|121>    H      -22.55242         0.04741        -1.26335
|122> *
|123>
|124>                          ****END OF INPUT****

CARTESIAN COORDINATES (ANGSTROEM)
---------------------------------
  C      6.083020    0.724810   -7.528200
  C      7.197060    0.900620   -6.722250
  C      7.091750    0.876940   -5.337560
  C      5.866580    0.685570   -4.718470
  C      4.743760    0.513330   -5.512800
  C      4.850410    0.525750   -6.924060
  C      3.541530    0.275540   -7.503740
  C      3.211700    0.321440   -8.825690
  C      4.120540    0.670960   -9.851230
  N      4.803470    0.952680  -10.728480
  C      1.935450    0.049770   -9.371940
  N      0.945230   -0.173930   -9.906260
  C      2.652400   -0.062840   -6.383680
  C      3.352500    0.318100   -5.152890
  C      2.778520    0.599010   -3.946840
  C      1.389010    0.641710   -3.712290
  N      0.270550    0.736680   -3.471830
  C      3.510820    0.967440   -2.795530
  N      4.051080    1.255070   -1.825890
  C      1.510030   -0.764280   -6.508490
  C      0.712440   -1.394630   -5.472760
  C     -0.668380   -1.198030   -5.459990
  C     -1.471730   -0.273070   -6.296400
  O     -1.096130    0.502040   -7.137140
  N     -2.789690   -0.461060   -5.895000
  C     -2.911100   -1.364190   -4.843340
  O     -3.934010   -1.688280   -4.300850
  C     -1.521280   -1.819240   -4.553440
  C     -1.043280   -2.677360   -3.580190
  C      0.330850   -2.889520   -3.578790
  C      1.195000   -2.285440   -4.494940
  C      2.602250   -2.702340   -4.352450
  O      3.542240   -2.382710   -5.024060
  S      2.754330   -3.820810   -2.961630
  C      0.989730   -3.784170   -2.605140
  O      0.485270   -4.400020   -1.720100
  C     -3.843960    0.256310   -6.485060
  C     -5.059770   -0.286120   -6.627860
  N     -6.189620    0.284530   -7.133190
  C     -6.379870    1.540950   -7.672690
  C     -5.454190    2.301810   -8.330310
  S     -6.104870    3.773130   -8.930730
  C     -7.653170    3.384060   -8.317870
  C     -7.669570    2.184840   -7.662860
  N     -8.835850    1.659530   -7.116230
  C     -8.947260    0.840500   -6.055700
  C    -10.143450    0.352110   -5.634970
  C    -10.348710   -0.539570   -4.550380
  C    -11.606290   -0.576660   -3.904670
  C    -12.843630    0.136360   -4.255850
  O    -13.078700    0.902660   -5.154140
  N    -13.807020   -0.265530   -3.303500
  C    -13.274620   -1.163450   -2.369260
  O    -13.870500   -1.682320   -1.465170
  C    -11.858220   -1.344780   -2.770610
  C    -10.886960   -2.138380   -2.186380
  C     -9.674840   -2.198230   -2.862540
  C     -9.408050   -1.472670   -4.025250
  C     -8.186530   -1.923510   -4.701260
  O     -7.810900   -1.668720   -5.816520
  S     -7.297460   -3.085670   -3.667790
  C     -8.588390   -3.102430   -2.426000
  O     -8.547300   -3.760550   -1.432630
  C    -15.090380    0.232620   -3.347180
  C    -16.068450   -0.070030   -2.473980
  C    -17.372550    0.481120   -2.591010
  C    -18.339610    0.410010   -1.634690
  C    -19.768810    0.611750   -1.862370
  C    -20.349900    1.281850   -2.902650
  C    -19.645730    1.952580   -3.926040
  N    -19.136470    2.521950   -4.782820
  C    -21.743980    1.428750   -3.070630
  N    -22.864020    1.582830   -3.266530
  C    -20.460760   -0.043770   -0.761690
  C    -19.506790   -0.481430    0.186550
  C    -19.905740   -1.160100    1.326390
  C    -21.258750   -1.397460    1.516120
  C    -22.197290   -0.960080    0.591740
  C    -21.810950   -0.280070   -0.553230
  C    -18.187310   -0.064300   -0.261850
  C    -17.076230    0.075320    0.523620
  C    -17.006420   -0.364990    1.863430
  N    -16.895940   -0.715770    2.950020
  C    -15.918560    0.791340    0.144880
  N    -14.988420    1.422030   -0.086990
  H      6.185210    0.734430   -8.600950
  H      8.162190    1.050780   -7.181320
  H      7.976220    1.005200   -4.732720
  H      5.799200    0.656030   -3.643220
  H      1.110290   -0.913610   -7.503880
  H     -1.686440   -3.156370   -2.859530
  H     -3.560270    1.244110   -6.805210
  H     -5.232260   -1.292510   -6.274650
  H     -7.010200   -0.303550   -7.070050
  H     -4.433680    2.064720   -8.543680
  H     -8.473380    4.058950   -8.458560
  H     -9.700160    1.979510   -7.536690
  H     -8.034550    0.634690   -5.519640
  H    -11.041920    0.716240   -6.113680
  H    -11.064030   -2.711100   -1.291070
  H    -15.236430    0.943640   -4.151900
  H    -15.870200   -0.770680   -1.677840
  H    -17.622470    0.919540   -3.547240
  H    -19.185650   -1.510480    2.047910
  H    -21.583950   -1.931480    2.395740
  H    -23.245150   -1.154390    0.761870
  H    -22.552420    0.047410   -1.263350

 Total Charge           Charge          ....    0
 Multiplicity           Mult            ....    1
 Number of Electrons    NEL             ....  590
 Basis Dimension        Dim             .... 1312

ORBITAL ENERGIES
----------------

  NO   OCC          E(Eh)            E(eV)
   0   2.0000     -88.963861     -2420.8297
   1   2.0000     -88.963843     -2420.8292
   2   2.0000     -88.959404     -2420.7085
   3   2.0000     -19.257522      -524.0238
   4   2.0000     -19.255328      -523.9641
   5   2.0000     -19.255215      -523.9610
   6   2.0000     -19.249828      -523.8144
   7   2.0000     -19.248700      -523.7837
   8   2.0000     -19.248105      -523.7676
   9   2.0000     -19.233640      -523.3740
  10   2.0000     -19.232195      -523.3346
  11   2.0000     -14.500579      -394.5808
  12   2.0000     -14.481935      -394.0735
  13   2.0000     -14.479877      -394.0175
  14   2.0000     -14.449588      -393.1933
  15   2.0000     -14.435840      -392.8192
  16   2.0000     -14.433029      -392.7427
  17   2.0000     -14.430229      -392.6665
  18   2.0000     -14.429919      -392.6581
  19   2.0000     -14.425097      -392.5268
  20   2.0000     -14.422912      -392.4674
  21   2.0000     -14.422532      -392.4571
  22   2.0000     -14.420813      -392.4103
  23   2.0000     -10.426584      -283.7218
  24   2.0000     -10.426463      -283.7185
  25   2.0000     -10.421210      -283.5755
  26   2.0000     -10.418749      -283.5086
  27   2.0000     -10.415892      -283.4308
  28   2.0000     -10.412846      -283.3479
  29   2.0000     -10.411387      -283.3082
  30   2.0000     -10.410215      -283.2764
  31   2.0000     -10.365868      -282.0696
  32   2.0000     -10.363936      -282.0170
  33   2.0000     -10.361745      -281.9574
  34   2.0000     -10.358796      -281.8772
  35   2.0000     -10.355162      -281.7783
  36   2.0000     -10.353457      -281.7319
  37   2.0000     -10.353106      -281.7223
  38   2.0000     -10.350996      -281.6649
  39   2.0000     -10.350644      -281.6553
  40   2.0000     -10.349976      -281.6372
  41   2.0000     -10.348972      -281.6099
  42   2.0000     -10.343758      -281.4680
  43   2.0000     -10.341256      -281.3999
  44   2.0000     -10.338363      -281.3211
  45   2.0000     -10.337903      -281.3086
  46   2.0000     -10.337103      -281.2869
  47   2.0000     -10.336949      -281.2827
  48   2.0000     -10.334514      -281.2164
  49   2.0000     -10.333699      -281.1942
  50   2.0000     -10.332307      -281.1564
  51   2.0000     -10.331867      -281.1444
  52   2.0000     -10.331839      -281.1436
  53   2.0000     -10.330597      -281.1098
  54   2.0000     -10.330542      -281.1083
  55   2.0000     -10.330386      -281.1041
  56   2.0000     -10.329882      -281.0904
  57   2.0000     -10.329853      -281.0896
  58   2.0000     -10.327508      -281.0258
  59   2.0000     -10.327399      -281.0228
  60   2.0000     -10.327132      -281.0155
  61   2.0000     -10.324932      -280.9557
  62   2.0000     -10.324694      -280.9492
  63   2.0000     -10.323782      -280.9244
  64   2.0000     -10.323257      -280.9101
  65   2.0000     -10.323254      -280.9100
  66   2.0000     -10.323128      -280.9066
  67   2.0000     -10.319940      -280.8199
  68   2.0000     -10.319045      -280.7955
  69   2.0000     -10.318310      -280.7755
  70   2.0000     -10.315470      -280.6982
  71   2.0000     -10.315157      -280.6897
  72   2.0000     -10.310294      -280.5574
  73   2.0000     -10.310005      -280.5495
  74   2.0000     -10.309054      -280.5236
  75   2.0000     -10.308654      -280.5127
  76   2.0000     -10.303397      -280.3697
  77   2.0000     -10.303252      -280.3657
  78   2.0000     -10.302913      -280.3565
  79   2.0000     -10.302181      -280.3366
  80   2.0000     -10.301376      -280.3147
  81   2.0000     -10.297789      -280.2171
  82   2.0000     -10.297014      -280.1960
  83   2.0000     -10.295974      -280.1677
  84   2.0000     -10.279171      -279.7105
  85   2.0000      -8.062980      -219.4048
  86   2.0000      -8.059793      -219.3181
  87   2.0000      -8.058530      -219.2837
  88   2.0000      -6.031821      -164.1342
  89   2.0000      -6.029178      -164.0623
  90   2.0000      -6.028570      -164.0457
  91   2.0000      -6.027403      -164.0140
  92   2.0000      -6.024892      -163.9456
  93   2.0000      -6.024103      -163.9242
  94   2.0000      -6.024056      -163.9229
  95   2.0000      -6.021874      -163.8635
  96   2.0000      -6.019565      -163.8007
  97   2.0000      -1.194967       -32.5167
  98   2.0000      -1.181828       -32.1592
  99   2.0000      -1.178903       -32.0796
 100   2.0000      -1.177561       -32.0431
 101   2.0000      -1.177263       -32.0350
 102   2.0000      -1.171623       -31.8815
 103   2.0000      -1.171103       -31.8673
 104   2.0000      -1.155404       -31.4401
 105   2.0000      -1.088658       -29.6239
 106   2.0000      -1.086938       -29.5771
 107   2.0000      -1.072368       -29.1806
 108   2.0000      -1.049081       -28.5469
 109   2.0000      -1.048192       -28.5227
 110   2.0000      -1.038218       -28.2513
 111   2.0000      -1.030546       -28.0426
 112   2.0000      -1.023088       -27.8396
 113   2.0000      -1.020134       -27.7593
 114   2.0000      -1.018483       -27.7143
 115   2.0000      -1.017222       -27.6800
 116   2.0000      -1.011707       -27.5299
 117   2.0000      -1.009326       -27.4652
 118   2.0000      -1.007763       -27.4226
 119   2.0000      -1.002083       -27.2681
 120   2.0000      -1.000123       -27.2147
 121   2.0000      -0.981132       -26.6980
 122   2.0000      -0.971314       -26.4308
 123   2.0000      -0.967363       -26.3233
 124   2.0000      -0.961025       -26.1508
 125   2.0000      -0.960857       -26.1462
 126   2.0000      -0.952942       -25.9309
 127   2.0000      -0.942848       -25.6562
 128   2.0000      -0.932531       -25.3755
 129   2.0000      -0.930760       -25.3273
 130   2.0000      -0.919246       -25.0140
 131   2.0000      -0.906329       -24.6625
 132   2.0000      -0.900391       -24.5009
 133   2.0000      -0.898165       -24.4403
 134   2.0000      -0.892755       -24.2931
 135   2.0000      -0.876330       -23.8461
 136   2.0000      -0.874303       -23.7910
 137   2.0000      -0.869610       -23.6633
 138   2.0000      -0.868588       -23.6355
 139   2.0000      -0.855441       -23.2777
 140   2.0000      -0.853139       -23.2151
 141   2.0000      -0.825899       -22.4739
 142   2.0000      -0.817592       -22.2478
 143   2.0000      -0.809034       -22.0149
 144   2.0000      -0.806707       -21.9516
 145   2.0000      -0.803511       -21.8647
 146   2.0000      -0.800467       -21.7818
 147   2.0000      -0.799614       -21.7586
 148   2.0000      -0.793571       -21.5942
 149   2.0000      -0.775663       -21.1069
 150   2.0000      -0.771057       -20.9815
 151   2.0000      -0.763887       -20.7864
 152   2.0000      -0.753287       -20.4980
 153   2.0000      -0.737964       -20.0810
 154   2.0000      -0.729301       -19.8453
 155   2.0000      -0.727282       -19.7903
 156   2.0000      -0.722816       -19.6688
 157   2.0000      -0.720876       -19.6160
 158   2.0000      -0.719007       -19.5652
 159   2.0000      -0.712476       -19.3875
 160   2.0000      -0.709567       -19.3083
 161   2.0000      -0.706260       -19.2183
 162   2.0000      -0.699909       -19.0455
 163   2.0000      -0.695474       -18.9248
 164   2.0000      -0.685126       -18.6432
 165   2.0000      -0.682004       -18.5583
 166   2.0000      -0.676911       -18.4197
 167   2.0000      -0.671930       -18.2842
 168   2.0000      -0.669724       -18.2241
 169   2.0000      -0.668811       -18.1993
 170   2.0000      -0.664498       -18.0819
 171   2.0000      -0.660791       -17.9810
 172   2.0000      -0.654334       -17.8053
 173   2.0000      -0.648089       -17.6354
 174   2.0000      -0.643001       -17.4969
 175   2.0000      -0.632096       -17.2002
 176   2.0000      -0.630928       -17.1684
 177   2.0000      -0.627979       -17.0882
 178   2.0000      -0.625666       -17.0252
 179   2.0000      -0.619880       -16.8678
 180   2.0000      -0.615490       -16.7483
 181   2.0000      -0.607248       -16.5240
 182   2.0000      -0.602948       -16.4071
 183   2.0000      -0.599853       -16.3228
 184   2.0000      -0.599566       -16.3150
 185   2.0000      -0.594962       -16.1897
 186   2.0000      -0.589374       -16.0377
 187   2.0000      -0.588761       -16.0210
 188   2.0000      -0.586846       -15.9689
 189   2.0000      -0.582752       -15.8575
 190   2.0000      -0.577974       -15.7275
 191   2.0000      -0.577550       -15.7159
 192   2.0000      -0.575509       -15.6604
 193   2.0000      -0.570213       -15.5163
 194   2.0000      -0.568253       -15.4630
 195   2.0000      -0.566750       -15.4220
 196   2.0000      -0.561149       -15.2696
 197   2.0000      -0.560894       -15.2627
 198   2.0000      -0.557148       -15.1608
 199   2.0000      -0.553680       -15.0664
 200   2.0000      -0.553113       -15.0510
 201   2.0000      -0.550087       -14.9686
 202   2.0000      -0.548951       -14.9377
 203   2.0000      -0.547751       -14.9051
 204   2.0000      -0.546946       -14.8831
 205   2.0000      -0.546227       -14.8636
 206   2.0000      -0.545746       -14.8505
 207   2.0000      -0.541749       -14.7417
 208   2.0000      -0.541391       -14.7320
 209   2.0000      -0.540012       -14.6945
 210   2.0000      -0.536669       -14.6035
 211   2.0000      -0.530836       -14.4448
 212   2.0000      -0.527274       -14.3479
 213   2.0000      -0.526148       -14.3172
 214   2.0000      -0.524358       -14.2685
 215   2.0000      -0.523401       -14.2425
 216   2.0000      -0.521131       -14.1807
 217   2.0000      -0.520482       -14.1630
 218   2.0000      -0.515946       -14.0396
 219   2.0000      -0.514994       -14.0137
 220   2.0000      -0.512711       -13.9516
 221   2.0000      -0.512306       -13.9406
 222   2.0000      -0.509916       -13.8755
 223   2.0000      -0.506250       -13.7758
 224   2.0000      -0.504391       -13.7252
 225   2.0000      -0.503209       -13.6930
 226   2.0000      -0.500553       -13.6208
 227   2.0000      -0.498145       -13.5552
 228   2.0000      -0.494787       -13.4638
 229   2.0000      -0.491844       -13.3837
 230   2.0000      -0.490953       -13.3595
 231   2.0000      -0.487495       -13.2654
 232   2.0000      -0.486010       -13.2250
 233   2.0000      -0.482664       -13.1340
 234   2.0000      -0.480522       -13.0757
 235   2.0000      -0.475987       -12.9523
 236   2.0000      -0.474870       -12.9219
 237   2.0000      -0.473221       -12.8770
 238   2.0000      -0.470213       -12.7951
 239   2.0000      -0.468751       -12.7554
 240   2.0000      -0.467043       -12.7089
 241   2.0000      -0.466429       -12.6922
 242   2.0000      -0.460983       -12.5440
 243   2.0000      -0.460480       -12.5303
 244   2.0000      -0.459205       -12.4956
 245   2.0000      -0.458515       -12.4768
 246   2.0000      -0.455922       -12.4063
 247   2.0000      -0.454990       -12.3809
 248   2.0000      -0.454239       -12.3605
 249   2.0000      -0.450610       -12.2617
 250   2.0000      -0.449942       -12.2435
 251   2.0000      -0.448160       -12.1950
 252   2.0000      -0.445858       -12.1324
 253   2.0000      -0.444901       -12.1064
 254   2.0000      -0.440869       -11.9966
 255   2.0000      -0.438619       -11.9354
 256   2.0000      -0.437410       -11.9025
 257   2.0000      -0.436150       -11.8683
 258   2.0000      -0.434421       -11.8212
 259   2.0000      -0.434020       -11.8103
 260   2.0000      -0.432126       -11.7587
 261   2.0000      -0.431480       -11.7412
 262   2.0000      -0.427003       -11.6193
 263   2.0000      -0.425879       -11.5888
 264   2.0000      -0.421465       -11.4686
 265   2.0000      -0.417642       -11.3646
 266   2.0000      -0.414740       -11.2856
 267   2.0000      -0.398402       -10.8411
 268   2.0000      -0.397674       -10.8213
 269   2.0000      -0.396502       -10.7894
 270   2.0000      -0.393815       -10.7162
 271   2.0000      -0.389066       -10.5870
 272   2.0000      -0.388043       -10.5592
 273   2.0000      -0.387170       -10.5354
 274   2.0000      -0.383036       -10.4229
 275   2.0000      -0.380901       -10.3648
 276   2.0000      -0.379100       -10.3158
 277   2.0000      -0.377751       -10.2791
 278   2.0000      -0.376975       -10.2580
 279   2.0000      -0.374838       -10.1999
 280   2.0000      -0.366227        -9.9655
 281   2.0000      -0.360238        -9.8026
 282   2.0000      -0.358482        -9.7548
 283   2.0000      -0.357077        -9.7166
 284   2.0000      -0.353795        -9.6273
 285   2.0000      -0.346760        -9.4358
 286   2.0000      -0.342527        -9.3206
 287   2.0000      -0.336986        -9.1699
 288   2.0000      -0.333761        -9.0821
 289   2.0000      -0.324185        -8.8215
 290   2.0000      -0.323103        -8.7921
 291   2.0000      -0.315237        -8.5780
 292   2.0000      -0.294701        -8.0192
 293   2.0000      -0.274316        -7.4645
 294   2.0000      -0.259301        -7.0559
 295   0.0000      -0.110710        -3.0126
 296   0.0000      -0.102891        -2.7998
 297   0.0000      -0.101341        -2.7576
 298   0.0000      -0.096424        -2.6238
 299   0.0000      -0.092734        -2.5234

MULLIKEN ATOMIC CHARGES
-----------------------
   0 C :   -0.037890
   1 C :    0.052467
   2 C :    0.048751
   3 C :   -0.028337
   4 C :    0.018535
   5 C :    0.028101
   6 C :    0.281796
   7 C :   -0.333412
   8 C :   -0.193896
   9 N :    0.168769
  10 C :   -0.178392
  11 N :    0.177239
  12 C :   -0.006760
  13 C :    0.261815
  14 C :   -0.350997
  15 C :   -0.166926
  16 N :    0.171647
  17 C :   -0.198708
  18 N :    0.180950
  19 C :   -0.010147
  20 C :   -0.073682
  21 C :    0.015396
  22 C :    0.197517
  23 O :   -0.142757
  24 N :   -0.236747
  25 C :    0.200158
  26 O :   -0.142797
  27 C :    0.030494
  28 C :   -0.059503
  29 C :    0.053755
  30 C :    0.071387
  31 C :    0.044694
  32 O :   -0.142990
  33 S :    0.025669
  34 C :    0.045415
  35 O :   -0.106467
  36 C :    0.022443
  37 C :    0.075030
  38 N :   -0.074193
  39 C :    0.126676
  40 C :   -0.206420
  41 S :    0.137302
  42 C :   -0.172441
  43 C :    0.096962
  44 N :   -0.035560
  45 C :    0.089993
  46 C :   -0.100370
  47 C :    0.095265
  48 C :   -0.048108
  49 C :    0.205515
  50 O :   -0.149321
  51 N :   -0.239751
  52 C :    0.230755
  53 O :   -0.129368
  54 C :    0.014750
  55 C :   -0.083203
  56 C :    0.048148
  57 C :    0.006420
  58 C :    0.040870
  59 O :   -0.185880
  60 S :    0.044525
  61 C :    0.050914
  62 O :   -0.113149
  63 C :    0.108214
  64 C :   -0.020855
  65 C :    0.030672
  66 C :   -0.058689
  67 C :    0.296910
  68 C :   -0.338871
  69 C :   -0.188249
  70 N :    0.158740
  71 C :   -0.189422
  72 N :    0.161314
  73 C :    0.011099
  74 C :    0.013835
  75 C :   -0.032892
  76 C :    0.049411
  77 C :    0.046086
  78 C :   -0.033079
  79 C :    0.230427
  80 C :   -0.322635
  81 C :   -0.184258
  82 N :    0.164691
  83 C :   -0.195856
  84 N :    0.171830
  85 H :    0.010045
  86 H :    0.007736
  87 H :    0.008891
  88 H :    0.010909
  89 H :    0.051154
  90 H :    0.023304
  91 H :    0.013359
  92 H :    0.030149
  93 H :    0.146489
  94 H :    0.039153
  95 H :    0.012898
  96 H :    0.139204
  97 H :    0.036739
  98 H :    0.002963
  99 H :    0.018118
 100 H :    0.050715
 101 H :    0.063994
 102 H :    0.018145
 103 H :    0.008231
 104 H :    0.005550
 105 H :    0.005303
 106 H :    0.006581
Sum of atomic charges:   -0.0000000

LOEWDIN ATOMIC CHARGES
----------------------
   0 C :    0.007042
   1 C :    0.008480
   2 C :    0.009025
   3 C :    0.008711
   4 C :   -0.004278
   5 C :   -0.007036
   6 C :    0.079014
   7 C :   -0.115352
   8 C :   -0.017790
   9 N :   -0.036372
  10 C :   -0.023955
  11 N :   -0.025966
  12 C :   -0.014729
  13 C :    0.079351
  14 C :   -0.127874
  15 C :   -0.015467
  16 N :   -0.046665
  17 C :   -0.020390
  18 N :   -0.033348
  19 C :    0.057703
  20 C :    0.011346
  21 C :   -0.015072
  22 C :    0.094515
  23 O :   -0.132723
  24 N :   -0.005834
  25 C :    0.095481
  26 O :   -0.138789
  27 C :   -0.015489
  28 C :    0.052434
  29 C :   -0.049995
  30 C :   -0.057174
  31 C :   -0.045966
  32 O :   -0.123549
  33 S :    0.310863
  34 C :   -0.042261
  35 O :   -0.099518
  36 C :   -0.069683
  37 C :    0.032997
  38 N :    0.020455
  39 C :   -0.025820
  40 C :   -0.217642
  41 S :    0.455858
  42 C :   -0.216731
  43 C :   -0.038537
  44 N :    0.055946
  45 C :    0.085680
  46 C :   -0.133963
  47 C :    0.050765
  48 C :   -0.057132
  49 C :    0.111196
  50 O :   -0.133758
  51 N :   -0.011192
  52 C :    0.110203
  53 O :   -0.116733
  54 C :   -0.021431
  55 C :    0.018047
  56 C :   -0.040410
  57 C :   -0.083522
  58 C :   -0.032048
  59 O :   -0.146807
  60 S :    0.325321
  61 C :   -0.045813
  62 O :   -0.104637
  63 C :    0.087681
  64 C :   -0.056837
  65 C :    0.066828
  66 C :   -0.058247
  67 C :    0.079615
  68 C :   -0.131359
  69 C :   -0.021335
  70 N :   -0.044555
  71 C :   -0.019157
  72 N :   -0.044587
  73 C :   -0.014117
  74 C :   -0.009405
  75 C :    0.002493
  76 C :    0.005742
  77 C :    0.002112
  78 C :    0.005595
  79 C :    0.070402
  80 C :   -0.124369
  81 C :   -0.018255
  82 N :   -0.040885
  83 C :   -0.018923
  84 N :   -0.045434
  85 H :    0.042690
  86 H :    0.039459
  87 H :    0.039638
  88 H :    0.042851
  89 H :    0.056002
  90 H :    0.053999
  91 H :    0.023691
  92 H :    0.031799
  93 H :    0.073725
  94 H :    0.028523
  95 H :    0.023715
  96 H :    0.099620
  97 H :    0.033717
  98 H :    0.030593
  99 H :    0.050772
 100 H :    0.044209
 101 H :    0.037343
 102 H :    0.045950
 103 H :    0.041752
 104 H :    0.038163
 105 H :    0.038044
 106 H :    0.041755

  Mayer bond orders larger than 0.100000
B(  0-C ,  1-C ) :   1.3771 B(  0-C ,  5-C ) :   1.3714 B(  0-C , 85-H ) :   0.9851
B(  1-C ,  2-C ) :   1.3672 B(  1-C , 86-H ) :   0.9865 B(  2-C ,  3-C ) :   1.3730
B(  2-C , 87-H ) :   0.9865 B(  3-C ,  4-C ) :   1.3746 B(  3-C , 88-H ) :   0.9864
B(  4-C ,  5-C ) :   1.3030 B(  4-C , 13-C ) :   1.0262 B(  5-C ,  6-C ) :   1.0113
B(  6-C ,  7-C ) :   1.6789 B(  6-C , 12-C ) :   1.0157 B(  7-C ,  8-C ) :   1.1439
B(  7-C , 10-C ) :   1.1282 B(  8-C ,  9-N ) :   2.9838 B( 10-C , 11-N ) :   2.9804
B( 12-C , 13-C ) :   0.9669 B( 12-C , 19-C ) :   1.7973 B( 13-C , 14-C ) :   1.6676
B( 14-C , 15-C ) :   1.1657 B( 14-C , 17-C ) :   1.1366 B( 15-C , 16-N ) :   2.9906
B( 17-C , 18-N ) :   3.0012 B( 19-C , 20-C ) :   1.0133 B( 19-C , 89-H ) :   0.9073
B( 20-C , 21-C ) :   1.4216 B( 20-C , 30-C ) :   1.3655 B( 21-C , 22-C ) :   0.8800
B( 21-C , 27-C ) :   1.3895 B( 22-C , 23-O ) :   2.1820 B( 22-C , 24-N ) :   1.0767
B( 24-N , 25-C ) :   1.0564 B( 24-N , 36-C ) :   0.9450 B( 25-C , 26-O ) :   2.2243
B( 25-C , 27-C ) :   0.8592 B( 27-C , 28-C ) :   1.3289 B( 28-C , 29-C ) :   1.3400
B( 28-C , 90-H ) :   1.0233 B( 29-C , 30-C ) :   1.3352 B( 29-C , 34-C ) :   0.8374
B( 30-C , 31-C ) :   0.8572 B( 31-C , 32-O ) :   2.1423 B( 31-C , 33-S ) :   1.0453
B( 32-O , 33-S ) :   0.1082 B( 33-S , 34-C ) :   1.0130 B( 33-S , 35-O ) :   0.1045
B( 34-C , 35-O ) :   2.2361 B( 36-C , 37-C ) :   1.7330 B( 36-C , 91-H ) :   0.9709
B( 37-C , 38-N ) :   1.1808 B( 37-C , 92-H ) :   0.9528 B( 38-N , 39-C ) :   1.1063
B( 38-N , 93-H ) :   0.8992 B( 39-C , 40-C ) :   1.5256 B( 39-C , 43-C ) :   1.2542
B( 40-C , 41-S ) :   1.1555 B( 40-C , 94-H ) :   0.9688 B( 41-S , 42-C ) :   1.1731
B( 42-C , 43-C ) :   1.5280 B( 42-C , 95-H ) :   0.9775 B( 43-C , 44-N ) :   1.0555
B( 44-N , 45-C ) :   1.2664 B( 44-N , 96-H ) :   0.9177 B( 45-C , 46-C ) :   1.5258
B( 45-C , 97-H ) :   0.9617 B( 46-C , 47-C ) :   1.2627 B( 46-C , 98-H ) :   0.9358
B( 47-C , 48-C ) :   1.3063 B( 47-C , 57-C ) :   1.2445 B( 48-C , 49-C ) :   0.9303
B( 48-C , 54-C ) :   1.3945 B( 49-C , 50-O ) :   2.1471 B( 49-C , 51-N ) :   1.0044
B( 51-N , 52-C ) :   1.0076 B( 51-N , 63-C ) :   1.0614 B( 52-C , 53-O ) :   2.2072
B( 52-C , 54-C ) :   0.8838 B( 54-C , 55-C ) :   1.3229 B( 55-C , 56-C ) :   1.3465
B( 55-C , 99-H ) :   1.0282 B( 56-C , 57-C ) :   1.3492 B( 56-C , 61-C ) :   0.8416
B( 57-C , 58-C ) :   0.8971 B( 58-C , 59-O ) :   2.0407 B( 58-C , 60-S ) :   1.0502
B( 60-S , 61-C ) :   1.0205 B( 60-S , 62-O ) :   0.1061 B( 61-C , 62-O ) :   2.2240
B( 63-C , 64-C ) :   1.6639 B( 63-C ,100-H ) :   0.9735 B( 64-C , 65-C ) :   1.1306
B( 64-C ,101-H ) :   0.9396 B( 65-C , 66-C ) :   1.6109 B( 65-C ,102-H ) :   0.9483
B( 66-C , 67-C ) :   1.0364 B( 66-C , 79-C ) :   1.0162 B( 67-C , 68-C ) :   1.6507
B( 67-C , 73-C ) :   1.0051 B( 68-C , 69-C ) :   1.1362 B( 68-C , 71-C ) :   1.1429
B( 69-C , 70-N ) :   2.9837 B( 71-C , 72-N ) :   2.9810 B( 73-C , 74-C ) :   1.3094
B( 73-C , 78-C ) :   1.3810 B( 74-C , 75-C ) :   1.3821 B( 74-C , 79-C ) :   1.0132
B( 75-C , 76-C ) :   1.3656 B( 75-C ,103-H ) :   0.9869 B( 76-C , 77-C ) :   1.3763
B( 76-C ,104-H ) :   0.9861 B( 77-C , 78-C ) :   1.3726 B( 77-C ,105-H ) :   0.9863
B( 78-C ,106-H ) :   0.9841 B( 79-C , 80-C ) :   1.6538 B( 80-C , 81-C ) :   1.1412
B( 80-C , 83-C ) :   1.1510 B( 81-C , 82-N ) :   2.9939 B( 83-C , 84-N ) :   3.0071

-----------------------------------------------------------------------------
         ABSORPTION SPECTRUM VIA TRANSITION ELECTRIC DIPOLE MOMENTS
-----------------------------------------------------------------------------
State   Energy  Wavelength   fosc         T2         TX        TY        TZ
        (cm-1)    (nm)                  (au**2)     (au)      (au)      (au)
-----------------------------------------------------------------------------
   0   17027.5    587.3   0.045069469   0.87138   0.71442  -0.57809   0.16368
   1   17519.5    570.8   0.005437989   0.10219  -0.18116   0.17975  -0.19251
   2   19477.4    513.4   0.097604275   1.64973   1.27307  -0.12686   0.11372
   3   20046.3    498.8   0.021413723   0.35167   0.53895  -0.24710  -0.01195
   4   23559.3    424.5   0.644307878   9.00340  -2.36778  -0.70384   1.70341
   5   23934.5    417.8   0.001436379   0.01976   0.10859   0.08918  -0.00340
   6   24975.1    400.4   0.026106208   0.34412   0.05863  -0.56023  -0.16379
   7   25310.7    395.1   0.143434927   1.86563   1.05240  -0.64594  -0.58382
   8   25470.0    392.6   0.002422130   0.03131   0.10570  -0.14139   0.01196
   9   25706.6    389.0   0.096484604   1.23563  -0.90421   0.05944   0.64382
  10   25927.7    385.7   0.245384044   3.11572  -1.38137   0.47221  -0.99225
  11   26936.0    371.2   0.067347824   0.82312   0.18349  -0.81670   0.34993
  12   26972.4    370.7   0.007920312   0.09667  -0.09856  -0.26903   0.12075
  13   27288.9    366.4   0.005050596   0.06093   0.06509  -0.21214   0.10811
  14   28248.2    354.0   0.239402123   2.79005  -0.86118  -1.02742   0.99641
  15   28892.7    346.1   0.062204968   0.70878   0.68032   0.08373  -0.48880
  16   29016.6    344.6   0.017158769   0.19468   0.15894   0.34242  -0.22838
  17   29274.5    341.6   0.024646286   0.27716   0.16609  -0.17831   0.46667
  18   29946.3    333.9   0.170016108   1.86906   0.09464   0.26749   1.33737
  19   30093.8    332.3   0.261574389   2.86150   1.51294  -0.21380  -0.72580
  20   30266.9    330.4   0.013476521   0.14658  -0.23456   0.02792  -0.30131
  21   30489.1    328.0   0.173506388   1.87347   1.27280  -0.43745   0.24916
  22   30970.4    322.9   0.072916372   0.77509  -0.42819  -0.54408   0.54381
  23   31286.9    319.6   0.222762146   2.34398   0.23056   0.76965  -1.30325
  24   31809.6    314.4   0.121530560   1.25778  -0.90580   0.26573  -0.60555
  25   31947.8    313.0   0.021471975   0.22126  -0.24520  -0.38855  -0.10084
  26   32125.1    311.3   0.122441391   1.25475   0.49675   0.17485  -0.98865
  27   32397.8    308.7   0.288997117   2.93666   1.41242  -0.39299   0.88729
  28   32606.6    306.7   0.016029688   0.16184   0.34701  -0.04634  -0.19820
  29   32685.3    305.9   0.004235749   0.04266   0.17921   0.02724  -0.09903
  30   32736.9    305.5   0.130203345   1.30936  -0.22570   0.15953   1.11039
  31   32981.6    303.2   0.127531102   1.27298   0.16935  -0.11102   1.10994
  32   33363.9    299.7   0.141290871   1.39416   0.32739   0.57907  -0.97553
  33   33483.4    298.7   0.016167147   0.15896  -0.21418  -0.14201   0.30482
  34   33664.5    297.0   0.005959222   0.05828   0.02416  -0.21013   0.11635
  35   33963.2    294.4   0.028222048   0.27356  -0.01460  -0.36336   0.37592
  36   34178.1    292.6   0.044557079   0.42919   0.30172   0.26676  -0.51671
  37   34270.5    291.8   0.062362586   0.59907   0.12051  -0.02299  -0.76421
  38   34285.3    291.7   0.014773267   0.14185  -0.02603   0.17094  -0.33460
  39   34294.0    291.6   0.049268394   0.47296   0.09655  -0.30140  -0.61057
  40   34466.5    290.1   0.325779203   3.11173  -0.77529   0.44321  -1.52125
  41   34558.6    289.4   0.034976688   0.33320   0.30772  -0.46046   0.16272
  42   34847.1    287.0   0.009933875   0.09385  -0.09245   0.23952  -0.16712
  43   35042.4    285.4   0.074278887   0.69783   0.74324   0.09332  -0.36974
  44   35139.6    284.6   0.029055723   0.27221   0.11066   0.32650   0.39162
  45   35420.6    282.3   0.339455552   3.15502  -1.73797  -0.36534  -0.03157
  46   35519.3    281.5   0.484627010   4.49178   1.70448   0.85015  -0.92940
  47   36185.8    276.4   0.017178738   0.15629   0.37053   0.13158   0.04106
  48   36252.3    275.8   0.134154647   1.21828   1.05110   0.31389   0.12223
  49   36877.7    271.2   0.173831142   1.55181  -1.20519   0.30430   0.08201
  50   37172.6    269.0   0.030588288   0.27090  -0.51317   0.08129  -0.03080
  51   37394.9    267.4   0.001412368   0.01243   0.03469  -0.04721   0.09487
  52   37505.9    266.6   0.005598642   0.04914  -0.16142   0.13755   0.06456
  53   37722.6    265.1   0.005181977   0.04522  -0.00460  -0.19407   0.08683
  54   37882.8    264.0   0.033376316   0.29005  -0.31812   0.39080  -0.19007
  55   38006.4    263.1   0.000892086   0.00773   0.00970  -0.08390   0.02436
  56   38148.2    262.1   0.009888100   0.08533   0.24668  -0.12858   0.08917
  57   38309.1    261.0   0.000495624   0.00426   0.06349   0.01317   0.00737
  58   38464.3    260.0   0.020264275   0.17344   0.35479   0.21750  -0.01615
  59   38573.5    259.2   0.028412220   0.24249   0.46672   0.15693  -0.00595
  60   38653.5    258.7   0.009852300   0.08391  -0.28095   0.03042  -0.06369
  61   38735.9    258.2   0.269603111   2.29132   1.50427   0.16326  -0.04278
  62   39323.1    254.3   0.057795956   0.48387   0.69195   0.06329   0.03256
  63   39545.2    252.9   0.000493158   0.00411  -0.03782  -0.04758  -0.02029
  64   39798.6    251.3   0.006842913   0.05660   0.23205  -0.04535   0.02651
  65   40096.8    249.4   0.002512191   0.02063   0.09308   0.04324  -0.10046
  66   40179.0    248.9   0.131624392   1.07848   0.89181  -0.25577   0.46662
  67   40322.0    248.0   0.002412700   0.01970  -0.00217   0.03555  -0.13576

FINAL SINGLE POINT ENERGY     -4824.241344977120

DIPOLE MOMENT
-------------
                                X             Y             Z
Electronic contribution:     26.44193      -9.86342       2.81655
Nuclear contribution   :    -25.51810       8.81150      -3.72528
                        -----------------------------------------
Total Dipole Moment    :      0.92383      -1.05192      -0.90872
                        -----------------------------------------
Magnitude (a.u.)       :      1.66907
Magnitude (Debye)      :      4.24243

Rotational constants in cm-1:     0.001729     0.000180     0.000169
Rotational constants in MHz :    51.832476     5.405986     5.071868

                             ****ORCA TERMINATED NORMALLY****
TOTAL RUN TIME: 0 days 0 hours 11 minutes 50 seconds 411 msec
