                         Program Version 4.2.0 -  RELEASE  -
|  1> # ORCA input file
|  2> # SCF done       -177.792664760868          0.000700290731
|  3> ! CAM-B3LYP def2-SVP def2/J RIJCOSX Grid4 TightSCF
|  4> %maxcore 5000
|  5> %tddft
|  6>     Mode sTDDFT
|  7>     Ethresh 5.0
|  8>     maxcore 5000
|  9> end
| 10>
| 11> %pal
| 12>   nprocs 6
| 13>   end
| 14> * xyz 0 1
| 15>    C        3.84889        -7.91425        -6.95382
| 16>    C        4.89409        -8.38390        -6.17290
| 17>    C        4.83716        -8.32528        -4.78709
| 18>    C        3.73492        -7.78636        -4.14151
| 19>    C        2.68446        -7.31270        -4.91105
| 20>    C        2.73506        -7.38071        -6.32325
| 21>    C        1.49554        -6.84636        -6.87123
| 22>    C        1.20339        -6.67303        -8.19505
| 23>    C        2.09673        -6.97651        -9.24685
| 24>    N        2.77037        -7.20906       -10.14577
| 25>    C       -0.00959        -6.16356        -8.71105
| 26>    N       -0.96658        -5.77164        -9.20829
| 27>    C        0.62040        -6.57559        -5.73169
| 28>    C        1.43657        -6.67653        -4.52586
| 29>    C        1.16858        -6.07261        -3.32740
| 30>    C        0.08570        -5.19279        -3.10898
| 31>    N       -0.72447        -4.40681        -2.90177
| 32>    C        2.01110        -6.16518        -2.19870
| 33>    N        2.65552        -6.22527        -1.25168
| 34>    C       -0.72664        -6.38731        -5.79574
| 35>    C       -1.65260        -6.53772        -4.73099
| 36>    C       -1.56503        -7.46858        -3.59010
| 37>    N       -2.62658        -7.49702        -2.84639
| 38>    C       -3.49017        -6.59044        -3.39231
| 39>    C       -2.90222        -5.98156        -4.58949
| 40>    C       -3.82338        -5.03590        -5.17378
| 41>    S       -3.55285        -4.08473        -6.49439
| 42>    C       -4.99080        -5.12963        -4.34612
| 43>    C       -4.75631        -6.08251        -3.25202
| 44>    N       -5.87335        -6.20402        -2.47006
| 45>    C       -6.76385        -5.43115        -3.00808
| 46>    C       -6.30151        -4.71388        -4.20681
| 47>    C       -7.07303        -3.84548        -5.00358
| 48>    N       -6.54006        -3.15620        -6.05083
| 49>    C       -7.51450        -2.45253        -6.67609
| 50>    C       -8.72549        -2.69206        -6.00044
| 51>    C       -8.44764        -3.54685        -4.95356
| 52>    C       -7.27854        -1.63473        -7.76961
| 53>    C       -7.08303        -0.90784        -8.72538
| 54>    C       -6.85497        -0.08479        -9.81660
| 55>    C       -5.70850         0.62594        -9.96864
| 56>    C       -5.43559         1.47018       -11.07296
| 57>    C       -6.13594         1.51086       -12.36913
| 58>    N       -5.65180         2.36554       -13.21621
| 59>    C       -4.60856         2.97317       -12.57340
| 60>    C       -4.44540         2.41732       -11.21991
| 61>    C       -3.39244         3.10803       -10.53000
| 62>    S       -2.97322         2.97054        -8.94081
| 63>    C       -2.87146         4.03513       -11.50380
| 64>    C       -3.66904         3.95182       -12.74634
| 65>    N       -3.25696         4.88964       -13.64455
| 66>    C       -2.30277         5.54392       -13.05976
| 67>    C       -1.98226         5.06651       -11.70280
| 68>    C       -1.03950         5.69642       -10.84697
| 69>    C       -0.35351         5.14327        -9.81206
| 70>    C        0.27048         5.90773        -8.72910
| 71>    C        0.62993         7.22576        -8.75341
| 72>    C        0.51071         8.08251        -9.86978
| 73>    N        0.45559         8.82764       -10.74113
| 74>    C        1.22529         7.90142        -7.66484
| 75>    N        1.70854         8.50923        -6.82046
| 76>    C        0.44188         4.98448        -7.61841
| 77>    C        0.13863         3.67553        -8.05819
| 78>    C        0.20033         2.60395        -7.18369
| 79>    C        0.56947         2.84554        -5.86919
| 80>    C        0.87739         4.12856        -5.43681
| 81>    C        0.81763         5.20952        -6.30249
| 82>    C       -0.20339         3.72925        -9.47124
| 83>    C       -0.10947         2.69365       -10.36060
| 84>    C        0.15336         1.36136        -9.97704
| 85>    N        0.35488         0.26269        -9.71562
| 86>    C       -0.21563         2.83823       -11.75823
| 87>    N       -0.25696         2.90792       -12.90330
| 88>    H        3.91019        -7.97272        -8.02790
| 89>    H        5.76348        -8.80501        -6.65393
| 90>    H        5.66042        -8.70459        -4.20159
| 91>    H        3.69799        -7.75125        -3.06470
| 92>    H       -1.17441        -6.17038        -6.75762
| 93>    H       -0.74118        -8.13209        -3.39088
| 94>    H       -7.74511        -5.34231        -2.57636
| 95>    H       -5.56060        -3.22576        -6.34014
| 96>    H       -9.67369        -2.26523        -6.26025
| 97>    H       -9.14566        -3.92964        -4.23612
| 98>    H       -7.65766        -0.01135       -10.53921
| 99>    H       -4.95299         0.58485        -9.19465
|100>    H       -6.96867         0.88882       -12.64808
|101>    H       -1.79384         6.35073       -13.55730
|102>    H       -0.92986         6.76013       -11.01846
|103>    H       -0.05213         1.60703        -7.50614
|104>    H        0.61267         2.02274        -5.17212
|105>    H        1.16173         4.29138        -4.40844
|106>    H        1.04952         6.20049        -5.94794
|107> *
|108>
|109>                          ****END OF INPUT****

CARTESIAN COORDINATES (ANGSTROEM)
---------------------------------
  C      3.848890   -7.914250   -6.953820
  C      4.894090   -8.383900   -6.172900
  C      4.837160   -8.325280   -4.787090
  C      3.734920   -7.786360   -4.141510
  C      2.684460   -7.312700   -4.911050
  C      2.735060   -7.380710   -6.323250
  C      1.495540   -6.846360   -6.871230
  C      1.203390   -6.673030   -8.195050
  C      2.096730   -6.976510   -9.246850
  N      2.770370   -7.209060  -10.145770
  C     -0.009590   -6.163560   -8.711050
  N     -0.966580   -5.771640   -9.208290
  C      0.620400   -6.575590   -5.731690
  C      1.436570   -6.676530   -4.525860
  C      1.168580   -6.072610   -3.327400
  C      0.085700   -5.192790   -3.108980
  N     -0.724470   -4.406810   -2.901770
  C      2.011100   -6.165180   -2.198700
  N      2.655520   -6.225270   -1.251680
  C     -0.726640   -6.387310   -5.795740
  C     -1.652600   -6.537720   -4.730990
  C     -1.565030   -7.468580   -3.590100
  N     -2.626580   -7.497020   -2.846390
  C     -3.490170   -6.590440   -3.392310
  C     -2.902220   -5.981560   -4.589490
  C     -3.823380   -5.035900   -5.173780
  S     -3.552850   -4.084730   -6.494390
  C     -4.990800   -5.129630   -4.346120
  C     -4.756310   -6.082510   -3.252020
  N     -5.873350   -6.204020   -2.470060
  C     -6.763850   -5.431150   -3.008080
  C     -6.301510   -4.713880   -4.206810
  C     -7.073030   -3.845480   -5.003580
  N     -6.540060   -3.156200   -6.050830
  C     -7.514500   -2.452530   -6.676090
  C     -8.725490   -2.692060   -6.000440
  C     -8.447640   -3.546850   -4.953560
  C     -7.278540   -1.634730   -7.769610
  C     -7.083030   -0.907840   -8.725380
  C     -6.854970   -0.084790   -9.816600
  C     -5.708500    0.625940   -9.968640
  C     -5.435590    1.470180  -11.072960
  C     -6.135940    1.510860  -12.369130
  N     -5.651800    2.365540  -13.216210
  C     -4.608560    2.973170  -12.573400
  C     -4.445400    2.417320  -11.219910
  C     -3.392440    3.108030  -10.530000
  S     -2.973220    2.970540   -8.940810
  C     -2.871460    4.035130  -11.503800
  C     -3.669040    3.951820  -12.746340
  N     -3.256960    4.889640  -13.644550
  C     -2.302770    5.543920  -13.059760
  C     -1.982260    5.066510  -11.702800
  C     -1.039500    5.696420  -10.846970
  C     -0.353510    5.143270   -9.812060
  C      0.270480    5.907730   -8.729100
  C      0.629930    7.225760   -8.753410
  C      0.510710    8.082510   -9.869780
  N      0.455590    8.827640  -10.741130
  C      1.225290    7.901420   -7.664840
  N      1.708540    8.509230   -6.820460
  C      0.441880    4.984480   -7.618410
  C      0.138630    3.675530   -8.058190
  C      0.200330    2.603950   -7.183690
  C      0.569470    2.845540   -5.869190
  C      0.877390    4.128560   -5.436810
  C      0.817630    5.209520   -6.302490
  C     -0.203390    3.729250   -9.471240
  C     -0.109470    2.693650  -10.360600
  C      0.153360    1.361360   -9.977040
  N      0.354880    0.262690   -9.715620
  C     -0.215630    2.838230  -11.758230
  N     -0.256960    2.907920  -12.903300
  H      3.910190   -7.972720   -8.027900
  H      5.763480   -8.805010   -6.653930
  H      5.660420   -8.704590   -4.201590
  H      3.697990   -7.751250   -3.064700
  H     -1.174410   -6.170380   -6.757620
  H     -0.741180   -8.132090   -3.390880
  H     -7.745110   -5.342310   -2.576360
  H     -5.560600   -3.225760   -6.340140
  H     -9.673690   -2.265230   -6.260250
  H     -9.145660   -3.929640   -4.236120
  H     -7.657660   -0.011350  -10.539210
  H     -4.952990    0.584850   -9.194650
  H     -6.968670    0.888820  -12.648080
  H     -1.793840    6.350730  -13.557300
  H     -0.929860    6.760130  -11.018460
  H     -0.052130    1.607030   -7.506140
  H      0.612670    2.022740   -5.172120
  H      1.161730    4.291380   -4.408440
  H      1.049520    6.200490   -5.947940

 Total Charge           Charge          ....    0
 Multiplicity           Mult            ....    1
 Number of Electrons    NEL             ....  490
 Basis Dimension        Dim             .... 1125

ORBITAL ENERGIES
----------------

  NO   OCC          E(Eh)            E(eV)
   0   2.0000     -88.923496     -2419.7313
   1   2.0000     -88.923055     -2419.7194
   2   2.0000     -14.474196      -393.8629
   3   2.0000     -14.434303      -392.7774
   4   2.0000     -14.433580      -392.7577
   5   2.0000     -14.432107      -392.7176
   6   2.0000     -14.430775      -392.6814
   7   2.0000     -14.430701      -392.6793
   8   2.0000     -14.430190      -392.6654
   9   2.0000     -14.430179      -392.6651
  10   2.0000     -14.428448      -392.6180
  11   2.0000     -14.427264      -392.5858
  12   2.0000     -14.426942      -392.5771
  13   2.0000     -14.425735      -392.5442
  14   2.0000     -14.423631      -392.4870
  15   2.0000     -10.367194      -282.1057
  16   2.0000     -10.364267      -282.0260
  17   2.0000     -10.360396      -281.9207
  18   2.0000     -10.360360      -281.9197
  19   2.0000     -10.360133      -281.9135
  20   2.0000     -10.359875      -281.9065
  21   2.0000     -10.359164      -281.8872
  22   2.0000     -10.356564      -281.8164
  23   2.0000     -10.355494      -281.7873
  24   2.0000     -10.354827      -281.7692
  25   2.0000     -10.354251      -281.7535
  26   2.0000     -10.350102      -281.6406
  27   2.0000     -10.348673      -281.6017
  28   2.0000     -10.345833      -281.5244
  29   2.0000     -10.345492      -281.5151
  30   2.0000     -10.345363      -281.5116
  31   2.0000     -10.343958      -281.4734
  32   2.0000     -10.339336      -281.3476
  33   2.0000     -10.338862      -281.3347
  34   2.0000     -10.337595      -281.3003
  35   2.0000     -10.335333      -281.2387
  36   2.0000     -10.334823      -281.2248
  37   2.0000     -10.334072      -281.2044
  38   2.0000     -10.333458      -281.1877
  39   2.0000     -10.332783      -281.1693
  40   2.0000     -10.331884      -281.1449
  41   2.0000     -10.331784      -281.1421
  42   2.0000     -10.331341      -281.1301
  43   2.0000     -10.329481      -281.0795
  44   2.0000     -10.328858      -281.0625
  45   2.0000     -10.327500      -281.0256
  46   2.0000     -10.327422      -281.0234
  47   2.0000     -10.325360      -280.9673
  48   2.0000     -10.324531      -280.9448
  49   2.0000     -10.324380      -280.9407
  50   2.0000     -10.324225      -280.9364
  51   2.0000     -10.323197      -280.9085
  52   2.0000     -10.320903      -280.8460
  53   2.0000     -10.320644      -280.8390
  54   2.0000     -10.320049      -280.8228
  55   2.0000     -10.317636      -280.7572
  56   2.0000     -10.317323      -280.7486
  57   2.0000     -10.316539      -280.7273
  58   2.0000     -10.311733      -280.5965
  59   2.0000     -10.310915      -280.5743
  60   2.0000     -10.309953      -280.5481
  61   2.0000     -10.309294      -280.5302
  62   2.0000     -10.308121      -280.4982
  63   2.0000     -10.308025      -280.4956
  64   2.0000     -10.305085      -280.4156
  65   2.0000     -10.303707      -280.3781
  66   2.0000     -10.303298      -280.3670
  67   2.0000     -10.303079      -280.3610
  68   2.0000     -10.302329      -280.3406
  69   2.0000     -10.297830      -280.2182
  70   2.0000     -10.295602      -280.1576
  71   2.0000     -10.289397      -279.9887
  72   2.0000     -10.285422      -279.8806
  73   2.0000      -8.018679      -218.1993
  74   2.0000      -8.018613      -218.1975
  75   2.0000      -5.987389      -162.9251
  76   2.0000      -5.987351      -162.9241
  77   2.0000      -5.987054      -162.9160
  78   2.0000      -5.986560      -162.9026
  79   2.0000      -5.978662      -162.6877
  80   2.0000      -5.978103      -162.6725
  81   2.0000      -1.104071       -30.0433
  82   2.0000      -1.098033       -29.8790
  83   2.0000      -1.096892       -29.8479
  84   2.0000      -1.079688       -29.3798
  85   2.0000      -1.078641       -29.3513
  86   2.0000      -1.048054       -28.5190
  87   2.0000      -1.042516       -28.3683
  88   2.0000      -1.028743       -27.9935
  89   2.0000      -1.024021       -27.8650
  90   2.0000      -1.018168       -27.7058
  91   2.0000      -1.012952       -27.5638
  92   2.0000      -1.010943       -27.5091
  93   2.0000      -1.008204       -27.4346
  94   2.0000      -1.006495       -27.3881
  95   2.0000      -1.002913       -27.2907
  96   2.0000      -0.980668       -26.6853
  97   2.0000      -0.980141       -26.6710
  98   2.0000      -0.971693       -26.4411
  99   2.0000      -0.965382       -26.2694
 100   2.0000      -0.952588       -25.9213
 101   2.0000      -0.946722       -25.7616
 102   2.0000      -0.939635       -25.5688
 103   2.0000      -0.927439       -25.2369
 104   2.0000      -0.924832       -25.1660
 105   2.0000      -0.917604       -24.9693
 106   2.0000      -0.905820       -24.6486
 107   2.0000      -0.899941       -24.4886
 108   2.0000      -0.893668       -24.3179
 109   2.0000      -0.889587       -24.2069
 110   2.0000      -0.877083       -23.8666
 111   2.0000      -0.875511       -23.8239
 112   2.0000      -0.873219       -23.7615
 113   2.0000      -0.870553       -23.6889
 114   2.0000      -0.862581       -23.4720
 115   2.0000      -0.858094       -23.3499
 116   2.0000      -0.852054       -23.1856
 117   2.0000      -0.817180       -22.2366
 118   2.0000      -0.807708       -21.9789
 119   2.0000      -0.803540       -21.8654
 120   2.0000      -0.803143       -21.8546
 121   2.0000      -0.797176       -21.6923
 122   2.0000      -0.787425       -21.4269
 123   2.0000      -0.780182       -21.2298
 124   2.0000      -0.762668       -20.7533
 125   2.0000      -0.756012       -20.5721
 126   2.0000      -0.733777       -19.9671
 127   2.0000      -0.729073       -19.8391
 128   2.0000      -0.728098       -19.8126
 129   2.0000      -0.724690       -19.7198
 130   2.0000      -0.721839       -19.6422
 131   2.0000      -0.718865       -19.5613
 132   2.0000      -0.717331       -19.5196
 133   2.0000      -0.712482       -19.3876
 134   2.0000      -0.707169       -19.2430
 135   2.0000      -0.703721       -19.1492
 136   2.0000      -0.691620       -18.8200
 137   2.0000      -0.688078       -18.7236
 138   2.0000      -0.679490       -18.4899
 139   2.0000      -0.677106       -18.4250
 140   2.0000      -0.674264       -18.3477
 141   2.0000      -0.672404       -18.2970
 142   2.0000      -0.665338       -18.1048
 143   2.0000      -0.661113       -17.9898
 144   2.0000      -0.654193       -17.8015
 145   2.0000      -0.647870       -17.6295
 146   2.0000      -0.625658       -17.0250
 147   2.0000      -0.623970       -16.9791
 148   2.0000      -0.616343       -16.7715
 149   2.0000      -0.612092       -16.6559
 150   2.0000      -0.605285       -16.4706
 151   2.0000      -0.599985       -16.3264
 152   2.0000      -0.598890       -16.2966
 153   2.0000      -0.594397       -16.1744
 154   2.0000      -0.592428       -16.1208
 155   2.0000      -0.587864       -15.9966
 156   2.0000      -0.576819       -15.6960
 157   2.0000      -0.574176       -15.6241
 158   2.0000      -0.569822       -15.5057
 159   2.0000      -0.566901       -15.4262
 160   2.0000      -0.562367       -15.3028
 161   2.0000      -0.560067       -15.2402
 162   2.0000      -0.555056       -15.1038
 163   2.0000      -0.553656       -15.0657
 164   2.0000      -0.551707       -15.0127
 165   2.0000      -0.551044       -14.9947
 166   2.0000      -0.548040       -14.9129
 167   2.0000      -0.545275       -14.8377
 168   2.0000      -0.544223       -14.8091
 169   2.0000      -0.539837       -14.6897
 170   2.0000      -0.538234       -14.6461
 171   2.0000      -0.532430       -14.4882
 172   2.0000      -0.525092       -14.2885
 173   2.0000      -0.523659       -14.2495
 174   2.0000      -0.522630       -14.2215
 175   2.0000      -0.518793       -14.1171
 176   2.0000      -0.515985       -14.0407
 177   2.0000      -0.513014       -13.9598
 178   2.0000      -0.511544       -13.9198
 179   2.0000      -0.508690       -13.8421
 180   2.0000      -0.506299       -13.7771
 181   2.0000      -0.504025       -13.7152
 182   2.0000      -0.502738       -13.6802
 183   2.0000      -0.501645       -13.6505
 184   2.0000      -0.500404       -13.6167
 185   2.0000      -0.493917       -13.4402
 186   2.0000      -0.490447       -13.3457
 187   2.0000      -0.486693       -13.2436
 188   2.0000      -0.484653       -13.1881
 189   2.0000      -0.481058       -13.0902
 190   2.0000      -0.475520       -12.9396
 191   2.0000      -0.469908       -12.7868
 192   2.0000      -0.469363       -12.7720
 193   2.0000      -0.465026       -12.6540
 194   2.0000      -0.463320       -12.6076
 195   2.0000      -0.461098       -12.5471
 196   2.0000      -0.460317       -12.5258
 197   2.0000      -0.459747       -12.5104
 198   2.0000      -0.458376       -12.4730
 199   2.0000      -0.458287       -12.4706
 200   2.0000      -0.456655       -12.4262
 201   2.0000      -0.455767       -12.4020
 202   2.0000      -0.454718       -12.3735
 203   2.0000      -0.453724       -12.3465
 204   2.0000      -0.451537       -12.2870
 205   2.0000      -0.450566       -12.2605
 206   2.0000      -0.446156       -12.1405
 207   2.0000      -0.444535       -12.0964
 208   2.0000      -0.441983       -12.0270
 209   2.0000      -0.441170       -12.0048
 210   2.0000      -0.439657       -11.9637
 211   2.0000      -0.439065       -11.9476
 212   2.0000      -0.438770       -11.9395
 213   2.0000      -0.435880       -11.8609
 214   2.0000      -0.435460       -11.8495
 215   2.0000      -0.434365       -11.8197
 216   2.0000      -0.432722       -11.7750
 217   2.0000      -0.426118       -11.5953
 218   2.0000      -0.421482       -11.4691
 219   2.0000      -0.421205       -11.4616
 220   2.0000      -0.417805       -11.3691
 221   2.0000      -0.403766       -10.9870
 222   2.0000      -0.397365       -10.8128
 223   2.0000      -0.393088       -10.6965
 224   2.0000      -0.387388       -10.5414
 225   2.0000      -0.383233       -10.4283
 226   2.0000      -0.375200       -10.2097
 227   2.0000      -0.371291       -10.1033
 228   2.0000      -0.366952        -9.9853
 229   2.0000      -0.364808        -9.9269
 230   2.0000      -0.363412        -9.8889
 231   2.0000      -0.361021        -9.8239
 232   2.0000      -0.352139        -9.5822
 233   2.0000      -0.345176        -9.3927
 234   2.0000      -0.340987        -9.2787
 235   2.0000      -0.338655        -9.2153
 236   2.0000      -0.335776        -9.1369
 237   2.0000      -0.329408        -8.9636
 238   2.0000      -0.325681        -8.8622
 239   2.0000      -0.315156        -8.5758
 240   2.0000      -0.310762        -8.4563
 241   2.0000      -0.306864        -8.3502
 242   2.0000      -0.304130        -8.2758
 243   2.0000      -0.300893        -8.1877
 244   2.0000      -0.261484        -7.1153
 245   0.0000      -0.134141        -3.6502
 246   0.0000      -0.130196        -3.5428
 247   0.0000      -0.114375        -3.1123
 248   0.0000      -0.105504        -2.8709
 249   0.0000      -0.098014        -2.6671

MULLIKEN ATOMIC CHARGES
-----------------------
   0 C :   -0.036618
   1 C :    0.051404
   2 C :    0.050227
   3 C :   -0.034898
   4 C :    0.007646
   5 C :    0.018430
   6 C :    0.297871
   7 C :   -0.332641
   8 C :   -0.188209
   9 N :    0.167323
  10 C :   -0.182027
  11 N :    0.178096
  12 C :   -0.060310
  13 C :    0.228139
  14 C :   -0.336811
  15 C :   -0.183651
  16 N :    0.183367
  17 C :   -0.183765
  18 N :    0.174749
  19 C :    0.018316
  20 C :   -0.095425
  21 C :    0.066654
  22 N :   -0.012044
  23 C :    0.011320
  24 C :    0.051977
  25 C :    0.001570
  26 S :   -0.099737
  27 C :   -0.061558
  28 C :    0.026453
  29 N :   -0.020395
  30 C :    0.071612
  31 C :    0.067171
  32 C :    0.005220
  33 N :   -0.016737
  34 C :    0.020924
  35 C :    0.014001
  36 C :   -0.028627
  37 C :    0.102783
  38 C :   -0.041218
  39 C :   -0.087794
  40 C :   -0.004259
  41 C :   -0.004382
  42 C :    0.068524
  43 N :   -0.019266
  44 C :    0.032624
  45 C :    0.005493
  46 C :   -0.007437
  47 S :   -0.110772
  48 C :    0.015965
  49 C :    0.014939
  50 N :   -0.013075
  51 C :    0.081970
  52 C :   -0.047756
  53 C :    0.011005
  54 C :   -0.030977
  55 C :    0.280452
  56 C :   -0.338949
  57 C :   -0.182373
  58 N :    0.167095
  59 C :   -0.187126
  60 N :    0.168549
  61 C :    0.019530
  62 C :    0.028232
  63 C :   -0.031433
  64 C :    0.047027
  65 C :    0.048014
  66 C :   -0.034908
  67 C :    0.215846
  68 C :   -0.317144
  69 C :   -0.181279
  70 N :    0.174623
  71 C :   -0.189910
  72 N :    0.181409
  73 H :    0.009392
  74 H :    0.008084
  75 H :    0.008602
  76 H :    0.010348
  77 H :    0.034854
  78 H :    0.019722
  79 H :    0.013213
  80 H :    0.109308
  81 H :   -0.017724
  82 H :   -0.019282
  83 H :    0.035577
  84 H :    0.020328
  85 H :    0.017137
  86 H :    0.022461
  87 H :    0.023124
  88 H :    0.008962
  89 H :    0.009646
  90 H :    0.006373
  91 H :    0.006841
Sum of atomic charges:   -0.0000000

LOEWDIN ATOMIC CHARGES
----------------------
   0 C :    0.006922
   1 C :    0.006256
   2 C :    0.007284
   3 C :    0.003240
   4 C :   -0.012819
   5 C :   -0.012318
   6 C :    0.072795
   7 C :   -0.115848
   8 C :   -0.017666
   9 N :   -0.035473
  10 C :   -0.024360
  11 N :   -0.025531
  12 C :   -0.038302
  13 C :    0.064745
  14 C :   -0.121026
  15 C :   -0.021480
  16 N :   -0.032779
  17 C :   -0.019697
  18 N :   -0.033664
  19 C :    0.065301
  20 C :   -0.057617
  21 C :    0.074152
  22 N :   -0.065357
  23 C :    0.023208
  24 C :    0.003929
  25 C :   -0.129348
  26 S :    0.102054
  27 C :   -0.075712
  28 C :    0.060684
  29 N :   -0.066907
  30 C :    0.102821
  31 C :   -0.024191
  32 C :   -0.015925
  33 N :    0.118027
  34 C :   -0.009998
  35 C :   -0.035274
  36 C :   -0.040532
  37 C :   -0.028442
  38 C :   -0.018839
  39 C :   -0.017823
  40 C :    0.006934
  41 C :   -0.031597
  42 C :    0.096172
  43 N :   -0.069302
  44 C :    0.049223
  45 C :   -0.038754
  46 C :   -0.140675
  47 S :    0.094627
  48 C :   -0.009730
  49 C :    0.040818
  50 N :   -0.063190
  51 C :    0.100660
  52 C :   -0.048045
  53 C :    0.042433
  54 C :   -0.020423
  55 C :    0.080151
  56 C :   -0.125252
  57 C :   -0.022018
  58 N :   -0.039043
  59 C :   -0.018795
  60 N :   -0.038620
  61 C :   -0.014057
  62 C :   -0.005407
  63 C :    0.002421
  64 C :    0.008732
  65 C :    0.002370
  66 C :    0.005945
  67 C :    0.060726
  68 C :   -0.127418
  69 C :   -0.021867
  70 N :   -0.038832
  71 C :   -0.019343
  72 N :   -0.039783
  73 H :    0.042820
  74 H :    0.039546
  75 H :    0.039497
  76 H :    0.042215
  77 H :    0.051673
  78 H :    0.025358
  79 H :    0.029112
  80 H :    0.036582
  81 H :    0.032989
  82 H :    0.028725
  83 H :    0.044506
  84 H :    0.041348
  85 H :    0.027423
  86 H :    0.032898
  87 H :    0.050850
  88 H :    0.041186
  89 H :    0.039453
  90 H :    0.038576
  91 H :    0.041690

  Mayer bond orders larger than 0.100000
B(  0-C ,  1-C ) :   1.3739 B(  0-C ,  5-C ) :   1.3776 B(  0-C , 73-H ) :   0.9849
B(  1-C ,  2-C ) :   1.3732 B(  1-C , 74-H ) :   0.9854 B(  2-C ,  3-C ) :   1.3676
B(  2-C , 75-H ) :   0.9860 B(  3-C ,  4-C ) :   1.3766 B(  3-C , 76-H ) :   0.9880
B(  4-C ,  5-C ) :   1.3053 B(  4-C , 13-C ) :   1.0184 B(  5-C ,  6-C ) :   1.0015
B(  6-C ,  7-C ) :   1.6621 B(  6-C , 12-C ) :   1.0292 B(  7-C ,  8-C ) :   1.1478
B(  7-C , 10-C ) :   1.1317 B(  8-C ,  9-N ) :   2.9764 B( 10-C , 11-N ) :   2.9762
B( 12-C , 13-C ) :   1.0109 B( 12-C , 19-C ) :   1.6588 B( 13-C , 14-C ) :   1.6510
B( 14-C , 15-C ) :   1.1463 B( 14-C , 17-C ) :   1.1430 B( 15-C , 16-N ) :   3.0065
B( 17-C , 18-N ) :   2.9944 B( 19-C , 20-C ) :   1.0796 B( 19-C , 77-H ) :   0.9338
B( 20-C , 21-C ) :   1.0033 B( 20-C , 24-C ) :   1.5270 B( 21-C , 22-N ) :   1.7541
B( 21-C , 78-H ) :   0.9867 B( 22-N , 23-C ) :   1.2558 B( 23-C , 24-C ) :   1.0931
B( 23-C , 28-C ) :   1.5098 B( 24-C , 25-C ) :   1.0331 B( 25-C , 26-S ) :   1.6467
B( 25-C , 27-C ) :   1.0681 B( 26-S , 80-H ) :   0.1786 B( 27-C , 28-C ) :   1.0737
B( 27-C , 31-C ) :   1.4573 B( 28-C , 29-N ) :   1.2496 B( 29-N , 30-C ) :   1.7465
B( 30-C , 31-C ) :   1.0264 B( 30-C , 79-H ) :   0.9893 B( 31-C , 32-C ) :   1.0761
B( 32-C , 33-N ) :   1.2738 B( 32-C , 34-C ) :   0.1187 B( 32-C , 36-C ) :   1.3438
B( 33-N , 34-C ) :   1.2888 B( 33-N , 80-H ) :   0.8550 B( 34-C , 35-C ) :   1.3637
B( 34-C , 37-C ) :   0.8240 B( 35-C , 36-C ) :   1.3871 B( 35-C , 81-H ) :   1.0116
B( 36-C , 82-H ) :   1.0011 B( 37-C , 38-C ) :   2.2109 B( 38-C , 39-C ) :   1.0132
B( 39-C , 40-C ) :   1.6706 B( 39-C , 83-H ) :   0.9505 B( 40-C , 41-C ) :   1.1282
B( 40-C , 84-H ) :   0.9742 B( 41-C , 42-C ) :   1.0026 B( 41-C , 45-C ) :   1.5035
B( 42-C , 43-N ) :   1.7433 B( 42-C , 85-H ) :   0.9868 B( 43-N , 44-C ) :   1.2515
B( 44-C , 45-C ) :   1.0684 B( 44-C , 49-C ) :   1.5156 B( 45-C , 46-C ) :   1.0363
B( 46-C , 47-S ) :   1.6562 B( 46-C , 48-C ) :   1.0452 B( 48-C , 49-C ) :   1.0690
B( 48-C , 52-C ) :   1.5084 B( 49-C , 50-N ) :   1.2757 B( 50-N , 51-C ) :   1.7267
B( 51-C , 52-C ) :   1.0125 B( 51-C , 86-H ) :   0.9943 B( 52-C , 53-C ) :   1.0915
B( 53-C , 54-C ) :   1.6866 B( 53-C , 87-H ) :   0.9231 B( 54-C , 55-C ) :   1.0331
B( 54-C , 67-C ) :   0.9986 B( 55-C , 56-C ) :   1.6583 B( 55-C , 61-C ) :   1.0105
B( 56-C , 57-C ) :   1.1333 B( 56-C , 59-C ) :   1.1444 B( 57-C , 58-N ) :   2.9833
B( 59-C , 60-N ) :   2.9843 B( 61-C , 62-C ) :   1.3127 B( 61-C , 66-C ) :   1.3713
B( 62-C , 63-C ) :   1.3811 B( 62-C , 67-C ) :   1.0045 B( 63-C , 64-C ) :   1.3659
B( 63-C , 88-H ) :   0.9896 B( 64-C , 65-C ) :   1.3707 B( 64-C , 89-H ) :   0.9875
B( 65-C , 66-C ) :   1.3769 B( 65-C , 90-H ) :   0.9861 B( 66-C , 91-H ) :   0.9850
B( 67-C , 68-C ) :   1.6632 B( 68-C , 69-C ) :   1.1372 B( 68-C , 71-C ) :   1.1615
B( 69-C , 70-N ) :   3.0035 B( 71-C , 72-N ) :   3.0053

-----------------------------------------------------------------------------
         ABSORPTION SPECTRUM VIA TRANSITION ELECTRIC DIPOLE MOMENTS
-----------------------------------------------------------------------------
State   Energy  Wavelength   fosc         T2         TX        TY        TZ
        (cm-1)    (nm)                  (au**2)     (au)      (au)      (au)
-----------------------------------------------------------------------------
   0   11635.4    859.4   0.152493136   4.31464  -1.09373   1.58738  -0.77370
   1   14025.9    713.0   0.132071869   3.09995  -0.50077  -1.49456   0.78452
   2   15084.7    662.9   0.064307950   1.40347   0.42795   0.93157  -0.59372
   3   16774.2    596.2   0.438572171   8.60746   0.85021  -2.46015   1.35361
   4   17768.5    562.8   0.012987767   0.24064   0.27693  -0.36413   0.17707
   5   17906.9    558.4   0.000141207   0.00260   0.00987  -0.03639   0.03428
   6   19810.9    504.8   0.234063654   3.88960   1.79315   0.65814  -0.49099
   7   20629.5    484.7   0.205651320   3.28184  -1.66369  -0.71623  -0.03166
   8   20677.0    483.6   0.029526767   0.47012   0.51398  -0.09425  -0.44391
   9   20931.7    477.7   0.028684164   0.45114   0.54704   0.01815  -0.38931
  10   21102.9    473.9   0.022321054   0.34822  -0.39879  -0.07296   0.42879
  11   22762.7    439.3   0.185192350   2.67840   1.55607  -0.50671   0.01713
  12   23136.8    432.2   0.089184746   1.26900   1.07876   0.08516   0.31310
  13   23257.7    430.0   0.009825975   0.13909  -0.18392  -0.04364  -0.32149
  14   24052.4    415.8   0.027104174   0.37098   0.28804   0.37200  -0.38682
  15   24226.6    412.8   0.065711338   0.89294  -0.76303  -0.32179   0.45517
  16   24607.7    406.4   0.030665017   0.41025  -0.29584   0.55428  -0.12450
  17   24926.9    401.2   0.005677140   0.07498   0.00389   0.18566   0.20123
  18   25581.3    390.9   0.005307746   0.06831  -0.21218   0.00477  -0.15253
  19   25859.2    386.7   0.026892681   0.34237   0.47015  -0.34242   0.06384
  20   26066.1    383.6   0.000860045   0.01086  -0.06008   0.08499  -0.00539
  21   26339.4    379.7   0.029819970   0.37272  -0.28348   0.18764   0.50710
  22   26404.7    378.7   0.015445273   0.19257  -0.33670  -0.25530  -0.11844
  23   26464.8    377.9   0.015307716   0.19042   0.27717  -0.19418  -0.27549
  24   26832.7    372.7   0.007163254   0.08789  -0.07652  -0.23860   0.15844
  25   27129.7    368.6   0.178931534   2.17129   1.35810   0.43082   0.37581
  26   27379.2    365.2   0.369534986   4.44335  -1.98296   0.32655  -0.63607
  27   27578.8    362.6   0.007394971   0.08827  -0.14787   0.24561   0.07800
  28   27669.5    361.4   0.210917497   2.50950  -0.91822   0.64133   1.12030
  29   28133.4    355.4   0.627510343   7.34302   2.53133   0.96387   0.07982
  30   28262.3    353.8   0.054306791   0.63259  -0.79449   0.00123  -0.03708
  31   28604.4    349.6   0.028083637   0.32322   0.36970   0.39274  -0.17971
  32   28954.9    345.4   0.008147372   0.09263  -0.29823   0.05354   0.02870
  33   29233.0    342.1   0.075762222   0.85321  -0.53977  -0.37413   0.64953
  34   29334.7    340.9   0.015307411   0.17179   0.14973   0.09454   0.37475
  35   29414.5    340.0   0.042981080   0.48105  -0.47108  -0.43495   0.26449
  36   29721.7    336.5   0.269092676   2.98060   0.29386  -1.56322  -0.67126
  37   29829.2    335.2   0.061755012   0.68156   0.79658   0.15380   0.15290
  38   30207.4    331.0   0.003876533   0.04225  -0.10783  -0.10153  -0.14252
  39   30417.8    328.8   0.016328846   0.17673   0.14431  -0.19366  -0.34409
  40   30607.7    326.7   0.027409250   0.29481  -0.38060  -0.10652  -0.37230
  41   30819.0    324.5   0.013847561   0.14792   0.33154   0.18901   0.04772
  42   30878.1    323.9   0.006668736   0.07110   0.08113  -0.11291  -0.22753
  43   31129.8    321.2   0.003031908   0.03206  -0.09915   0.11763   0.09164
  44   31297.6    319.5   0.006479174   0.06815  -0.25995   0.01285  -0.02037
  45   31889.8    313.6   0.337971501   3.48902   0.29811   1.75196   0.57514
  46   32122.4    311.3   0.044327073   0.45429   0.14173  -0.08643  -0.65325
  47   32236.6    310.2   0.027255993   0.27835   0.49487   0.17241  -0.06102
  48   32324.6    309.4   0.069761150   0.71049  -0.00520  -0.14086  -0.83103
  49   32565.1    307.1   0.308893307   3.12271   0.17391   0.43776   1.70318
  50   32660.6    306.2   0.055982429   0.56429   0.34795   0.14660  -0.64940
  51   32850.0    304.4   0.060989368   0.61121  -0.22774  -0.74031  -0.10627
  52   32948.1    303.5   0.090302898   0.90229   0.04326   0.05481  -0.94732
  53   33229.7    300.9   0.030841022   0.30555  -0.15270  -0.16043  -0.50645
  54   33439.3    299.0   0.015460665   0.15221   0.29033  -0.00095  -0.26061
  55   33561.1    298.0   0.002382597   0.02337  -0.15125   0.02101  -0.00738
  56   33589.6    297.7   0.013015672   0.12757  -0.04167   0.04004  -0.35246
  57   33729.7    296.5   0.016370793   0.15978  -0.11567  -0.38184   0.02451
  58   34052.9    293.7   0.006898904   0.06670   0.01235   0.21104   0.14834
  59   34313.2    291.4   0.047911870   0.45968   0.43179  -0.04644   0.52066
  60   34579.0    289.2   0.089378722   0.85094   0.56840   0.60053  -0.40893
  61   34662.5    288.5   0.216136991   2.05279   0.93878  -0.99372   0.42895
  62   34736.9    287.9   0.184853444   1.75191  -0.75034   1.02244  -0.37884
  63   34789.7    287.4   0.220693185   2.08840  -1.35564   0.49345   0.08462
  64   34976.8    285.9   0.021901516   0.20614  -0.18128   0.41602   0.01436
  65   35103.6    284.9   0.002433674   0.02282  -0.12294   0.03204   0.08175
  66   35172.5    284.3   0.034108131   0.31925   0.41197   0.07675  -0.37900
  67   35264.8    283.6   0.096862801   0.90426  -0.47575  -0.75640   0.32525
  68   35410.5    282.4   0.070906267   0.65922  -0.28668  -0.28291   0.70498
  69   35564.3    281.2   0.001655005   0.01532   0.02900   0.01360  -0.11956
  70   35865.2    278.8   0.059370144   0.54497  -0.10252  -0.63482   0.36258
  71   36115.1    276.9   0.007093808   0.06466  -0.10536   0.22449   0.05629
  72   36220.5    276.1   0.036977360   0.33609   0.15071   0.46852  -0.30638
  73   36348.4    275.1   0.049425938   0.44766   0.32694   0.43629   0.38784
  74   36444.8    274.4   0.069775031   0.63029   0.35457  -0.46491   0.53706
  75   36596.7    273.2   0.161207278   1.45017   0.18498  -0.45058   1.10133
  76   36839.7    271.4   0.070168918   0.62705  -0.23052  -0.03181  -0.75690
  77   36954.3    270.6   0.006190253   0.05515   0.12399  -0.06497   0.18855
  78   37110.5    269.5   0.084843767   0.75266  -0.85514   0.08322  -0.12033
  79   37272.3    268.3   0.035102700   0.31005   0.39688   0.20981   0.32941
  80   37378.3    267.5   0.014938099   0.13157  -0.03733   0.04707   0.35771
  81   37730.5    265.0   0.320863526   2.79965  -0.41140   0.04765  -1.62115
  82   37925.0    263.7   0.060566353   0.52575   0.31224   0.14006  -0.63925
  83   38313.0    261.0   0.012533668   0.10770  -0.04193   0.27401  -0.17567
  84   38345.7    260.8   0.000713630   0.00613  -0.05147  -0.05510  -0.02103
  85   38446.9    260.1   0.314556185   2.69347  -0.34121   1.11170  -1.15810
  86   38476.9    259.9   0.022500085   0.19251  -0.28745  -0.21166   0.25512
  87   38850.4    257.4   0.007034064   0.05961  -0.12573  -0.13170   0.16265
  88   38877.9    257.2   0.008095274   0.06855   0.13335   0.16880  -0.14924
  89   38982.1    256.5   0.000945138   0.00798  -0.01841   0.04635  -0.07412
  90   39203.3    255.1   0.033084129   0.27783  -0.22095  -0.39571  -0.26912
  91   39302.6    254.4   0.195031799   1.63365  -0.53121  -1.12540  -0.29144
  92   39529.2    253.0   0.083790287   0.69783  -0.62263   0.50642  -0.23176
  93   39785.8    251.3   0.215746418   1.78522   0.18224   0.07688   1.32140
  94   39838.8    251.0   0.088478098   0.73115   0.85003  -0.08018  -0.04650
  95   40041.0    249.7   0.219806605   1.80722   0.60126   0.66326  -1.00289
  96   40157.4    249.0   0.107843495   0.88411   0.55680   0.28611  -0.70159

FINAL SINGLE POINT ENERGY     -3725.340944353677

DIPOLE MOMENT
-------------
                                X             Y             Z
Electronic contribution:      0.76161       8.22399      -8.70487
Nuclear contribution   :     -2.24641     -10.43825      10.54805
                        -----------------------------------------
Total Dipole Moment    :     -1.48480      -2.21426       1.84318
                        -----------------------------------------
Magnitude (a.u.)       :      3.24113
Magnitude (Debye)      :      8.23829

Rotational constants in cm-1:     0.001095     0.000470     0.000399
Rotational constants in MHz :    32.829542    14.093175    11.959023

                             ****ORCA TERMINATED NORMALLY****
TOTAL RUN TIME: 0 days 0 hours 9 minutes 42 seconds 116 msec
