                         Program Version 4.2.0 -  RELEASE  -
|  1> # ORCA input file
|  2> # SCF done       -185.968056726318          0.000666043993
|  3> ! CAM-B3LYP def2-SVP def2/J RIJCOSX Grid4 TightSCF
|  4> %maxcore 5000
|  5> %tddft
|  6>     Mode sTDDFT
|  7>     Ethresh 5.0
|  8>     maxcore 5000
|  9> end
| 10>
| 11> %pal
| 12>   nprocs 6
| 13>   end
| 14> * xyz 0 1
| 15>    C       -1.78471        -1.68562         7.75291
| 16>    C       -2.42727        -1.66174         8.98227
| 17>    C       -3.62599        -2.33150         9.17444
| 18>    C       -4.20993        -3.05729         8.14613
| 19>    C       -3.57336        -3.09534         6.91739
| 20>    C       -2.36210        -2.39861         6.71452
| 21>    C       -1.95106        -2.57222         5.32765
| 22>    C       -0.82721        -2.02902         4.75900
| 23>    C        0.13860        -1.28395         5.46915
| 24>    N        0.97002        -0.67321         5.97280
| 25>    C       -0.44865        -2.11349         3.40304
| 26>    N       -0.06645        -2.11440         2.31915
| 27>    C       -2.99000        -3.35118         4.66806
| 28>    C       -3.92392        -3.78402         5.68243
| 29>    C       -4.83028        -4.81611         5.59844
| 30>    C       -5.02026        -5.65698         4.48877
| 31>    N       -5.23683        -6.38320         3.62429
| 32>    C       -5.65780        -5.23294         6.66219
| 33>    N       -6.37041        -5.63045         7.46959
| 34>    C       -2.99097        -3.59888         3.31001
| 35>    C       -4.04408        -3.90104         2.44510
| 36>    S       -3.63360        -4.57753         0.88653
| 37>    C       -5.29186        -4.63037         0.39259
| 38>    C       -6.12185        -4.09905         1.37903
| 39>    C       -5.42471        -3.66855         2.52163
| 40>    S       -6.11289        -2.80083         3.88093
| 41>    C       -7.69136        -2.19577         3.18432
| 42>    C       -8.63923        -3.36894         3.22873
| 43>    O       -9.54221        -3.46033         4.01260
| 44>    C       -8.29317        -4.47329         2.24175
| 45>    O       -7.47031        -4.04941         1.17347
| 46>    C       -5.66789        -5.17194        -0.86009
| 47>    N       -4.74801        -5.80636        -1.66892
| 48>    C       -5.38497        -6.23342        -2.78868
| 49>    C       -5.21294        -6.90922        -3.98914
| 50>    C       -6.46977        -6.91451        -4.61426
| 51>    N       -7.38025        -6.25390        -3.81367
| 52>    C       -6.74720        -5.83666        -2.68883
| 53>    C       -6.92485        -5.17416        -1.48014
| 54>    C       -6.87211        -7.46814        -5.85224
| 55>    C       -6.08059        -8.23030        -6.65139
| 56>    C       -6.45100        -8.80555        -7.88721
| 57>    S       -5.40936       -10.04024        -8.53688
| 58>    C       -6.43923       -10.27935        -9.91632
| 59>    C       -7.52423        -9.40189        -9.87415
| 60>    C       -7.53709        -8.57848        -8.73175
| 61>    S       -8.71457        -7.31138        -8.40374
| 62>    C       -9.48271        -7.06280       -10.04628
| 63>    C      -10.45327        -8.20235       -10.21392
| 64>    O      -11.63771        -8.09097       -10.05074
| 65>    C       -9.79594        -9.53739       -10.52185
| 66>    O       -8.43094        -9.45147       -10.88149
| 67>    C       -6.17934       -11.20011       -10.95364
| 68>    C       -5.47343       -12.36803       -10.84317
| 69>    C       -4.81230       -13.06776       -11.93535
| 70>    C       -5.00287       -12.87866       -13.27826
| 71>    C       -5.93087       -11.98302       -13.84951
| 72>    N       -6.66629       -11.28135       -14.38385
| 73>    C       -4.31688       -13.59312       -14.28315
| 74>    N       -3.79655       -14.13590       -15.15040
| 75>    C       -3.88241       -14.01091       -11.32441
| 76>    C       -4.07100       -13.99972        -9.92327
| 77>    C       -3.29878       -14.79865        -9.09745
| 78>    C       -2.33426       -15.60976        -9.67669
| 79>    C       -2.15234       -15.62963       -11.05208
| 80>    C       -2.92188       -14.83471       -11.88921
| 81>    C       -5.16406       -13.09183        -9.61888
| 82>    C       -5.95356       -13.13445        -8.49752
| 83>    C       -5.65976       -13.90638        -7.35623
| 84>    N       -5.45699       -14.49737        -6.39343
| 85>    C       -7.20010       -12.48427        -8.40957
| 86>    N       -8.24247       -12.00573        -8.33984
| 87>    H       -0.85658        -1.15471         7.62173
| 88>    H       -1.98661        -1.10817         9.79724
| 89>    H       -4.11473        -2.28991        10.13581
| 90>    H       -5.14568        -3.56610         8.30833
| 91>    H       -2.03649        -3.50608         2.80727
| 92>    H       -7.52083        -1.82315         2.17597
| 93>    H       -8.02426        -1.39908         3.84764
| 94>    H       -9.21801        -4.84636         1.79213
| 95>    H       -7.83063        -5.30270         2.79639
| 96>    H       -3.78157        -5.94613        -1.42714
| 97>    H       -4.31484        -7.34058        -4.38045
| 98>    H       -8.35301        -6.13484        -4.03954
| 99>    H       -7.81290        -4.73437        -1.07809
|100>    H       -7.89725        -7.28527        -6.14066
|101>    H       -5.08262        -8.47725        -6.31726
|102>    H       -8.70513        -7.04077       -10.80719
|103>    H      -10.00358        -6.10874        -9.98601
|104>    H      -10.30283        -9.98505       -11.38187
|105>    H       -9.93247       -10.20975        -9.66283
|106>    H       -6.54939       -10.89898       -11.92485
|107>    H       -3.43047       -14.78503        -8.02748
|108>    H       -1.71798       -16.23276        -9.04672
|109>    H       -1.39846       -16.27155       -11.48153
|110>    H       -2.76383       -14.86302       -12.95473
|111> *
|112>
|113>                          ****END OF INPUT****

CARTESIAN COORDINATES (ANGSTROEM)
---------------------------------
  C     -1.784710   -1.685620    7.752910
  C     -2.427270   -1.661740    8.982270
  C     -3.625990   -2.331500    9.174440
  C     -4.209930   -3.057290    8.146130
  C     -3.573360   -3.095340    6.917390
  C     -2.362100   -2.398610    6.714520
  C     -1.951060   -2.572220    5.327650
  C     -0.827210   -2.029020    4.759000
  C      0.138600   -1.283950    5.469150
  N      0.970020   -0.673210    5.972800
  C     -0.448650   -2.113490    3.403040
  N     -0.066450   -2.114400    2.319150
  C     -2.990000   -3.351180    4.668060
  C     -3.923920   -3.784020    5.682430
  C     -4.830280   -4.816110    5.598440
  C     -5.020260   -5.656980    4.488770
  N     -5.236830   -6.383200    3.624290
  C     -5.657800   -5.232940    6.662190
  N     -6.370410   -5.630450    7.469590
  C     -2.990970   -3.598880    3.310010
  C     -4.044080   -3.901040    2.445100
  S     -3.633600   -4.577530    0.886530
  C     -5.291860   -4.630370    0.392590
  C     -6.121850   -4.099050    1.379030
  C     -5.424710   -3.668550    2.521630
  S     -6.112890   -2.800830    3.880930
  C     -7.691360   -2.195770    3.184320
  C     -8.639230   -3.368940    3.228730
  O     -9.542210   -3.460330    4.012600
  C     -8.293170   -4.473290    2.241750
  O     -7.470310   -4.049410    1.173470
  C     -5.667890   -5.171940   -0.860090
  N     -4.748010   -5.806360   -1.668920
  C     -5.384970   -6.233420   -2.788680
  C     -5.212940   -6.909220   -3.989140
  C     -6.469770   -6.914510   -4.614260
  N     -7.380250   -6.253900   -3.813670
  C     -6.747200   -5.836660   -2.688830
  C     -6.924850   -5.174160   -1.480140
  C     -6.872110   -7.468140   -5.852240
  C     -6.080590   -8.230300   -6.651390
  C     -6.451000   -8.805550   -7.887210
  S     -5.409360  -10.040240   -8.536880
  C     -6.439230  -10.279350   -9.916320
  C     -7.524230   -9.401890   -9.874150
  C     -7.537090   -8.578480   -8.731750
  S     -8.714570   -7.311380   -8.403740
  C     -9.482710   -7.062800  -10.046280
  C    -10.453270   -8.202350  -10.213920
  O    -11.637710   -8.090970  -10.050740
  C     -9.795940   -9.537390  -10.521850
  O     -8.430940   -9.451470  -10.881490
  C     -6.179340  -11.200110  -10.953640
  C     -5.473430  -12.368030  -10.843170
  C     -4.812300  -13.067760  -11.935350
  C     -5.002870  -12.878660  -13.278260
  C     -5.930870  -11.983020  -13.849510
  N     -6.666290  -11.281350  -14.383850
  C     -4.316880  -13.593120  -14.283150
  N     -3.796550  -14.135900  -15.150400
  C     -3.882410  -14.010910  -11.324410
  C     -4.071000  -13.999720   -9.923270
  C     -3.298780  -14.798650   -9.097450
  C     -2.334260  -15.609760   -9.676690
  C     -2.152340  -15.629630  -11.052080
  C     -2.921880  -14.834710  -11.889210
  C     -5.164060  -13.091830   -9.618880
  C     -5.953560  -13.134450   -8.497520
  C     -5.659760  -13.906380   -7.356230
  N     -5.456990  -14.497370   -6.393430
  C     -7.200100  -12.484270   -8.409570
  N     -8.242470  -12.005730   -8.339840
  H     -0.856580   -1.154710    7.621730
  H     -1.986610   -1.108170    9.797240
  H     -4.114730   -2.289910   10.135810
  H     -5.145680   -3.566100    8.308330
  H     -2.036490   -3.506080    2.807270
  H     -7.520830   -1.823150    2.175970
  H     -8.024260   -1.399080    3.847640
  H     -9.218010   -4.846360    1.792130
  H     -7.830630   -5.302700    2.796390
  H     -3.781570   -5.946130   -1.427140
  H     -4.314840   -7.340580   -4.380450
  H     -8.353010   -6.134840   -4.039540
  H     -7.812900   -4.734370   -1.078090
  H     -7.897250   -7.285270   -6.140660
  H     -5.082620   -8.477250   -6.317260
  H     -8.705130   -7.040770  -10.807190
  H    -10.003580   -6.108740   -9.986010
  H    -10.302830   -9.985050  -11.381870
  H     -9.932470  -10.209750   -9.662830
  H     -6.549390  -10.898980  -11.924850
  H     -3.430470  -14.785030   -8.027480
  H     -1.717980  -16.232760   -9.046720
  H     -1.398460  -16.271550  -11.481530
  H     -2.763830  -14.863020  -12.954730

 Total Charge           Charge          ....    0
 Multiplicity           Mult            ....    1
 Number of Electrons    NEL             ....  514
 Basis Dimension        Dim             .... 1144

ORBITAL ENERGIES
----------------

  NO   OCC          E(Eh)            E(eV)
   0   2.0000     -88.984859     -2421.4011
   1   2.0000     -88.979611     -2421.2583
   2   2.0000     -88.978154     -2421.2187
   3   2.0000     -88.963887     -2420.8304
   4   2.0000     -19.279538      -524.6229
   5   2.0000     -19.278184      -524.5861
   6   2.0000     -19.232880      -523.3533
   7   2.0000     -19.225692      -523.1577
   8   2.0000     -14.478786      -393.9878
   9   2.0000     -14.477853      -393.9624
  10   2.0000     -14.425077      -392.5263
  11   2.0000     -14.423773      -392.4908
  12   2.0000     -14.423135      -392.4735
  13   2.0000     -14.422491      -392.4559
  14   2.0000     -14.422228      -392.4488
  15   2.0000     -14.419676      -392.3793
  16   2.0000     -14.418469      -392.3465
  17   2.0000     -14.417610      -392.3231
  18   2.0000     -10.384201      -282.5685
  19   2.0000     -10.378162      -282.4042
  20   2.0000     -10.372786      -282.2578
  21   2.0000     -10.364843      -282.0417
  22   2.0000     -10.351278      -281.6726
  23   2.0000     -10.351175      -281.6698
  24   2.0000     -10.349816      -281.6328
  25   2.0000     -10.348822      -281.6058
  26   2.0000     -10.348359      -281.5932
  27   2.0000     -10.348311      -281.5919
  28   2.0000     -10.347535      -281.5707
  29   2.0000     -10.347208      -281.5618
  30   2.0000     -10.346230      -281.5352
  31   2.0000     -10.345495      -281.5152
  32   2.0000     -10.343255      -281.4543
  33   2.0000     -10.341114      -281.3960
  34   2.0000     -10.338729      -281.3311
  35   2.0000     -10.336169      -281.2614
  36   2.0000     -10.334211      -281.2082
  37   2.0000     -10.329734      -281.0864
  38   2.0000     -10.329571      -281.0819
  39   2.0000     -10.328775      -281.0602
  40   2.0000     -10.327890      -281.0362
  41   2.0000     -10.327562      -281.0273
  42   2.0000     -10.327205      -281.0175
  43   2.0000     -10.326521      -280.9989
  44   2.0000     -10.326022      -280.9853
  45   2.0000     -10.324592      -280.9464
  46   2.0000     -10.324560      -280.9456
  47   2.0000     -10.322388      -280.8865
  48   2.0000     -10.322064      -280.8776
  49   2.0000     -10.321471      -280.8615
  50   2.0000     -10.321125      -280.8521
  51   2.0000     -10.320712      -280.8409
  52   2.0000     -10.317391      -280.7505
  53   2.0000     -10.316930      -280.7379
  54   2.0000     -10.316285      -280.7204
  55   2.0000     -10.313759      -280.6517
  56   2.0000     -10.313479      -280.6440
  57   2.0000     -10.313085      -280.6333
  58   2.0000     -10.308960      -280.5211
  59   2.0000     -10.308713      -280.5144
  60   2.0000     -10.308450      -280.5072
  61   2.0000     -10.302882      -280.3557
  62   2.0000     -10.301868      -280.3281
  63   2.0000     -10.301456      -280.3169
  64   2.0000     -10.300826      -280.2997
  65   2.0000     -10.299661      -280.2680
  66   2.0000     -10.297894      -280.2199
  67   2.0000     -10.297246      -280.2023
  68   2.0000     -10.296709      -280.1877
  69   2.0000     -10.295650      -280.1589
  70   2.0000     -10.286501      -279.9099
  71   2.0000     -10.285037      -279.8701
  72   2.0000      -8.080610      -219.8846
  73   2.0000      -8.074734      -219.7247
  74   2.0000      -8.071653      -219.6409
  75   2.0000      -8.058088      -219.2717
  76   2.0000      -6.050063      -164.6306
  77   2.0000      -6.046187      -164.5251
  78   2.0000      -6.044169      -164.4702
  79   2.0000      -6.042018      -164.4117
  80   2.0000      -6.041920      -164.4090
  81   2.0000      -6.040247      -164.3635
  82   2.0000      -6.037760      -164.2958
  83   2.0000      -6.036296      -164.2560
  84   2.0000      -6.031794      -164.1335
  85   2.0000      -6.028625      -164.0472
  86   2.0000      -6.024529      -163.9358
  87   2.0000      -6.017649      -163.7486
  88   2.0000      -1.186323       -32.2815
  89   2.0000      -1.186220       -32.2787
  90   2.0000      -1.151920       -31.3453
  91   2.0000      -1.144975       -31.1564
  92   2.0000      -1.111718       -30.2514
  93   2.0000      -1.076121       -29.2827
  94   2.0000      -1.038224       -28.2515
  95   2.0000      -1.036462       -28.2036
  96   2.0000      -1.021263       -27.7900
  97   2.0000      -1.020340       -27.7649
  98   2.0000      -1.015594       -27.6357
  99   2.0000      -1.013472       -27.5780
 100   2.0000      -1.008560       -27.4443
 101   2.0000      -1.007921       -27.4269
 102   2.0000      -1.000935       -27.2368
 103   2.0000      -0.999278       -27.1917
 104   2.0000      -0.998919       -27.1820
 105   2.0000      -0.997857       -27.1531
 106   2.0000      -0.961480       -26.1632
 107   2.0000      -0.957786       -26.0627
 108   2.0000      -0.948300       -25.8046
 109   2.0000      -0.941880       -25.6299
 110   2.0000      -0.939720       -25.5711
 111   2.0000      -0.937959       -25.5232
 112   2.0000      -0.924694       -25.1622
 113   2.0000      -0.914201       -24.8767
 114   2.0000      -0.901528       -24.5318
 115   2.0000      -0.894523       -24.3412
 116   2.0000      -0.893082       -24.3020
 117   2.0000      -0.891027       -24.2461
 118   2.0000      -0.886866       -24.1329
 119   2.0000      -0.878273       -23.8990
 120   2.0000      -0.877724       -23.8841
 121   2.0000      -0.867152       -23.5964
 122   2.0000      -0.863521       -23.4976
 123   2.0000      -0.857766       -23.3410
 124   2.0000      -0.842925       -22.9372
 125   2.0000      -0.821274       -22.3480
 126   2.0000      -0.818889       -22.2831
 127   2.0000      -0.808657       -22.0047
 128   2.0000      -0.794433       -21.6176
 129   2.0000      -0.792733       -21.5714
 130   2.0000      -0.791931       -21.5495
 131   2.0000      -0.790375       -21.5072
 132   2.0000      -0.781062       -21.2538
 133   2.0000      -0.755453       -20.5569
 134   2.0000      -0.740754       -20.1569
 135   2.0000      -0.719086       -19.5673
 136   2.0000      -0.717256       -19.5175
 137   2.0000      -0.715567       -19.4716
 138   2.0000      -0.714725       -19.4487
 139   2.0000      -0.712831       -19.3971
 140   2.0000      -0.712031       -19.3753
 141   2.0000      -0.709109       -19.2958
 142   2.0000      -0.698921       -19.0186
 143   2.0000      -0.694165       -18.8892
 144   2.0000      -0.680620       -18.5206
 145   2.0000      -0.677145       -18.4261
 146   2.0000      -0.670914       -18.2565
 147   2.0000      -0.667894       -18.1743
 148   2.0000      -0.664909       -18.0931
 149   2.0000      -0.664121       -18.0717
 150   2.0000      -0.660454       -17.9719
 151   2.0000      -0.657104       -17.8807
 152   2.0000      -0.648895       -17.6573
 153   2.0000      -0.638984       -17.3876
 154   2.0000      -0.636021       -17.3070
 155   2.0000      -0.626952       -17.0602
 156   2.0000      -0.621968       -16.9246
 157   2.0000      -0.609797       -16.5934
 158   2.0000      -0.609188       -16.5768
 159   2.0000      -0.604469       -16.4484
 160   2.0000      -0.603683       -16.4271
 161   2.0000      -0.593361       -16.1462
 162   2.0000      -0.589482       -16.0406
 163   2.0000      -0.586881       -15.9699
 164   2.0000      -0.583451       -15.8765
 165   2.0000      -0.582416       -15.8483
 166   2.0000      -0.574048       -15.6207
 167   2.0000      -0.570909       -15.5352
 168   2.0000      -0.565341       -15.3837
 169   2.0000      -0.560208       -15.2440
 170   2.0000      -0.558452       -15.1963
 171   2.0000      -0.558229       -15.1902
 172   2.0000      -0.549557       -14.9542
 173   2.0000      -0.549373       -14.9492
 174   2.0000      -0.545531       -14.8447
 175   2.0000      -0.543029       -14.7766
 176   2.0000      -0.542003       -14.7486
 177   2.0000      -0.540038       -14.6952
 178   2.0000      -0.539372       -14.6770
 179   2.0000      -0.537043       -14.6137
 180   2.0000      -0.535468       -14.5708
 181   2.0000      -0.532046       -14.4777
 182   2.0000      -0.529789       -14.4163
 183   2.0000      -0.527691       -14.3592
 184   2.0000      -0.526841       -14.3361
 185   2.0000      -0.520459       -14.1624
 186   2.0000      -0.517635       -14.0856
 187   2.0000      -0.515786       -14.0353
 188   2.0000      -0.512833       -13.9549
 189   2.0000      -0.510193       -13.8831
 190   2.0000      -0.508792       -13.8449
 191   2.0000      -0.505527       -13.7561
 192   2.0000      -0.503826       -13.7098
 193   2.0000      -0.502269       -13.6674
 194   2.0000      -0.494274       -13.4499
 195   2.0000      -0.491936       -13.3863
 196   2.0000      -0.489940       -13.3319
 197   2.0000      -0.482835       -13.1386
 198   2.0000      -0.482137       -13.1196
 199   2.0000      -0.480771       -13.0824
 200   2.0000      -0.477516       -12.9939
 201   2.0000      -0.472540       -12.8585
 202   2.0000      -0.468860       -12.7583
 203   2.0000      -0.467111       -12.7107
 204   2.0000      -0.464196       -12.6314
 205   2.0000      -0.462376       -12.5819
 206   2.0000      -0.461500       -12.5580
 207   2.0000      -0.458570       -12.4783
 208   2.0000      -0.457729       -12.4554
 209   2.0000      -0.456913       -12.4332
 210   2.0000      -0.455379       -12.3915
 211   2.0000      -0.454101       -12.3567
 212   2.0000      -0.453917       -12.3517
 213   2.0000      -0.451224       -12.2784
 214   2.0000      -0.448524       -12.2050
 215   2.0000      -0.447939       -12.1890
 216   2.0000      -0.447041       -12.1646
 217   2.0000      -0.446307       -12.1446
 218   2.0000      -0.442788       -12.0489
 219   2.0000      -0.440518       -11.9871
 220   2.0000      -0.437272       -11.8988
 221   2.0000      -0.437035       -11.8923
 222   2.0000      -0.435189       -11.8421
 223   2.0000      -0.432993       -11.7823
 224   2.0000      -0.432033       -11.7562
 225   2.0000      -0.431974       -11.7546
 226   2.0000      -0.430754       -11.7214
 227   2.0000      -0.430361       -11.7107
 228   2.0000      -0.429481       -11.6868
 229   2.0000      -0.427039       -11.6203
 230   2.0000      -0.426067       -11.5939
 231   2.0000      -0.417352       -11.3567
 232   2.0000      -0.416541       -11.3347
 233   2.0000      -0.413684       -11.2569
 234   2.0000      -0.412731       -11.2310
 235   2.0000      -0.411958       -11.2100
 236   2.0000      -0.409672       -11.1477
 237   2.0000      -0.399753       -10.8778
 238   2.0000      -0.396552       -10.7907
 239   2.0000      -0.386438       -10.5155
 240   2.0000      -0.385927       -10.5016
 241   2.0000      -0.381826       -10.3900
 242   2.0000      -0.376479       -10.2445
 243   2.0000      -0.367270        -9.9939
 244   2.0000      -0.352706        -9.5976
 245   2.0000      -0.351097        -9.5538
 246   2.0000      -0.345422        -9.3994
 247   2.0000      -0.335216        -9.1217
 248   2.0000      -0.331894        -9.0313
 249   2.0000      -0.326904        -8.8955
 250   2.0000      -0.315416        -8.5829
 251   2.0000      -0.309835        -8.4310
 252   2.0000      -0.303574        -8.2607
 253   2.0000      -0.301098        -8.1933
 254   2.0000      -0.298291        -8.1169
 255   2.0000      -0.278444        -7.5769
 256   2.0000      -0.236278        -6.4294
 257   0.0000      -0.111183        -3.0254
 258   0.0000      -0.096433        -2.6241
 259   0.0000      -0.089024        -2.4225
 260   0.0000      -0.087595        -2.3836
 261   0.0000      -0.047432        -1.2907

MULLIKEN ATOMIC CHARGES
-----------------------
   0 C :   -0.035589
   1 C :    0.046040
   2 C :    0.048240
   3 C :   -0.037677
   4 C :   -0.006695
   5 C :    0.009805
   6 C :    0.309538
   7 C :   -0.357840
   8 C :   -0.190086
   9 N :    0.157935
  10 C :   -0.190298
  11 N :    0.154459
  12 C :   -0.075276
  13 C :    0.270979
  14 C :   -0.340846
  15 C :   -0.182916
  16 N :    0.150010
  17 C :   -0.192404
  18 N :    0.162326
  19 C :    0.041934
  20 C :   -0.151264
  21 S :    0.146914
  22 C :   -0.040802
  23 C :    0.134247
  24 C :   -0.040092
  25 S :    0.054693
  26 C :   -0.031310
  27 C :   -0.011492
  28 O :   -0.148736
  29 C :    0.237772
  30 O :   -0.336666
  31 C :    0.058539
  32 N :   -0.046745
  33 C :    0.125791
  34 C :   -0.162326
  35 C :    0.089176
  36 N :   -0.027421
  37 C :    0.125767
  38 C :   -0.156732
  39 C :    0.013881
  40 C :    0.021038
  41 C :   -0.111225
  42 S :    0.163622
  43 C :   -0.225306
  44 C :    0.230013
  45 C :   -0.025793
  46 S :   -0.000114
  47 C :   -0.032977
  48 C :   -0.008205
  49 O :   -0.161961
  50 C :    0.232260
  51 O :   -0.314259
  52 C :    0.056158
  53 C :   -0.086189
  54 C :    0.303030
  55 C :   -0.344776
  56 C :   -0.184539
  57 N :    0.154792
  58 C :   -0.190386
  59 N :    0.161438
  60 C :    0.012037
  61 C :    0.007550
  62 C :   -0.033592
  63 C :    0.047748
  64 C :    0.046080
  65 C :   -0.034934
  66 C :    0.212698
  67 C :   -0.332929
  68 C :   -0.179859
  69 N :    0.158804
  70 C :   -0.161602
  71 N :    0.160967
  72 H :    0.003242
  73 H :    0.001602
  74 H :    0.002385
  75 H :    0.003430
  76 H :    0.022791
  77 H :    0.090012
  78 H :    0.074998
  79 H :    0.053831
  80 H :    0.073901
  81 H :    0.132470
  82 H :   -0.025593
  83 H :    0.129643
  84 H :   -0.023860
  85 H :   -0.003928
  86 H :   -0.011901
  87 H :    0.089864
  88 H :    0.070533
  89 H :    0.065325
  90 H :    0.078537
  91 H :    0.035284
  92 H :    0.007125
  93 H :    0.004699
  94 H :    0.004183
  95 H :    0.007004
Sum of atomic charges:   -0.0000000

LOEWDIN ATOMIC CHARGES
----------------------
   0 C :    0.004301
   1 C :   -0.001857
   2 C :    0.002967
   3 C :   -0.000787
   4 C :   -0.009413
   5 C :   -0.016445
   6 C :    0.079112
   7 C :   -0.136514
   8 C :   -0.018701
   9 N :   -0.049314
  10 C :   -0.023533
  11 N :   -0.050892
  12 C :   -0.076180
  13 C :    0.047963
  14 C :   -0.151143
  15 C :   -0.018755
  16 N :   -0.059888
  17 C :   -0.020804
  18 N :   -0.049319
  19 C :    0.020639
  20 C :   -0.194830
  21 S :    0.453341
  22 C :   -0.153615
  23 C :   -0.013759
  24 C :   -0.181705
  25 S :    0.403636
  26 C :   -0.151685
  27 C :    0.040700
  28 O :   -0.114988
  29 C :    0.057048
  30 O :   -0.103757
  31 C :   -0.016551
  32 N :    0.067758
  33 C :   -0.005894
  34 C :   -0.081696
  35 C :    0.002374
  36 N :    0.076593
  37 C :   -0.017099
  38 C :   -0.068820
  39 C :   -0.014102
  40 C :   -0.057474
  41 C :   -0.146897
  42 S :    0.466487
  43 C :   -0.217440
  44 C :    0.038166
  45 C :   -0.224299
  46 S :    0.341283
  47 C :   -0.150326
  48 C :    0.040740
  49 O :   -0.124253
  50 C :    0.059671
  51 O :   -0.092606
  52 C :    0.050725
  53 C :   -0.070589
  54 C :    0.078085
  55 C :   -0.134560
  56 C :   -0.021078
  57 N :   -0.045186
  58 C :   -0.019488
  59 N :   -0.047851
  60 C :   -0.013365
  61 C :   -0.010543
  62 C :    0.000171
  63 C :    0.003841
  64 C :    0.000713
  65 C :    0.004856
  66 C :    0.060198
  67 C :   -0.140636
  68 C :   -0.020985
  69 N :   -0.047443
  70 C :   -0.015711
  71 N :   -0.058488
  72 H :    0.040789
  73 H :    0.036674
  74 H :    0.036932
  75 H :    0.040550
  76 H :    0.045132
  77 H :    0.042649
  78 H :    0.044857
  79 H :    0.046506
  80 H :    0.048275
  81 H :    0.085248
  82 H :    0.026989
  83 H :    0.093773
  84 H :    0.028183
  85 H :    0.017690
  86 H :    0.030535
  87 H :    0.040956
  88 H :    0.043225
  89 H :    0.052631
  90 H :    0.049135
  91 H :    0.051476
  92 H :    0.040883
  93 H :    0.037520
  94 H :    0.037585
  95 H :    0.041704

  Mayer bond orders larger than 0.100000
B(  0-C ,  1-C ) :   1.3652 B(  0-C ,  5-C ) :   1.3815 B(  0-C , 72-H ) :   0.9830
B(  1-C ,  2-C ) :   1.3821 B(  1-C , 73-H ) :   0.9863 B(  2-C ,  3-C ) :   1.3590
B(  2-C , 74-H ) :   0.9865 B(  3-C ,  4-C ) :   1.3877 B(  3-C , 75-H ) :   0.9861
B(  4-C ,  5-C ) :   1.3159 B(  4-C , 13-C ) :   1.0013 B(  5-C ,  6-C ) :   0.9865
B(  6-C ,  7-C ) :   1.6104 B(  6-C , 12-C ) :   1.0978 B(  7-C ,  8-C ) :   1.1533
B(  7-C , 10-C ) :   1.1388 B(  8-C ,  9-N ) :   2.9725 B( 10-C , 11-N ) :   2.9655
B( 12-C , 13-C ) :   1.0772 B( 12-C , 19-C ) :   1.4872 B( 13-C , 14-C ) :   1.5692
B( 14-C , 15-C ) :   1.1802 B( 14-C , 17-C ) :   1.1474 B( 15-C , 16-N ) :   2.9459
B( 17-C , 18-N ) :   2.9876 B( 19-C , 20-C ) :   1.3024 B( 19-C , 76-H ) :   0.9039
B( 20-C , 21-S ) :   1.0906 B( 20-C , 22-C ) :   0.1086 B( 20-C , 24-C ) :   1.3818
B( 21-S , 22-C ) :   1.1142 B( 22-C , 23-C ) :   1.4902 B( 22-C , 31-C ) :   1.1157
B( 23-C , 24-C ) :   1.2861 B( 23-C , 30-O ) :   1.1187 B( 24-C , 25-S ) :   1.0568
B( 25-S , 26-C ) :   0.9787 B( 26-C , 27-C ) :   0.9648 B( 26-C , 77-H ) :   0.9301
B( 26-C , 78-H ) :   0.9382 B( 27-C , 28-O ) :   2.2259 B( 27-C , 29-C ) :   0.9379
B( 29-C , 30-O ) :   0.9381 B( 29-C , 79-H ) :   0.9355 B( 29-C , 80-H ) :   0.9201
B( 31-C , 32-N ) :   1.1891 B( 31-C , 38-C ) :   1.4056 B( 32-N , 33-C ) :   1.1706
B( 32-N , 81-H ) :   0.9279 B( 33-C , 34-C ) :   1.2790 B( 33-C , 37-C ) :   1.2916
B( 34-C , 35-C ) :   1.3817 B( 34-C , 82-H ) :   1.0305 B( 35-C , 36-N ) :   1.1778
B( 35-C , 39-C ) :   1.1494 B( 36-N , 37-C ) :   1.1717 B( 36-N , 83-H ) :   0.9328
B( 37-C , 38-C ) :   1.2315 B( 38-C , 84-H ) :   1.0409 B( 39-C , 40-C ) :   1.6301
B( 39-C , 85-H ) :   0.9436 B( 40-C , 41-C ) :   1.1773 B( 40-C , 86-H ) :   0.9534
B( 41-C , 42-S ) :   1.1315 B( 41-C , 43-C ) :   0.1006 B( 41-C , 45-C ) :   1.4541
B( 42-S , 43-C ) :   1.0895 B( 43-C , 44-C ) :   1.4177 B( 43-C , 52-C ) :   1.1899
B( 44-C , 45-C ) :   1.2825 B( 44-C , 51-O ) :   1.1697 B( 45-C , 46-S ) :   0.9956
B( 46-S , 47-C ) :   0.9880 B( 47-C , 48-C ) :   0.9637 B( 47-C , 87-H ) :   0.9333
B( 47-C , 88-H ) :   0.9391 B( 48-C , 49-O ) :   2.2127 B( 48-C , 50-C ) :   0.9344
B( 50-C , 51-O ) :   0.9314 B( 50-C , 89-H ) :   0.9344 B( 50-C , 90-H ) :   0.9215
B( 52-C , 53-C ) :   1.5555 B( 52-C , 91-H ) :   0.9332 B( 53-C , 54-C ) :   1.0629
B( 53-C , 66-C ) :   1.0375 B( 54-C , 55-C ) :   1.6375 B( 54-C , 60-C ) :   0.9989
B( 55-C , 56-C ) :   1.1394 B( 55-C , 58-C ) :   1.1468 B( 56-C , 57-N ) :   2.9673
B( 58-C , 59-N ) :   2.9781 B( 60-C , 61-C ) :   1.3133 B( 60-C , 65-C ) :   1.3865
B( 61-C , 62-C ) :   1.3843 B( 61-C , 66-C ) :   1.0136 B( 62-C , 63-C ) :   1.3630
B( 62-C , 92-H ) :   0.9867 B( 63-C , 64-C ) :   1.3803 B( 63-C , 93-H ) :   0.9865
B( 64-C , 65-C ) :   1.3688 B( 64-C , 94-H ) :   0.9860 B( 65-C , 95-H ) :   0.9830
B( 66-C , 67-C ) :   1.6336 B( 67-C , 68-C ) :   1.1433 B( 67-C , 70-C ) :   1.1586
B( 68-C , 69-N ) :   2.9926 B( 70-C , 71-N ) :   2.9890

-----------------------------------------------------------------------------
         ABSORPTION SPECTRUM VIA TRANSITION ELECTRIC DIPOLE MOMENTS
-----------------------------------------------------------------------------
State   Energy  Wavelength   fosc         T2         TX        TY        TZ
        (cm-1)    (nm)                  (au**2)     (au)      (au)      (au)
-----------------------------------------------------------------------------
   0   12917.0    774.2   1.923286735  49.01830   1.01765   3.52467   5.96317
   1   17096.6    584.9   0.231341038   4.45471   1.34501  -1.03756   1.25265
   2   19307.2    517.9   0.084306052   1.43752   0.92252   0.76572   0.01258
   3   19480.6    513.3   0.118075438   1.99541  -0.54638   0.29873   1.26793
   4   22654.5    441.4   0.029331394   0.42624  -0.06848   0.20413  -0.61634
   5   24343.6    410.8   0.138980102   1.87950   0.88188  -1.03214  -0.19098
   6   24897.5    401.6   0.144127803   1.90576   1.05007  -0.67621   0.58809
   7   25570.2    391.1   0.043357157   0.55822   0.52420  -0.16677  -0.50559
   8   27097.7    369.0   0.442387336   5.37460   0.68138   0.35490   2.18732
   9   27327.5    365.9   0.038624996   0.46531  -0.47476  -0.45977   0.16889
  10   27724.6    360.7   0.007902570   0.09384   0.01091  -0.15590  -0.26347
  11   28174.3    354.9   0.153874857   1.79800   0.75362  -0.84003  -0.72415
  12   28600.9    349.6   0.155619489   1.79126   1.18916   0.33079  -0.51744
  13   28742.9    347.9   0.105280823   1.20585  -0.77324  -0.24744   0.73941
  14   29093.4    343.7   0.197149717   2.23088  -0.92687  -0.88883  -0.76274
  15   29446.6    339.6   0.075834913   0.84783   0.35670  -0.48317  -0.69796
  16   31433.7    318.1   0.028521280   0.29871  -0.47904  -0.26151  -0.02903
  17   31826.7    314.2   0.092173998   0.95344   0.16855   0.17386  -0.94594
  18   32025.0    312.3   0.002789466   0.02868  -0.16101   0.03671  -0.03745
  19   32116.3    311.4   0.010751800   0.11021   0.23133  -0.21020  -0.11187
  20   32980.8    303.2   0.078978412   0.78836   0.36122   0.80011  -0.13307
  21   33047.7    302.6   0.130944498   1.30443  -1.05997  -0.36673   0.21542
  22   33324.8    300.1   0.459770649   4.54202   1.21077   0.88426  -1.51464
  23   33479.0    298.7   0.305189566   3.00105  -0.44533  -0.04482   1.67354
  24   34048.6    293.7   0.087552856   0.84654  -0.65464  -0.41684  -0.49420
  25   34092.3    293.3   0.169815669   1.63983  -0.27866  -0.19249  -1.23496
  26   34512.9    289.7   0.155632470   1.48455   0.06222   1.06754   0.58397
  27   34605.2    289.0   0.262273667   2.49510  -1.30675   0.87985  -0.11564
  28   35052.0    285.3   0.008820062   0.08284   0.09351  -0.17877  -0.20527
  29   35410.1    282.4   0.018647951   0.17337  -0.08795   0.24656  -0.32380
  30   35864.8    278.8   0.001100581   0.01010   0.06136   0.04019   0.06872
  31   36111.0    276.9   0.033720636   0.30742  -0.09390  -0.33522  -0.43154
  32   36140.5    276.7   0.000212194   0.00193  -0.03389   0.02600   0.01043
  33   36614.0    273.1   0.007043285   0.06333   0.20866  -0.02610   0.13824
  34   36870.3    271.2   0.002155270   0.01924   0.00836  -0.00717  -0.13829
  35   37326.8    267.9   0.001609357   0.01419  -0.10128  -0.05235  -0.03460
  36   37931.6    263.6   0.166933900   1.44884   0.86985  -0.69436   0.45834
  37   38157.3    262.1   0.002520330   0.02174   0.06923  -0.07681   0.10513
  38   38380.0    260.6   0.091340754   0.78349   0.50736  -0.33748   0.64202
  39   39173.6    255.3   0.131312063   1.10354   0.61454  -0.72337  -0.45012
  40   39636.8    252.3   0.013400897   0.11130   0.18245  -0.14746   0.23722
  41   39920.0    250.5   0.003242202   0.02674   0.03371  -0.14996  -0.05579
  42   40219.4    248.6   0.013891303   0.11371  -0.06721  -0.03939   0.32808
  43   40272.5    248.3   0.003697225   0.03022   0.16861  -0.03998   0.01404

FINAL SINGLE POINT ENERGY     -4508.966679013442

DIPOLE MOMENT
-------------
                                X             Y             Z
Electronic contribution:      8.50059      -2.06751      -1.81654
Nuclear contribution   :     -8.44914       3.59310       2.22622
                        -----------------------------------------
Total Dipole Moment    :      0.05145       1.52559       0.40968
                        -----------------------------------------
Magnitude (a.u.)       :      1.58047
Magnitude (Debye)      :      4.01725

Rotational constants in cm-1:     0.001885     0.000242     0.000229
Rotational constants in MHz :    56.521496     7.262787     6.865283

                             ****ORCA TERMINATED NORMALLY****
TOTAL RUN TIME: 0 days 0 hours 10 minutes 20 seconds 944 msec
