                         Program Version 4.2.0 -  RELEASE  -
|  1> # ORCA input file
|  2> # SCF done       -180.769290353413          0.000737462534
|  3> ! CAM-B3LYP def2-SVP def2/J RIJCOSX Grid4 TightSCF
|  4> %maxcore 5000
|  5> %tddft
|  6>     Mode sTDDFT
|  7>     Ethresh 5.0
|  8>     maxcore 5000
|  9> end
| 10>
| 11> %pal
| 12>   nprocs 6
| 13>   end
| 14> * xyz 0 1
| 15>    C        1.32614        -0.92493         0.66264
| 16>    C        1.63056        -0.84871         2.01336
| 17>    C        0.72208        -1.26250         2.97822
| 18>    C       -0.52207        -1.75898         2.62030
| 19>    C       -0.83821        -1.84022         1.27376
| 20>    C        0.08905        -1.42670         0.28800
| 21>    C       -0.49178        -1.63923        -1.03033
| 22>    C        0.03230        -1.23675        -2.22594
| 23>    C        1.25151        -0.53493        -2.35588
| 24>    N        2.23159         0.03599        -2.52762
| 25>    C       -0.57753        -1.42056        -3.48738
| 26>    N       -1.01052        -1.53053        -4.54428
| 27>    C       -1.74489        -2.36268        -0.81865
| 28>    C       -2.05335        -2.27593         0.60686
| 29>    C       -3.30152        -2.35601         1.16142
| 30>    C       -4.49438        -2.44874         0.41131
| 31>    N       -5.49153        -2.43776        -0.15648
| 32>    C       -3.55003        -2.22865         2.54543
| 33>    N       -3.79224        -2.14590         3.66327
| 34>    C       -2.40963        -3.08894        -1.75673
| 35>    C       -3.40471        -4.06948        -1.49477
| 36>    C       -3.48163        -4.98798        -0.34515
| 37>    N       -4.49854        -5.79267        -0.37687
| 38>    C       -5.18721        -5.48019        -1.51309
| 39>    C       -4.48266        -4.43392        -2.26466
| 40>    C       -5.25060        -4.04173        -3.42216
| 41>    S       -4.91308        -2.79311        -4.43467
| 42>    C       -6.39558        -4.90642        -3.38940
| 43>    C       -6.35455        -5.75181        -2.17820
| 44>    N       -7.50138        -6.47936        -2.06210
| 45>    C       -8.24178        -6.13915        -3.07324
| 46>    C       -7.61684        -5.16042        -3.97283
| 47>    C       -8.17115        -4.67810        -5.18273
| 48>    S       -9.87565        -4.46677        -5.40931
| 49>    C       -9.63624        -3.88480        -7.02856
| 50>    C       -8.28692        -3.83941        -7.36414
| 51>    C       -7.45819        -4.31141        -6.32172
| 52>    O       -6.12112        -4.45990        -6.34312
| 53>    S       -5.33632        -4.54086        -7.81076
| 54>    C       -5.95363        -2.97235        -8.46054
| 55>    S       -7.73219        -3.10242        -8.84709
| 56>    C      -10.75542        -3.56639        -7.83671
| 57>    C      -11.97641        -2.90335        -7.36924
| 58>    N      -12.89391        -2.77408        -8.27872
| 59>    C      -12.40010        -3.37453        -9.39543
| 60>    C      -11.01093        -3.83439        -9.16546
| 61>    C      -10.57710        -4.64174       -10.26584
| 62>    S       -9.09737        -5.30700       -10.55771
| 63>    C      -11.75835        -4.78158       -11.08297
| 64>    C      -12.83153        -3.89453       -10.58575
| 65>    N      -13.95553        -4.04595       -11.33469
| 66>    C      -13.69301        -4.98186       -12.19399
| 67>    C      -12.34582        -5.55781       -12.05249
| 68>    C      -11.86231        -6.67630       -12.79547
| 69>    C      -11.01262        -7.63721       -12.35274
| 70>    C      -10.26169        -8.55270       -13.21547
| 71>    C      -10.59711        -8.94689       -14.47875
| 72>    C      -11.78408        -8.57036       -15.14558
| 73>    N      -12.73570        -8.30523       -15.72922
| 74>    C       -9.82112        -9.82789       -15.26408
| 75>    N       -9.23627       -10.53956       -15.94750
| 76>    C       -9.09212        -8.96392       -12.45427
| 77>    C       -9.21529        -8.49159       -11.12620
| 78>    C       -8.22369        -8.74086       -10.19142
| 79>    C       -7.10675        -9.45809       -10.58956
| 80>    C       -6.98528        -9.92705       -11.89126
| 81>    C       -7.97278        -9.68870       -12.83463
| 82>    C      -10.49103        -7.81086       -10.99500
| 83>    C      -11.17708        -7.58764        -9.83182
| 84>    C      -10.59272        -7.62585        -8.54994
| 85>    N      -10.15528        -7.55067        -7.49085
| 86>    C      -12.54384        -7.24328        -9.79083
| 87>    N      -13.66721        -7.02383        -9.70568
| 88>    H        2.04585        -0.60401        -0.07236
| 89>    H        2.59217        -0.46394         2.31623
| 90>    H        0.98572        -1.19896         4.02265
| 91>    H       -1.21755        -2.08355         3.37727
| 92>    H       -2.14992        -2.96133        -2.80002
| 93>    H       -2.75050        -5.05948         0.44189
| 94>    H       -9.21343        -6.57533        -3.22752
| 95>    H       -5.78007        -2.18906        -7.72459
| 96>    H       -5.44218        -2.76172        -9.39468
| 97>    H      -12.11936        -2.51990        -6.37400
| 98>    H      -14.42732        -5.30636       -12.90940
| 99>    H      -12.20131        -6.71809       -13.82311
|100>    H       -8.30764        -8.37214        -9.18191
|101>    H       -6.31993        -9.65246        -9.87687
|102>    H       -6.10652       -10.48465       -12.17697
|103>    H       -7.86018       -10.05637       -13.84150
|104> *
|105>
|106>                          ****END OF INPUT****

CARTESIAN COORDINATES (ANGSTROEM)
---------------------------------
  C      1.326140   -0.924930    0.662640
  C      1.630560   -0.848710    2.013360
  C      0.722080   -1.262500    2.978220
  C     -0.522070   -1.758980    2.620300
  C     -0.838210   -1.840220    1.273760
  C      0.089050   -1.426700    0.288000
  C     -0.491780   -1.639230   -1.030330
  C      0.032300   -1.236750   -2.225940
  C      1.251510   -0.534930   -2.355880
  N      2.231590    0.035990   -2.527620
  C     -0.577530   -1.420560   -3.487380
  N     -1.010520   -1.530530   -4.544280
  C     -1.744890   -2.362680   -0.818650
  C     -2.053350   -2.275930    0.606860
  C     -3.301520   -2.356010    1.161420
  C     -4.494380   -2.448740    0.411310
  N     -5.491530   -2.437760   -0.156480
  C     -3.550030   -2.228650    2.545430
  N     -3.792240   -2.145900    3.663270
  C     -2.409630   -3.088940   -1.756730
  C     -3.404710   -4.069480   -1.494770
  C     -3.481630   -4.987980   -0.345150
  N     -4.498540   -5.792670   -0.376870
  C     -5.187210   -5.480190   -1.513090
  C     -4.482660   -4.433920   -2.264660
  C     -5.250600   -4.041730   -3.422160
  S     -4.913080   -2.793110   -4.434670
  C     -6.395580   -4.906420   -3.389400
  C     -6.354550   -5.751810   -2.178200
  N     -7.501380   -6.479360   -2.062100
  C     -8.241780   -6.139150   -3.073240
  C     -7.616840   -5.160420   -3.972830
  C     -8.171150   -4.678100   -5.182730
  S     -9.875650   -4.466770   -5.409310
  C     -9.636240   -3.884800   -7.028560
  C     -8.286920   -3.839410   -7.364140
  C     -7.458190   -4.311410   -6.321720
  O     -6.121120   -4.459900   -6.343120
  S     -5.336320   -4.540860   -7.810760
  C     -5.953630   -2.972350   -8.460540
  S     -7.732190   -3.102420   -8.847090
  C    -10.755420   -3.566390   -7.836710
  C    -11.976410   -2.903350   -7.369240
  N    -12.893910   -2.774080   -8.278720
  C    -12.400100   -3.374530   -9.395430
  C    -11.010930   -3.834390   -9.165460
  C    -10.577100   -4.641740  -10.265840
  S     -9.097370   -5.307000  -10.557710
  C    -11.758350   -4.781580  -11.082970
  C    -12.831530   -3.894530  -10.585750
  N    -13.955530   -4.045950  -11.334690
  C    -13.693010   -4.981860  -12.193990
  C    -12.345820   -5.557810  -12.052490
  C    -11.862310   -6.676300  -12.795470
  C    -11.012620   -7.637210  -12.352740
  C    -10.261690   -8.552700  -13.215470
  C    -10.597110   -8.946890  -14.478750
  C    -11.784080   -8.570360  -15.145580
  N    -12.735700   -8.305230  -15.729220
  C     -9.821120   -9.827890  -15.264080
  N     -9.236270  -10.539560  -15.947500
  C     -9.092120   -8.963920  -12.454270
  C     -9.215290   -8.491590  -11.126200
  C     -8.223690   -8.740860  -10.191420
  C     -7.106750   -9.458090  -10.589560
  C     -6.985280   -9.927050  -11.891260
  C     -7.972780   -9.688700  -12.834630
  C    -10.491030   -7.810860  -10.995000
  C    -11.177080   -7.587640   -9.831820
  C    -10.592720   -7.625850   -8.549940
  N    -10.155280   -7.550670   -7.490850
  C    -12.543840   -7.243280   -9.790830
  N    -13.667210   -7.023830   -9.705680
  H      2.045850   -0.604010   -0.072360
  H      2.592170   -0.463940    2.316230
  H      0.985720   -1.198960    4.022650
  H     -1.217550   -2.083550    3.377270
  H     -2.149920   -2.961330   -2.800020
  H     -2.750500   -5.059480    0.441890
  H     -9.213430   -6.575330   -3.227520
  H     -5.780070   -2.189060   -7.724590
  H     -5.442180   -2.761720   -9.394680
  H    -12.119360   -2.519900   -6.374000
  H    -14.427320   -5.306360  -12.909400
  H    -12.201310   -6.718090  -13.823110
  H     -8.307640   -8.372140   -9.181910
  H     -6.319930   -9.652460   -9.876870
  H     -6.106520  -10.484650  -12.176970
  H     -7.860180  -10.056370  -13.841500

 Total Charge           Charge          ....    0
 Multiplicity           Mult            ....    1
 Number of Electrons    NEL             ....  518
 Basis Dimension        Dim             .... 1122

ORBITAL ENERGIES
----------------

  NO   OCC          E(Eh)            E(eV)
   0   2.0000     -88.992846     -2421.6185
   1   2.0000     -88.983502     -2421.3642
   2   2.0000     -88.957816     -2420.6652
   3   2.0000     -88.921227     -2419.6696
   4   2.0000     -88.910297     -2419.3722
   5   2.0000     -19.291258      -524.9418
   6   2.0000     -14.432508      -392.7285
   7   2.0000     -14.432488      -392.7280
   8   2.0000     -14.431670      -392.7057
   9   2.0000     -14.431463      -392.7001
  10   2.0000     -14.431401      -392.6984
  11   2.0000     -14.431290      -392.6954
  12   2.0000     -14.430381      -392.6706
  13   2.0000     -14.429361      -392.6429
  14   2.0000     -14.427906      -392.6033
  15   2.0000     -14.427510      -392.5925
  16   2.0000     -14.426106      -392.5543
  17   2.0000     -14.426042      -392.5525
  18   2.0000     -10.369142      -282.1587
  19   2.0000     -10.366612      -282.0899
  20   2.0000     -10.364272      -282.0262
  21   2.0000     -10.361855      -281.9604
  22   2.0000     -10.359766      -281.9036
  23   2.0000     -10.359590      -281.8988
  24   2.0000     -10.359025      -281.8834
  25   2.0000     -10.358858      -281.8789
  26   2.0000     -10.358238      -281.8620
  27   2.0000     -10.357557      -281.8434
  28   2.0000     -10.351534      -281.6796
  29   2.0000     -10.348952      -281.6093
  30   2.0000     -10.347886      -281.5803
  31   2.0000     -10.347063      -281.5579
  32   2.0000     -10.346703      -281.5481
  33   2.0000     -10.346459      -281.5415
  34   2.0000     -10.346443      -281.5410
  35   2.0000     -10.345502      -281.5154
  36   2.0000     -10.344101      -281.4773
  37   2.0000     -10.339581      -281.3543
  38   2.0000     -10.336993      -281.2839
  39   2.0000     -10.336453      -281.2692
  40   2.0000     -10.335540      -281.2443
  41   2.0000     -10.335321      -281.2384
  42   2.0000     -10.333862      -281.1987
  43   2.0000     -10.333716      -281.1947
  44   2.0000     -10.333697      -281.1942
  45   2.0000     -10.333525      -281.1895
  46   2.0000     -10.333246      -281.1819
  47   2.0000     -10.333075      -281.1773
  48   2.0000     -10.332209      -281.1537
  49   2.0000     -10.331917      -281.1457
  50   2.0000     -10.331182      -281.1258
  51   2.0000     -10.330358      -281.1033
  52   2.0000     -10.329125      -281.0698
  53   2.0000     -10.328817      -281.0614
  54   2.0000     -10.325186      -280.9626
  55   2.0000     -10.324897      -280.9547
  56   2.0000     -10.324577      -280.9460
  57   2.0000     -10.322935      -280.9014
  58   2.0000     -10.322440      -280.8879
  59   2.0000     -10.321699      -280.8677
  60   2.0000     -10.321099      -280.8514
  61   2.0000     -10.318301      -280.7752
  62   2.0000     -10.316367      -280.7226
  63   2.0000     -10.314367      -280.6682
  64   2.0000     -10.311787      -280.5980
  65   2.0000     -10.311526      -280.5909
  66   2.0000     -10.310403      -280.5603
  67   2.0000     -10.309747      -280.5425
  68   2.0000     -10.309486      -280.5354
  69   2.0000     -10.308920      -280.5200
  70   2.0000     -10.308438      -280.5068
  71   2.0000     -10.307569      -280.4832
  72   2.0000     -10.305529      -280.4277
  73   2.0000      -8.084766      -219.9977
  74   2.0000      -8.078833      -219.8362
  75   2.0000      -8.052890      -219.1303
  76   2.0000      -8.016298      -218.1346
  77   2.0000      -8.005528      -217.8415
  78   2.0000      -6.058849      -164.8697
  79   2.0000      -6.051086      -164.6584
  80   2.0000      -6.048192      -164.5797
  81   2.0000      -6.044305      -164.4739
  82   2.0000      -6.040928      -164.3820
  83   2.0000      -6.040511      -164.3707
  84   2.0000      -6.023244      -163.9008
  85   2.0000      -6.019225      -163.7914
  86   2.0000      -6.012462      -163.6074
  87   2.0000      -5.984967      -162.8592
  88   2.0000      -5.984829      -162.8555
  89   2.0000      -5.975717      -162.6075
  90   2.0000      -5.974725      -162.5805
  91   2.0000      -5.974111      -162.5638
  92   2.0000      -5.964398      -162.2995
  93   2.0000      -1.192249       -32.4428
  94   2.0000      -1.101408       -29.9708
  95   2.0000      -1.095650       -29.8141
  96   2.0000      -1.081129       -29.4190
  97   2.0000      -1.076980       -29.3061
  98   2.0000      -1.047882       -28.5143
  99   2.0000      -1.046130       -28.4666
 100   2.0000      -1.028441       -27.9853
 101   2.0000      -1.027277       -27.9536
 102   2.0000      -1.018023       -27.7018
 103   2.0000      -1.016868       -27.6704
 104   2.0000      -1.015326       -27.6284
 105   2.0000      -1.009633       -27.4735
 106   2.0000      -1.009116       -27.4594
 107   2.0000      -1.008723       -27.4487
 108   2.0000      -1.007919       -27.4269
 109   2.0000      -0.982246       -26.7283
 110   2.0000      -0.974364       -26.5138
 111   2.0000      -0.971382       -26.4326
 112   2.0000      -0.969284       -26.3756
 113   2.0000      -0.952513       -25.9192
 114   2.0000      -0.950331       -25.8598
 115   2.0000      -0.949246       -25.8303
 116   2.0000      -0.926564       -25.2131
 117   2.0000      -0.925553       -25.1856
 118   2.0000      -0.916445       -24.9377
 119   2.0000      -0.905684       -24.6449
 120   2.0000      -0.903860       -24.5953
 121   2.0000      -0.895731       -24.3741
 122   2.0000      -0.883134       -24.0313
 123   2.0000      -0.877403       -23.8754
 124   2.0000      -0.875262       -23.8171
 125   2.0000      -0.873406       -23.7666
 126   2.0000      -0.868514       -23.6335
 127   2.0000      -0.858559       -23.3626
 128   2.0000      -0.853824       -23.2337
 129   2.0000      -0.825477       -22.4624
 130   2.0000      -0.809152       -22.0181
 131   2.0000      -0.805256       -21.9121
 132   2.0000      -0.803053       -21.8522
 133   2.0000      -0.800954       -21.7951
 134   2.0000      -0.796687       -21.6789
 135   2.0000      -0.785608       -21.3775
 136   2.0000      -0.784343       -21.3431
 137   2.0000      -0.760843       -20.7036
 138   2.0000      -0.755045       -20.5458
 139   2.0000      -0.742055       -20.1923
 140   2.0000      -0.728641       -19.8273
 141   2.0000      -0.727330       -19.7916
 142   2.0000      -0.727186       -19.7877
 143   2.0000      -0.725386       -19.7388
 144   2.0000      -0.721250       -19.6262
 145   2.0000      -0.715723       -19.4758
 146   2.0000      -0.711540       -19.3620
 147   2.0000      -0.708782       -19.2869
 148   2.0000      -0.706414       -19.2225
 149   2.0000      -0.678952       -18.4752
 150   2.0000      -0.678555       -18.4644
 151   2.0000      -0.677659       -18.4400
 152   2.0000      -0.676160       -18.3992
 153   2.0000      -0.667964       -18.1762
 154   2.0000      -0.663061       -18.0428
 155   2.0000      -0.653868       -17.7927
 156   2.0000      -0.653406       -17.7801
 157   2.0000      -0.644132       -17.5277
 158   2.0000      -0.635946       -17.3050
 159   2.0000      -0.622826       -16.9480
 160   2.0000      -0.615700       -16.7540
 161   2.0000      -0.613447       -16.6927
 162   2.0000      -0.602651       -16.3990
 163   2.0000      -0.600584       -16.3427
 164   2.0000      -0.599130       -16.3032
 165   2.0000      -0.597725       -16.2649
 166   2.0000      -0.596747       -16.2383
 167   2.0000      -0.586577       -15.9616
 168   2.0000      -0.584764       -15.9122
 169   2.0000      -0.576991       -15.7007
 170   2.0000      -0.574529       -15.6337
 171   2.0000      -0.566509       -15.4155
 172   2.0000      -0.564330       -15.3562
 173   2.0000      -0.563450       -15.3322
 174   2.0000      -0.558935       -15.2094
 175   2.0000      -0.556552       -15.1445
 176   2.0000      -0.555214       -15.1081
 177   2.0000      -0.551817       -15.0157
 178   2.0000      -0.549269       -14.9464
 179   2.0000      -0.547688       -14.9033
 180   2.0000      -0.546369       -14.8674
 181   2.0000      -0.542810       -14.7706
 182   2.0000      -0.541849       -14.7444
 183   2.0000      -0.532165       -14.4809
 184   2.0000      -0.527237       -14.3469
 185   2.0000      -0.526234       -14.3196
 186   2.0000      -0.521398       -14.1880
 187   2.0000      -0.520982       -14.1767
 188   2.0000      -0.518548       -14.1104
 189   2.0000      -0.516730       -14.0609
 190   2.0000      -0.509490       -13.8639
 191   2.0000      -0.507159       -13.8005
 192   2.0000      -0.506438       -13.7809
 193   2.0000      -0.503464       -13.6999
 194   2.0000      -0.502576       -13.6758
 195   2.0000      -0.500031       -13.6065
 196   2.0000      -0.498260       -13.5584
 197   2.0000      -0.492929       -13.4133
 198   2.0000      -0.489681       -13.3249
 199   2.0000      -0.486682       -13.2433
 200   2.0000      -0.483563       -13.1584
 201   2.0000      -0.475313       -12.9339
 202   2.0000      -0.475105       -12.9283
 203   2.0000      -0.473592       -12.8871
 204   2.0000      -0.469591       -12.7782
 205   2.0000      -0.468085       -12.7372
 206   2.0000      -0.464082       -12.6283
 207   2.0000      -0.463779       -12.6201
 208   2.0000      -0.462949       -12.5975
 209   2.0000      -0.462400       -12.5825
 210   2.0000      -0.461637       -12.5618
 211   2.0000      -0.458270       -12.4702
 212   2.0000      -0.457710       -12.4549
 213   2.0000      -0.457100       -12.4383
 214   2.0000      -0.456351       -12.4179
 215   2.0000      -0.455258       -12.3882
 216   2.0000      -0.452265       -12.3067
 217   2.0000      -0.451098       -12.2750
 218   2.0000      -0.449131       -12.2215
 219   2.0000      -0.448462       -12.2033
 220   2.0000      -0.443306       -12.0630
 221   2.0000      -0.442458       -12.0399
 222   2.0000      -0.440550       -11.9880
 223   2.0000      -0.440035       -11.9740
 224   2.0000      -0.439273       -11.9532
 225   2.0000      -0.438824       -11.9410
 226   2.0000      -0.438062       -11.9203
 227   2.0000      -0.437011       -11.8917
 228   2.0000      -0.435924       -11.8621
 229   2.0000      -0.429639       -11.6911
 230   2.0000      -0.425637       -11.5822
 231   2.0000      -0.425242       -11.5714
 232   2.0000      -0.422874       -11.5070
 233   2.0000      -0.422386       -11.4937
 234   2.0000      -0.413865       -11.2618
 235   2.0000      -0.405045       -11.0218
 236   2.0000      -0.396975       -10.8022
 237   2.0000      -0.394656       -10.7391
 238   2.0000      -0.385912       -10.5012
 239   2.0000      -0.385808       -10.4984
 240   2.0000      -0.370717       -10.0877
 241   2.0000      -0.366589        -9.9754
 242   2.0000      -0.364973        -9.9314
 243   2.0000      -0.362818        -9.8728
 244   2.0000      -0.362033        -9.8514
 245   2.0000      -0.346691        -9.4340
 246   2.0000      -0.344066        -9.3625
 247   2.0000      -0.343523        -9.3477
 248   2.0000      -0.337495        -9.1837
 249   2.0000      -0.335844        -9.1388
 250   2.0000      -0.334166        -9.0931
 251   2.0000      -0.324357        -8.8262
 252   2.0000      -0.320104        -8.7105
 253   2.0000      -0.308186        -8.3862
 254   2.0000      -0.307436        -8.3658
 255   2.0000      -0.305231        -8.3057
 256   2.0000      -0.288990        -7.8638
 257   2.0000      -0.279897        -7.6164
 258   2.0000      -0.275279        -7.4907
 259   0.0000      -0.131344        -3.5740
 260   0.0000      -0.127273        -3.4633
 261   0.0000      -0.113955        -3.1009
 262   0.0000      -0.102497        -2.7891
 263   0.0000      -0.096512        -2.6262

MULLIKEN ATOMIC CHARGES
-----------------------
   0 C :   -0.031012
   1 C :    0.050510
   2 C :    0.046709
   3 C :   -0.030372
   4 C :    0.010421
   5 C :    0.015122
   6 C :    0.290066
   7 C :   -0.332248
   8 C :   -0.191020
   9 N :    0.168733
  10 C :   -0.187478
  11 N :    0.176716
  12 C :   -0.071205
  13 C :    0.226379
  14 C :   -0.342399
  15 C :   -0.165565
  16 N :    0.177639
  17 C :   -0.185506
  18 N :    0.175910
  19 C :    0.037547
  20 C :   -0.103720
  21 C :    0.062542
  22 N :   -0.008555
  23 C :    0.035316
  24 C :    0.055507
  25 C :   -0.011489
  26 S :   -0.086942
  27 C :    0.002677
  28 C :    0.003879
  29 N :   -0.028390
  30 C :    0.069287
  31 C :    0.012077
  32 C :   -0.154198
  33 S :    0.189028
  34 C :   -0.154098
  35 C :   -0.022973
  36 C :    0.230641
  37 O :   -0.379431
  38 S :    0.266472
  39 C :   -0.159024
  40 S :    0.099691
  41 C :   -0.020996
  42 C :    0.062336
  43 N :   -0.022858
  44 C :    0.009004
  45 C :   -0.004882
  46 C :   -0.009291
  47 S :   -0.094494
  48 C :   -0.005653
  49 C :    0.050928
  50 N :   -0.017528
  51 C :    0.092715
  52 C :   -0.074218
  53 C :    0.031170
  54 C :   -0.026152
  55 C :    0.276912
  56 C :   -0.332109
  57 C :   -0.185115
  58 N :    0.166418
  59 C :   -0.185388
  60 N :    0.166203
  61 C :    0.012129
  62 C :    0.047768
  63 C :   -0.034031
  64 C :    0.048084
  65 C :    0.049170
  66 C :   -0.030590
  67 C :    0.181500
  68 C :   -0.309229
  69 C :   -0.175900
  70 N :    0.155481
  71 C :   -0.189355
  72 N :    0.180555
  73 H :    0.008907
  74 H :    0.007355
  75 H :    0.009356
  76 H :    0.009582
  77 H :    0.036969
  78 H :    0.019152
  79 H :    0.021067
  80 H :    0.119989
  81 H :    0.098650
  82 H :    0.019415
  83 H :    0.022420
  84 H :    0.028310
  85 H :    0.007535
  86 H :    0.007393
  87 H :    0.006454
  88 H :    0.007623
Sum of atomic charges:   -0.0000000

LOEWDIN ATOMIC CHARGES
----------------------
   0 C :    0.006733
   1 C :    0.005556
   2 C :    0.007529
   3 C :    0.003668
   4 C :   -0.011861
   5 C :   -0.012978
   6 C :    0.075036
   7 C :   -0.119705
   8 C :   -0.018711
   9 N :   -0.038111
  10 C :   -0.024679
  11 N :   -0.029507
  12 C :   -0.041517
  13 C :    0.065545
  14 C :   -0.120024
  15 C :   -0.019756
  16 N :   -0.033348
  17 C :   -0.019546
  18 N :   -0.033038
  19 C :    0.068944
  20 C :   -0.069261
  21 C :    0.080427
  22 N :   -0.070339
  23 C :    0.033054
  24 C :    0.012799
  25 C :   -0.149382
  26 S :    0.095672
  27 C :   -0.030257
  28 C :    0.055346
  29 N :   -0.074594
  30 C :    0.098475
  31 C :   -0.049679
  32 C :   -0.192574
  33 S :    0.467814
  34 C :   -0.187906
  35 C :   -0.205534
  36 C :   -0.008448
  37 O :   -0.214385
  38 S :    0.391537
  39 C :   -0.256560
  40 S :    0.340080
  41 C :   -0.057642
  42 C :    0.090946
  43 N :   -0.063738
  44 C :    0.048823
  45 C :   -0.037892
  46 C :   -0.154075
  47 S :    0.103747
  48 C :   -0.008261
  49 C :    0.040634
  50 N :   -0.061909
  51 C :    0.101890
  52 C :   -0.054230
  53 C :    0.052368
  54 C :   -0.024049
  55 C :    0.079763
  56 C :   -0.125518
  57 C :   -0.022018
  58 N :   -0.038511
  59 C :   -0.019153
  60 N :   -0.038577
  61 C :   -0.011298
  62 C :   -0.006167
  63 C :    0.002017
  64 C :    0.007376
  65 C :    0.004127
  66 C :    0.006394
  67 C :    0.062566
  68 C :   -0.131290
  69 C :   -0.020985
  70 N :   -0.050757
  71 C :   -0.024172
  72 N :   -0.041400
  73 H :    0.042538
  74 H :    0.039209
  75 H :    0.039576
  76 H :    0.042291
  77 H :    0.051626
  78 H :    0.025695
  79 H :    0.029404
  80 H :    0.031591
  81 H :    0.038441
  82 H :    0.029136
  83 H :    0.032937
  84 H :    0.051346
  85 H :    0.040974
  86 H :    0.038802
  87 H :    0.038717
  88 H :    0.042188

  Mayer bond orders larger than 0.100000
B(  0-C ,  1-C ) :   1.3732 B(  0-C ,  5-C ) :   1.3785 B(  0-C , 73-H ) :   0.9842
B(  1-C ,  2-C ) :   1.3744 B(  1-C , 74-H ) :   0.9856 B(  2-C ,  3-C ) :   1.3667
B(  2-C , 75-H ) :   0.9869 B(  3-C ,  4-C ) :   1.3794 B(  3-C , 76-H ) :   0.9873
B(  4-C ,  5-C ) :   1.3058 B(  4-C , 13-C ) :   1.0195 B(  5-C ,  6-C ) :   1.0051
B(  6-C ,  7-C ) :   1.6680 B(  6-C , 12-C ) :   1.0229 B(  7-C ,  8-C ) :   1.1435
B(  7-C , 10-C ) :   1.1320 B(  8-C ,  9-N ) :   2.9827 B( 10-C , 11-N ) :   2.9863
B( 12-C , 13-C ) :   1.0062 B( 12-C , 19-C ) :   1.6676 B( 13-C , 14-C ) :   1.6539
B( 14-C , 15-C ) :   1.1429 B( 14-C , 17-C ) :   1.1457 B( 15-C , 16-N ) :   2.9983
B( 17-C , 18-N ) :   2.9954 B( 19-C , 20-C ) :   1.0634 B( 19-C , 77-H ) :   0.9377
B( 20-C , 21-C ) :   1.0039 B( 20-C , 24-C ) :   1.5521 B( 21-C , 22-N ) :   1.7543
B( 21-C , 78-H ) :   0.9879 B( 22-N , 23-C ) :   1.2523 B( 23-C , 24-C ) :   1.0726
B( 23-C , 28-C ) :   1.5080 B( 24-C , 25-C ) :   1.0132 B( 25-C , 26-S ) :   1.7017
B( 25-C , 27-C ) :   1.0508 B( 27-C , 28-C ) :   1.0569 B( 27-C , 31-C ) :   1.5573
B( 28-C , 29-N ) :   1.2643 B( 29-N , 30-C ) :   1.7292 B( 30-C , 31-C ) :   1.0275
B( 30-C , 79-H ) :   0.9912 B( 31-C , 32-C ) :   1.0650 B( 32-C , 33-S ) :   1.1186
B( 32-C , 34-C ) :   0.1264 B( 32-C , 36-C ) :   1.5198 B( 33-S , 34-C ) :   1.1265
B( 34-C , 35-C ) :   1.5157 B( 34-C , 41-C ) :   1.0881 B( 35-C , 36-C ) :   1.2249
B( 35-C , 40-S ) :   1.0412 B( 36-C , 37-O ) :   1.1095 B( 37-O , 38-S ) :   0.8626
B( 38-S , 39-C ) :   0.9944 B( 39-C , 40-S ) :   0.9777 B( 39-C , 80-H ) :   0.9329
B( 39-C , 81-H ) :   0.9484 B( 41-C , 42-C ) :   1.0421 B( 41-C , 45-C ) :   1.5497
B( 42-C , 43-N ) :   1.7296 B( 42-C , 82-H ) :   0.9959 B( 43-N , 44-C ) :   1.2920
B( 44-C , 45-C ) :   1.0356 B( 44-C , 49-C ) :   1.4869 B( 45-C , 46-C ) :   1.0619
B( 46-C , 47-S ) :   1.6646 B( 46-C , 48-C ) :   1.0070 B( 48-C , 49-C ) :   1.0346
B( 48-C , 52-C ) :   1.5649 B( 49-C , 50-N ) :   1.2938 B( 50-N , 51-C ) :   1.7331
B( 51-C , 52-C ) :   1.0205 B( 51-C , 83-H ) :   0.9957 B( 52-C , 53-C ) :   1.0651
B( 53-C , 54-C ) :   1.7257 B( 53-C , 84-H ) :   0.9255 B( 54-C , 55-C ) :   1.0198
B( 54-C , 67-C ) :   0.9885 B( 55-C , 56-C ) :   1.6683 B( 55-C , 61-C ) :   1.0147
B( 56-C , 57-C ) :   1.1320 B( 56-C , 59-C ) :   1.1387 B( 57-C , 58-N ) :   2.9925
B( 59-C , 60-N ) :   2.9851 B( 61-C , 62-C ) :   1.3058 B( 61-C , 66-C ) :   1.3756
B( 62-C , 63-C ) :   1.3737 B( 62-C , 67-C ) :   1.0298 B( 63-C , 64-C ) :   1.3706
B( 63-C , 85-H ) :   0.9877 B( 64-C , 65-C ) :   1.3691 B( 64-C , 86-H ) :   0.9862
B( 65-C , 66-C ) :   1.3776 B( 65-C , 87-H ) :   0.9856 B( 66-C , 88-H ) :   0.9838
B( 67-C , 68-C ) :   1.6638 B( 68-C , 69-C ) :   1.1297 B( 68-C , 71-C ) :   1.1646
B( 69-C , 70-N ) :   2.9760 B( 71-C , 72-N ) :   2.9844

-----------------------------------------------------------------------------
         ABSORPTION SPECTRUM VIA TRANSITION ELECTRIC DIPOLE MOMENTS
-----------------------------------------------------------------------------
State   Energy  Wavelength   fosc         T2         TX        TY        TZ
        (cm-1)    (nm)                  (au**2)     (au)      (au)      (au)
-----------------------------------------------------------------------------
   0   11586.2    863.1   0.007474405   0.21238   0.33144   0.26995   0.17219
   1   13159.7    759.9   0.011612710   0.29051   0.33327   0.08700   0.41458
   2   14122.9    708.1   0.032358270   0.75429   0.78693   0.02919   0.36629
   3   15263.0    655.2   0.264171065   5.69800   1.47633   0.35999   1.84088
   4   15692.6    637.2   0.016566837   0.34755  -0.48342  -0.14042  -0.30682
   5   16140.1    619.6   0.004522781   0.09225   0.07970  -0.06730   0.28526
   6   18616.2    537.2   0.021335870   0.37731  -0.49731  -0.19162  -0.30541
   7   19114.1    523.2   0.385175958   6.63407   1.46088   0.59107   2.03729
   8   19768.3    505.9   0.126509084   2.10682   0.98570   0.16079   1.05326
   9   20121.7    497.0   0.027053548   0.44263   0.36955   0.53771   0.13011
  10   20344.3    491.5   0.152511181   2.46794   0.66964   0.77360   1.19209
  11   21419.8    466.9   0.013612068   0.20921  -0.23892   0.07248  -0.38324
  12   21712.6    460.6   0.013337135   0.20222   0.15463   0.15377  -0.39328
  13   22408.3    446.3   0.079628934   1.16987  -0.66698  -0.80441  -0.27915
  14   22452.6    445.4   0.008120336   0.11906  -0.06041   0.04077  -0.33727
  15   23114.8    432.6   0.185369483   2.64012   1.34153   0.43601   0.80642
  16   23463.3    426.2   0.041595720   0.58363   0.01750  -0.68207   0.34366
  17   23641.3    423.0   0.049459283   0.68873   0.22561   0.65423   0.45805
  18   24050.8    415.8   0.006039156   0.08267  -0.16939  -0.19593  -0.12484
  19   24268.1    412.1   0.181247468   2.45874  -0.81408  -0.90184  -0.99131
  20   24647.6    405.7   0.009513160   0.12707  -0.18547  -0.27067   0.13931
  21   24767.6    403.8   0.010105455   0.13432  -0.26559   0.18412  -0.17287
  22   25127.2    398.0   0.010944767   0.14340   0.25160   0.02863   0.28156
  23   25188.8    397.0   0.007344401   0.09599  -0.24505   0.18047   0.05804
  24   25414.4    393.5   0.007267066   0.09414  -0.02677  -0.12078  -0.28077
  25   25874.1    386.5   0.023560657   0.29978  -0.14094  -0.39105  -0.35637
  26   26050.4    383.9   0.054860652   0.69330  -0.79704  -0.23528   0.05170
  27   26276.1    380.6   0.041842326   0.52424   0.27553   0.19432   0.64075
  28   26574.8    376.3   0.025309976   0.31354   0.27308   0.17415  -0.45677
  29   26675.0    374.9   0.067637267   0.83475   0.22505   0.26659  -0.84442
  30   27015.6    370.2   0.030559976   0.37240   0.17838  -0.58301  -0.02616
  31   27130.7    368.6   0.035041998   0.42521  -0.16918  -0.60719  -0.16707
  32   27349.7    365.6   0.254109354   3.05874   1.25607   0.35783   1.16318
  33   27780.5    360.0   0.016409678   0.19446   0.12504  -0.42278  -0.00901
  34   28193.3    354.7   0.035083513   0.40967  -0.03557  -0.21994  -0.60002
  35   28342.5    352.8   0.013764812   0.15988   0.30621   0.25623   0.02160
  36   28504.0    350.8   0.029016596   0.33513  -0.32247  -0.04627  -0.47855
  37   28593.6    349.7   0.122369582   1.40890   0.60381  -0.72996  -0.71517
  38   28939.1    345.6   0.028777827   0.32738   0.41209   0.13771   0.37229
  39   29121.6    343.4   0.130642411   1.47688  -0.27374  -0.31259  -1.14203
  40   29247.8    341.9   0.027259310   0.30683   0.50952  -0.21727  -0.00364
  41   29597.4    337.9   0.107271997   1.19319   0.10696  -0.85502  -0.67133
  42   29708.7    336.6   0.031741749   0.35174   0.29566  -0.38201  -0.34408
  43   29896.5    334.5   0.007048329   0.07761  -0.14273   0.07537   0.22707
  44   29950.8    333.9   0.059284274   0.65164   0.17512  -0.61186  -0.49659
  45   30251.3    330.6   0.024211946   0.26349   0.45249  -0.02704  -0.24085
  46   30352.1    329.5   0.178300887   1.93393  -1.24167  -0.51828  -0.35153
  47   30379.4    329.2   0.075650973   0.81980  -0.54648   0.46011   0.55630
  48   30579.7    327.0   0.077085449   0.82988  -0.73987  -0.43751   0.30176
  49   30843.9    324.2   0.177504781   1.89459  -0.48571   0.98038   0.83519
  50   30935.5    323.3   0.051409306   0.54709   0.39083   0.32146   0.53945
  51   31084.8    321.7   0.007115423   0.07536  -0.00171   0.27436   0.00910
  52   31312.7    319.4   0.027491840   0.28904  -0.28714  -0.13566   0.43380
  53   31355.4    318.9   0.041928127   0.44022   0.39709   0.27525   0.45472
  54   31460.1    317.9   0.020186365   0.21124  -0.41278  -0.19937  -0.03321
  55   31805.7    314.4   0.004997197   0.05172   0.04009   0.13182   0.18094
  56   32190.7    310.6   0.055758051   0.57023  -0.35385   0.26423   0.61254
  57   32265.8    309.9   0.047694639   0.48663  -0.57487  -0.25566  -0.30133
  58   32389.0    308.7   0.340090557   3.45679  -0.87403  -0.09278   1.63837
  59   32442.2    308.2   0.033085755   0.33574  -0.16389   0.27965   0.48029
  60   32724.0    305.6   0.083835542   0.84341   0.61791   0.41211  -0.54015
  61   32866.3    304.3   0.022077488   0.22114  -0.46390  -0.05487   0.05411
  62   33436.7    299.1   0.170535051   1.67906   0.43962   0.12721  -1.21228
  63   33560.4    298.0   0.011055304   0.10845   0.12168  -0.30200   0.04934
  64   33728.9    296.5   0.076069286   0.74248   0.11680  -0.11859   0.84544
  65   33982.2    294.3   0.013111985   0.12703   0.31886  -0.14346   0.06909
  66   34057.3    293.6   0.027046964   0.26145  -0.45255   0.13845   0.19360
  67   34192.2    292.5   0.014311039   0.13779  -0.22580  -0.10519   0.27521
  68   34337.4    291.2   0.007792450   0.07471   0.16055  -0.03663  -0.21816
  69   34659.7    288.5   0.031683948   0.30095  -0.43574   0.03083  -0.33186
  70   34949.9    286.1   0.020907903   0.19694  -0.00240   0.44323  -0.02193
  71   35141.4    284.6   0.374424577   3.50769   1.41716   0.18588   1.21028
  72   35224.3    283.9   0.088993981   0.83175  -0.11643   0.54543   0.72160
  73   35273.9    283.5   0.025213502   0.23532  -0.25386  -0.00716   0.41331
  74   35327.7    283.1   0.055500130   0.51720  -0.62242  -0.21367  -0.29007
  75   35614.2    280.8   0.010201095   0.09430   0.16023   0.11251  -0.23657
  76   35816.7    279.2   0.051657153   0.47481  -0.14221  -0.19553  -0.64526
  77   35868.0    278.8   0.042147802   0.38685  -0.06865   0.29842   0.54137
  78   36083.9    277.1   0.017675758   0.16127   0.27625  -0.22726   0.18248
  79   36349.0    275.1   0.131425718   1.19032  -0.95727   0.01815  -0.52308
  80   36695.2    272.5   0.051082984   0.45829  -0.51114   0.26381  -0.35698
  81   36899.2    271.0   0.122649044   1.09426   0.59165  -0.09303   0.85765
  82   37088.1    269.6   0.034374410   0.30512  -0.08521  -0.10505  -0.53556
  83   37443.0    267.1   0.017742676   0.15600   0.05128  -0.11092   0.37559
  84   37641.3    265.7   0.005334084   0.04665   0.12185   0.17156  -0.04868
  85   37681.8    265.4   0.019442928   0.16987   0.06150  -0.07110  -0.40128
  86   37789.7    264.6   0.041367312   0.36038   0.56691   0.17938   0.08256
  87   38025.3    263.0   0.078339918   0.67824  -0.10396   0.36561   0.73059
  88   38114.0    262.4   0.046904641   0.40514  -0.45654   0.43717  -0.07480
  89   38282.6    261.2   0.072999786   0.62776   0.60006  -0.43962  -0.27282
  90   38554.8    259.4   0.044776338   0.38234  -0.44470  -0.02659  -0.42881
  91   38749.1    258.1   0.005942181   0.05048   0.01639   0.04267  -0.21999
  92   38844.4    257.4   0.033903449   0.28734   0.46559   0.25376   0.07854
  93   39093.4    255.8   0.023833037   0.20070   0.22886  -0.28314  -0.26107
  94   39125.4    255.6   0.009317430   0.07840  -0.24225  -0.04375  -0.13341
  95   39184.0    255.2   0.050261434   0.42228   0.32499   0.40646   0.38917
  96   39301.3    254.4   0.334561202   2.80249  -1.50626  -0.20012  -0.70258
  97   39546.2    252.9   0.017094673   0.14231  -0.27956  -0.22049  -0.12467
  98   39720.2    251.8   0.236309953   1.95860  -0.80956  -0.04872  -1.14054
  99   39997.9    250.0   0.059243586   0.48762  -0.01982  -0.24936   0.65195
 100   40119.7    249.3   0.023788882   0.19521   0.11156  -0.34592  -0.25119
 101   40224.4    248.6   0.017492823   0.14317   0.21619   0.12740  -0.28320
 102   40300.2    248.1   0.020881043   0.17058   0.10942  -0.17921   0.35566
 103   40325.7    248.0   0.047063464   0.38422  -0.27101   0.43701   0.34611

FINAL SINGLE POINT ENERGY     -4824.040721258608

DIPOLE MOMENT
-------------
                                X             Y             Z
Electronic contribution:    -18.75918       1.83117      -8.45633
Nuclear contribution   :     21.95732      -1.67612       9.28574
                        -----------------------------------------
Total Dipole Moment    :      3.19814       0.15505       0.82940
                        -----------------------------------------
Magnitude (a.u.)       :      3.30757
Magnitude (Debye)      :      8.40718

Rotational constants in cm-1:     0.002229     0.000353     0.000339
Rotational constants in MHz :    66.830578    10.589983    10.157449

                             ****ORCA TERMINATED NORMALLY****
TOTAL RUN TIME: 0 days 0 hours 12 minutes 20 seconds 407 msec
