                         Program Version 4.2.0 -  RELEASE  -
|  1> # ORCA input file
|  2> # SCF done       -225.440797816176          0.000762176435
|  3> ! CAM-B3LYP def2-SVP def2/J RIJCOSX Grid4 TightSCF
|  4> %maxcore 5000
|  5> %tddft
|  6>     Mode sTDDFT
|  7>     Ethresh 5.0
|  8>     maxcore 5000
|  9> end
| 10>
| 11> %pal
| 12>   nprocs 6
| 13>   end
| 14> * xyz 0 1
| 15>    C       -3.22514         5.97762         5.37208
| 16>    C       -3.58622         6.51312         6.59853
| 17>    C       -4.86035         6.32203         7.11758
| 18>    C       -5.81355         5.59744         6.41976
| 19>    C       -5.46772         5.06156         5.18870
| 20>    C       -4.16600         5.24462         4.66373
| 21>    C       -4.06147         4.54744         3.39342
| 22>    C       -3.01011         4.57982         2.52686
| 23>    C       -1.84334         5.35177         2.73516
| 24>    N       -0.87639         5.95878         2.84225
| 25>    C       -2.92439         3.87485         1.30303
| 26>    N       -2.76024         3.32251         0.31128
| 27>    C       -5.30921         3.78509         3.23658
| 28>    C       -6.25212         4.29945         4.23627
| 29>    C       -7.61351         4.21722         4.19127
| 30>    C       -8.35276         3.69294         3.11157
| 31>    N       -9.01025         3.32244         2.24658
| 32>    C       -8.46615         4.72888         5.19631
| 33>    N       -9.20831         5.10514         5.98511
| 34>    C       -5.43891         2.70523         2.44515
| 35>    C       -6.52045         1.73627         2.39486
| 36>    C       -7.10727         1.43262         1.16600
| 37>    C       -6.87886         2.10357        -0.13858
| 38>    O       -6.13751         3.02326        -0.36669
| 39>    N       -7.72756         1.46106        -1.03743
| 40>    C       -8.50145         0.46583        -0.42250
| 41>    O       -9.29360        -0.23857        -0.98344
| 42>    C       -8.10915         0.48109         1.01270
| 43>    C       -8.58698        -0.24821         2.08648
| 44>    C       -8.00532         0.03191         3.31792
| 45>    C       -7.00291         0.99030         3.48387
| 46>    C       -6.50813         1.10696         4.87009
| 47>    O       -5.64907         1.82923         5.28879
| 48>    S       -7.40989        -0.02828         5.91985
| 49>    C       -8.40319        -0.66517         4.55884
| 50>    O       -9.22853        -1.51291         4.68809
| 51>    C       -7.86066         1.70966        -2.40120
| 52>    C       -7.14335         2.61232        -3.08615
| 53>    C       -7.23773         2.83794        -4.49430
| 54>    S       -6.32779         4.14063        -5.16672
| 55>    C       -6.90608         3.79067        -6.75057
| 56>    C       -7.77852         2.70322        -6.76114
| 57>    C       -7.96141         2.15163        -5.46669
| 58>    O       -8.78557         1.14944        -5.06087
| 59>    C       -9.08311         0.06695        -5.91736
| 60>    C       -9.73001         0.47366        -7.23687
| 61>    C       -8.69712         1.01456        -8.21769
| 62>    O       -8.29953         2.34528        -7.95980
| 63>    C       -6.58009         4.57478        -7.91206
| 64>    C       -7.58713         4.97017        -8.80757
| 65>    C       -9.05684         4.88511        -8.67082
| 66>    O       -9.74530         4.59216        -7.73520
| 67>    N       -9.57526         5.32745        -9.91205
| 68>    C       -8.57198         5.79514       -10.76511
| 69>    O       -8.73134         6.25797       -11.86238
| 70>    C       -7.30548         5.60653       -10.01645
| 71>    C       -6.02270         5.97691       -10.37507
| 72>    C       -5.02247         5.65291        -9.46655
| 73>    C       -5.27198         4.95108        -8.28768
| 74>    C       -4.04733         4.56423        -7.56222
| 75>    O       -3.93447         3.84334        -6.61830
| 76>    S       -2.61772         5.30229        -8.37936
| 77>    C       -3.60113         5.99047        -9.70549
| 78>    O       -3.15074         6.61162       -10.61889
| 79>    C      -10.91878         5.21048       -10.19709
| 80>    C      -11.44546         5.33431       -11.42846
| 81>    C      -12.82716         5.13898       -11.70049
| 82>    C      -13.33124         4.88945       -12.94082
| 83>    C      -14.72724         5.04373       -13.34435
| 84>    C      -15.82217         5.05552       -12.52664
| 85>    C      -15.78294         4.85799       -11.12921
| 86>    N      -15.81683         4.69229        -9.99411
| 87>    C      -17.14883         5.21705       -12.98207
| 88>    N      -18.24724         5.34230       -13.28872
| 89>    C      -14.72768         5.17299       -14.79483
| 90>    C      -13.41981         4.93496       -15.27854
| 91>    C      -13.14350         5.01379       -16.63376
| 92>    C      -14.17712         5.32910       -17.50270
| 93>    C      -15.46300         5.55437       -17.03104
| 94>    C      -15.75256         5.47871       -15.67695
| 95>    C      -12.56643         4.59850       -14.15030
| 96>    C      -11.37717         3.92423       -14.21389
| 97>    C      -10.70721         3.63198       -15.42241
| 98>    N      -10.11709         3.37464       -16.37185
| 99>    C      -10.73937         3.31608       -13.11078
|100>    N      -10.20415         2.74285       -12.27211
|101>    H       -2.22873         6.12648         4.98969
|102>    H       -2.86119         7.08188         7.16026
|103>    H       -5.11324         6.74059         8.07954
|104>    H       -6.79492         5.44607         6.83860
|105>    H       -4.64430         2.49101         1.74112
|106>    H       -9.36780        -0.98539         1.98953
|107>    H       -8.60720         1.08271        -2.86431
|108>    H       -6.41989         3.23007        -2.57433
|109>    H       -8.17057        -0.51632        -6.11372
|110>    H       -9.76973        -0.54508        -5.32749
|111>    H      -10.48937         1.23627        -7.05254
|112>    H      -10.21049        -0.39918        -7.67845
|113>    H       -7.81299         0.35909        -8.22989
|114>    H       -9.11249         1.06387        -9.22740
|115>    H       -5.80179         6.48610       -11.29922
|116>    H      -11.50968         4.91488        -9.33887
|117>    H      -10.79818         5.59555       -12.25271
|118>    H      -13.51015         5.25836       -10.87119
|119>    H      -12.14736         4.84813       -17.01080
|120>    H      -13.97564         5.40100       -18.56045
|121>    H      -16.25183         5.79636       -17.72661
|122>    H      -16.75538         5.66223       -15.32771
|123> *
|124>
|125>                          ****END OF INPUT****

CARTESIAN COORDINATES (ANGSTROEM)
---------------------------------
  C     -3.225140    5.977620    5.372080
  C     -3.586220    6.513120    6.598530
  C     -4.860350    6.322030    7.117580
  C     -5.813550    5.597440    6.419760
  C     -5.467720    5.061560    5.188700
  C     -4.166000    5.244620    4.663730
  C     -4.061470    4.547440    3.393420
  C     -3.010110    4.579820    2.526860
  C     -1.843340    5.351770    2.735160
  N     -0.876390    5.958780    2.842250
  C     -2.924390    3.874850    1.303030
  N     -2.760240    3.322510    0.311280
  C     -5.309210    3.785090    3.236580
  C     -6.252120    4.299450    4.236270
  C     -7.613510    4.217220    4.191270
  C     -8.352760    3.692940    3.111570
  N     -9.010250    3.322440    2.246580
  C     -8.466150    4.728880    5.196310
  N     -9.208310    5.105140    5.985110
  C     -5.438910    2.705230    2.445150
  C     -6.520450    1.736270    2.394860
  C     -7.107270    1.432620    1.166000
  C     -6.878860    2.103570   -0.138580
  O     -6.137510    3.023260   -0.366690
  N     -7.727560    1.461060   -1.037430
  C     -8.501450    0.465830   -0.422500
  O     -9.293600   -0.238570   -0.983440
  C     -8.109150    0.481090    1.012700
  C     -8.586980   -0.248210    2.086480
  C     -8.005320    0.031910    3.317920
  C     -7.002910    0.990300    3.483870
  C     -6.508130    1.106960    4.870090
  O     -5.649070    1.829230    5.288790
  S     -7.409890   -0.028280    5.919850
  C     -8.403190   -0.665170    4.558840
  O     -9.228530   -1.512910    4.688090
  C     -7.860660    1.709660   -2.401200
  C     -7.143350    2.612320   -3.086150
  C     -7.237730    2.837940   -4.494300
  S     -6.327790    4.140630   -5.166720
  C     -6.906080    3.790670   -6.750570
  C     -7.778520    2.703220   -6.761140
  C     -7.961410    2.151630   -5.466690
  O     -8.785570    1.149440   -5.060870
  C     -9.083110    0.066950   -5.917360
  C     -9.730010    0.473660   -7.236870
  C     -8.697120    1.014560   -8.217690
  O     -8.299530    2.345280   -7.959800
  C     -6.580090    4.574780   -7.912060
  C     -7.587130    4.970170   -8.807570
  C     -9.056840    4.885110   -8.670820
  O     -9.745300    4.592160   -7.735200
  N     -9.575260    5.327450   -9.912050
  C     -8.571980    5.795140  -10.765110
  O     -8.731340    6.257970  -11.862380
  C     -7.305480    5.606530  -10.016450
  C     -6.022700    5.976910  -10.375070
  C     -5.022470    5.652910   -9.466550
  C     -5.271980    4.951080   -8.287680
  C     -4.047330    4.564230   -7.562220
  O     -3.934470    3.843340   -6.618300
  S     -2.617720    5.302290   -8.379360
  C     -3.601130    5.990470   -9.705490
  O     -3.150740    6.611620  -10.618890
  C    -10.918780    5.210480  -10.197090
  C    -11.445460    5.334310  -11.428460
  C    -12.827160    5.138980  -11.700490
  C    -13.331240    4.889450  -12.940820
  C    -14.727240    5.043730  -13.344350
  C    -15.822170    5.055520  -12.526640
  C    -15.782940    4.857990  -11.129210
  N    -15.816830    4.692290   -9.994110
  C    -17.148830    5.217050  -12.982070
  N    -18.247240    5.342300  -13.288720
  C    -14.727680    5.172990  -14.794830
  C    -13.419810    4.934960  -15.278540
  C    -13.143500    5.013790  -16.633760
  C    -14.177120    5.329100  -17.502700
  C    -15.463000    5.554370  -17.031040
  C    -15.752560    5.478710  -15.676950
  C    -12.566430    4.598500  -14.150300
  C    -11.377170    3.924230  -14.213890
  C    -10.707210    3.631980  -15.422410
  N    -10.117090    3.374640  -16.371850
  C    -10.739370    3.316080  -13.110780
  N    -10.204150    2.742850  -12.272110
  H     -2.228730    6.126480    4.989690
  H     -2.861190    7.081880    7.160260
  H     -5.113240    6.740590    8.079540
  H     -6.794920    5.446070    6.838600
  H     -4.644300    2.491010    1.741120
  H     -9.367800   -0.985390    1.989530
  H     -8.607200    1.082710   -2.864310
  H     -6.419890    3.230070   -2.574330
  H     -8.170570   -0.516320   -6.113720
  H     -9.769730   -0.545080   -5.327490
  H    -10.489370    1.236270   -7.052540
  H    -10.210490   -0.399180   -7.678450
  H     -7.812990    0.359090   -8.229890
  H     -9.112490    1.063870   -9.227400
  H     -5.801790    6.486100  -11.299220
  H    -11.509680    4.914880   -9.338870
  H    -10.798180    5.595550  -12.252710
  H    -13.510150    5.258360  -10.871190
  H    -12.147360    4.848130  -17.010800
  H    -13.975640    5.401000  -18.560450
  H    -16.251830    5.796360  -17.726610
  H    -16.755380    5.662230  -15.327710

 Total Charge           Charge          ....    0
 Multiplicity           Mult            ....    1
 Number of Electrons    NEL             ....  598
 Basis Dimension        Dim             .... 1326

ORBITAL ENERGIES
----------------

  NO   OCC          E(Eh)            E(eV)
   0   2.0000     -88.966680     -2420.9064
   1   2.0000     -88.959824     -2420.7199
   2   2.0000     -88.950919     -2420.4776
   3   2.0000     -19.260208      -524.0969
   4   2.0000     -19.259707      -524.0833
   5   2.0000     -19.258093      -524.0393
   6   2.0000     -19.255524      -523.9695
   7   2.0000     -19.243934      -523.6541
   8   2.0000     -19.243600      -523.6450
   9   2.0000     -19.243082      -523.6309
  10   2.0000     -19.242720      -523.6210
  11   2.0000     -19.241721      -523.5939
  12   2.0000     -19.239686      -523.5385
  13   2.0000     -14.496104      -394.4590
  14   2.0000     -14.490648      -394.3106
  15   2.0000     -14.438440      -392.8899
  16   2.0000     -14.434818      -392.7914
  17   2.0000     -14.431426      -392.6991
  18   2.0000     -14.431206      -392.6931
  19   2.0000     -14.427335      -392.5877
  20   2.0000     -14.426463      -392.5640
  21   2.0000     -14.425421      -392.5357
  22   2.0000     -14.424071      -392.4989
  23   2.0000     -10.423741      -283.6444
  24   2.0000     -10.423149      -283.6283
  25   2.0000     -10.421051      -283.5712
  26   2.0000     -10.420521      -283.5568
  27   2.0000     -10.419737      -283.5355
  28   2.0000     -10.418896      -283.5126
  29   2.0000     -10.406471      -283.1745
  30   2.0000     -10.404981      -283.1339
  31   2.0000     -10.368096      -282.1302
  32   2.0000     -10.365554      -282.0611
  33   2.0000     -10.363860      -282.0150
  34   2.0000     -10.360087      -281.9123
  35   2.0000     -10.357650      -281.8460
  36   2.0000     -10.355219      -281.7798
  37   2.0000     -10.353600      -281.7358
  38   2.0000     -10.352529      -281.7066
  39   2.0000     -10.352173      -281.6970
  40   2.0000     -10.351686      -281.6837
  41   2.0000     -10.349540      -281.6253
  42   2.0000     -10.344811      -281.4966
  43   2.0000     -10.341396      -281.4037
  44   2.0000     -10.341132      -281.3965
  45   2.0000     -10.340511      -281.3796
  46   2.0000     -10.340184      -281.3707
  47   2.0000     -10.339978      -281.3651
  48   2.0000     -10.339431      -281.3502
  49   2.0000     -10.336378      -281.2672
  50   2.0000     -10.336277      -281.2644
  51   2.0000     -10.336176      -281.2616
  52   2.0000     -10.335680      -281.2482
  53   2.0000     -10.335306      -281.2380
  54   2.0000     -10.334539      -281.2171
  55   2.0000     -10.332901      -281.1725
  56   2.0000     -10.331923      -281.1459
  57   2.0000     -10.330333      -281.1027
  58   2.0000     -10.329408      -281.0775
  59   2.0000     -10.328390      -281.0498
  60   2.0000     -10.328247      -281.0459
  61   2.0000     -10.327777      -281.0331
  62   2.0000     -10.327334      -281.0210
  63   2.0000     -10.326961      -281.0109
  64   2.0000     -10.326349      -280.9942
  65   2.0000     -10.325384      -280.9680
  66   2.0000     -10.325007      -280.9577
  67   2.0000     -10.324921      -280.9554
  68   2.0000     -10.322578      -280.8916
  69   2.0000     -10.320716      -280.8409
  70   2.0000     -10.317369      -280.7499
  71   2.0000     -10.317061      -280.7415
  72   2.0000     -10.316491      -280.7260
  73   2.0000     -10.311728      -280.5964
  74   2.0000     -10.311329      -280.5855
  75   2.0000     -10.310437      -280.5613
  76   2.0000     -10.310060      -280.5510
  77   2.0000     -10.306101      -280.4433
  78   2.0000     -10.305111      -280.4163
  79   2.0000     -10.305019      -280.4138
  80   2.0000     -10.303880      -280.3828
  81   2.0000     -10.303115      -280.3620
  82   2.0000     -10.302881      -280.3556
  83   2.0000     -10.296664      -280.1865
  84   2.0000     -10.283891      -279.8389
  85   2.0000     -10.283735      -279.8346
  86   2.0000      -8.065797      -219.4815
  87   2.0000      -8.055142      -219.1915
  88   2.0000      -8.050170      -219.0562
  89   2.0000      -6.034639      -164.2109
  90   2.0000      -6.031373      -164.1220
  91   2.0000      -6.026890      -164.0000
  92   2.0000      -6.024433      -163.9331
  93   2.0000      -6.020543      -163.8273
  94   2.0000      -6.018992      -163.7851
  95   2.0000      -6.016929      -163.7290
  96   2.0000      -6.015796      -163.6981
  97   2.0000      -6.011225      -163.5737
  98   2.0000      -1.190378       -32.3918
  99   2.0000      -1.188042       -32.3283
 100   2.0000      -1.184581       -32.2341
 101   2.0000      -1.180155       -32.1136
 102   2.0000      -1.173048       -31.9203
 103   2.0000      -1.169189       -31.8153
 104   2.0000      -1.165238       -31.7077
 105   2.0000      -1.165036       -31.7023
 106   2.0000      -1.164996       -31.7011
 107   2.0000      -1.152378       -31.3578
 108   2.0000      -1.084102       -29.4999
 109   2.0000      -1.081175       -29.4203
 110   2.0000      -1.050489       -28.5853
 111   2.0000      -1.040549       -28.3148
 112   2.0000      -1.032932       -28.1075
 113   2.0000      -1.027057       -27.9476
 114   2.0000      -1.022871       -27.8337
 115   2.0000      -1.020181       -27.7605
 116   2.0000      -1.017329       -27.6829
 117   2.0000      -1.013946       -27.5909
 118   2.0000      -1.012167       -27.5425
 119   2.0000      -1.009122       -27.4596
 120   2.0000      -1.004412       -27.3314
 121   2.0000      -1.003588       -27.3090
 122   2.0000      -0.988420       -26.8963
 123   2.0000      -0.973225       -26.4828
 124   2.0000      -0.966416       -26.2975
 125   2.0000      -0.966066       -26.2880
 126   2.0000      -0.959069       -26.0976
 127   2.0000      -0.954704       -25.9788
 128   2.0000      -0.945251       -25.7216
 129   2.0000      -0.936484       -25.4830
 130   2.0000      -0.925735       -25.1905
 131   2.0000      -0.915479       -24.9115
 132   2.0000      -0.908072       -24.7099
 133   2.0000      -0.904729       -24.6189
 134   2.0000      -0.899526       -24.4773
 135   2.0000      -0.895625       -24.3712
 136   2.0000      -0.890572       -24.2337
 137   2.0000      -0.878065       -23.8934
 138   2.0000      -0.876998       -23.8643
 139   2.0000      -0.870824       -23.6963
 140   2.0000      -0.870590       -23.6899
 141   2.0000      -0.851809       -23.1789
 142   2.0000      -0.836865       -22.7722
 143   2.0000      -0.824512       -22.4361
 144   2.0000      -0.814320       -22.1588
 145   2.0000      -0.810251       -22.0481
 146   2.0000      -0.805445       -21.9173
 147   2.0000      -0.805185       -21.9102
 148   2.0000      -0.798152       -21.7188
 149   2.0000      -0.795889       -21.6572
 150   2.0000      -0.794181       -21.6108
 151   2.0000      -0.777996       -21.1704
 152   2.0000      -0.766998       -20.8711
 153   2.0000      -0.759872       -20.6772
 154   2.0000      -0.750122       -20.4119
 155   2.0000      -0.734737       -19.9932
 156   2.0000      -0.729537       -19.8517
 157   2.0000      -0.726278       -19.7630
 158   2.0000      -0.722783       -19.6679
 159   2.0000      -0.721079       -19.6216
 160   2.0000      -0.716725       -19.5031
 161   2.0000      -0.712175       -19.3793
 162   2.0000      -0.707954       -19.2644
 163   2.0000      -0.703020       -19.1302
 164   2.0000      -0.697591       -18.9824
 165   2.0000      -0.687803       -18.7161
 166   2.0000      -0.682709       -18.5775
 167   2.0000      -0.678841       -18.4722
 168   2.0000      -0.678283       -18.4570
 169   2.0000      -0.671686       -18.2775
 170   2.0000      -0.671606       -18.2753
 171   2.0000      -0.665200       -18.1010
 172   2.0000      -0.657549       -17.8928
 173   2.0000      -0.648122       -17.6363
 174   2.0000      -0.645995       -17.5784
 175   2.0000      -0.644656       -17.5420
 176   2.0000      -0.635584       -17.2951
 177   2.0000      -0.632783       -17.2189
 178   2.0000      -0.629450       -17.1282
 179   2.0000      -0.623694       -16.9716
 180   2.0000      -0.623160       -16.9570
 181   2.0000      -0.615780       -16.7562
 182   2.0000      -0.613395       -16.6913
 183   2.0000      -0.603143       -16.4124
 184   2.0000      -0.601484       -16.3672
 185   2.0000      -0.598674       -16.2907
 186   2.0000      -0.593369       -16.1464
 187   2.0000      -0.592184       -16.1142
 188   2.0000      -0.591408       -16.0930
 189   2.0000      -0.589440       -16.0395
 190   2.0000      -0.582984       -15.8638
 191   2.0000      -0.579701       -15.7745
 192   2.0000      -0.578712       -15.7476
 193   2.0000      -0.576088       -15.6761
 194   2.0000      -0.571201       -15.5432
 195   2.0000      -0.571005       -15.5378
 196   2.0000      -0.568046       -15.4573
 197   2.0000      -0.562076       -15.2949
 198   2.0000      -0.561508       -15.2794
 199   2.0000      -0.560669       -15.2566
 200   2.0000      -0.556670       -15.1478
 201   2.0000      -0.555403       -15.1133
 202   2.0000      -0.553200       -15.0533
 203   2.0000      -0.551678       -15.0119
 204   2.0000      -0.549609       -14.9556
 205   2.0000      -0.548921       -14.9369
 206   2.0000      -0.548705       -14.9310
 207   2.0000      -0.546805       -14.8793
 208   2.0000      -0.545175       -14.8350
 209   2.0000      -0.542720       -14.7682
 210   2.0000      -0.541251       -14.7282
 211   2.0000      -0.538219       -14.6457
 212   2.0000      -0.534024       -14.5315
 213   2.0000      -0.533302       -14.5119
 214   2.0000      -0.529948       -14.4206
 215   2.0000      -0.528978       -14.3942
 216   2.0000      -0.528096       -14.3702
 217   2.0000      -0.526619       -14.3300
 218   2.0000      -0.524244       -14.2654
 219   2.0000      -0.523513       -14.2455
 220   2.0000      -0.520965       -14.1762
 221   2.0000      -0.515554       -14.0289
 222   2.0000      -0.513143       -13.9633
 223   2.0000      -0.511219       -13.9110
 224   2.0000      -0.508123       -13.8267
 225   2.0000      -0.507517       -13.8103
 226   2.0000      -0.506794       -13.7906
 227   2.0000      -0.504889       -13.7387
 228   2.0000      -0.503054       -13.6888
 229   2.0000      -0.501694       -13.6518
 230   2.0000      -0.495449       -13.4819
 231   2.0000      -0.493138       -13.4190
 232   2.0000      -0.491172       -13.3655
 233   2.0000      -0.489656       -13.3242
 234   2.0000      -0.486364       -13.2346
 235   2.0000      -0.484594       -13.1865
 236   2.0000      -0.479449       -13.0465
 237   2.0000      -0.477083       -12.9821
 238   2.0000      -0.474418       -12.9096
 239   2.0000      -0.471960       -12.8427
 240   2.0000      -0.470924       -12.8145
 241   2.0000      -0.468937       -12.7604
 242   2.0000      -0.468012       -12.7353
 243   2.0000      -0.462370       -12.5817
 244   2.0000      -0.462079       -12.5738
 245   2.0000      -0.461151       -12.5486
 246   2.0000      -0.460890       -12.5414
 247   2.0000      -0.460730       -12.5371
 248   2.0000      -0.457954       -12.4616
 249   2.0000      -0.457103       -12.4384
 250   2.0000      -0.456211       -12.4141
 251   2.0000      -0.452032       -12.3004
 252   2.0000      -0.451731       -12.2922
 253   2.0000      -0.451147       -12.2763
 254   2.0000      -0.448137       -12.1944
 255   2.0000      -0.443848       -12.0777
 256   2.0000      -0.440144       -11.9769
 257   2.0000      -0.439815       -11.9680
 258   2.0000      -0.438113       -11.9217
 259   2.0000      -0.437210       -11.8971
 260   2.0000      -0.436737       -11.8842
 261   2.0000      -0.435175       -11.8417
 262   2.0000      -0.434757       -11.8304
 263   2.0000      -0.432712       -11.7747
 264   2.0000      -0.428683       -11.6651
 265   2.0000      -0.425395       -11.5756
 266   2.0000      -0.422808       -11.5052
 267   2.0000      -0.421994       -11.4830
 268   2.0000      -0.420514       -11.4428
 269   2.0000      -0.416988       -11.3468
 270   2.0000      -0.413917       -11.2632
 271   2.0000      -0.404487       -11.0067
 272   2.0000      -0.398874       -10.8539
 273   2.0000      -0.397574       -10.8185
 274   2.0000      -0.391079       -10.6418
 275   2.0000      -0.390302       -10.6207
 276   2.0000      -0.389183       -10.5902
 277   2.0000      -0.386034       -10.5045
 278   2.0000      -0.385017       -10.4768
 279   2.0000      -0.381584       -10.3834
 280   2.0000      -0.380014       -10.3407
 281   2.0000      -0.374652       -10.1948
 282   2.0000      -0.371857       -10.1187
 283   2.0000      -0.370957       -10.0942
 284   2.0000      -0.369427       -10.0526
 285   2.0000      -0.367949       -10.0124
 286   2.0000      -0.364500        -9.9186
 287   2.0000      -0.361577        -9.8390
 288   2.0000      -0.351389        -9.5618
 289   2.0000      -0.349191        -9.5020
 290   2.0000      -0.347797        -9.4640
 291   2.0000      -0.344525        -9.3750
 292   2.0000      -0.338973        -9.2239
 293   2.0000      -0.333401        -9.0723
 294   2.0000      -0.324711        -8.8358
 295   2.0000      -0.317239        -8.6325
 296   2.0000      -0.294939        -8.0257
 297   2.0000      -0.288317        -7.8455
 298   2.0000      -0.259736        -7.0678
 299   0.0000      -0.112265        -3.0549
 300   0.0000      -0.103839        -2.8256
 301   0.0000      -0.097730        -2.6594
 302   0.0000      -0.095626        -2.6021
 303   0.0000      -0.094185        -2.5629

MULLIKEN ATOMIC CHARGES
-----------------------
   0 C :   -0.035184
   1 C :    0.050964
   2 C :    0.049637
   3 C :   -0.024774
   4 C :    0.018563
   5 C :    0.025480
   6 C :    0.284649
   7 C :   -0.334977
   8 C :   -0.191122
   9 N :    0.168006
  10 C :   -0.179026
  11 N :    0.178585
  12 C :   -0.002876
  13 C :    0.268081
  14 C :   -0.353306
  15 C :   -0.163239
  16 N :    0.167427
  17 C :   -0.193038
  18 N :    0.175768
  19 C :   -0.014132
  20 C :   -0.075935
  21 C :    0.007841
  22 C :    0.225017
  23 O :   -0.144865
  24 N :   -0.226904
  25 C :    0.199312
  26 O :   -0.125142
  27 C :    0.038970
  28 C :   -0.058229
  29 C :    0.054146
  30 C :    0.075524
  31 C :    0.046261
  32 O :   -0.140398
  33 S :    0.028131
  34 C :    0.046544
  35 O :   -0.106333
  36 C :    0.066326
  37 C :    0.033608
  38 C :   -0.127960
  39 S :    0.208607
  40 C :   -0.267178
  41 C :    0.220390
  42 C :    0.132704
  43 O :   -0.321224
  44 C :    0.210030
  45 C :   -0.050593
  46 C :    0.205863
  47 O :   -0.319452
  48 C :    0.108053
  49 C :   -0.034211
  50 C :    0.210261
  51 O :   -0.124316
  52 N :   -0.240347
  53 C :    0.224400
  54 O :   -0.137851
  55 C :    0.003068
  56 C :   -0.072052
  57 C :    0.039548
  58 C :    0.039742
  59 C :    0.026411
  60 O :   -0.112285
  61 S :    0.012619
  62 C :    0.051758
  63 O :   -0.119530
  64 C :    0.116469
  65 C :   -0.030001
  66 C :    0.037362
  67 C :   -0.067046
  68 C :    0.291764
  69 C :   -0.333425
  70 C :   -0.189428
  71 N :    0.160417
  72 C :   -0.188105
  73 N :    0.161857
  74 C :    0.013446
  75 C :    0.009682
  76 C :   -0.029807
  77 C :    0.047688
  78 C :    0.047380
  79 C :   -0.031592
  80 C :    0.235541
  81 C :   -0.325987
  82 C :   -0.188082
  83 N :    0.163492
  84 C :   -0.189502
  85 N :    0.162914
  86 H :    0.008607
  87 H :    0.009950
  88 H :    0.008688
  89 H :    0.008351
  90 H :    0.052024
  91 H :    0.023857
  92 H :    0.041875
  93 H :    0.017786
  94 H :    0.008813
  95 H :    0.031769
  96 H :    0.045078
  97 H :    0.029759
  98 H :    0.009316
  99 H :    0.037329
 100 H :    0.018612
 101 H :    0.048482
 102 H :    0.067350
 103 H :    0.023227
 104 H :    0.007794
 105 H :    0.007232
 106 H :    0.006518
 107 H :    0.006730
Sum of atomic charges:   -0.0000000

LOEWDIN ATOMIC CHARGES
----------------------
   0 C :    0.007564
   1 C :    0.008966
   2 C :    0.009389
   3 C :    0.009047
   4 C :   -0.004826
   5 C :   -0.007205
   6 C :    0.078340
   7 C :   -0.114172
   8 C :   -0.017757
   9 N :   -0.034871
  10 C :   -0.023680
  11 N :   -0.025169
  12 C :   -0.014280
  13 C :    0.080074
  14 C :   -0.127569
  15 C :   -0.014241
  16 N :   -0.047653
  17 C :   -0.020008
  18 N :   -0.032599
  19 C :    0.057346
  20 C :    0.012551
  21 C :   -0.014042
  22 C :    0.103388
  23 O :   -0.121749
  24 N :   -0.005578
  25 C :    0.102681
  26 O :   -0.122355
  27 C :   -0.017661
  28 C :    0.054827
  29 C :   -0.049769
  30 C :   -0.055138
  31 C :   -0.046682
  32 O :   -0.121699
  33 S :    0.312944
  34 C :   -0.042044
  35 O :   -0.098795
  36 C :    0.027808
  37 C :   -0.056868
  38 C :   -0.178211
  39 S :    0.495795
  40 C :   -0.233622
  41 C :    0.017131
  42 C :   -0.014106
  43 O :   -0.095297
  44 C :    0.084598
  45 C :   -0.065863
  46 C :    0.085473
  47 O :   -0.092363
  48 C :    0.026056
  49 C :   -0.032651
  50 C :    0.108757
  51 O :   -0.114286
  52 N :   -0.009429
  53 C :    0.107319
  54 O :   -0.125988
  55 C :   -0.028912
  56 C :    0.035429
  57 C :   -0.049472
  58 C :   -0.061575
  59 C :   -0.048256
  60 O :   -0.108763
  61 S :    0.300780
  62 C :   -0.049498
  63 O :   -0.111458
  64 C :    0.090698
  65 C :   -0.059955
  66 C :    0.069177
  67 C :   -0.059563
  68 C :    0.078909
  69 C :   -0.130100
  70 C :   -0.021346
  71 N :   -0.043114
  72 C :   -0.019379
  73 N :   -0.043222
  74 C :   -0.013242
  75 C :   -0.010341
  76 C :    0.003473
  77 C :    0.005761
  78 C :    0.003120
  79 C :    0.006082
  80 C :    0.074166
  81 C :   -0.127980
  82 C :   -0.019044
  83 N :   -0.041218
  84 C :   -0.012801
  85 N :   -0.057921
  86 H :    0.042696
  87 H :    0.039989
  88 H :    0.039754
  89 H :    0.042585
  90 H :    0.056371
  91 H :    0.054629
  92 H :    0.032528
  93 H :    0.035216
  94 H :    0.012958
  95 H :    0.030582
  96 H :    0.040141
  97 H :    0.042599
  98 H :    0.013565
  99 H :    0.033206
 100 H :    0.051560
 101 H :    0.043701
 102 H :    0.037939
 103 H :    0.047080
 104 H :    0.041673
 105 H :    0.038598
 106 H :    0.038525
 107 H :    0.041844

  Mayer bond orders larger than 0.100000
B(  0-C ,  1-C ) :   1.3779 B(  0-C ,  5-C ) :   1.3701 B(  0-C , 86-H ) :   0.9852
B(  1-C ,  2-C ) :   1.3674 B(  1-C , 87-H ) :   0.9861 B(  2-C ,  3-C ) :   1.3731
B(  2-C , 88-H ) :   0.9863 B(  3-C ,  4-C ) :   1.3745 B(  3-C , 89-H ) :   0.9864
B(  4-C ,  5-C ) :   1.3012 B(  4-C , 13-C ) :   1.0252 B(  5-C ,  6-C ) :   1.0120
B(  6-C ,  7-C ) :   1.6800 B(  6-C , 12-C ) :   1.0124 B(  7-C ,  8-C ) :   1.1426
B(  7-C , 10-C ) :   1.1310 B(  8-C ,  9-N ) :   2.9833 B( 10-C , 11-N ) :   2.9781
B( 12-C , 13-C ) :   0.9674 B( 12-C , 19-C ) :   1.8047 B( 13-C , 14-C ) :   1.6668
B( 14-C , 15-C ) :   1.1654 B( 14-C , 17-C ) :   1.1321 B( 15-C , 16-N ) :   2.9847
B( 17-C , 18-N ) :   2.9978 B( 19-C , 20-C ) :   1.0093 B( 19-C , 90-H ) :   0.9041
B( 20-C , 21-C ) :   1.4214 B( 20-C , 30-C ) :   1.3738 B( 21-C , 22-C ) :   0.8914
B( 21-C , 27-C ) :   1.3967 B( 22-C , 23-O ) :   2.1361 B( 22-C , 24-N ) :   1.0591
B( 24-N , 25-C ) :   1.0272 B( 24-N , 36-C ) :   0.9959 B( 25-C , 26-O ) :   2.2450
B( 25-C , 27-C ) :   0.8639 B( 27-C , 28-C ) :   1.3241 B( 28-C , 29-C ) :   1.3403
B( 28-C , 91-H ) :   1.0256 B( 29-C , 30-C ) :   1.3320 B( 29-C , 34-C ) :   0.8356
B( 30-C , 31-C ) :   0.8550 B( 31-C , 32-O ) :   2.1469 B( 31-C , 33-S ) :   1.0455
B( 32-O , 33-S ) :   0.1091 B( 33-S , 34-C ) :   1.0144 B( 33-S , 35-O ) :   0.1051
B( 34-C , 35-O ) :   2.2360 B( 36-C , 37-C ) :   1.7311 B( 36-C , 92-H ) :   0.9620
B( 37-C , 38-C ) :   1.1151 B( 37-C , 93-H ) :   0.9407 B( 38-C , 39-S ) :   1.1650
B( 38-C , 40-C ) :   0.1335 B( 38-C , 42-C ) :   1.4506 B( 39-S , 40-C ) :   1.1222
B( 40-C , 41-C ) :   1.4955 B( 40-C , 48-C ) :   1.0316 B( 41-C , 42-C ) :   1.1905
B( 41-C , 47-O ) :   1.1505 B( 42-C , 43-O ) :   1.1239 B( 43-O , 44-C ) :   0.9487
B( 44-C , 45-C ) :   1.0647 B( 44-C , 94-H ) :   0.9476 B( 44-C , 95-H ) :   0.9550
B( 45-C , 46-C ) :   1.0660 B( 45-C , 96-H ) :   0.9343 B( 45-C , 97-H ) :   0.9322
B( 46-C , 47-O ) :   0.9436 B( 46-C , 98-H ) :   0.9476 B( 46-C , 99-H ) :   0.9538
B( 48-C , 49-C ) :   1.3848 B( 48-C , 58-C ) :   1.3718 B( 49-C , 50-C ) :   0.9013
B( 49-C , 55-C ) :   1.3919 B( 50-C , 51-O ) :   2.2150 B( 50-C , 52-N ) :   0.9834
B( 52-N , 53-C ) :   1.0182 B( 52-N , 64-C ) :   1.0626 B( 53-C , 54-O ) :   2.2052
B( 53-C , 55-C ) :   0.8805 B( 55-C , 56-C ) :   1.3224 B( 56-C , 57-C ) :   1.3420
B( 56-C ,100-H ) :   1.0276 B( 57-C , 58-C ) :   1.3393 B( 57-C , 62-C ) :   0.8389
B( 58-C , 59-C ) :   0.8495 B( 59-C , 60-O ) :   2.1903 B( 59-C , 61-S ) :   1.0155
B( 60-O , 61-S ) :   0.1060 B( 61-S , 62-C ) :   1.0300 B( 61-S , 63-O ) :   0.1097
B( 62-C , 63-O ) :   2.2204 B( 64-C , 65-C ) :   1.6685 B( 64-C ,101-H ) :   0.9756
B( 65-C , 66-C ) :   1.1340 B( 65-C ,102-H ) :   0.9301 B( 66-C , 67-C ) :   1.6140
B( 66-C ,103-H ) :   0.9503 B( 67-C , 68-C ) :   1.0345 B( 67-C , 80-C ) :   1.0201
B( 68-C , 69-C ) :   1.6543 B( 68-C , 74-C ) :   1.0061 B( 69-C , 70-C ) :   1.1351
B( 69-C , 72-C ) :   1.1411 B( 70-C , 71-N ) :   2.9860 B( 72-C , 73-N ) :   2.9817
B( 74-C , 75-C ) :   1.3080 B( 74-C , 79-C ) :   1.3823 B( 75-C , 76-C ) :   1.3820
B( 75-C , 80-C ) :   1.0156 B( 76-C , 77-C ) :   1.3672 B( 76-C ,104-H ) :   0.9863
B( 77-C , 78-C ) :   1.3761 B( 77-C ,105-H ) :   0.9867 B( 78-C , 79-C ) :   1.3724
B( 78-C ,106-H ) :   0.9855 B( 79-C ,107-H ) :   0.9841 B( 80-C , 81-C ) :   1.6448
B( 81-C , 82-C ) :   1.1413 B( 81-C , 84-C ) :   1.1552 B( 82-C , 83-N ) :   2.9937
B( 84-C , 85-N ) :   2.9987

-----------------------------------------------------------------------------
         ABSORPTION SPECTRUM VIA TRANSITION ELECTRIC DIPOLE MOMENTS
-----------------------------------------------------------------------------
State   Energy  Wavelength   fosc         T2         TX        TY        TZ
        (cm-1)    (nm)                  (au**2)     (au)      (au)      (au)
-----------------------------------------------------------------------------
   0   17689.4    565.3   0.020120167   0.37445   0.61081   0.03311  -0.01615
   1   17963.6    556.7   0.004265131   0.07817  -0.10629  -0.17325   0.19196
   2   19548.0    511.6   0.247522443   4.16857   0.29256  -0.24902   2.00524
   3   22116.3    452.2   0.272637028   4.05834   0.40737  -0.65794   1.85997
   4   22460.9    445.2   0.081953068   1.20120   0.15748  -0.36764   1.02041
   5   23710.0    421.8   0.000597421   0.00830  -0.02701   0.07164   0.04933
   6   24899.0    401.6   0.165368239   2.18648   0.60473   0.86562   1.03513
   7   25159.7    397.5   0.026395103   0.34538   0.34668  -0.45098   0.14767
   8   25697.9    389.1   0.361685324   4.63349  -2.08596  -0.05831  -0.52806
   9   26383.1    379.0   0.313748317   3.91499   0.54089   0.63773  -1.79325
  10   26672.6    374.9   0.091226080   1.12597  -0.57038  -0.71635   0.53618
  11   26996.3    370.4   0.002920238   0.03561   0.09480   0.16311  -0.00459
  12   27105.5    368.9   0.041918051   0.50912  -0.28575  -0.06012  -0.65104
  13   27289.8    366.4   0.026709771   0.32221   0.56334  -0.06208   0.03185
  14   27316.6    366.1   0.024007074   0.28933   0.25106  -0.34558   0.32691
  15   28128.1    355.5   0.001734175   0.02030   0.01245  -0.03134   0.13842
  16   28820.5    347.0   0.037338818   0.42652  -0.45819  -0.32636  -0.33176
  17   28857.5    346.5   0.008249554   0.09411  -0.21687  -0.15207   0.15476
  18   29858.3    334.9   0.334270982   3.68561   1.26322   0.06733   1.44407
  19   30068.2    332.6   0.196410039   2.15046  -1.37348   0.06503   0.50969
  20   30326.3    329.7   0.108836341   1.18149   0.28521  -0.02424  -1.04860
  21   31418.3    318.3   0.017187314   0.18009  -0.26408  -0.33156  -0.02055
  22   31490.1    317.6   0.000151341   0.00158   0.02720   0.00867  -0.02770
  23   31579.8    316.7   0.197679660   2.06076   1.02342   0.96628  -0.28229
  24   31931.1    313.2   0.400826418   4.13256  -1.92201   0.45447   0.48154
  25   32265.8    309.9   0.097738152   0.99723   0.93267  -0.04570  -0.35394
  26   32621.1    306.6   0.003075730   0.03104   0.16786   0.04395  -0.03051
  27   32697.8    305.8   0.063900102   0.64337   0.75356   0.21726  -0.16827
  28   32899.5    304.0   0.133653013   1.33741   1.13188   0.05433  -0.23091
  29   33149.3    301.7   0.004200198   0.04171   0.16817   0.04925   0.10491
  30   33248.4    300.8   0.024108531   0.23871   0.18195   0.09812  -0.44269
  31   33299.8    300.3   0.055289500   0.54661   0.56802   0.26413  -0.39268
  32   33421.5    299.2   0.000925987   0.00912   0.04441   0.05428   0.06483
  33   33687.7    296.8   0.139270640   1.36102  -0.85856  -0.68874   0.38669
  34   33933.2    294.7   0.006664939   0.06466   0.14045   0.16642  -0.13130
  35   34104.3    293.2   0.063697118   0.61487  -0.70472  -0.33728  -0.06700
  36   34299.5    291.5   0.075660651   0.72620   0.79121  -0.23925   0.20724
  37   34567.9    289.3   0.245421113   2.33730   1.33583  -0.50379  -0.54686
  38   34618.5    288.9   0.096479266   0.91749   0.75294  -0.05859  -0.58919
  39   34882.0    286.7   0.014385466   0.13577   0.33689  -0.14783   0.02039
  40   35220.4    283.9   0.013715069   0.12820  -0.31104   0.12888   0.12183
  41   35298.5    283.3   0.454707789   4.24084   0.57436   0.20423   1.96704
  42   35349.1    282.9   0.282708889   2.63291  -0.71942   0.75393  -1.24376
  43   35638.9    280.6   0.025447460   0.23507  -0.05693   0.39269   0.27861
  44   35815.7    279.2   0.139746082   1.28452  -0.46855  -0.78371  -0.67140
  45   36082.5    277.1   0.033535473   0.30597   0.04199  -0.55085   0.02789
  46   36502.7    274.0   0.086728510   0.78219   0.24481  -0.39123  -0.75445
  47   36647.5    272.9   0.172610525   1.55059   0.87811  -0.05074   0.88144
  48   36997.3    270.3   0.039038102   0.34737  -0.56480   0.13330  -0.10297
  49   37060.6    269.8   0.016256546   0.14441  -0.07749  -0.21444  -0.30400
  50   37069.0    269.8   0.087473279   0.77686   0.37594   0.41192   0.68253
  51   37377.3    267.5   0.031615873   0.27847   0.50481   0.04916   0.14567
  52   37898.2    263.9   0.025746943   0.22366  -0.19969  -0.26448   0.33739
  53   38053.7    262.8   0.063384048   0.54835  -0.23040  -0.67699   0.19223
  54   38204.4    261.8   0.294262992   2.53570  -0.48772  -0.54856  -1.41312
  55   38699.1    258.4   0.019584708   0.16661   0.11483   0.28260   0.27122
  56   38925.1    256.9   0.003420247   0.02893  -0.13242  -0.09490  -0.04885
  57   39305.7    254.4   0.000556745   0.00466  -0.04441   0.05108  -0.00905
  58   39639.9    252.3   0.010541600   0.08755   0.18135   0.07480   0.22150
  59   39853.7    250.9   0.035079401   0.28977  -0.08357  -0.21940  -0.48441
  60   40198.4    248.8   0.003440144   0.02817   0.01478   0.12028   0.11614
  61   40318.3    248.0   0.001295775   0.01058   0.05502  -0.04066  -0.07681

FINAL SINGLE POINT ENERGY     -4903.202644306750

DIPOLE MOMENT
-------------
                                X             Y             Z
Electronic contribution:     21.01386       3.75727      28.81393
Nuclear contribution   :    -20.72019      -3.94861     -28.16868
                        -----------------------------------------
Total Dipole Moment    :      0.29367      -0.19135       0.64525
                        -----------------------------------------
Magnitude (a.u.)       :      0.73431
Magnitude (Debye)      :      1.86646

Rotational constants in cm-1:     0.001206     0.000228     0.000208
Rotational constants in MHz :    36.141966     6.825047     6.230854

                             ****ORCA TERMINATED NORMALLY****
TOTAL RUN TIME: 0 days 0 hours 16 minutes 25 seconds 731 msec
