                         Program Version 4.2.0 -  RELEASE  -
|  1> # ORCA input file
|  2> # SCF done       -184.598846596068          0.000245706611
|  3> ! CAM-B3LYP def2-SVP def2/J RIJCOSX Grid4 TightSCF
|  4> %maxcore 5000
|  5> %tddft
|  6>     Mode sTDDFT
|  7>     Ethresh 5.0
|  8>     maxcore 5000
|  9> end
| 10>
| 11> %pal
| 12>   nprocs 6
| 13>   end
| 14> * xyz 0 1
| 15>    C       -1.10118        -1.82304        -1.74467
| 16>    C       -1.74634        -0.60894        -1.92180
| 17>    C       -2.51756        -0.36398        -3.05034
| 18>    C       -2.66116        -1.32439        -4.03958
| 19>    C       -2.02075        -2.54112        -3.87412
| 20>    C       -1.24107        -2.79672        -2.72227
| 21>    C       -0.70690        -4.14753        -2.80129
| 22>    C        0.22313        -4.70638        -1.97173
| 23>    C        0.80615        -4.03518        -0.87366
| 24>    N        1.31685        -3.54623         0.02949
| 25>    C        0.76772        -6.00086        -2.12288
| 26>    N        1.25328        -7.03795        -2.19814
| 27>    C       -1.35759        -4.78357        -3.94947
| 28>    C       -1.97096        -3.71166        -4.73491
| 29>    C       -2.18882        -3.72959        -6.08540
| 30>    C       -1.85963        -4.81259        -6.92546
| 31>    N       -1.57196        -5.64557        -7.66112
| 32>    C       -2.75475        -2.65332        -6.80054
| 33>    N       -3.24606        -1.82592        -7.42540
| 34>    C       -1.47458        -6.12475        -4.13111
| 35>    C       -2.38949        -6.79433        -4.99061
| 36>    C       -2.15344        -8.11929        -5.58874
| 37>    N       -3.13602        -8.56327        -6.30904
| 38>    C       -4.10685        -7.60976        -6.24473
| 39>    C       -3.66233        -6.47516        -5.40207
| 40>    C       -4.73101        -5.52340        -5.25914
| 41>    S       -4.79112        -4.23409        -4.23583
| 42>    C       -5.77675        -6.02611        -6.11427
| 43>    C       -5.36688        -7.33200        -6.68803
| 44>    N       -6.36116        -7.83902        -7.47306
| 45>    C       -7.32951        -6.97478        -7.41278
| 46>    C       -7.04592        -5.80218        -6.56681
| 47>    C       -7.94880        -4.68201        -6.40867
| 48>    C       -9.33798        -4.90578        -6.37112
| 49>    O       -9.84990        -6.17057        -6.23989
| 50>    C       -9.55366        -6.80403        -5.00434
| 51>    C      -10.20897        -3.80716        -6.42164
| 52>    C       -9.69747        -2.50714        -6.39163
| 53>    C       -8.32651        -2.28748        -6.34229
| 54>    C       -7.46049        -3.38346        -6.37822
| 55>    O       -7.73559        -1.07475        -6.29408
| 56>    C       -8.54411         0.07969        -6.28806
| 57>    C      -11.62921        -4.03850        -6.53669
| 58>    C      -12.71237        -3.28593        -5.89569
| 59>    N      -13.90680        -3.72701        -6.16199
| 60>    C      -13.72960        -4.78719        -7.00242
| 61>    C      -12.28341        -5.01560        -7.23710
| 62>    C      -12.10734        -6.07201        -8.19638
| 63>    S      -10.73309        -6.52486        -8.97932
| 64>    C      -13.44012        -6.53814        -8.46544
| 65>    C      -14.42456        -5.69379        -7.75141
| 66>    N      -15.69378        -6.04410        -8.10814
| 67>    C      -15.56981        -6.99540        -8.98029
| 68>    C      -14.17563        -7.37790        -9.26787
| 69>    C      -13.75636        -8.31964       -10.24958
| 70>    C      -12.60254        -9.03779       -10.22351
| 71>    C      -11.95245        -9.65031       -11.38449
| 72>    C      -12.53676        -9.96863       -12.57761
| 73>    C      -13.90855        -9.80864       -12.87133
| 74>    N      -15.01378        -9.70917       -13.16416
| 75>    C      -11.84663       -10.55380       -13.66250
| 76>    N      -11.34683       -11.03111       -14.57794
| 77>    C      -10.55962        -9.85380       -11.01662
| 78>    C      -10.40504        -9.59333        -9.63494
| 79>    C       -9.16457        -9.69679        -9.02828
| 80>    C       -8.07197       -10.04114        -9.80886
| 81>    C       -8.22182       -10.30241       -11.16493
| 82>    C       -9.46154       -10.21923       -11.78123
| 83>    C      -11.70096        -9.23125        -9.08650
| 84>    C      -12.08453        -9.34024        -7.77737
| 85>    C      -11.19087        -9.61407        -6.72556
| 86>    N      -10.50756        -9.80119        -5.82175
| 87>    C      -13.41694        -9.23374        -7.32925
| 88>    N      -14.48789        -9.20133        -6.91715
| 89>    H       -0.51366        -1.99953        -0.85860
| 90>    H       -1.64990         0.15478        -1.16537
| 91>    H       -3.01654         0.58671        -3.15943
| 92>    H       -3.27364        -1.13079        -4.90510
| 93>    H       -0.86319        -6.78210        -3.52592
| 94>    H       -1.24537        -8.68544        -5.47712
| 95>    H       -8.23824        -7.11535        -7.97081
| 96>    H       -8.48989        -6.74721        -4.75980
| 97>    H       -9.84589        -7.84760        -5.11077
| 98>    H      -10.13095        -6.34111        -4.19675
| 99>    H      -10.39316        -1.68459        -6.43868
|100>    H       -6.39945        -3.19577        -6.41649
|101>    H       -7.85287         0.91918        -6.24509
|102>    H       -9.20031         0.10546        -5.41252
|103>    H       -9.14471         0.15370        -7.19975
|104>    H      -12.57491        -2.45199        -5.22897
|105>    H      -16.43381        -7.46048        -9.42149
|106>    H      -14.39310        -8.38411       -11.12251
|107>    H       -9.03660        -9.49473        -7.97753
|108>    H       -7.09619       -10.09115        -9.35149
|109>    H       -7.35823       -10.57037       -11.75405
|110>    H       -9.55710       -10.42154       -12.83570
|111> *
|112>
|113>                          ****END OF INPUT****

CARTESIAN COORDINATES (ANGSTROEM)
---------------------------------
  C     -1.101180   -1.823040   -1.744670
  C     -1.746340   -0.608940   -1.921800
  C     -2.517560   -0.363980   -3.050340
  C     -2.661160   -1.324390   -4.039580
  C     -2.020750   -2.541120   -3.874120
  C     -1.241070   -2.796720   -2.722270
  C     -0.706900   -4.147530   -2.801290
  C      0.223130   -4.706380   -1.971730
  C      0.806150   -4.035180   -0.873660
  N      1.316850   -3.546230    0.029490
  C      0.767720   -6.000860   -2.122880
  N      1.253280   -7.037950   -2.198140
  C     -1.357590   -4.783570   -3.949470
  C     -1.970960   -3.711660   -4.734910
  C     -2.188820   -3.729590   -6.085400
  C     -1.859630   -4.812590   -6.925460
  N     -1.571960   -5.645570   -7.661120
  C     -2.754750   -2.653320   -6.800540
  N     -3.246060   -1.825920   -7.425400
  C     -1.474580   -6.124750   -4.131110
  C     -2.389490   -6.794330   -4.990610
  C     -2.153440   -8.119290   -5.588740
  N     -3.136020   -8.563270   -6.309040
  C     -4.106850   -7.609760   -6.244730
  C     -3.662330   -6.475160   -5.402070
  C     -4.731010   -5.523400   -5.259140
  S     -4.791120   -4.234090   -4.235830
  C     -5.776750   -6.026110   -6.114270
  C     -5.366880   -7.332000   -6.688030
  N     -6.361160   -7.839020   -7.473060
  C     -7.329510   -6.974780   -7.412780
  C     -7.045920   -5.802180   -6.566810
  C     -7.948800   -4.682010   -6.408670
  C     -9.337980   -4.905780   -6.371120
  O     -9.849900   -6.170570   -6.239890
  C     -9.553660   -6.804030   -5.004340
  C    -10.208970   -3.807160   -6.421640
  C     -9.697470   -2.507140   -6.391630
  C     -8.326510   -2.287480   -6.342290
  C     -7.460490   -3.383460   -6.378220
  O     -7.735590   -1.074750   -6.294080
  C     -8.544110    0.079690   -6.288060
  C    -11.629210   -4.038500   -6.536690
  C    -12.712370   -3.285930   -5.895690
  N    -13.906800   -3.727010   -6.161990
  C    -13.729600   -4.787190   -7.002420
  C    -12.283410   -5.015600   -7.237100
  C    -12.107340   -6.072010   -8.196380
  S    -10.733090   -6.524860   -8.979320
  C    -13.440120   -6.538140   -8.465440
  C    -14.424560   -5.693790   -7.751410
  N    -15.693780   -6.044100   -8.108140
  C    -15.569810   -6.995400   -8.980290
  C    -14.175630   -7.377900   -9.267870
  C    -13.756360   -8.319640  -10.249580
  C    -12.602540   -9.037790  -10.223510
  C    -11.952450   -9.650310  -11.384490
  C    -12.536760   -9.968630  -12.577610
  C    -13.908550   -9.808640  -12.871330
  N    -15.013780   -9.709170  -13.164160
  C    -11.846630  -10.553800  -13.662500
  N    -11.346830  -11.031110  -14.577940
  C    -10.559620   -9.853800  -11.016620
  C    -10.405040   -9.593330   -9.634940
  C     -9.164570   -9.696790   -9.028280
  C     -8.071970  -10.041140   -9.808860
  C     -8.221820  -10.302410  -11.164930
  C     -9.461540  -10.219230  -11.781230
  C    -11.700960   -9.231250   -9.086500
  C    -12.084530   -9.340240   -7.777370
  C    -11.190870   -9.614070   -6.725560
  N    -10.507560   -9.801190   -5.821750
  C    -13.416940   -9.233740   -7.329250
  N    -14.487890   -9.201330   -6.917150
  H     -0.513660   -1.999530   -0.858600
  H     -1.649900    0.154780   -1.165370
  H     -3.016540    0.586710   -3.159430
  H     -3.273640   -1.130790   -4.905100
  H     -0.863190   -6.782100   -3.525920
  H     -1.245370   -8.685440   -5.477120
  H     -8.238240   -7.115350   -7.970810
  H     -8.489890   -6.747210   -4.759800
  H     -9.845890   -7.847600   -5.110770
  H    -10.130950   -6.341110   -4.196750
  H    -10.393160   -1.684590   -6.438680
  H     -6.399450   -3.195770   -6.416490
  H     -7.852870    0.919180   -6.245090
  H     -9.200310    0.105460   -5.412520
  H     -9.144710    0.153700   -7.199750
  H    -12.574910   -2.451990   -5.228970
  H    -16.433810   -7.460480   -9.421490
  H    -14.393100   -8.384110  -11.122510
  H     -9.036600   -9.494730   -7.977530
  H     -7.096190  -10.091150   -9.351490
  H     -7.358230  -10.570370  -11.754050
  H     -9.557100  -10.421540  -12.835700

 Total Charge           Charge          ....    0
 Multiplicity           Mult            ....    1
 Number of Electrons    NEL             ....  502
 Basis Dimension        Dim             .... 1154

ORBITAL ENERGIES
----------------

  NO   OCC          E(Eh)            E(eV)
   0   2.0000     -88.930684     -2419.9269
   1   2.0000     -88.927277     -2419.8342
   2   2.0000     -19.261591      -524.1345
   3   2.0000     -19.256960      -524.0085
   4   2.0000     -14.436708      -392.8428
   5   2.0000     -14.434903      -392.7937
   6   2.0000     -14.433848      -392.7650
   7   2.0000     -14.433400      -392.7528
   8   2.0000     -14.432235      -392.7211
   9   2.0000     -14.431854      -392.7107
  10   2.0000     -14.431826      -392.7100
  11   2.0000     -14.431593      -392.7036
  12   2.0000     -14.430602      -392.6767
  13   2.0000     -14.430440      -392.6722
  14   2.0000     -14.428137      -392.6096
  15   2.0000     -14.426838      -392.5742
  16   2.0000     -10.368443      -282.1397
  17   2.0000     -10.365160      -282.0503
  18   2.0000     -10.362011      -281.9647
  19   2.0000     -10.361784      -281.9585
  20   2.0000     -10.361044      -281.9383
  21   2.0000     -10.360637      -281.9273
  22   2.0000     -10.359808      -281.9047
  23   2.0000     -10.359023      -281.8834
  24   2.0000     -10.357506      -281.8421
  25   2.0000     -10.357258      -281.8353
  26   2.0000     -10.353739      -281.7396
  27   2.0000     -10.353661      -281.7374
  28   2.0000     -10.352167      -281.6968
  29   2.0000     -10.352112      -281.6953
  30   2.0000     -10.352012      -281.6926
  31   2.0000     -10.351693      -281.6839
  32   2.0000     -10.350505      -281.6516
  33   2.0000     -10.350214      -281.6437
  34   2.0000     -10.349325      -281.6194
  35   2.0000     -10.348375      -281.5936
  36   2.0000     -10.339688      -281.3572
  37   2.0000     -10.339133      -281.3421
  38   2.0000     -10.338660      -281.3292
  39   2.0000     -10.336933      -281.2823
  40   2.0000     -10.336470      -281.2696
  41   2.0000     -10.335992      -281.2566
  42   2.0000     -10.334614      -281.2192
  43   2.0000     -10.334008      -281.2027
  44   2.0000     -10.333950      -281.2011
  45   2.0000     -10.333627      -281.1923
  46   2.0000     -10.332099      -281.1507
  47   2.0000     -10.330859      -281.1170
  48   2.0000     -10.330259      -281.1006
  49   2.0000     -10.328717      -281.0587
  50   2.0000     -10.327202      -281.0175
  51   2.0000     -10.326842      -281.0077
  52   2.0000     -10.326309      -280.9932
  53   2.0000     -10.324312      -280.9388
  54   2.0000     -10.323863      -280.9266
  55   2.0000     -10.322792      -280.8975
  56   2.0000     -10.322233      -280.8822
  57   2.0000     -10.321254      -280.8556
  58   2.0000     -10.319135      -280.7979
  59   2.0000     -10.318015      -280.7675
  60   2.0000     -10.317189      -280.7450
  61   2.0000     -10.312436      -280.6156
  62   2.0000     -10.311056      -280.5781
  63   2.0000     -10.310839      -280.5722
  64   2.0000     -10.310718      -280.5689
  65   2.0000     -10.310240      -280.5559
  66   2.0000     -10.309818      -280.5444
  67   2.0000     -10.308887      -280.5191
  68   2.0000     -10.305231      -280.4196
  69   2.0000     -10.303473      -280.3718
  70   2.0000     -10.301406      -280.3155
  71   2.0000     -10.300508      -280.2911
  72   2.0000     -10.300437      -280.2892
  73   2.0000     -10.294748      -280.1343
  74   2.0000      -8.025744      -218.3916
  75   2.0000      -8.021674      -218.2808
  76   2.0000      -5.994550      -163.1200
  77   2.0000      -5.994135      -163.1087
  78   2.0000      -5.990415      -163.0075
  79   2.0000      -5.990060      -162.9978
  80   2.0000      -5.985241      -162.8667
  81   2.0000      -5.981343      -162.7606
  82   2.0000      -1.169083       -31.8124
  83   2.0000      -1.160934       -31.5906
  84   2.0000      -1.104162       -30.0458
  85   2.0000      -1.100555       -29.9476
  86   2.0000      -1.084536       -29.5117
  87   2.0000      -1.081054       -29.4170
  88   2.0000      -1.048607       -28.5340
  89   2.0000      -1.044685       -28.4273
  90   2.0000      -1.029909       -28.0253
  91   2.0000      -1.027265       -27.9533
  92   2.0000      -1.019243       -27.7350
  93   2.0000      -1.016259       -27.6538
  94   2.0000      -1.011384       -27.5212
  95   2.0000      -1.010458       -27.4960
  96   2.0000      -1.009531       -27.4707
  97   2.0000      -1.006625       -27.3917
  98   2.0000      -0.987855       -26.8809
  99   2.0000      -0.983640       -26.7662
 100   2.0000      -0.978415       -26.6240
 101   2.0000      -0.971585       -26.4382
 102   2.0000      -0.965772       -26.2800
 103   2.0000      -0.952876       -25.9291
 104   2.0000      -0.949168       -25.8282
 105   2.0000      -0.930935       -25.3320
 106   2.0000      -0.927518       -25.2390
 107   2.0000      -0.926461       -25.2103
 108   2.0000      -0.906149       -24.6576
 109   2.0000      -0.901740       -24.5376
 110   2.0000      -0.897028       -24.4094
 111   2.0000      -0.881185       -23.9783
 112   2.0000      -0.877391       -23.8750
 113   2.0000      -0.876903       -23.8617
 114   2.0000      -0.870931       -23.6992
 115   2.0000      -0.864513       -23.5246
 116   2.0000      -0.860141       -23.4056
 117   2.0000      -0.854518       -23.2526
 118   2.0000      -0.844575       -22.9821
 119   2.0000      -0.815377       -22.1875
 120   2.0000      -0.811423       -22.0799
 121   2.0000      -0.807283       -21.9673
 122   2.0000      -0.803338       -21.8599
 123   2.0000      -0.798877       -21.7385
 124   2.0000      -0.790017       -21.4975
 125   2.0000      -0.786103       -21.3909
 126   2.0000      -0.771025       -20.9807
 127   2.0000      -0.762912       -20.7599
 128   2.0000      -0.758114       -20.6293
 129   2.0000      -0.737699       -20.0738
 130   2.0000      -0.728873       -19.8336
 131   2.0000      -0.727572       -19.7982
 132   2.0000      -0.726868       -19.7791
 133   2.0000      -0.723493       -19.6872
 134   2.0000      -0.721553       -19.6344
 135   2.0000      -0.720103       -19.5950
 136   2.0000      -0.709396       -19.3037
 137   2.0000      -0.708249       -19.2724
 138   2.0000      -0.700556       -19.0631
 139   2.0000      -0.680356       -18.5134
 140   2.0000      -0.678525       -18.4636
 141   2.0000      -0.676723       -18.4146
 142   2.0000      -0.673384       -18.3237
 143   2.0000      -0.670888       -18.2558
 144   2.0000      -0.665315       -18.1041
 145   2.0000      -0.659673       -17.9506
 146   2.0000      -0.651081       -17.7168
 147   2.0000      -0.647160       -17.6101
 148   2.0000      -0.625642       -17.0246
 149   2.0000      -0.622445       -16.9376
 150   2.0000      -0.620161       -16.8754
 151   2.0000      -0.616187       -16.7673
 152   2.0000      -0.614156       -16.7120
 153   2.0000      -0.609469       -16.5845
 154   2.0000      -0.600053       -16.3283
 155   2.0000      -0.598779       -16.2936
 156   2.0000      -0.597511       -16.2591
 157   2.0000      -0.593637       -16.1537
 158   2.0000      -0.589463       -16.0401
 159   2.0000      -0.583104       -15.8671
 160   2.0000      -0.577417       -15.7123
 161   2.0000      -0.574246       -15.6260
 162   2.0000      -0.571037       -15.5387
 163   2.0000      -0.567020       -15.4294
 164   2.0000      -0.563378       -15.3303
 165   2.0000      -0.560578       -15.2541
 166   2.0000      -0.559081       -15.2134
 167   2.0000      -0.558330       -15.1929
 168   2.0000      -0.556248       -15.1363
 169   2.0000      -0.554210       -15.0808
 170   2.0000      -0.550232       -14.9726
 171   2.0000      -0.546836       -14.8802
 172   2.0000      -0.544393       -14.8137
 173   2.0000      -0.541606       -14.7378
 174   2.0000      -0.541029       -14.7221
 175   2.0000      -0.530949       -14.4479
 176   2.0000      -0.529692       -14.4136
 177   2.0000      -0.524487       -14.2720
 178   2.0000      -0.520976       -14.1765
 179   2.0000      -0.520002       -14.1500
 180   2.0000      -0.517920       -14.0933
 181   2.0000      -0.517485       -14.0815
 182   2.0000      -0.515291       -14.0218
 183   2.0000      -0.513794       -13.9810
 184   2.0000      -0.511178       -13.9099
 185   2.0000      -0.508943       -13.8490
 186   2.0000      -0.506823       -13.7913
 187   2.0000      -0.503303       -13.6956
 188   2.0000      -0.501501       -13.6465
 189   2.0000      -0.498981       -13.5780
 190   2.0000      -0.494327       -13.4513
 191   2.0000      -0.491928       -13.3860
 192   2.0000      -0.488099       -13.2819
 193   2.0000      -0.482335       -13.1250
 194   2.0000      -0.477787       -13.0013
 195   2.0000      -0.475684       -12.9440
 196   2.0000      -0.472773       -12.8648
 197   2.0000      -0.469142       -12.7660
 198   2.0000      -0.468908       -12.7596
 199   2.0000      -0.465356       -12.6630
 200   2.0000      -0.464780       -12.6473
 201   2.0000      -0.463250       -12.6057
 202   2.0000      -0.461772       -12.5655
 203   2.0000      -0.460876       -12.5411
 204   2.0000      -0.459617       -12.5068
 205   2.0000      -0.459117       -12.4932
 206   2.0000      -0.457790       -12.4571
 207   2.0000      -0.456979       -12.4350
 208   2.0000      -0.454330       -12.3630
 209   2.0000      -0.453389       -12.3373
 210   2.0000      -0.452614       -12.3162
 211   2.0000      -0.447916       -12.1884
 212   2.0000      -0.447465       -12.1761
 213   2.0000      -0.444382       -12.0922
 214   2.0000      -0.442310       -12.0359
 215   2.0000      -0.441804       -12.0221
 216   2.0000      -0.441201       -12.0057
 217   2.0000      -0.440357       -11.9827
 218   2.0000      -0.438488       -11.9319
 219   2.0000      -0.437896       -11.9158
 220   2.0000      -0.434840       -11.8326
 221   2.0000      -0.431267       -11.7354
 222   2.0000      -0.427375       -11.6295
 223   2.0000      -0.425251       -11.5717
 224   2.0000      -0.424977       -11.5642
 225   2.0000      -0.424154       -11.5418
 226   2.0000      -0.420243       -11.4354
 227   2.0000      -0.417195       -11.3525
 228   2.0000      -0.399147       -10.8613
 229   2.0000      -0.395448       -10.7607
 230   2.0000      -0.394664       -10.7393
 231   2.0000      -0.389191       -10.5904
 232   2.0000      -0.384233       -10.4555
 233   2.0000      -0.379121       -10.3164
 234   2.0000      -0.372636       -10.1400
 235   2.0000      -0.369907       -10.0657
 236   2.0000      -0.367995       -10.0137
 237   2.0000      -0.365565        -9.9475
 238   2.0000      -0.348216        -9.4754
 239   2.0000      -0.346419        -9.4265
 240   2.0000      -0.340940        -9.2774
 241   2.0000      -0.340367        -9.2618
 242   2.0000      -0.335072        -9.1178
 243   2.0000      -0.331728        -9.0268
 244   2.0000      -0.326063        -8.8726
 245   2.0000      -0.312770        -8.5109
 246   2.0000      -0.311944        -8.4884
 247   2.0000      -0.308367        -8.3911
 248   2.0000      -0.307156        -8.3581
 249   2.0000      -0.303630        -8.2622
 250   2.0000      -0.293656        -7.9908
 251   0.0000      -0.134941        -3.6719
 252   0.0000      -0.132433        -3.6037
 253   0.0000      -0.114617        -3.1189
 254   0.0000      -0.110364        -3.0032
 255   0.0000      -0.095489        -2.5984

MULLIKEN ATOMIC CHARGES
-----------------------
   0 C :   -0.033355
   1 C :    0.047288
   2 C :    0.050132
   3 C :   -0.029694
   4 C :    0.032099
   5 C :    0.015271
   6 C :    0.280461
   7 C :   -0.330924
   8 C :   -0.188822
   9 N :    0.169410
  10 C :   -0.182914
  11 N :    0.167307
  12 C :   -0.030204
  13 C :    0.206078
  14 C :   -0.326224
  15 C :   -0.186025
  16 N :    0.180448
  17 C :   -0.171968
  18 N :    0.165997
  19 C :    0.021242
  20 C :   -0.052404
  21 C :    0.084754
  22 N :   -0.005589
  23 C :    0.022382
  24 C :    0.006671
  25 C :   -0.008816
  26 S :   -0.102502
  27 C :    0.005485
  28 C :    0.025023
  29 N :   -0.032921
  30 C :    0.102732
  31 C :   -0.056714
  32 C :    0.050070
  33 C :    0.101075
  34 O :   -0.348785
  35 C :    0.187686
  36 C :    0.061526
  37 C :   -0.151120
  38 C :    0.255946
  39 C :   -0.041459
  40 O :   -0.299098
  41 C :    0.174084
  42 C :   -0.019758
  43 C :    0.060531
  44 N :   -0.023303
  45 C :    0.019189
  46 C :    0.004503
  47 C :    0.025905
  48 S :   -0.105312
  49 C :   -0.005807
  50 C :    0.024510
  51 N :   -0.010507
  52 C :    0.090639
  53 C :   -0.061089
  54 C :    0.020745
  55 C :   -0.024605
  56 C :    0.284399
  57 C :   -0.338068
  58 C :   -0.182603
  59 N :    0.164513
  60 C :   -0.190727
  61 N :    0.172798
  62 C :    0.019096
  63 C :    0.039042
  64 C :   -0.053494
  65 C :    0.056618
  66 C :    0.048716
  67 C :   -0.036025
  68 C :    0.198071
  69 C :   -0.323511
  70 C :   -0.121005
  71 N :    0.129764
  72 C :   -0.186120
  73 N :    0.181388
  74 H :    0.007766
  75 H :    0.007765
  76 H :    0.005232
  77 H :    0.009201
  78 H :    0.024294
  79 H :    0.022327
  80 H :    0.001361
  81 H :    0.027683
  82 H :    0.040516
  83 H :    0.015309
  84 H :   -0.030756
  85 H :   -0.021013
  86 H :    0.045040
  87 H :    0.022456
  88 H :    0.027992
  89 H :    0.012007
  90 H :    0.022307
  91 H :    0.025862
  92 H :    0.007519
  93 H :    0.018284
  94 H :    0.008126
  95 H :    0.008600
Sum of atomic charges:    0.0000000

LOEWDIN ATOMIC CHARGES
----------------------
   0 C :    0.006496
   1 C :    0.003342
   2 C :    0.007884
   3 C :    0.001612
   4 C :   -0.006113
   5 C :   -0.012595
   6 C :    0.079247
   7 C :   -0.123610
   8 C :   -0.019285
   9 N :   -0.036770
  10 C :   -0.021872
  11 N :   -0.037363
  12 C :   -0.020582
  13 C :    0.061344
  14 C :   -0.130345
  15 C :   -0.020722
  16 N :   -0.040842
  17 C :   -0.021645
  18 N :   -0.041414
  19 C :    0.045165
  20 C :   -0.049255
  21 C :    0.102426
  22 N :   -0.063403
  23 C :    0.038632
  24 C :   -0.011899
  25 C :   -0.140551
  26 S :    0.108268
  27 C :   -0.036981
  28 C :    0.052725
  29 N :   -0.083965
  30 C :    0.107096
  31 C :   -0.017754
  32 C :   -0.043523
  33 C :    0.051531
  34 O :   -0.120397
  35 C :    0.075151
  36 C :   -0.039870
  37 C :   -0.054206
  38 C :    0.051105
  39 C :   -0.000342
  40 O :   -0.094343
  41 C :    0.078363
  42 C :   -0.024842
  43 C :    0.090510
  44 N :   -0.076448
  45 C :    0.046814
  46 C :   -0.025705
  47 C :   -0.137448
  48 S :    0.129321
  49 C :   -0.010915
  50 C :    0.045650
  51 N :   -0.065179
  52 C :    0.106955
  53 C :   -0.049483
  54 C :    0.043916
  55 C :   -0.019952
  56 C :    0.079840
  57 C :   -0.125826
  58 C :   -0.020917
  59 N :   -0.040083
  60 C :   -0.019758
  61 N :   -0.037717
  62 C :   -0.014155
  63 C :   -0.009783
  64 C :   -0.003434
  65 C :    0.017135
  66 C :    0.004329
  67 C :    0.006742
  68 C :    0.065060
  69 C :   -0.134555
  70 C :    0.000761
  71 N :   -0.050295
  72 C :   -0.020276
  73 N :   -0.043366
  74 H :    0.042192
  75 H :    0.038906
  76 H :    0.038278
  77 H :    0.041271
  78 H :    0.051058
  79 H :    0.033340
  80 H :    0.014401
  81 H :    0.013223
  82 H :    0.022438
  83 H :    0.015427
  84 H :    0.029473
  85 H :    0.033946
  86 H :    0.032886
  87 H :    0.015055
  88 H :    0.017307
  89 H :    0.026919
  90 H :    0.033420
  91 H :    0.050910
  92 H :    0.038222
  93 H :    0.042239
  94 H :    0.039442
  95 H :    0.042010

  Mayer bond orders larger than 0.100000
B(  0-C ,  1-C ) :   1.3778 B(  0-C ,  5-C ) :   1.3729 B(  0-C , 74-H ) :   0.9842
B(  1-C ,  2-C ) :   1.3718 B(  1-C , 75-H ) :   0.9853 B(  2-C ,  3-C ) :   1.3670
B(  2-C , 76-H ) :   0.9857 B(  3-C ,  4-C ) :   1.3795 B(  3-C , 77-H ) :   0.9884
B(  4-C ,  5-C ) :   1.3120 B(  4-C , 13-C ) :   1.0123 B(  5-C ,  6-C ) :   1.0116
B(  6-C ,  7-C ) :   1.6629 B(  6-C , 12-C ) :   1.0280 B(  7-C ,  8-C ) :   1.1422
B(  7-C , 10-C ) :   1.1317 B(  8-C ,  9-N ) :   2.9842 B( 10-C , 11-N ) :   2.9853
B( 12-C , 13-C ) :   0.9930 B( 12-C , 19-C ) :   1.6983 B( 13-C , 14-C ) :   1.6632
B( 14-C , 15-C ) :   1.1612 B( 14-C , 17-C ) :   1.1379 B( 15-C , 16-N ) :   2.9972
B( 17-C , 18-N ) :   2.9752 B( 19-C , 20-C ) :   1.0773 B( 19-C , 78-H ) :   0.9261
B( 20-C , 21-C ) :   1.0184 B( 20-C , 24-C ) :   1.5099 B( 21-C , 22-N ) :   1.7174
B( 21-C , 79-H ) :   0.9941 B( 22-N , 23-C ) :   1.2809 B( 23-C , 24-C ) :   1.0638
B( 23-C , 28-C ) :   1.5139 B( 24-C , 25-C ) :   1.0361 B( 25-C , 26-S ) :   1.6717
B( 25-C , 27-C ) :   1.0142 B( 27-C , 28-C ) :   1.0568 B( 27-C , 31-C ) :   1.5722
B( 28-C , 29-N ) :   1.2743 B( 29-N , 30-C ) :   1.6870 B( 30-C , 31-C ) :   1.0359
B( 30-C , 80-H ) :   0.9852 B( 31-C , 32-C ) :   0.9628 B( 32-C , 33-C ) :   1.2953
B( 32-C , 39-C ) :   1.3759 B( 33-C , 34-O ) :   1.1405 B( 33-C , 36-C ) :   1.3876
B( 34-O , 35-C ) :   0.9190 B( 35-C , 81-H ) :   0.9605 B( 35-C , 82-H ) :   0.9612
B( 35-C , 83-H ) :   0.9647 B( 36-C , 37-C ) :   1.3007 B( 36-C , 42-C ) :   0.9715
B( 37-C , 38-C ) :   1.3038 B( 37-C , 84-H ) :   0.9985 B( 38-C , 39-C ) :   1.3210
B( 38-C , 40-O ) :   1.1573 B( 39-C , 85-H ) :   1.0018 B( 40-O , 41-C ) :   0.9628
B( 41-C , 86-H ) :   0.9788 B( 41-C , 87-H ) :   0.9687 B( 41-C , 88-H ) :   0.9687
B( 42-C , 43-C ) :   1.0384 B( 42-C , 46-C ) :   1.5866 B( 43-C , 44-N ) :   1.7125
B( 43-C , 89-H ) :   0.9917 B( 44-N , 45-C ) :   1.2703 B( 45-C , 46-C ) :   1.0566
B( 45-C , 50-C ) :   1.5252 B( 46-C , 47-C ) :   1.0312 B( 47-C , 48-S ) :   1.6577
B( 47-C , 49-C ) :   1.0523 B( 49-C , 50-C ) :   1.0598 B( 49-C , 53-C ) :   1.5210
B( 50-C , 51-N ) :   1.2715 B( 51-N , 52-C ) :   1.7268 B( 52-C , 53-C ) :   1.0102
B( 52-C , 90-H ) :   0.9942 B( 53-C , 54-C ) :   1.0733 B( 54-C , 55-C ) :   1.6935
B( 54-C , 91-H ) :   0.9283 B( 55-C , 56-C ) :   1.0308 B( 55-C , 68-C ) :   0.9909
B( 56-C , 57-C ) :   1.6578 B( 56-C , 62-C ) :   1.0099 B( 57-C , 58-C ) :   1.1359
B( 57-C , 60-C ) :   1.1434 B( 58-C , 59-N ) :   2.9822 B( 60-C , 61-N ) :   2.9878
B( 62-C , 63-C ) :   1.3115 B( 62-C , 67-C ) :   1.3725 B( 63-C , 64-C ) :   1.3765
B( 63-C , 68-C ) :   1.0057 B( 64-C , 65-C ) :   1.3730 B( 64-C , 92-H ) :   0.9834
B( 65-C , 66-C ) :   1.3607 B( 65-C , 93-H ) :   0.9839 B( 66-C , 67-C ) :   1.3721
B( 66-C , 94-H ) :   0.9873 B( 67-C , 95-H ) :   0.9843 B( 68-C , 69-C ) :   1.6613
B( 69-C , 70-C ) :   1.1626 B( 69-C , 72-C ) :   1.1545 B( 70-C , 71-N ) :   2.8581
B( 72-C , 73-N ) :   2.9981

-----------------------------------------------------------------------------
         ABSORPTION SPECTRUM VIA TRANSITION ELECTRIC DIPOLE MOMENTS
-----------------------------------------------------------------------------
State   Energy  Wavelength   fosc         T2         TX        TY        TZ
        (cm-1)    (nm)                  (au**2)     (au)      (au)      (au)
-----------------------------------------------------------------------------
   0   14931.7    669.7   0.004437133   0.09783   0.10031   0.27170  -0.11810
   1   14953.3    668.7   0.003983704   0.08771  -0.17623  -0.19972   0.12947
   2   17498.3    571.5   0.041895292   0.78822  -0.76040  -0.28885  -0.35577
   3   17820.8    561.1   0.020836922   0.38493  -0.60616  -0.06272  -0.11648
   4   18004.3    555.4   0.000854000   0.01562  -0.07969   0.08581  -0.04362
   5   18705.3    534.6   0.042619621   0.75010  -0.82065   0.08870  -0.26224
   6   19549.3    511.5   0.004691332   0.07900  -0.24973  -0.12659   0.02471
   7   19741.9    506.5   0.027241792   0.45428  -0.19204  -0.57834  -0.28795
   8   20124.7    496.9   0.107313300   1.75549  -0.54928  -1.05428  -0.58505
   9   20785.9    481.1   0.170797418   2.70513  -1.55854  -0.32706  -0.41125
  10   21414.0    467.0   0.122371240   1.88130   1.23780   0.28443   0.51794
  11   22175.7    450.9   0.012793086   0.18992  -0.03191  -0.41457  -0.13051
  12   22279.5    448.8   0.006811627   0.10065  -0.00730  -0.31690  -0.01304
  13   22890.4    436.9   0.012257238   0.17628   0.35573  -0.20623   0.08488
  14   22933.8    436.0   0.019211799   0.27578   0.41888   0.25924  -0.18198
  15   23411.4    427.1   0.007239616   0.10180  -0.13834  -0.28331   0.04902
  16   23803.0    420.1   0.046124016   0.63793   0.66896   0.12761   0.41730
  17   24737.0    404.3   0.008188112   0.10897  -0.16851   0.02878   0.28240
  18   24938.3    401.0   0.076479850   1.00961  -0.95197   0.18669  -0.26174
  19   25394.4    393.8   0.014007689   0.18160   0.27579  -0.31140  -0.09256
  20   25521.1    391.8   0.053695590   0.69265   0.65119   0.14240   0.49832
  21   25839.5    387.0   0.038821622   0.49461   0.05250   0.67369   0.19494
  22   25962.6    385.2   0.066030720   0.83728  -0.74985  -0.31880  -0.41638
  23   26032.8    384.1   0.005449207   0.06891   0.21701   0.09382   0.11409
  24   26810.5    373.0   0.156393754   1.92040   0.13029  -1.15017  -0.76193
  25   26911.6    371.6   0.229243992   2.80436   1.17290   1.05976   0.55279
  26   27116.9    368.8   0.092323511   1.12085   0.57415  -0.85168   0.25659
  27   27362.0    365.5   0.003866253   0.04652   0.15662   0.09450   0.11427
  28   27394.2    365.0   0.034261091   0.41174  -0.33664  -0.34964  -0.41971
  29   27702.7    361.0   0.043956141   0.52236  -0.36356   0.54344   0.30800
  30   27776.9    360.0   0.056124097   0.66518  -0.31762  -0.65804  -0.36232
  31   27885.7    358.6   0.082363876   0.97237   0.31938   0.64453   0.67450
  32   27940.8    357.9   0.002858657   0.03368  -0.18203  -0.00056   0.02340
  33   28408.5    352.0   0.024082728   0.27908   0.46456   0.08943   0.23509
  34   28691.0    348.5   0.209782635   2.40713  -1.32840   0.11326  -0.79351
  35   28776.1    347.5   0.148992573   1.70454   1.03626   0.65327   0.45160
  36   29210.1    342.3   0.122361083   1.37907   0.69114  -0.13733   0.93943
  37   29484.0    339.2   0.156860735   1.75147   0.35104  -1.06493  -0.70297
  38   29746.7    336.2   0.302841967   3.35160   0.15926   0.94205   1.56166
  39   29931.3    334.1   0.205472193   2.25997   1.12739   0.04385   0.99350
  40   29965.7    333.7   0.018116502   0.19903  -0.27050   0.34613   0.07783
  41   30365.1    329.3   0.178753870   1.93801   0.51581  -0.32834  -1.25066
  42   30578.9    327.0   0.034031694   0.36638   0.12855  -0.54127  -0.23852
  43   30720.2    325.5   0.017058394   0.18281   0.28933  -0.06416  -0.30819
  44   30819.0    324.5   0.023601808   0.25212  -0.44861   0.17709   0.13965
  45   30936.3    323.2   0.002313788   0.02462   0.11020   0.08427  -0.07333
  46   31164.1    320.9   0.136992004   1.44716   0.76666   0.10131   0.92148
  47   31251.6    320.0   0.010554996   0.11119  -0.09313   0.17921  -0.26533
  48   31543.6    317.0   0.091408052   0.95400   0.20126   0.10670  -0.94980
  49   31579.4    316.7   0.017904266   0.18665  -0.13122  -0.14575  -0.38495
  50   31627.3    316.2   0.107348668   1.11740  -0.20989   0.07892  -1.03302
  51   31781.5    314.6   0.029684696   0.30749   0.02139   0.46344  -0.30374
  52   32105.4    311.5   0.176658203   1.81147   0.72771  -0.18779   1.11653
  53   32209.6    310.5   0.065696383   0.67148   0.48896  -0.50446   0.42181
  54   32374.5    308.9   0.006167503   0.06272  -0.11019   0.14121  -0.17503
  55   32412.8    308.5   0.002900053   0.02946  -0.00633  -0.07760   0.15295
  56   32714.5    305.7   0.033790548   0.34004   0.57673   0.02992   0.08077
  57   32797.9    304.9   0.014905090   0.14961   0.33075  -0.16779   0.10984
  58   32953.4    303.5   0.005753574   0.05748   0.07222   0.21806   0.06865
  59   33127.2    301.9   0.010094414   0.10032  -0.06688   0.30651   0.04352
  60   33232.0    300.9   0.004552392   0.04510  -0.12246  -0.16869  -0.04059
  61   33647.9    297.2   0.026998066   0.26415  -0.47241   0.19375   0.05869
  62   33717.5    296.6   0.046469881   0.45372   0.57874  -0.27002   0.21417
  63   33844.6    295.5   0.000357390   0.00348   0.03837   0.01851  -0.04076
  64   33972.3    294.4   0.013216708   0.12808  -0.01283  -0.35759   0.00670
  65   34071.2    293.5   0.010195913   0.09852   0.04787   0.05647   0.30502
  66   34209.6    292.3   0.015028802   0.14463   0.00493   0.36653  -0.10129
  67   34519.8    289.7   0.144970529   1.38257  -0.73791   0.07830  -0.91210
  68   34589.4    289.1   0.092561624   0.88097  -0.29083  -0.21956  -0.86497
  69   34690.8    288.3   0.009021046   0.08561   0.04716  -0.03952  -0.28605
  70   35106.4    284.8   0.076821376   0.72040  -0.69737  -0.03048  -0.48284
  71   35453.9    282.1   0.085958566   0.79818  -0.45972  -0.02235  -0.76573
  72   35495.5    281.7   0.065495769   0.60746   0.48770  -0.51598   0.32151
  73   35597.1    280.9   0.005934534   0.05488   0.07507   0.21925  -0.03433
  74   35607.9    280.8   0.010313226   0.09535  -0.30028  -0.05090  -0.05092
  75   35877.6    278.7   0.055546248   0.50969   0.05947  -0.42006  -0.57419
  76   36020.9    277.6   0.007418620   0.06780   0.14522  -0.11414  -0.18353
  77   36214.6    276.1   0.002598803   0.02362  -0.13230   0.00371  -0.07816
  78   36328.5    275.3   0.000753940   0.00683   0.06341   0.01713   0.05017
  79   36423.4    274.5   0.001303870   0.01179   0.05978  -0.06368   0.06447
  80   36836.6    271.5   0.031025634   0.27728   0.15340   0.19950   0.46255
  81   37066.3    269.8   0.003482401   0.03093   0.10161  -0.01151   0.14308
  82   37109.1    269.5   0.015949247   0.14149  -0.09976  -0.01746  -0.36227
  83   37204.0    268.8   0.107742930   0.95340   0.56542   0.22472   0.76368
  84   37251.6    268.4   0.041971886   0.37093  -0.58370   0.06779  -0.16007
  85   37711.8    265.2   0.003579299   0.03125   0.16840  -0.04060   0.03522
  86   37962.3    263.4   0.039593445   0.34336  -0.58264  -0.00803   0.06179
  87   38182.6    261.9   0.030668850   0.26443   0.24379  -0.43099  -0.13871
  88   38374.2    260.6   0.260378030   2.23378   0.01058   1.40003   0.52304
  89   38441.7    260.1   0.063777656   0.54619   0.67020  -0.20455   0.23490
  90   38489.5    259.8   0.003856882   0.03299   0.06527  -0.16637  -0.03240
  91   38673.4    258.6   0.291058024   2.47767  -1.21804   0.68018  -0.72897
  92   38702.3    258.4   0.190061011   1.61671  -0.57861  -0.72740  -0.86764
  93   38975.4    256.6   0.152680998   1.28964  -0.71007   0.78285  -0.41545
  94   39091.1    255.8   0.001752167   0.01476  -0.10006   0.02980  -0.06210
  95   39378.0    253.9   0.097147182   0.81218   0.88139   0.00853  -0.18775
  96   39472.4    253.3   0.195829611   1.63328   1.21484   0.22275   0.32837
  97   39668.4    252.1   0.223031307   1.85096  -0.47388  -0.58686  -1.13225
  98   39974.6    250.2   0.169955617   1.39967   0.79608  -0.09547  -0.86995
  99   40100.2    249.4   0.550660602   4.52078   1.03972  -1.52589  -1.05424

FINAL SINGLE POINT ENERGY     -3822.777491586452

DIPOLE MOMENT
-------------
                                X             Y             Z
Electronic contribution:     -0.48600     -19.22207      -7.76038
Nuclear contribution   :      0.76891      22.46745       9.13254
                        -----------------------------------------
Total Dipole Moment    :      0.28291       3.24538       1.37216
                        -----------------------------------------
Magnitude (a.u.)       :      3.53487
Magnitude (Debye)      :      8.98494

Rotational constants in cm-1:     0.001920     0.000495     0.000436
Rotational constants in MHz :    57.571930    14.830915    13.067026

                             ****ORCA TERMINATED NORMALLY****
TOTAL RUN TIME: 0 days 0 hours 12 minutes 29 seconds 716 msec
