                         Program Version 4.2.0 -  RELEASE  -
|  1> # ORCA input file
|  2> # SCF done       -186.622065624798          0.000873008041
|  3> ! CAM-B3LYP def2-SVP def2/J RIJCOSX Grid4 TightSCF
|  4> %maxcore 5000
|  5> %tddft
|  6>     Mode sTDDFT
|  7>     Ethresh 5.0
|  8>     maxcore 5000
|  9> end
| 10>
| 11> %pal
| 12>   nprocs 6
| 13>   end
| 14> * xyz 0 1
| 15>    C      -15.03812        -6.64923        -0.98864
| 16>    C      -15.50411        -5.51990        -1.64358
| 17>    C      -14.63042        -4.53699        -2.08940
| 18>    C      -13.26401        -4.65094        -1.88600
| 19>    C      -12.78676        -5.77394        -1.23124
| 20>    C      -13.67274        -6.78129        -0.78431
| 21>    C      -12.90403        -7.84372        -0.15432
| 22>    C      -13.40360        -8.90794         0.54138
| 23>    C      -14.78193        -9.14448         0.74084
| 24>    N      -15.88407        -9.39124         0.94153
| 25>    C      -12.62183        -9.88416         1.19730
| 26>    N      -12.04229       -10.70198         1.75632
| 27>    C      -11.49387        -7.54194        -0.40875
| 28>    C      -11.43292        -6.15077        -0.85918
| 29>    C      -10.37793        -5.29695        -0.68626
| 30>    C       -9.16955        -5.65215        -0.05308
| 31>    N       -8.18462        -5.87089         0.49443
| 32>    C      -10.39177        -3.94493        -1.08777
| 33>    N      -10.33785        -2.84590        -1.41284
| 34>    C      -10.48312        -8.44750        -0.36647
| 35>    C       -9.18949        -8.31490        -0.94578
| 36>    C       -7.97554        -8.95821        -0.41779
| 37>    N       -6.90469        -8.72572        -1.11190
| 38>    C       -7.30039        -7.95185        -2.15957
| 39>    C       -8.75491        -7.69742        -2.09596
| 40>    C       -9.17441        -6.94085        -3.24606
| 41>    S      -10.72945        -6.56942        -3.65049
| 42>    C       -7.95267        -6.64903        -3.95540
| 43>    C       -6.81456        -7.29540        -3.25354
| 44>    N       -5.64150        -7.01299        -3.88241
| 45>    C       -5.95284        -6.23248        -4.87274
| 46>    C       -7.39036        -5.93112        -4.98251
| 47>    C       -7.97241        -5.09848        -6.00104
| 48>    C       -9.27431        -5.29241        -6.44313
| 49>    C       -9.84095        -4.49185        -7.42771
| 50>    C       -9.13422        -3.45059        -8.00178
| 51>    C       -7.77727        -3.25605        -7.61974
| 52>    C       -7.20833        -4.05817        -6.59845
| 53>    N       -5.96551        -3.77754        -6.17004
| 54>    C       -5.25940        -2.84995        -6.75258
| 55>    C       -5.77509        -2.17887        -7.91197
| 56>    N       -7.01114        -2.36890        -8.27395
| 57>    C       -4.91138        -1.31082        -8.75574
| 58>    C       -3.91638        -2.53201        -6.20394
| 59>    C       -9.69749        -2.55202        -8.97471
| 60>    C      -10.43349        -2.91212       -10.19144
| 61>    N      -10.74525        -1.89875       -10.94429
| 62>    C      -10.26460        -0.79752       -10.29700
| 63>    C       -9.59673        -1.18810        -9.04684
| 64>    C       -9.22773        -0.00996        -8.30012
| 65>    S       -8.59684        -0.00730        -6.77032
| 66>    C       -9.58846         1.09215        -9.13908
| 67>    C      -10.23982         0.56879       -10.36616
| 68>    N      -10.65358         1.58142       -11.17068
| 69>    C      -10.32053         2.67316       -10.55656
| 70>    C       -9.63187         2.47860        -9.26757
| 71>    C       -9.32456         3.62034        -8.50230
| 72>    C       -8.56743         3.85310        -7.38019
| 73>    C       -8.72724         5.07674        -6.57644
| 74>    C       -9.29491         6.25694        -6.96465
| 75>    C       -9.81539         6.55842        -8.24380
| 76>    N      -10.24472         6.89573        -9.25386
| 77>    C       -9.38994         7.39549        -6.13098
| 78>    N       -9.50440         8.35556        -5.51408
| 79>    C       -8.11547         4.81224        -5.28398
| 80>    C       -7.45145         3.56655        -5.34958
| 81>    C       -6.79601         3.05625        -4.24225
| 82>    C       -6.80308         3.79853        -3.07011
| 83>    C       -7.44585         5.02646        -3.00584
| 84>    C       -8.10836         5.54645        -4.10819
| 85>    C       -7.61833         3.02500        -6.68706
| 86>    C       -6.90783         1.96951        -7.22078
| 87>    C       -5.89606         1.26616        -6.52908
| 88>    N       -5.04805         0.65520        -6.05558
| 89>    C       -6.85513         1.70753        -8.60577
| 90>    N       -6.75721         1.47439        -9.72478
| 91>    H      -15.72967        -7.40626        -0.65689
| 92>    H      -16.56412        -5.40791        -1.81289
| 93>    H      -15.01847        -3.67168        -2.60470
| 94>    H      -12.59123        -3.89007        -2.24695
| 95>    H      -10.66818        -9.40599         0.10201
| 96>    H       -7.94254        -9.56044         0.47295
| 97>    H       -5.20161        -5.88035        -5.55495
| 98>    H       -9.86409        -6.08421        -6.00943
| 99>    H      -10.86706        -4.65945        -7.71950
|100>    H       -4.41752        -0.55410        -8.15045
|101>    H       -5.51092        -0.83193        -9.52517
|102>    H       -4.13982        -1.91612        -9.23145
|103>    H       -3.14587        -2.68466        -6.95778
|104>    H       -3.71379        -3.15941        -5.34055
|105>    H       -3.89190        -1.48430        -5.90557
|106>    H      -10.70454        -3.91479       -10.47233
|107>    H      -10.53774         3.63712       -10.98459
|108>    H       -9.86660         4.48780        -8.86168
|109>    H       -6.30573         2.09702        -4.27533
|110>    H       -6.30425         3.41018        -2.19547
|111>    H       -7.43920         5.58520        -2.08272
|112>    H       -8.61313         6.49556        -4.03513
|113> *
|114>
|115>                          ****END OF INPUT****

CARTESIAN COORDINATES (ANGSTROEM)
---------------------------------
  C    -15.038120   -6.649230   -0.988640
  C    -15.504110   -5.519900   -1.643580
  C    -14.630420   -4.536990   -2.089400
  C    -13.264010   -4.650940   -1.886000
  C    -12.786760   -5.773940   -1.231240
  C    -13.672740   -6.781290   -0.784310
  C    -12.904030   -7.843720   -0.154320
  C    -13.403600   -8.907940    0.541380
  C    -14.781930   -9.144480    0.740840
  N    -15.884070   -9.391240    0.941530
  C    -12.621830   -9.884160    1.197300
  N    -12.042290  -10.701980    1.756320
  C    -11.493870   -7.541940   -0.408750
  C    -11.432920   -6.150770   -0.859180
  C    -10.377930   -5.296950   -0.686260
  C     -9.169550   -5.652150   -0.053080
  N     -8.184620   -5.870890    0.494430
  C    -10.391770   -3.944930   -1.087770
  N    -10.337850   -2.845900   -1.412840
  C    -10.483120   -8.447500   -0.366470
  C     -9.189490   -8.314900   -0.945780
  C     -7.975540   -8.958210   -0.417790
  N     -6.904690   -8.725720   -1.111900
  C     -7.300390   -7.951850   -2.159570
  C     -8.754910   -7.697420   -2.095960
  C     -9.174410   -6.940850   -3.246060
  S    -10.729450   -6.569420   -3.650490
  C     -7.952670   -6.649030   -3.955400
  C     -6.814560   -7.295400   -3.253540
  N     -5.641500   -7.012990   -3.882410
  C     -5.952840   -6.232480   -4.872740
  C     -7.390360   -5.931120   -4.982510
  C     -7.972410   -5.098480   -6.001040
  C     -9.274310   -5.292410   -6.443130
  C     -9.840950   -4.491850   -7.427710
  C     -9.134220   -3.450590   -8.001780
  C     -7.777270   -3.256050   -7.619740
  C     -7.208330   -4.058170   -6.598450
  N     -5.965510   -3.777540   -6.170040
  C     -5.259400   -2.849950   -6.752580
  C     -5.775090   -2.178870   -7.911970
  N     -7.011140   -2.368900   -8.273950
  C     -4.911380   -1.310820   -8.755740
  C     -3.916380   -2.532010   -6.203940
  C     -9.697490   -2.552020   -8.974710
  C    -10.433490   -2.912120  -10.191440
  N    -10.745250   -1.898750  -10.944290
  C    -10.264600   -0.797520  -10.297000
  C     -9.596730   -1.188100   -9.046840
  C     -9.227730   -0.009960   -8.300120
  S     -8.596840   -0.007300   -6.770320
  C     -9.588460    1.092150   -9.139080
  C    -10.239820    0.568790  -10.366160
  N    -10.653580    1.581420  -11.170680
  C    -10.320530    2.673160  -10.556560
  C     -9.631870    2.478600   -9.267570
  C     -9.324560    3.620340   -8.502300
  C     -8.567430    3.853100   -7.380190
  C     -8.727240    5.076740   -6.576440
  C     -9.294910    6.256940   -6.964650
  C     -9.815390    6.558420   -8.243800
  N    -10.244720    6.895730   -9.253860
  C     -9.389940    7.395490   -6.130980
  N     -9.504400    8.355560   -5.514080
  C     -8.115470    4.812240   -5.283980
  C     -7.451450    3.566550   -5.349580
  C     -6.796010    3.056250   -4.242250
  C     -6.803080    3.798530   -3.070110
  C     -7.445850    5.026460   -3.005840
  C     -8.108360    5.546450   -4.108190
  C     -7.618330    3.025000   -6.687060
  C     -6.907830    1.969510   -7.220780
  C     -5.896060    1.266160   -6.529080
  N     -5.048050    0.655200   -6.055580
  C     -6.855130    1.707530   -8.605770
  N     -6.757210    1.474390   -9.724780
  H    -15.729670   -7.406260   -0.656890
  H    -16.564120   -5.407910   -1.812890
  H    -15.018470   -3.671680   -2.604700
  H    -12.591230   -3.890070   -2.246950
  H    -10.668180   -9.405990    0.102010
  H     -7.942540   -9.560440    0.472950
  H     -5.201610   -5.880350   -5.554950
  H     -9.864090   -6.084210   -6.009430
  H    -10.867060   -4.659450   -7.719500
  H     -4.417520   -0.554100   -8.150450
  H     -5.510920   -0.831930   -9.525170
  H     -4.139820   -1.916120   -9.231450
  H     -3.145870   -2.684660   -6.957780
  H     -3.713790   -3.159410   -5.340550
  H     -3.891900   -1.484300   -5.905570
  H    -10.704540   -3.914790  -10.472330
  H    -10.537740    3.637120  -10.984590
  H     -9.866600    4.487800   -8.861680
  H     -6.305730    2.097020   -4.275330
  H     -6.304250    3.410180   -2.195470
  H     -7.439200    5.585200   -2.082720
  H     -8.613130    6.495560   -4.035130

 Total Charge           Charge          ....    0
 Multiplicity           Mult            ....    1
 Number of Electrons    NEL             ....  512
 Basis Dimension        Dim             .... 1182

ORBITAL ENERGIES
----------------

  NO   OCC          E(Eh)            E(eV)
   0   2.0000     -88.927107     -2419.8296
   1   2.0000     -88.923873     -2419.7416
   2   2.0000     -14.442964      -393.0130
   3   2.0000     -14.439218      -392.9111
   4   2.0000     -14.438852      -392.9011
   5   2.0000     -14.434596      -392.7853
   6   2.0000     -14.432656      -392.7325
   7   2.0000     -14.430918      -392.6852
   8   2.0000     -14.428179      -392.6107
   9   2.0000     -14.427867      -392.6022
  10   2.0000     -14.426823      -392.5738
  11   2.0000     -14.426294      -392.5594
  12   2.0000     -14.425836      -392.5470
  13   2.0000     -14.425597      -392.5405
  14   2.0000     -14.423267      -392.4770
  15   2.0000     -14.422641      -392.4600
  16   2.0000     -10.376384      -282.3558
  17   2.0000     -10.369833      -282.1775
  18   2.0000     -10.363249      -281.9983
  19   2.0000     -10.362478      -281.9774
  20   2.0000     -10.361117      -281.9403
  21   2.0000     -10.360713      -281.9293
  22   2.0000     -10.357708      -281.8476
  23   2.0000     -10.356895      -281.8254
  24   2.0000     -10.356073      -281.8031
  25   2.0000     -10.350778      -281.6590
  26   2.0000     -10.350628      -281.6549
  27   2.0000     -10.349480      -281.6237
  28   2.0000     -10.349408      -281.6217
  29   2.0000     -10.347414      -281.5674
  30   2.0000     -10.345489      -281.5151
  31   2.0000     -10.345438      -281.5137
  32   2.0000     -10.343239      -281.4538
  33   2.0000     -10.341499      -281.4065
  34   2.0000     -10.340870      -281.3894
  35   2.0000     -10.340686      -281.3844
  36   2.0000     -10.340344      -281.3751
  37   2.0000     -10.339704      -281.3577
  38   2.0000     -10.339076      -281.3406
  39   2.0000     -10.336010      -281.2571
  40   2.0000     -10.334124      -281.2058
  41   2.0000     -10.333715      -281.1947
  42   2.0000     -10.333449      -281.1874
  43   2.0000     -10.332592      -281.1641
  44   2.0000     -10.332283      -281.1557
  45   2.0000     -10.331097      -281.1234
  46   2.0000     -10.330129      -281.0971
  47   2.0000     -10.328785      -281.0605
  48   2.0000     -10.328718      -281.0587
  49   2.0000     -10.328566      -281.0546
  50   2.0000     -10.326668      -281.0029
  51   2.0000     -10.324742      -280.9505
  52   2.0000     -10.323301      -280.9113
  53   2.0000     -10.321166      -280.8532
  54   2.0000     -10.321145      -280.8526
  55   2.0000     -10.320451      -280.8337
  56   2.0000     -10.320373      -280.8316
  57   2.0000     -10.320033      -280.8224
  58   2.0000     -10.319101      -280.7970
  59   2.0000     -10.317701      -280.7589
  60   2.0000     -10.311133      -280.5802
  61   2.0000     -10.310031      -280.5502
  62   2.0000     -10.309927      -280.5474
  63   2.0000     -10.309851      -280.5453
  64   2.0000     -10.308717      -280.5145
  65   2.0000     -10.307914      -280.4926
  66   2.0000     -10.307870      -280.4914
  67   2.0000     -10.307559      -280.4829
  68   2.0000     -10.306881      -280.4645
  69   2.0000     -10.306389      -280.4511
  70   2.0000     -10.305660      -280.4313
  71   2.0000     -10.305447      -280.4255
  72   2.0000     -10.300184      -280.2823
  73   2.0000     -10.295459      -280.1537
  74   2.0000     -10.266963      -279.3783
  75   2.0000     -10.266807      -279.3740
  76   2.0000      -8.022323      -218.2985
  77   2.0000      -8.019063      -218.2098
  78   2.0000      -5.991422      -163.0349
  79   2.0000      -5.990792      -163.0177
  80   2.0000      -5.987761      -162.9353
  81   2.0000      -5.987417      -162.9259
  82   2.0000      -5.981280      -162.7589
  83   2.0000      -5.978694      -162.6885
  84   2.0000      -1.101690       -29.9785
  85   2.0000      -1.095698       -29.8155
  86   2.0000      -1.089527       -29.6475
  87   2.0000      -1.080858       -29.4116
  88   2.0000      -1.075351       -29.2618
  89   2.0000      -1.050474       -28.5849
  90   2.0000      -1.044107       -28.4116
  91   2.0000      -1.037088       -28.2206
  92   2.0000      -1.025393       -27.9024
  93   2.0000      -1.023792       -27.8588
  94   2.0000      -1.019984       -27.7552
  95   2.0000      -1.014650       -27.6100
  96   2.0000      -1.014316       -27.6009
  97   2.0000      -1.012003       -27.5380
  98   2.0000      -1.007634       -27.4191
  99   2.0000      -1.005039       -27.3485
 100   2.0000      -0.982987       -26.7484
 101   2.0000      -0.980293       -26.6751
 102   2.0000      -0.974890       -26.5281
 103   2.0000      -0.970245       -26.4017
 104   2.0000      -0.967328       -26.3223
 105   2.0000      -0.956287       -26.0219
 106   2.0000      -0.948293       -25.8044
 107   2.0000      -0.931377       -25.3441
 108   2.0000      -0.924896       -25.1677
 109   2.0000      -0.921162       -25.0661
 110   2.0000      -0.910582       -24.7782
 111   2.0000      -0.901598       -24.5337
 112   2.0000      -0.894880       -24.3509
 113   2.0000      -0.885477       -24.0951
 114   2.0000      -0.877594       -23.8805
 115   2.0000      -0.874669       -23.8010
 116   2.0000      -0.873172       -23.7602
 117   2.0000      -0.872440       -23.7403
 118   2.0000      -0.862502       -23.4699
 119   2.0000      -0.857476       -23.3331
 120   2.0000      -0.839877       -22.8542
 121   2.0000      -0.818616       -22.2757
 122   2.0000      -0.814473       -22.1629
 123   2.0000      -0.810917       -22.0662
 124   2.0000      -0.805191       -21.9104
 125   2.0000      -0.804080       -21.8801
 126   2.0000      -0.799019       -21.7424
 127   2.0000      -0.787253       -21.4222
 128   2.0000      -0.779709       -21.2170
 129   2.0000      -0.761662       -20.7259
 130   2.0000      -0.753434       -20.5020
 131   2.0000      -0.734757       -19.9938
 132   2.0000      -0.730572       -19.8799
 133   2.0000      -0.728611       -19.8265
 134   2.0000      -0.725227       -19.7344
 135   2.0000      -0.724388       -19.7116
 136   2.0000      -0.723833       -19.6965
 137   2.0000      -0.722164       -19.6511
 138   2.0000      -0.719627       -19.5820
 139   2.0000      -0.713122       -19.4050
 140   2.0000      -0.707241       -19.2450
 141   2.0000      -0.702133       -19.1060
 142   2.0000      -0.685073       -18.6418
 143   2.0000      -0.678941       -18.4749
 144   2.0000      -0.675506       -18.3815
 145   2.0000      -0.674263       -18.3476
 146   2.0000      -0.668600       -18.1935
 147   2.0000      -0.664114       -18.0715
 148   2.0000      -0.658222       -17.9111
 149   2.0000      -0.653089       -17.7714
 150   2.0000      -0.649065       -17.6620
 151   2.0000      -0.639022       -17.3887
 152   2.0000      -0.623049       -16.9540
 153   2.0000      -0.619143       -16.8477
 154   2.0000      -0.614160       -16.7121
 155   2.0000      -0.610337       -16.6081
 156   2.0000      -0.603798       -16.4302
 157   2.0000      -0.599982       -16.3263
 158   2.0000      -0.597210       -16.2509
 159   2.0000      -0.594619       -16.1804
 160   2.0000      -0.587332       -15.9821
 161   2.0000      -0.584642       -15.9089
 162   2.0000      -0.576787       -15.6952
 163   2.0000      -0.572385       -15.5754
 164   2.0000      -0.569293       -15.4913
 165   2.0000      -0.565143       -15.3783
 166   2.0000      -0.561409       -15.2767
 167   2.0000      -0.559996       -15.2383
 168   2.0000      -0.559000       -15.2112
 169   2.0000      -0.556158       -15.1338
 170   2.0000      -0.555447       -15.1145
 171   2.0000      -0.554302       -15.0833
 172   2.0000      -0.549872       -14.9628
 173   2.0000      -0.546203       -14.8629
 174   2.0000      -0.546013       -14.8578
 175   2.0000      -0.542952       -14.7745
 176   2.0000      -0.535795       -14.5797
 177   2.0000      -0.531531       -14.4637
 178   2.0000      -0.526914       -14.3381
 179   2.0000      -0.523923       -14.2567
 180   2.0000      -0.520482       -14.1630
 181   2.0000      -0.518399       -14.1064
 182   2.0000      -0.517046       -14.0695
 183   2.0000      -0.513204       -13.9650
 184   2.0000      -0.510958       -13.9039
 185   2.0000      -0.508920       -13.8484
 186   2.0000      -0.505989       -13.7687
 187   2.0000      -0.504457       -13.7270
 188   2.0000      -0.503551       -13.7023
 189   2.0000      -0.499210       -13.5842
 190   2.0000      -0.498195       -13.5566
 191   2.0000      -0.497389       -13.5346
 192   2.0000      -0.496722       -13.5165
 193   2.0000      -0.495336       -13.4788
 194   2.0000      -0.491081       -13.3630
 195   2.0000      -0.487854       -13.2752
 196   2.0000      -0.484101       -13.1731
 197   2.0000      -0.480334       -13.0705
 198   2.0000      -0.476564       -12.9680
 199   2.0000      -0.475236       -12.9318
 200   2.0000      -0.471544       -12.8314
 201   2.0000      -0.469334       -12.7712
 202   2.0000      -0.469029       -12.7629
 203   2.0000      -0.467138       -12.7115
 204   2.0000      -0.465427       -12.6649
 205   2.0000      -0.463588       -12.6149
 206   2.0000      -0.462234       -12.5780
 207   2.0000      -0.461220       -12.5504
 208   2.0000      -0.460646       -12.5348
 209   2.0000      -0.459995       -12.5171
 210   2.0000      -0.458454       -12.4752
 211   2.0000      -0.456516       -12.4224
 212   2.0000      -0.455725       -12.4009
 213   2.0000      -0.453160       -12.3311
 214   2.0000      -0.451839       -12.2952
 215   2.0000      -0.450172       -12.2498
 216   2.0000      -0.448276       -12.1982
 217   2.0000      -0.447262       -12.1706
 218   2.0000      -0.444341       -12.0911
 219   2.0000      -0.441711       -12.0196
 220   2.0000      -0.440311       -11.9815
 221   2.0000      -0.439691       -11.9646
 222   2.0000      -0.437513       -11.9053
 223   2.0000      -0.436431       -11.8759
 224   2.0000      -0.435976       -11.8635
 225   2.0000      -0.433821       -11.8049
 226   2.0000      -0.431369       -11.7382
 227   2.0000      -0.429271       -11.6811
 228   2.0000      -0.425598       -11.5811
 229   2.0000      -0.424410       -11.5488
 230   2.0000      -0.422803       -11.5051
 231   2.0000      -0.420015       -11.4292
 232   2.0000      -0.400411       -10.8957
 233   2.0000      -0.394754       -10.7418
 234   2.0000      -0.394646       -10.7389
 235   2.0000      -0.386906       -10.5283
 236   2.0000      -0.381488       -10.3808
 237   2.0000      -0.375855       -10.2275
 238   2.0000      -0.371424       -10.1070
 239   2.0000      -0.365646        -9.9497
 240   2.0000      -0.362336        -9.8597
 241   2.0000      -0.360939        -9.8217
 242   2.0000      -0.353208        -9.6113
 243   2.0000      -0.343032        -9.3344
 244   2.0000      -0.342623        -9.3232
 245   2.0000      -0.338703        -9.2166
 246   2.0000      -0.335016        -9.1163
 247   2.0000      -0.328705        -8.9445
 248   2.0000      -0.326695        -8.8898
 249   2.0000      -0.323665        -8.8074
 250   2.0000      -0.323126        -8.7927
 251   2.0000      -0.320384        -8.7181
 252   2.0000      -0.306268        -8.3340
 253   2.0000      -0.303844        -8.2680
 254   2.0000      -0.290511        -7.9052
 255   2.0000      -0.286136        -7.7862
 256   0.0000      -0.137209        -3.7337
 257   0.0000      -0.127491        -3.4692
 258   0.0000      -0.115173        -3.1340
 259   0.0000      -0.104755        -2.8505
 260   0.0000      -0.091801        -2.4980

MULLIKEN ATOMIC CHARGES
-----------------------
   0 C :   -0.034005
   1 C :    0.046123
   2 C :    0.048804
   3 C :   -0.031064
   4 C :    0.032290
   5 C :    0.016031
   6 C :    0.283758
   7 C :   -0.335804
   8 C :   -0.188220
   9 N :    0.166137
  10 C :   -0.182163
  11 N :    0.165066
  12 C :   -0.028715
  13 C :    0.206174
  14 C :   -0.325043
  15 C :   -0.183377
  16 N :    0.183816
  17 C :   -0.179603
  18 N :    0.166987
  19 C :    0.014186
  20 C :   -0.058893
  21 C :    0.083292
  22 N :   -0.007410
  23 C :    0.031689
  24 C :    0.008879
  25 C :    0.004668
  26 S :   -0.121583
  27 C :   -0.014998
  28 C :    0.010114
  29 N :   -0.022962
  30 C :    0.099598
  31 C :   -0.016947
  32 C :    0.084694
  33 C :   -0.022896
  34 C :   -0.027886
  35 C :    0.057963
  36 C :   -0.033085
  37 C :   -0.045519
  38 N :   -0.016750
  39 C :   -0.153276
  40 C :   -0.175280
  41 N :    0.033214
  42 C :    0.111010
  43 C :    0.113729
  44 C :   -0.031996
  45 C :    0.075194
  46 N :   -0.025849
  47 C :    0.041683
  48 C :    0.031499
  49 C :   -0.016700
  50 S :   -0.066364
  51 C :    0.004916
  52 C :   -0.011059
  53 N :   -0.010720
  54 C :    0.060089
  55 C :    0.010378
  56 C :   -0.023826
  57 C :    0.005212
  58 C :    0.278292
  59 C :   -0.338490
  60 C :   -0.177665
  61 N :    0.172389
  62 C :   -0.186514
  63 N :    0.172405
  64 C :    0.006278
  65 C :    0.031853
  66 C :   -0.043518
  67 C :    0.054572
  68 C :    0.043899
  69 C :   -0.031060
  70 C :    0.278011
  71 C :   -0.365890
  72 C :   -0.140822
  73 N :    0.145519
  74 C :   -0.190581
  75 N :    0.166783
  76 H :    0.007528
  77 H :    0.006376
  78 H :    0.004928
  79 H :    0.007453
  80 H :    0.024621
  81 H :    0.019361
  82 H :    0.019346
  83 H :   -0.020677
  84 H :   -0.021468
  85 H :    0.031643
  86 H :    0.037607
  87 H :    0.032247
  88 H :    0.023394
  89 H :    0.024610
  90 H :    0.050113
  91 H :    0.011151
  92 H :    0.030763
  93 H :    0.003288
  94 H :    0.004613
  95 H :    0.007940
  96 H :    0.006833
  97 H :    0.007666
Sum of atomic charges:   -0.0000000

LOEWDIN ATOMIC CHARGES
----------------------
   0 C :    0.005892
   1 C :    0.002037
   2 C :    0.006786
   3 C :    0.001074
   4 C :   -0.005634
   5 C :   -0.012854
   6 C :    0.079970
   7 C :   -0.125748
   8 C :   -0.019002
   9 N :   -0.039349
  10 C :   -0.021496
  11 N :   -0.039114
  12 C :   -0.024223
  13 C :    0.061268
  14 C :   -0.129144
  15 C :   -0.020723
  16 N :   -0.040676
  17 C :   -0.020224
  18 N :   -0.043785
  19 C :    0.047555
  20 C :   -0.052014
  21 C :    0.097118
  22 N :   -0.061070
  23 C :    0.032827
  24 C :   -0.011972
  25 C :   -0.135003
  26 S :    0.099645
  27 C :   -0.037401
  28 C :    0.056717
  29 N :   -0.078835
  30 C :    0.111484
  31 C :   -0.008463
  32 C :   -0.028676
  33 C :    0.008122
  34 C :   -0.009364
  35 C :   -0.019670
  36 C :   -0.005083
  37 C :   -0.002232
  38 N :   -0.049444
  39 C :    0.018995
  40 C :    0.007903
  41 N :   -0.041875
  42 C :   -0.058605
  43 C :   -0.057696
  44 C :   -0.018931
  45 C :    0.099056
  46 N :   -0.079935
  47 C :    0.048334
  48 C :   -0.016189
  49 C :   -0.137267
  50 S :    0.142902
  51 C :    0.009083
  52 C :    0.039985
  53 N :   -0.064728
  54 C :    0.096528
  55 C :   -0.051789
  56 C :    0.033108
  57 C :   -0.020800
  58 C :    0.080524
  59 C :   -0.116578
  60 C :   -0.024143
  61 N :   -0.034334
  62 C :   -0.017797
  63 N :   -0.032693
  64 C :   -0.020523
  65 C :   -0.006075
  66 C :   -0.001504
  67 C :    0.010970
  68 C :   -0.000059
  69 C :    0.009207
  70 C :    0.047889
  71 C :   -0.132135
  72 C :   -0.009463
  73 N :   -0.047357
  74 C :   -0.015465
  75 N :   -0.035894
  76 H :    0.041995
  77 H :    0.038437
  78 H :    0.037940
  79 H :    0.040870
  80 H :    0.050921
  81 H :    0.031932
  82 H :    0.026538
  83 H :    0.017668
  84 H :    0.033114
  85 H :    0.036026
  86 H :    0.039236
  87 H :    0.041347
  88 H :    0.038532
  89 H :    0.037620
  90 H :    0.043845
  91 H :    0.028223
  92 H :    0.034310
  93 H :    0.049331
  94 H :    0.040239
  95 H :    0.039469
  96 H :    0.038772
  97 H :    0.041690

  Mayer bond orders larger than 0.100000
B(  0-C ,  1-C ) :   1.3779 B(  0-C ,  5-C ) :   1.3724 B(  0-C , 76-H ) :   0.9840
B(  1-C ,  2-C ) :   1.3707 B(  1-C , 77-H ) :   0.9862 B(  2-C ,  3-C ) :   1.3665
B(  2-C , 78-H ) :   0.9861 B(  3-C ,  4-C ) :   1.3795 B(  3-C , 79-H ) :   0.9889
B(  4-C ,  5-C ) :   1.3121 B(  4-C , 13-C ) :   1.0105 B(  5-C ,  6-C ) :   1.0112
B(  6-C ,  7-C ) :   1.6606 B(  6-C , 12-C ) :   1.0281 B(  7-C ,  8-C ) :   1.1417
B(  7-C , 10-C ) :   1.1345 B(  8-C ,  9-N ) :   2.9836 B( 10-C , 11-N ) :   2.9840
B( 12-C , 13-C ) :   0.9906 B( 12-C , 19-C ) :   1.7047 B( 13-C , 14-C ) :   1.6661
B( 14-C , 15-C ) :   1.1637 B( 14-C , 17-C ) :   1.1384 B( 15-C , 16-N ) :   2.9948
B( 17-C , 18-N ) :   2.9991 B( 19-C , 20-C ) :   1.0676 B( 19-C , 80-H ) :   0.9254
B( 20-C , 21-C ) :   1.0212 B( 20-C , 24-C ) :   1.5122 B( 21-C , 22-N ) :   1.7179
B( 21-C , 81-H ) :   0.9947 B( 22-N , 23-C ) :   1.2820 B( 23-C , 24-C ) :   1.0618
B( 23-C , 28-C ) :   1.5016 B( 24-C , 25-C ) :   1.0456 B( 25-C , 26-S ) :   1.6441
B( 25-C , 27-C ) :   1.0292 B( 27-C , 28-C ) :   1.0481 B( 27-C , 31-C ) :   1.5608
B( 28-C , 29-N ) :   1.2838 B( 29-N , 30-C ) :   1.6989 B( 30-C , 31-C ) :   1.0275
B( 30-C , 82-H ) :   0.9818 B( 31-C , 32-C ) :   1.0115 B( 32-C , 33-C ) :   1.4134
B( 32-C , 35-C ) :   0.1165 B( 32-C , 37-C ) :   1.2233 B( 33-C , 34-C ) :   1.2575
B( 33-C , 83-H ) :   0.9846 B( 34-C , 35-C ) :   1.4258 B( 34-C , 84-H ) :   1.0035
B( 35-C , 36-C ) :   1.2537 B( 35-C , 44-C ) :   0.9598 B( 36-C , 37-C ) :   1.2644
B( 36-C , 41-N ) :   1.4485 B( 37-C , 38-N ) :   1.4199 B( 38-N , 39-C ) :   1.6870
B( 39-C , 40-C ) :   1.1409 B( 39-C , 43-C ) :   1.0969 B( 40-C , 41-N ) :   1.7005
B( 40-C , 42-C ) :   1.0927 B( 42-C , 85-H ) :   0.9282 B( 42-C , 86-H ) :   0.9350
B( 42-C , 87-H ) :   0.9398 B( 43-C , 88-H ) :   0.9307 B( 43-C , 89-H ) :   0.9405
B( 43-C , 90-H ) :   0.9293 B( 44-C , 45-C ) :   1.0337 B( 44-C , 48-C ) :   1.6122
B( 45-C , 46-N ) :   1.7197 B( 45-C , 91-H ) :   0.9937 B( 46-N , 47-C ) :   1.2665
B( 47-C , 48-C ) :   1.0456 B( 47-C , 52-C ) :   1.5187 B( 48-C , 49-C ) :   1.0227
B( 49-C , 50-S ) :   1.6150 B( 49-C , 51-C ) :   1.0876 B( 50-S , 71-C ) :   0.2369
B( 51-C , 52-C ) :   1.0659 B( 51-C , 55-C ) :   1.3854 B( 52-C , 53-N ) :   1.2783
B( 53-N , 54-C ) :   1.7223 B( 54-C , 55-C ) :   1.0226 B( 54-C , 92-H ) :   0.9892
B( 55-C , 56-C ) :   1.2082 B( 56-C , 57-C ) :   1.5456 B( 56-C , 93-H ) :   0.9129
B( 57-C , 58-C ) :   1.0229 B( 57-C , 70-C ) :   1.1154 B( 58-C , 59-C ) :   1.6541
B( 58-C , 64-C ) :   1.0067 B( 59-C , 60-C ) :   1.1317 B( 59-C , 62-C ) :   1.1452
B( 60-C , 61-N ) :   2.9811 B( 62-C , 63-N ) :   2.9838 B( 64-C , 65-C ) :   1.3020
B( 64-C , 69-C ) :   1.3763 B( 65-C , 66-C ) :   1.3825 B( 65-C , 70-C ) :   1.0228
B( 66-C , 67-C ) :   1.3633 B( 66-C , 94-H ) :   0.9859 B( 67-C , 68-C ) :   1.3823
B( 67-C , 95-H ) :   0.9858 B( 68-C , 69-C ) :   1.3693 B( 68-C , 96-H ) :   0.9858
B( 69-C , 97-H ) :   0.9843 B( 70-C , 71-C ) :   1.4986 B( 71-C , 72-C ) :   1.1181
B( 71-C , 74-C ) :   1.1605 B( 72-C , 73-N ) :   2.9277 B( 74-C , 75-N ) :   2.9362

-----------------------------------------------------------------------------
         ABSORPTION SPECTRUM VIA TRANSITION ELECTRIC DIPOLE MOMENTS
-----------------------------------------------------------------------------
State   Energy  Wavelength   fosc         T2         TX        TY        TZ
        (cm-1)    (nm)                  (au**2)     (au)      (au)      (au)
-----------------------------------------------------------------------------
   0   11610.8    861.3   0.008082036   0.22916  -0.21796  -0.35348  -0.23812
   1   15282.5    654.3   0.003995681   0.08607   0.03364  -0.28895  -0.03807
   2   15760.5    634.5   0.018410826   0.38457   0.11397   0.58620   0.16720
   3   16624.1    601.5   0.090174328   1.78575  -0.06648  -1.14385   0.68770
   4   17869.4    559.6   0.048354198   0.89084   0.15845   0.59727  -0.71344
   5   18510.0    540.2   0.017739592   0.31551  -0.18942  -0.35139   0.39517
   6   20400.9    490.2   0.085871588   1.38572  -0.13824  -1.06774   0.47597
   7   20921.6    478.0   0.222963761   3.50845  -0.92362  -0.70731   1.46802
   8   21575.6    463.5   0.227698791   3.47435   0.14426   1.76475  -0.58241
   9   21826.0    458.2   0.222556230   3.35692   0.04078  -1.61994   0.85501
  10   22465.9    445.1   0.056917980   0.83407  -0.28465   0.42257   0.75795
  11   22678.0    441.0   0.035028071   0.50849  -0.05562  -0.53299   0.47045
  12   23070.2    433.5   0.152671920   2.17863  -0.01272   1.39233   0.48978
  13   23208.0    430.9   0.041643376   0.59072  -0.56672  -0.50273  -0.12966
  14   23384.9    427.6   0.012700387   0.17880   0.00759   0.42219   0.02226
  15   24043.6    415.9   0.080136257   1.09725   0.20181   0.73461  -0.71894
  16   24316.1    411.3   0.015681151   0.21230   0.24689   0.03510  -0.38745
  17   24645.5    405.8   0.008912278   0.11905   0.09230  -0.33233  -0.00949
  18   24852.6    402.4   0.020618517   0.27312  -0.26422  -0.39429  -0.21874
  19   25076.3    398.8   0.076707719   1.00705   0.13852  -0.98276  -0.14851
  20   25519.2    391.9   0.020600846   0.26576   0.04053  -0.36655  -0.36023
  21   25594.9    390.7   0.012463305   0.16031  -0.07550   0.37161  -0.12849
  22   25696.0    389.2   0.000113099   0.00145  -0.01398  -0.03530   0.00279
  23   25844.3    386.9   0.066221051   0.84354   0.19639   0.87665  -0.19094
  24   26304.9    380.2   0.029159150   0.36493   0.22003  -0.52791  -0.19449
  25   26388.3    379.0   0.113002149   1.40978   0.57854  -0.86354  -0.57391
  26   26472.3    377.8   0.017393294   0.21630   0.26447   0.29818   0.23968
  27   26826.2    372.8   0.013557925   0.16638   0.01657   0.33239  -0.23585
  28   27055.5    369.6   0.285896270   3.47879   1.33156   0.27705  -1.27631
  29   27358.4    365.5   0.023020674   0.27702   0.12445  -0.23259  -0.45544
  30   27602.6    362.3   0.056728238   0.67659  -0.10109  -0.81552  -0.03588
  31   27791.2    359.8   0.032011685   0.37921  -0.53821  -0.01496   0.29886
  32   27993.6    357.2   0.019061819   0.22417  -0.39499   0.26100   0.00567
  33   28239.9    354.1   0.030898950   0.36021  -0.41110   0.43623   0.03025
  34   28643.0    349.1   0.079116314   0.90933  -0.70388  -0.50442   0.39931
  35   28763.2    347.7   0.022252081   0.25469   0.34078   0.19783   0.31532
  36   29060.6    344.1   0.022312765   0.25277  -0.01606  -0.50200   0.02246
  37   29248.7    341.9   0.025521727   0.28726  -0.03790  -0.51096  -0.15730
  38   29496.2    339.0   0.042547318   0.47488  -0.29967   0.53248   0.31865
  39   29622.6    337.6   0.195629205   2.17413  -0.92425   0.17486   1.13549
  40   29805.5    335.5   0.434760096   4.80208   0.82363   1.84238   0.85402
  41   30144.1    331.7   0.119747719   1.30780   0.22607   0.23473  -1.09617
  42   30286.2    330.2   0.073383743   0.79768  -0.15134  -0.72098  -0.50495
  43   30506.6    327.8   0.007808259   0.08426   0.09518  -0.05474  -0.26872
  44   30679.0    326.0   0.110407814   1.18477   0.89993   0.53332  -0.30079
  45   30872.9    323.9   0.026823326   0.28603  -0.20561  -0.37983  -0.31541
  46   31186.4    320.7   0.079381764   0.83798  -0.39076  -0.74128   0.36850
  47   31353.4    318.9   0.191946251   2.01544   1.20004   0.06998   0.75528
  48   31652.0    315.9   0.101489834   1.05559  -0.37246   0.94177   0.17299
  49   31714.3    315.3   0.108959388   1.13106  -0.03132   1.00604   0.34344
  50   31843.1    314.0   0.179764458   1.85851   0.30461   1.10196   0.74257
  51   32175.7    310.8   0.003155389   0.03228   0.03843   0.16922  -0.04660
  52   32352.6    309.1   0.006168828   0.06277  -0.11042   0.04780  -0.21976
  53   32496.9    307.7   0.132066485   1.33791   0.56540   0.83877  -0.56097
  54   32527.4    307.4   0.046520333   0.47084   0.46261  -0.04918   0.50439
  55   32631.8    306.5   0.017120938   0.17273   0.19178  -0.18810   0.31712
  56   32659.5    306.2   0.030927328   0.31175  -0.06381  -0.55349   0.03650
  57   32768.4    305.2   0.073730518   0.74074   0.61300   0.13615   0.58859
  58   32885.5    304.1   0.032964765   0.33001  -0.34891  -0.33910   0.30542
  59   32909.3    303.9   0.003858914   0.03860  -0.11318  -0.14018  -0.07837
  60   33037.2    302.7   0.046412218   0.46249   0.37471   0.54418  -0.16109
  61   33376.5    299.6   0.016466599   0.16242  -0.34052  -0.15720   0.14748
  62   33476.7    298.7   0.023208462   0.22823   0.05863  -0.06849   0.46915
  63   33621.0    297.4   0.000785860   0.00770   0.06738   0.00375  -0.05604
  64   33752.8    296.3   0.016838349   0.16423   0.20298  -0.34568  -0.05949
  65   33983.6    294.3   0.052061411   0.50434  -0.41611   0.55507   0.15194
  66   34184.2    292.5   0.023597196   0.22725   0.34606  -0.29655   0.13984
  67   34310.7    291.5   0.022348264   0.21443  -0.06942  -0.45717  -0.02461
  68   34451.4    290.3   0.000737378   0.00705   0.03862  -0.02481  -0.07028
  69   34586.6    289.1   0.019629315   0.18684   0.01208  -0.06190  -0.42763
  70   34779.8    287.5   0.001999681   0.01893   0.07244  -0.11590   0.01576
  71   34964.1    286.0   0.012181737   0.11470  -0.01158  -0.16654  -0.29467
  72   35103.6    284.9   0.018943567   0.17766  -0.24569  -0.30811  -0.14954
  73   35190.1    284.2   0.171468007   1.60413  -0.32489  -1.03352   0.65606
  74   35424.5    282.3   0.099514447   0.92482  -0.57427  -0.63272   0.44125
  75   35475.6    281.9   0.111099165   1.03100   0.40417  -0.92384  -0.11897
  76   35789.3    279.4   0.070613822   0.64955  -0.21492   0.32818   0.70403
  77   35874.5    278.7   0.054293087   0.49823   0.04842  -0.41898  -0.56599
  78   36122.0    276.8   0.011416507   0.10405  -0.08376   0.11705   0.28867
  79   36137.5    276.7   0.021819178   0.19877   0.30239   0.02650   0.32654
  80   36176.2    276.4   0.010013852   0.09113   0.11928  -0.26264  -0.08901
  81   36283.4    275.6   0.052939513   0.48034   0.40760  -0.55387   0.08614
  82   36536.6    273.7   0.011021198   0.09931   0.00332  -0.20649   0.23802
  83   36602.8    273.2   0.048125732   0.43285   0.58637   0.13129   0.26793
  84   36709.8    272.4   0.010462402   0.09383   0.21023   0.11683   0.18969
  85   37165.3    269.1   0.187788880   1.66344   0.90590  -0.15345   0.90512
  86   37247.3    268.5   0.055267235   0.48848   0.31943  -0.19363   0.59072
  87   37516.2    266.6   0.037826550   0.33194   0.48928   0.23802  -0.18943
  88   37657.8    265.5   0.048658230   0.42538  -0.63422  -0.12816  -0.08199
  89   38052.4    262.8   0.036326843   0.31428   0.13507  -0.31537   0.44338
  90   38121.5    262.3   0.083472315   0.72086   0.78032  -0.14526   0.30141
  91   38597.3    259.1   0.059796321   0.51003   0.69995  -0.13953   0.02519
  92   38638.7    258.8   0.087550056   0.74595   0.81504  -0.13612   0.25126
  93   38692.3    258.4   0.047732476   0.40613  -0.58054  -0.23820  -0.11120
  94   38781.4    257.9   0.194145148   1.64808  -0.60042   0.95517  -0.61256
  95   39048.6    256.1   0.022369785   0.18860   0.20193  -0.20772   0.32353
  96   39120.0    255.6   0.448982733   3.77839  -1.31206   1.23356  -0.73158
  97   39341.7    254.2   0.129879774   1.08684  -0.38273   0.13848  -0.95978
  98   39408.8    253.8   0.133057279   1.11153  -0.32888  -0.30975   0.95259
  99   39638.6    252.3   0.061723228   0.51263   0.67662   0.15714   0.17356
 100   39754.6    251.5   0.049583016   0.41060  -0.13559  -0.57809   0.24088
 101   39808.2    251.2   0.031675143   0.26195  -0.40741   0.06443  -0.30302
 102   39999.8    250.0   0.032686006   0.26902   0.25255  -0.40772  -0.19749
 103   40089.0    249.4   0.055805438   0.45828  -0.62186  -0.22541  -0.14408
 104   40129.2    249.2   0.056494009   0.46347  -0.58435   0.23455  -0.25881
 105   40161.4    249.0   0.039614916   0.32473  -0.40920  -0.38795   0.08234
 106   40307.9    248.1   0.043189906   0.35275  -0.59294   0.00270  -0.03422

FINAL SINGLE POINT ENERGY     -3858.015291158715

DIPOLE MOMENT
-------------
                                X             Y             Z
Electronic contribution:    -13.87782      -7.38991       4.60739
Nuclear contribution   :     13.69269       7.91315      -5.44926
                        -----------------------------------------
Total Dipole Moment    :     -0.18513       0.52324      -0.84187
                        -----------------------------------------
Magnitude (a.u.)       :      1.00836
Magnitude (Debye)      :      2.56306

Rotational constants in cm-1:     0.001478     0.000457     0.000432
Rotational constants in MHz :    44.318942    13.702009    12.946103

                             ****ORCA TERMINATED NORMALLY****
TOTAL RUN TIME: 0 days 0 hours 13 minutes 7 seconds 484 msec
