                         Program Version 4.2.0 -  RELEASE  -
|  1> # ORCA input file
|  2> # SCF done       -207.240854414589          0.000773704022
|  3> ! CAM-B3LYP def2-SVP def2/J RIJCOSX Grid4 TightSCF
|  4> %maxcore 5000
|  5> %tddft
|  6>     Mode sTDDFT
|  7>     Ethresh 5.0
|  8>     maxcore 5000
|  9> end
| 10>
| 11> %pal
| 12>   nprocs 6
| 13>   end
| 14> * xyz 0 1
| 15>    C       -4.80905       -12.27309         9.27282
| 16>    C       -3.55005       -12.77859         8.98411
| 17>    C       -2.80038       -12.27798         7.92891
| 18>    C       -3.28592       -11.25030         7.13446
| 19>    C       -4.54242       -10.73910         7.41245
| 20>    C       -5.31204       -11.25216         8.48168
| 21>    C       -6.58537       -10.54403         8.53162
| 22>    C       -7.53521       -10.66161         9.50861
| 23>    C       -7.41425       -11.50974        10.63063
| 24>    N       -7.38009       -12.17866        11.56254
| 25>    C       -8.74078        -9.92934         9.56324
| 26>    N       -9.73413        -9.36461         9.67312
| 27>    C       -6.63770        -9.69788         7.34211
| 28>    C       -5.28520        -9.65150         6.79776
| 29>    C       -4.74429        -8.61375         6.08763
| 30>    C       -5.43592        -7.41137         5.82542
| 31>    N       -5.95281        -6.40245         5.64719
| 32>    C       -3.41588        -8.59087         5.61773
| 33>    N       -2.35412        -8.53598         5.18536
| 34>    C       -7.78363        -9.19114         6.80095
| 35>    C       -8.01015        -8.73758         5.47911
| 36>    S       -7.03234        -9.16592         4.09269
| 37>    C       -8.05083        -8.29656         2.97903
| 38>    C       -9.12951        -7.73962         3.68554
| 39>    C       -9.09456        -8.00023         5.06390
| 40>    N      -10.23869        -7.01532         3.16733
| 41>    O      -10.45739        -7.03878         1.97058
| 42>    O      -10.93396        -6.42835         3.97162
| 43>    C       -7.55715        -8.25800         1.65276
| 44>    C       -8.00062        -7.52099         0.60200
| 45>    C       -7.38349        -7.45144        -0.68988
| 46>    C       -6.34335        -8.27184        -1.08455
| 47>    C       -5.76693        -8.12904        -2.35818
| 48>    C       -4.72280        -8.80871        -2.97807
| 49>    C       -3.90642        -9.94300        -2.46054
| 50>    C       -3.10192        -9.53272        -1.20889
| 51>    N       -1.91994       -10.36355        -1.11094
| 52>    C       -4.78354       -11.18173        -2.19997
| 53>    N       -3.95782       -12.33692        -1.88306
| 54>    C       -4.53135        -8.18299        -4.26633
| 55>    C       -3.63744        -8.42513        -5.24229
| 56>    C       -3.60581        -7.60609        -6.48989
| 57>    C       -4.65515        -6.54554        -6.56775
| 58>    C       -5.54181        -6.31804        -5.58257
| 59>    C       -5.52150        -7.10676        -4.40618
| 60>    C       -6.26889        -7.08710        -3.24890
| 61>    C       -7.35212        -6.27640        -2.83244
| 62>    C       -7.88942        -6.46257        -1.60335
| 63>    C       -3.60344        -8.53628        -7.67525
| 64>    C       -4.61673        -8.66566        -8.53339
| 65>    C       -4.60072        -9.53360        -9.67435
| 66>    S       -3.25593       -10.56497       -10.05649
| 67>    C       -4.01723       -11.18491       -11.49477
| 68>    C       -5.27421       -10.58917       -11.64125
| 69>    C       -5.58016        -9.66581       -10.62211
| 70>    N       -6.24036       -10.79604       -12.66571
| 71>    O       -6.19939       -11.81694       -13.32768
| 72>    O       -7.08590        -9.93728       -12.79839
| 73>    C       -3.20315       -12.04943       -12.27171
| 74>    C       -3.48314       -12.61849       -13.47202
| 75>    C       -2.51736       -13.36593       -14.18687
| 76>    C       -2.61357       -13.70119       -15.50632
| 77>    C       -1.83288       -14.73907       -16.17303
| 78>    C       -0.65102       -15.28047       -15.74687
| 79>    C        0.05251       -14.88129       -14.59020
| 80>    N        0.67900       -14.59722       -13.67100
| 81>    C        0.05228       -16.29082       -16.43820
| 82>    N        0.67120       -17.11233       -16.94685
| 83>    C       -2.55485       -15.08722       -17.38820
| 84>    C       -3.64185       -14.19634       -17.54802
| 85>    C       -4.50764       -14.32715       -18.62131
| 86>    C       -4.28026       -15.34514       -19.53543
| 87>    C       -3.20730       -16.21286       -19.38656
| 88>    C       -2.33537       -16.09485       -18.31478
| 89>    C       -3.60387       -13.22284       -16.46680
| 90>    C       -4.20768       -11.99539       -16.47347
| 91>    C       -5.11268       -11.57594       -17.47412
| 92>    N       -5.85267       -11.18623       -18.25898
| 93>    C       -3.91490       -10.94431       -15.57623
| 94>    N       -3.67301       -10.03164       -14.92340
| 95>    H       -5.37699       -12.67685        10.09464
| 96>    H       -3.15059       -13.57640         9.59125
| 97>    H       -1.82571       -12.69256         7.72172
| 98>    H       -2.69917       -10.87046         6.31365
| 99>    H       -8.67480        -9.19322         7.41537
|100>    H       -9.84954        -7.62916         5.73494
|101>    H       -6.66816        -8.86433         1.52572
|102>    H       -8.87845        -6.90514         0.72655
|103>    H       -5.96540        -9.03041        -0.41854
|104>    H       -3.16507       -10.21807        -3.21714
|105>    H       -3.75431        -9.58767        -0.32315
|106>    H       -2.77717        -8.49263        -1.31965
|107>    H       -2.20857       -11.33258        -1.00787
|108>    H       -1.36505       -10.10161        -0.30394
|109>    H       -5.42764       -11.33904        -3.08277
|110>    H       -5.43831       -11.00135        -1.34458
|111>    H       -3.39590       -12.59548        -2.68827
|112>    H       -4.54150       -13.13187        -1.64574
|113>    H       -2.90128        -9.21369        -5.16540
|114>    H       -2.62381        -7.10112        -6.50054
|115>    H       -4.64738        -5.94375        -7.46374
|116>    H       -6.27387        -5.52896        -5.67053
|117>    H       -7.73663        -5.51973        -3.49970
|118>    H       -8.71775        -5.85484        -1.27156
|119>    H       -2.71094        -9.13618        -7.80075
|120>    H       -5.51953        -8.08340        -8.41027
|121>    H       -6.50786        -9.12189       -10.60662
|122>    H       -2.20863       -12.19500       -11.86418
|123>    H       -4.47075       -12.52692       -13.89550
|124>    H       -1.67265       -13.73520       -13.62122
|125>    H       -5.34915       -13.66508       -18.74383
|126>    H       -4.95001       -15.46253       -20.37342
|127>    H       -3.04884       -16.99589       -20.11209
|128>    H       -1.51143       -16.78150       -18.21038
|129> *
|130>
|131>                          ****END OF INPUT****

CARTESIAN COORDINATES (ANGSTROEM)
---------------------------------
  C     -4.809050  -12.273090    9.272820
  C     -3.550050  -12.778590    8.984110
  C     -2.800380  -12.277980    7.928910
  C     -3.285920  -11.250300    7.134460
  C     -4.542420  -10.739100    7.412450
  C     -5.312040  -11.252160    8.481680
  C     -6.585370  -10.544030    8.531620
  C     -7.535210  -10.661610    9.508610
  C     -7.414250  -11.509740   10.630630
  N     -7.380090  -12.178660   11.562540
  C     -8.740780   -9.929340    9.563240
  N     -9.734130   -9.364610    9.673120
  C     -6.637700   -9.697880    7.342110
  C     -5.285200   -9.651500    6.797760
  C     -4.744290   -8.613750    6.087630
  C     -5.435920   -7.411370    5.825420
  N     -5.952810   -6.402450    5.647190
  C     -3.415880   -8.590870    5.617730
  N     -2.354120   -8.535980    5.185360
  C     -7.783630   -9.191140    6.800950
  C     -8.010150   -8.737580    5.479110
  S     -7.032340   -9.165920    4.092690
  C     -8.050830   -8.296560    2.979030
  C     -9.129510   -7.739620    3.685540
  C     -9.094560   -8.000230    5.063900
  N    -10.238690   -7.015320    3.167330
  O    -10.457390   -7.038780    1.970580
  O    -10.933960   -6.428350    3.971620
  C     -7.557150   -8.258000    1.652760
  C     -8.000620   -7.520990    0.602000
  C     -7.383490   -7.451440   -0.689880
  C     -6.343350   -8.271840   -1.084550
  C     -5.766930   -8.129040   -2.358180
  C     -4.722800   -8.808710   -2.978070
  C     -3.906420   -9.943000   -2.460540
  C     -3.101920   -9.532720   -1.208890
  N     -1.919940  -10.363550   -1.110940
  C     -4.783540  -11.181730   -2.199970
  N     -3.957820  -12.336920   -1.883060
  C     -4.531350   -8.182990   -4.266330
  C     -3.637440   -8.425130   -5.242290
  C     -3.605810   -7.606090   -6.489890
  C     -4.655150   -6.545540   -6.567750
  C     -5.541810   -6.318040   -5.582570
  C     -5.521500   -7.106760   -4.406180
  C     -6.268890   -7.087100   -3.248900
  C     -7.352120   -6.276400   -2.832440
  C     -7.889420   -6.462570   -1.603350
  C     -3.603440   -8.536280   -7.675250
  C     -4.616730   -8.665660   -8.533390
  C     -4.600720   -9.533600   -9.674350
  S     -3.255930  -10.564970  -10.056490
  C     -4.017230  -11.184910  -11.494770
  C     -5.274210  -10.589170  -11.641250
  C     -5.580160   -9.665810  -10.622110
  N     -6.240360  -10.796040  -12.665710
  O     -6.199390  -11.816940  -13.327680
  O     -7.085900   -9.937280  -12.798390
  C     -3.203150  -12.049430  -12.271710
  C     -3.483140  -12.618490  -13.472020
  C     -2.517360  -13.365930  -14.186870
  C     -2.613570  -13.701190  -15.506320
  C     -1.832880  -14.739070  -16.173030
  C     -0.651020  -15.280470  -15.746870
  C      0.052510  -14.881290  -14.590200
  N      0.679000  -14.597220  -13.671000
  C      0.052280  -16.290820  -16.438200
  N      0.671200  -17.112330  -16.946850
  C     -2.554850  -15.087220  -17.388200
  C     -3.641850  -14.196340  -17.548020
  C     -4.507640  -14.327150  -18.621310
  C     -4.280260  -15.345140  -19.535430
  C     -3.207300  -16.212860  -19.386560
  C     -2.335370  -16.094850  -18.314780
  C     -3.603870  -13.222840  -16.466800
  C     -4.207680  -11.995390  -16.473470
  C     -5.112680  -11.575940  -17.474120
  N     -5.852670  -11.186230  -18.258980
  C     -3.914900  -10.944310  -15.576230
  N     -3.673010  -10.031640  -14.923400
  H     -5.376990  -12.676850   10.094640
  H     -3.150590  -13.576400    9.591250
  H     -1.825710  -12.692560    7.721720
  H     -2.699170  -10.870460    6.313650
  H     -8.674800   -9.193220    7.415370
  H     -9.849540   -7.629160    5.734940
  H     -6.668160   -8.864330    1.525720
  H     -8.878450   -6.905140    0.726550
  H     -5.965400   -9.030410   -0.418540
  H     -3.165070  -10.218070   -3.217140
  H     -3.754310   -9.587670   -0.323150
  H     -2.777170   -8.492630   -1.319650
  H     -2.208570  -11.332580   -1.007870
  H     -1.365050  -10.101610   -0.303940
  H     -5.427640  -11.339040   -3.082770
  H     -5.438310  -11.001350   -1.344580
  H     -3.395900  -12.595480   -2.688270
  H     -4.541500  -13.131870   -1.645740
  H     -2.901280   -9.213690   -5.165400
  H     -2.623810   -7.101120   -6.500540
  H     -4.647380   -5.943750   -7.463740
  H     -6.273870   -5.528960   -5.670530
  H     -7.736630   -5.519730   -3.499700
  H     -8.717750   -5.854840   -1.271560
  H     -2.710940   -9.136180   -7.800750
  H     -5.519530   -8.083400   -8.410270
  H     -6.507860   -9.121890  -10.606620
  H     -2.208630  -12.195000  -11.864180
  H     -4.470750  -12.526920  -13.895500
  H     -1.672650  -13.735200  -13.621220
  H     -5.349150  -13.665080  -18.743830
  H     -4.950010  -15.462530  -20.373420
  H     -3.048840  -16.995890  -20.112090
  H     -1.511430  -16.781500  -18.210380

 Total Charge           Charge          ....    0
 Multiplicity           Mult            ....    1
 Number of Electrons    NEL             ....  554
 Basis Dimension        Dim             .... 1298

ORBITAL ENERGIES
----------------

  NO   OCC          E(Eh)            E(eV)
   0   2.0000     -88.992678     -2421.6139
   1   2.0000     -88.988656     -2421.5044
   2   2.0000     -19.255438      -523.9671
   3   2.0000     -19.254923      -523.9531
   4   2.0000     -19.245863      -523.7066
   5   2.0000     -19.245142      -523.6869
   6   2.0000     -14.663909      -399.0252
   7   2.0000     -14.655647      -398.8004
   8   2.0000     -14.430846      -392.6833
   9   2.0000     -14.428905      -392.6305
  10   2.0000     -14.427584      -392.5945
  11   2.0000     -14.427458      -392.5911
  12   2.0000     -14.426888      -392.5756
  13   2.0000     -14.426462      -392.5640
  14   2.0000     -14.424613      -392.5137
  15   2.0000     -14.424279      -392.5046
  16   2.0000     -14.400265      -391.8511
  17   2.0000     -14.365994      -390.9186
  18   2.0000     -10.360892      -281.9342
  19   2.0000     -10.359449      -281.8949
  20   2.0000     -10.359170      -281.8874
  21   2.0000     -10.357299      -281.8364
  22   2.0000     -10.356094      -281.8036
  23   2.0000     -10.356049      -281.8024
  24   2.0000     -10.354535      -281.7612
  25   2.0000     -10.354235      -281.7531
  26   2.0000     -10.353906      -281.7441
  27   2.0000     -10.352512      -281.7062
  28   2.0000     -10.349806      -281.6325
  29   2.0000     -10.340596      -281.3819
  30   2.0000     -10.337519      -281.2982
  31   2.0000     -10.335844      -281.2526
  32   2.0000     -10.332866      -281.1716
  33   2.0000     -10.332864      -281.1715
  34   2.0000     -10.330659      -281.1115
  35   2.0000     -10.329718      -281.0859
  36   2.0000     -10.329633      -281.0836
  37   2.0000     -10.329581      -281.0822
  38   2.0000     -10.329091      -281.0688
  39   2.0000     -10.327881      -281.0359
  40   2.0000     -10.327762      -281.0327
  41   2.0000     -10.326985      -281.0116
  42   2.0000     -10.325933      -280.9829
  43   2.0000     -10.325869      -280.9812
  44   2.0000     -10.325138      -280.9613
  45   2.0000     -10.319823      -280.8166
  46   2.0000     -10.319791      -280.8158
  47   2.0000     -10.319480      -280.8073
  48   2.0000     -10.319415      -280.8056
  49   2.0000     -10.319079      -280.7964
  50   2.0000     -10.317421      -280.7513
  51   2.0000     -10.313160      -280.6353
  52   2.0000     -10.309583      -280.5380
  53   2.0000     -10.307993      -280.4947
  54   2.0000     -10.307319      -280.4764
  55   2.0000     -10.307162      -280.4721
  56   2.0000     -10.306743      -280.4607
  57   2.0000     -10.306556      -280.4556
  58   2.0000     -10.306001      -280.4405
  59   2.0000     -10.305879      -280.4372
  60   2.0000     -10.305550      -280.4283
  61   2.0000     -10.305100      -280.4160
  62   2.0000     -10.304755      -280.4066
  63   2.0000     -10.304557      -280.4012
  64   2.0000     -10.300876      -280.3011
  65   2.0000     -10.300059      -280.2789
  66   2.0000     -10.298057      -280.2244
  67   2.0000     -10.290650      -280.0228
  68   2.0000     -10.290076      -280.0072
  69   2.0000     -10.287459      -279.9360
  70   2.0000     -10.285130      -279.8726
  71   2.0000     -10.283714      -279.8341
  72   2.0000     -10.281684      -279.7788
  73   2.0000     -10.279152      -279.7099
  74   2.0000     -10.278661      -279.6966
  75   2.0000     -10.278522      -279.6928
  76   2.0000     -10.277049      -279.6527
  77   2.0000     -10.275853      -279.6202
  78   2.0000     -10.274948      -279.5956
  79   2.0000     -10.272608      -279.5319
  80   2.0000      -8.088409      -220.0968
  81   2.0000      -8.083708      -219.9689
  82   2.0000      -6.057544      -164.8341
  83   2.0000      -6.053492      -164.7239
  84   2.0000      -6.053094      -164.7131
  85   2.0000      -6.050630      -164.6460
  86   2.0000      -6.048929      -164.5997
  87   2.0000      -6.045583      -164.5087
  88   2.0000      -1.336445       -36.3665
  89   2.0000      -1.327481       -36.1226
  90   2.0000      -1.153702       -31.3938
  91   2.0000      -1.144540       -31.1445
  92   2.0000      -1.044034       -28.4096
  93   2.0000      -1.043457       -28.3939
  94   2.0000      -1.028065       -27.9751
  95   2.0000      -1.025753       -27.9122
  96   2.0000      -1.025272       -27.8991
  97   2.0000      -1.021979       -27.8095
  98   2.0000      -1.014458       -27.6048
  99   2.0000      -1.013203       -27.5706
 100   2.0000      -1.007213       -27.4077
 101   2.0000      -1.004935       -27.3457
 102   2.0000      -1.004201       -27.3257
 103   2.0000      -1.003963       -27.3192
 104   2.0000      -0.997166       -27.1343
 105   2.0000      -0.982491       -26.7349
 106   2.0000      -0.967989       -26.3403
 107   2.0000      -0.966455       -26.2986
 108   2.0000      -0.962525       -26.1916
 109   2.0000      -0.948059       -25.7980
 110   2.0000      -0.947942       -25.7948
 111   2.0000      -0.946785       -25.7633
 112   2.0000      -0.943033       -25.6612
 113   2.0000      -0.935728       -25.4624
 114   2.0000      -0.927499       -25.2385
 115   2.0000      -0.922131       -25.0925
 116   2.0000      -0.909864       -24.7586
 117   2.0000      -0.903755       -24.5924
 118   2.0000      -0.900994       -24.5173
 119   2.0000      -0.898476       -24.4488
 120   2.0000      -0.888606       -24.1802
 121   2.0000      -0.883318       -24.0363
 122   2.0000      -0.872736       -23.7484
 123   2.0000      -0.872365       -23.7383
 124   2.0000      -0.869092       -23.6492
 125   2.0000      -0.854126       -23.2420
 126   2.0000      -0.849164       -23.1069
 127   2.0000      -0.842203       -22.9175
 128   2.0000      -0.835502       -22.7352
 129   2.0000      -0.814989       -22.1770
 130   2.0000      -0.804308       -21.8863
 131   2.0000      -0.803992       -21.8777
 132   2.0000      -0.798824       -21.7371
 133   2.0000      -0.797374       -21.6976
 134   2.0000      -0.781515       -21.2661
 135   2.0000      -0.768670       -20.9166
 136   2.0000      -0.766058       -20.8455
 137   2.0000      -0.752813       -20.4851
 138   2.0000      -0.735985       -20.0272
 139   2.0000      -0.731806       -19.9135
 140   2.0000      -0.725082       -19.7305
 141   2.0000      -0.723785       -19.6952
 142   2.0000      -0.721016       -19.6198
 143   2.0000      -0.720195       -19.5975
 144   2.0000      -0.716135       -19.4870
 145   2.0000      -0.707317       -19.2471
 146   2.0000      -0.701489       -19.0885
 147   2.0000      -0.695219       -18.9179
 148   2.0000      -0.688327       -18.7303
 149   2.0000      -0.682668       -18.5763
 150   2.0000      -0.677980       -18.4488
 151   2.0000      -0.674600       -18.3568
 152   2.0000      -0.672959       -18.3121
 153   2.0000      -0.671679       -18.2773
 154   2.0000      -0.670070       -18.2335
 155   2.0000      -0.664277       -18.0759
 156   2.0000      -0.660677       -17.9779
 157   2.0000      -0.653063       -17.7708
 158   2.0000      -0.647617       -17.6226
 159   2.0000      -0.641982       -17.4692
 160   2.0000      -0.641633       -17.4597
 161   2.0000      -0.636145       -17.3104
 162   2.0000      -0.635934       -17.3046
 163   2.0000      -0.629752       -17.1364
 164   2.0000      -0.621354       -16.9079
 165   2.0000      -0.614779       -16.7290
 166   2.0000      -0.608166       -16.5490
 167   2.0000      -0.604661       -16.4537
 168   2.0000      -0.598641       -16.2898
 169   2.0000      -0.594178       -16.1684
 170   2.0000      -0.593236       -16.1428
 171   2.0000      -0.592055       -16.1106
 172   2.0000      -0.591118       -16.0851
 173   2.0000      -0.588271       -16.0077
 174   2.0000      -0.584374       -15.9016
 175   2.0000      -0.580208       -15.7883
 176   2.0000      -0.578865       -15.7517
 177   2.0000      -0.574062       -15.6210
 178   2.0000      -0.571553       -15.5527
 179   2.0000      -0.568195       -15.4614
 180   2.0000      -0.556336       -15.1387
 181   2.0000      -0.554072       -15.0771
 182   2.0000      -0.552119       -15.0239
 183   2.0000      -0.551039       -14.9945
 184   2.0000      -0.547324       -14.8934
 185   2.0000      -0.545954       -14.8562
 186   2.0000      -0.544797       -14.8247
 187   2.0000      -0.542222       -14.7546
 188   2.0000      -0.536716       -14.6048
 189   2.0000      -0.535917       -14.5830
 190   2.0000      -0.534238       -14.5373
 191   2.0000      -0.532187       -14.4815
 192   2.0000      -0.527787       -14.3618
 193   2.0000      -0.524792       -14.2803
 194   2.0000      -0.523991       -14.2585
 195   2.0000      -0.521582       -14.1930
 196   2.0000      -0.519560       -14.1379
 197   2.0000      -0.516106       -14.0440
 198   2.0000      -0.514776       -14.0078
 199   2.0000      -0.513862       -13.9829
 200   2.0000      -0.509755       -13.8711
 201   2.0000      -0.508335       -13.8325
 202   2.0000      -0.506879       -13.7929
 203   2.0000      -0.505323       -13.7505
 204   2.0000      -0.499340       -13.5877
 205   2.0000      -0.496026       -13.4975
 206   2.0000      -0.493398       -13.4260
 207   2.0000      -0.491680       -13.3793
 208   2.0000      -0.487332       -13.2610
 209   2.0000      -0.483714       -13.1625
 210   2.0000      -0.478957       -13.0331
 211   2.0000      -0.478060       -13.0087
 212   2.0000      -0.476979       -12.9792
 213   2.0000      -0.475375       -12.9356
 214   2.0000      -0.471256       -12.8235
 215   2.0000      -0.466767       -12.7014
 216   2.0000      -0.465813       -12.6754
 217   2.0000      -0.463859       -12.6222
 218   2.0000      -0.463225       -12.6050
 219   2.0000      -0.460880       -12.5412
 220   2.0000      -0.459597       -12.5063
 221   2.0000      -0.459444       -12.5021
 222   2.0000      -0.458650       -12.4805
 223   2.0000      -0.457600       -12.4519
 224   2.0000      -0.457219       -12.4416
 225   2.0000      -0.455293       -12.3892
 226   2.0000      -0.453998       -12.3539
 227   2.0000      -0.453487       -12.3400
 228   2.0000      -0.452244       -12.3062
 229   2.0000      -0.451572       -12.2879
 230   2.0000      -0.451158       -12.2766
 231   2.0000      -0.448954       -12.2167
 232   2.0000      -0.446098       -12.1389
 233   2.0000      -0.441717       -12.0197
 234   2.0000      -0.440991       -12.0000
 235   2.0000      -0.438592       -11.9347
 236   2.0000      -0.437603       -11.9078
 237   2.0000      -0.436721       -11.8838
 238   2.0000      -0.435432       -11.8487
 239   2.0000      -0.435383       -11.8474
 240   2.0000      -0.433969       -11.8089
 241   2.0000      -0.430226       -11.7071
 242   2.0000      -0.423405       -11.5214
 243   2.0000      -0.421975       -11.4825
 244   2.0000      -0.421764       -11.4768
 245   2.0000      -0.421446       -11.4681
 246   2.0000      -0.419222       -11.4076
 247   2.0000      -0.418003       -11.3744
 248   2.0000      -0.417491       -11.3605
 249   2.0000      -0.408249       -11.1090
 250   2.0000      -0.402647       -10.9566
 251   2.0000      -0.399608       -10.8739
 252   2.0000      -0.399044       -10.8585
 253   2.0000      -0.395460       -10.7610
 254   2.0000      -0.392776       -10.6880
 255   2.0000      -0.391636       -10.6570
 256   2.0000      -0.390383       -10.6229
 257   2.0000      -0.389664       -10.6033
 258   2.0000      -0.384282       -10.4569
 259   2.0000      -0.380293       -10.3483
 260   2.0000      -0.377351       -10.2683
 261   2.0000      -0.371958       -10.1215
 262   2.0000      -0.367763       -10.0073
 263   2.0000      -0.358686        -9.7603
 264   2.0000      -0.352767        -9.5993
 265   2.0000      -0.347587        -9.4583
 266   2.0000      -0.341710        -9.2984
 267   2.0000      -0.340444        -9.2639
 268   2.0000      -0.340058        -9.2535
 269   2.0000      -0.331254        -9.0139
 270   2.0000      -0.322212        -8.7678
 271   2.0000      -0.318369        -8.6633
 272   2.0000      -0.310337        -8.4447
 273   2.0000      -0.295417        -8.0387
 274   2.0000      -0.284059        -7.7296
 275   2.0000      -0.280045        -7.6204
 276   2.0000      -0.233893        -6.3645
 277   0.0000      -0.116613        -3.1732
 278   0.0000      -0.111760        -3.0412
 279   0.0000      -0.093980        -2.5573
 280   0.0000      -0.093045        -2.5319
 281   0.0000      -0.085792        -2.3345

MULLIKEN ATOMIC CHARGES
-----------------------
   0 C :   -0.031470
   1 C :    0.045721
   2 C :    0.049894
   3 C :   -0.033143
   4 C :    0.010529
   5 C :    0.013845
   6 C :    0.292567
   7 C :   -0.338533
   8 C :   -0.185429
   9 N :    0.161722
  10 C :   -0.183447
  11 N :    0.159211
  12 C :   -0.064780
  13 C :    0.207310
  14 C :   -0.326123
  15 C :   -0.201739
  16 N :    0.188695
  17 C :   -0.177571
  18 N :    0.166571
  19 C :    0.061323
  20 C :   -0.103322
  21 S :    0.153845
  22 C :   -0.109920
  23 C :    0.169239
  24 C :    0.027122
  25 N :    0.264434
  26 O :   -0.244812
  27 O :   -0.234698
  28 C :    0.052614
  29 C :    0.006502
  30 C :    0.098228
  31 C :   -0.061122
  32 C :    0.037489
  33 C :   -0.011757
  34 C :   -0.056381
  35 C :    0.156443
  36 N :   -0.226555
  37 C :    0.137954
  38 N :   -0.216457
  39 C :    0.097112
  40 C :   -0.118989
  41 C :    0.177218
  42 C :   -0.070799
  43 C :    0.025119
  44 C :    0.005348
  45 C :    0.030455
  46 C :    0.004138
  47 C :   -0.011772
  48 C :   -0.120008
  49 C :    0.074443
  50 C :   -0.023271
  51 S :    0.154893
  52 C :   -0.144100
  53 C :    0.197675
  54 C :   -0.033635
  55 N :    0.273364
  56 O :   -0.248833
  57 O :   -0.223320
  58 C :    0.052423
  59 C :   -0.019881
  60 C :    0.021473
  61 C :   -0.054709
  62 C :    0.295731
  63 C :   -0.336613
  64 C :   -0.185644
  65 N :    0.156900
  66 C :   -0.186109
  67 N :    0.163847
  68 C :    0.012935
  69 C :    0.009482
  70 C :   -0.030397
  71 C :    0.048287
  72 C :    0.046338
  73 C :   -0.032377
  74 C :    0.241888
  75 C :   -0.311191
  76 C :   -0.185399
  77 N :    0.166762
  78 C :   -0.206079
  79 N :    0.175170
  80 H :    0.007702
  81 H :    0.006186
  82 H :    0.005352
  83 H :    0.006352
  84 H :    0.025880
  85 H :    0.027833
  86 H :   -0.020110
  87 H :    0.009780
  88 H :   -0.040803
  89 H :   -0.034553
  90 H :   -0.026313
  91 H :    0.002658
  92 H :    0.081526
  93 H :    0.086619
  94 H :   -0.002452
  95 H :   -0.010302
  96 H :    0.101556
  97 H :    0.098775
  98 H :    0.000411
  99 H :    0.052477
 100 H :   -0.002118
 101 H :   -0.031044
 102 H :   -0.032076
 103 H :   -0.014414
 104 H :    0.008993
 105 H :    0.011780
 106 H :    0.011514
 107 H :    0.007045
 108 H :    0.067856
 109 H :    0.017809
 110 H :    0.010720
 111 H :    0.008090
 112 H :    0.007173
 113 H :    0.008223
Sum of atomic charges:   -0.0000000

LOEWDIN ATOMIC CHARGES
----------------------
   0 C :    0.006262
   1 C :    0.002533
   2 C :    0.005489
   3 C :    0.000581
   4 C :   -0.009917
   5 C :   -0.012999
   6 C :    0.078708
   7 C :   -0.130571
   8 C :   -0.019052
   9 N :   -0.043392
  10 C :   -0.022230
  11 N :   -0.039823
  12 C :   -0.062045
  13 C :    0.058247
  14 C :   -0.135251
  15 C :   -0.039497
  16 N :   -0.036587
  17 C :   -0.019533
  18 N :   -0.042607
  19 C :    0.047429
  20 C :   -0.190087
  21 S :    0.485520
  22 C :   -0.095236
  23 C :   -0.086325
  24 C :    0.020769
  25 N :    0.288883
  26 O :   -0.206410
  27 O :   -0.199481
  28 C :   -0.074202
  29 C :    0.050848
  30 C :   -0.040980
  31 C :    0.016799
  32 C :   -0.024181
  33 C :   -0.011693
  34 C :   -0.042066
  35 C :    0.033523
  36 N :   -0.128685
  37 C :    0.027768
  38 N :   -0.103979
  39 C :   -0.018018
  40 C :    0.076547
  41 C :   -0.029617
  42 C :   -0.039154
  43 C :   -0.010704
  44 C :   -0.042898
  45 C :   -0.023458
  46 C :   -0.008905
  47 C :   -0.019087
  48 C :   -0.003803
  49 C :   -0.038848
  50 C :   -0.154743
  51 S :    0.479523
  52 C :   -0.140833
  53 C :   -0.053964
  54 C :   -0.035330
  55 N :    0.293160
  56 O :   -0.204225
  57 O :   -0.186015
  58 C :   -0.006165
  59 C :   -0.008412
  60 C :    0.055909
  61 C :   -0.044810
  62 C :    0.077749
  63 C :   -0.128143
  64 C :   -0.020366
  65 N :   -0.044553
  66 C :   -0.019207
  67 N :   -0.041465
  68 C :   -0.014200
  69 C :   -0.009067
  70 C :    0.004053
  71 C :    0.007258
  72 C :    0.003300
  73 C :    0.005877
  74 C :    0.069941
  75 C :   -0.117674
  76 C :   -0.017384
  77 N :   -0.035818
  78 C :   -0.019200
  79 N :   -0.045556
  80 H :    0.042130
  81 H :    0.038445
  82 H :    0.038057
  83 H :    0.040859
  84 H :    0.054199
  85 H :    0.051188
  86 H :    0.024973
  87 H :    0.030770
  88 H :    0.019772
  89 H :    0.021140
  90 H :   -0.003771
  91 H :    0.019124
  92 H :    0.036114
  93 H :    0.052205
  94 H :    0.004297
  95 H :    0.015009
  96 H :    0.056714
  97 H :    0.058705
  98 H :    0.031731
  99 H :    0.068422
 100 H :    0.026936
 101 H :    0.032137
 102 H :    0.029586
 103 H :    0.031188
 104 H :    0.020264
 105 H :    0.041663
 106 H :    0.043985
 107 H :    0.037075
 108 H :    0.030820
 109 H :    0.045787
 110 H :    0.042484
 111 H :    0.039030
 112 H :    0.038726
 113 H :    0.042008

  Mayer bond orders larger than 0.100000
B(  0-C ,  1-C ) :   1.3704 B(  0-C ,  5-C ) :   1.3828 B(  0-C , 80-H ) :   0.9847
B(  1-C ,  2-C ) :   1.3773 B(  1-C , 81-H ) :   0.9869 B(  2-C ,  3-C ) :   1.3649
B(  2-C , 82-H ) :   0.9864 B(  3-C ,  4-C ) :   1.3796 B(  3-C , 83-H ) :   0.9882
B(  4-C ,  5-C ) :   1.3127 B(  4-C , 13-C ) :   1.0201 B(  5-C ,  6-C ) :   1.0017
B(  6-C ,  7-C ) :   1.6510 B(  6-C , 12-C ) :   1.0496 B(  7-C ,  8-C ) :   1.1432
B(  7-C , 10-C ) :   1.1345 B(  8-C ,  9-N ) :   2.9793 B( 10-C , 11-N ) :   2.9752
B( 12-C , 13-C ) :   1.0124 B( 12-C , 19-C ) :   1.5984 B( 13-C , 14-C ) :   1.6541
B( 14-C , 15-C ) :   1.1434 B( 14-C , 17-C ) :   1.1446 B( 15-C , 16-N ) :   3.0308
B( 17-C , 18-N ) :   2.9955 B( 19-C , 20-C ) :   1.1699 B( 19-C , 84-H ) :   0.9356
B( 20-C , 21-S ) :   1.0676 B( 20-C , 24-C ) :   1.4174 B( 21-S , 22-C ) :   1.1860
B( 22-C , 23-C ) :   1.3500 B( 22-C , 28-C ) :   1.1811 B( 23-C , 24-C ) :   1.2836
B( 23-C , 25-N ) :   0.9343 B( 24-C , 85-H ) :   0.9977 B( 25-N , 26-O ) :   1.4963
B( 25-N , 27-O ) :   1.5523 B( 26-O , 27-O ) :   0.2542 B( 28-C , 29-C ) :   1.6329
B( 28-C , 86-H ) :   0.9284 B( 29-C , 30-C ) :   1.0958 B( 29-C , 87-H ) :   0.9679
B( 30-C , 31-C ) :   1.4956 B( 30-C , 47-C ) :   1.1050 B( 31-C , 32-C ) :   1.1620
B( 31-C , 88-H ) :   0.9794 B( 32-C , 33-C ) :   1.4558 B( 32-C , 45-C ) :   1.1138
B( 33-C , 34-C ) :   1.0231 B( 33-C , 39-C ) :   1.1171 B( 34-C , 35-C ) :   1.0207
B( 34-C , 37-C ) :   1.0443 B( 34-C , 89-H ) :   0.8766 B( 35-C , 36-N ) :   1.1109
B( 35-C , 90-H ) :   0.9254 B( 35-C , 91-H ) :   0.9477 B( 36-N , 92-H ) :   0.9444
B( 36-N , 93-H ) :   0.9668 B( 37-C , 38-N ) :   1.0834 B( 37-C , 94-H ) :   0.9466
B( 37-C , 95-H ) :   0.9336 B( 38-N , 96-H ) :   0.9627 B( 38-N , 97-H ) :   0.9669
B( 39-C , 40-C ) :   1.6889 B( 39-C , 44-C ) :   1.0432 B( 40-C , 41-C ) :   0.9582
B( 40-C , 98-H ) :   0.9652 B( 41-C , 42-C ) :   1.0103 B( 41-C , 48-C ) :   0.9505
B( 41-C , 99-H ) :   0.8440 B( 42-C , 43-C ) :   1.7177 B( 42-C ,100-H ) :   0.9675
B( 43-C , 44-C ) :   1.1244 B( 43-C ,101-H ) :   0.9923 B( 44-C , 45-C ) :   1.4520
B( 45-C , 46-C ) :   1.1395 B( 46-C , 47-C ) :   1.6080 B( 46-C ,102-H ) :   0.9922
B( 47-C ,103-H ) :   0.9936 B( 48-C , 49-C ) :   1.8373 B( 48-C ,104-H ) :   0.9699
B( 49-C , 50-C ) :   1.1074 B( 49-C ,105-H ) :   0.9554 B( 50-C , 51-S ) :   1.1068
B( 50-C , 54-C ) :   1.4695 B( 51-S , 52-C ) :   1.1634 B( 52-C , 53-C ) :   1.4246
B( 52-C , 58-C ) :   1.1309 B( 53-C , 54-C ) :   1.2647 B( 53-C , 55-N ) :   0.9245
B( 54-C ,106-H ) :   1.0018 B( 55-N , 56-O ) :   1.4814 B( 55-N , 57-O ) :   1.5669
B( 56-O , 57-O ) :   0.2593 B( 58-C , 59-C ) :   1.6771 B( 58-C ,107-H ) :   0.9518
B( 59-C , 60-C ) :   1.1311 B( 59-C ,108-H ) :   0.9275 B( 60-C , 61-C ) :   1.5928
B( 60-C ,109-H ) :   0.9508 B( 61-C , 62-C ) :   1.0387 B( 61-C , 74-C ) :   1.0155
B( 62-C , 63-C ) :   1.6496 B( 62-C , 68-C ) :   1.0056 B( 63-C , 64-C ) :   1.1358
B( 63-C , 66-C ) :   1.1429 B( 64-C , 65-N ) :   2.9795 B( 66-C , 67-N ) :   2.9798
B( 68-C , 69-C ) :   1.3077 B( 68-C , 73-C ) :   1.3797 B( 69-C , 70-C ) :   1.3843
B( 69-C , 74-C ) :   1.0112 B( 70-C , 71-C ) :   1.3674 B( 70-C ,110-H ) :   0.9860
B( 71-C , 72-C ) :   1.3744 B( 71-C ,111-H ) :   0.9866 B( 72-C , 73-C ) :   1.3723
B( 72-C ,112-H ) :   0.9864 B( 73-C ,113-H ) :   0.9845 B( 74-C , 75-C ) :   1.6571
B( 75-C , 76-C ) :   1.1397 B( 75-C , 78-C ) :   1.1550 B( 76-C , 77-N ) :   2.9929
B( 78-C , 79-N ) :   3.0017

-----------------------------------------------------------------------------
         ABSORPTION SPECTRUM VIA TRANSITION ELECTRIC DIPOLE MOMENTS
-----------------------------------------------------------------------------
State   Energy  Wavelength   fosc         T2         TX        TY        TZ
        (cm-1)    (nm)                  (au**2)     (au)      (au)      (au)
-----------------------------------------------------------------------------
   0   11945.8    837.1   0.125786805   3.46652   0.57772  -0.42208  -1.71890
   1   15572.8    642.1   0.054848170   1.15950  -0.23027   0.64055  -0.83437
   2   16388.1    610.2   0.599236790  12.03779   0.18426  -0.55393   3.42009
   3   19773.3    505.7   0.963895703  16.04818  -1.25446   1.55645   3.47159
   4   20068.6    498.3   0.043219778   0.70899   0.07255   0.72886  -0.41532
   5   20585.6    485.8   0.264052493   4.22282  -0.56364   0.49766  -1.91245
   6   22686.8    440.8   0.192464389   2.79288   1.02602   0.03027  -1.31880
   7   23227.8    430.5   0.016122202   0.22850  -0.32988   0.32851   0.10845
   8   24539.6    407.5   0.029776263   0.39946   0.62055  -0.08595  -0.08364
   9   24768.6    403.7   0.171745495   2.28276  -1.12597   1.00475   0.07359
  10   25442.2    393.0   0.361119911   4.67275  -1.04916  -0.49646   1.82361
  11   25936.3    385.6   0.205541135   2.60895  -0.95421   0.25644   1.27776
  12   26348.3    379.5   0.119319377   1.49085   0.15319   1.02307   0.64861
  13   27252.9    366.9   0.164168767   1.98314  -0.89438   0.90459  -0.60409
  14   28132.5    355.5   0.018791910   0.21991   0.33746  -0.19314  -0.26215
  15   28253.9    353.9   0.015212394   0.17725  -0.07682  -0.21312  -0.35487
  16   28937.3    345.6   0.008559170   0.09738   0.03709  -0.07802   0.29985
  17   29534.5    338.6   0.048687352   0.54270   0.03240   0.01326   0.73585
  18   30060.4    332.7   0.001784988   0.01955   0.07015  -0.01014  -0.12052
  19   30380.2    329.2   0.028353479   0.30725   0.49026   0.00320  -0.25861
  20   30476.9    328.1   0.149148134   1.61110   0.98796   0.29000  -0.74225
  21   30597.2    326.8   0.004542542   0.04888  -0.01978  -0.17095   0.13878
  22   30657.9    326.2   0.070089783   0.75264  -0.60940   0.59757  -0.15551
  23   30749.3    325.2   0.006019658   0.06445   0.04193   0.02805   0.24880
  24   31347.1    319.0   0.101528559   1.06627  -0.10372  -0.10579   1.02192
  25   31393.0    318.5   0.058912787   0.61781  -0.01314   0.78463   0.04465
  26   31449.5    318.0   0.007120108   0.07453   0.26216  -0.05056  -0.05698
  27   32726.7    305.6   0.344616752   3.46665  -1.55677   1.01596   0.10459
  28   32754.0    305.3   0.501362170   5.03922   1.20389  -1.58943   1.03130
  29   33009.0    302.9   0.052668235   0.52528   0.32108  -0.48290  -0.43474
  30   33167.3    301.5   0.439379552   4.36119   0.99777   0.46870  -1.77369
  31   33227.8    301.0   0.166619770   1.65082   0.86119   0.63384  -0.71233
  32   33404.0    299.4   0.000301879   0.00298  -0.04180  -0.02616  -0.02332
  33   33494.5    298.6   0.065059131   0.63946  -0.17609   0.02072   0.77975
  34   34000.4    294.1   0.020631408   0.19977   0.31776  -0.01483   0.31396
  35   34938.5    286.2   0.000505281   0.00476  -0.03615   0.00614  -0.05845
  36   34999.2    285.7   0.042954540   0.40404   0.42306  -0.46483   0.09484
  37   35248.6    283.7   0.138193653   1.29069  -0.03040  -0.78547  -0.82025
  38   35324.9    283.1   0.111446542   1.03863  -0.76270   0.28845  -0.61132
  39   35480.1    281.8   0.004072247   0.03779   0.01626   0.14129   0.13251
  40   35628.5    280.7   0.094174000   0.87018  -0.27454  -0.56275  -0.69146
  41   35796.3    279.4   0.234891178   2.16025  -1.32104   0.62298   0.16430
  42   36141.2    276.7   0.060025262   0.54677  -0.06091   0.72107   0.15206
  43   36235.9    276.0   0.001695064   0.01540  -0.10126   0.03550   0.06234
  44   36452.7    274.3   0.285310440   2.57670  -0.01682   1.01454   1.24383
  45   36706.4    272.4   0.000574597   0.00515  -0.01730   0.04386   0.05413
  46   37123.2    269.4   0.000014625   0.00013   0.00130   0.01102   0.00255
  47   37654.5    265.6   0.195285921   1.70738  -0.74500   0.59757   0.89178
  48   37922.7    263.7   0.488291744   4.23892  -0.85630  -0.68625  -1.74205
  49   38132.5    262.2   0.045336039   0.39140  -0.02427   0.02386   0.62470
  50   38250.8    261.4   0.035311163   0.30391   0.38528   0.27145   0.28599
  51   38329.5    260.9   0.271047193   2.32802   0.12110   0.29023   1.49302
  52   38452.0    260.1   0.031576065   0.27034  -0.42871   0.18902  -0.22544
  53   38737.2    258.1   0.051356740   0.43646   0.47073   0.29726   0.35569
  54   38768.3    257.9   0.019376815   0.16454  -0.14898   0.14565  -0.34804
  55   39694.9    251.9   0.125269817   1.03893  -0.56885   0.68471  -0.49649
  56   39775.5    251.4   0.009902360   0.08196  -0.17855   0.22371  -0.00559
  57   39804.5    251.2   0.026171651   0.21646   0.24307  -0.25516  -0.30376
  58   40302.0    248.1   0.027938534   0.22822  -0.22656   0.33747  -0.25101

FINAL SINGLE POINT ENERGY     -4132.394424842391

DIPOLE MOMENT
-------------
                                X             Y             Z
Electronic contribution:    -13.76211      -1.12521      -2.15921
Nuclear contribution   :     15.22655      -1.46081       0.48590
                        -----------------------------------------
Total Dipole Moment    :      1.46445      -2.58601      -1.67331
                        -----------------------------------------
Magnitude (a.u.)       :      3.41058
Magnitude (Debye)      :      8.66899

Rotational constants in cm-1:     0.001673     0.000161     0.000154
Rotational constants in MHz :    50.146905     4.830417     4.603998

                             ****ORCA TERMINATED NORMALLY****
TOTAL RUN TIME: 0 days 0 hours 12 minutes 50 seconds 192 msec
