                         Program Version 4.2.0 -  RELEASE  -
|  1> # ORCA input file
|  2> # SCF done       -200.692460982153          0.000728304608
|  3> ! CAM-B3LYP def2-SVP def2/J RIJCOSX Grid4 TightSCF
|  4> %maxcore 5000
|  5> %tddft
|  6>     Mode sTDDFT
|  7>     Ethresh 5.0
|  8>     maxcore 5000
|  9> end
| 10>
| 11> %pal
| 12>   nprocs 6
| 13>   end
| 14> * xyz 0 1
| 15>    C      -13.52532       -11.83229         2.71537
| 16>    C      -13.30294       -12.70841         1.66222
| 17>    C      -12.10437       -12.70052         0.96542
| 18>    C      -11.08773       -11.82059         1.30770
| 19>    C      -11.30043       -10.93986         2.35397
| 20>    C      -12.52455       -10.93885         3.05962
| 21>    C      -12.47772        -9.89735         4.08181
| 22>    C      -13.46204        -9.63893         5.00515
| 23>    C      -14.66229       -10.36921         5.10951
| 24>    N      -15.66053       -10.91925         5.25355
| 25>    C      -13.40915        -8.63703         5.99335
| 26>    N      -13.43584        -7.83932         6.82083
| 27>    C      -11.22414        -9.19140         3.90510
| 28>    C      -10.42377        -9.95225         2.96675
| 29>    C       -9.05349        -9.93908         2.86524
| 30>    C       -8.21889        -9.25278         3.77062
| 31>    N       -7.51640        -8.76914         4.53955
| 32>    C       -8.32863       -10.65240         1.89613
| 33>    N       -7.69099       -11.15905         1.08437
| 34>    C      -10.94850        -7.94615         4.43448
| 35>    C      -10.02481        -7.00765         3.96652
| 36>    O       -9.36879        -7.18144         2.78788
| 37>    C       -8.56998        -6.11123         2.58777
| 38>    C       -8.72208        -5.20589         3.64225
| 39>    C       -9.65337        -5.77180         4.52097
| 40>    C      -10.11619        -5.20038         5.80841
| 41>    C       -8.02273        -3.90645         3.82423
| 42>    C       -7.72325        -6.09612         1.45094
| 43>    C       -7.66875        -7.15437         0.60281
| 44>    C       -6.82690        -7.34662        -0.53554
| 45>    C       -6.88218        -8.57469        -1.17047
| 46>    C       -6.05396        -8.85927        -2.26658
| 47>    C       -5.90565        -9.99888        -3.05274
| 48>    C       -6.54753       -11.33673        -2.96699
| 49>    C       -5.69423       -12.26324        -2.06547
| 50>    N       -4.53000       -12.73899        -2.79388
| 51>    C       -7.99996       -11.34889        -2.47716
| 52>    N       -8.57701       -12.65558        -2.75202
| 53>    C       -4.84169        -9.70974        -3.98898
| 54>    C       -4.28063       -10.48042        -4.93608
| 55>    C       -3.12976        -9.99349        -5.75428
| 56>    C       -2.70694        -8.59001        -5.46169
| 57>    C       -3.29613        -7.83005        -4.52116
| 58>    C       -4.36831        -8.34348        -3.75080
| 59>    C       -5.11861        -7.82996        -2.71411
| 60>    C       -5.09862        -6.57231        -2.06433
| 61>    C       -5.92486        -6.33963        -1.01513
| 62>    C       -3.42529       -10.26862        -7.20303
| 63>    C       -3.35340        -9.38951        -8.20716
| 64>    C       -3.68928        -9.73901        -9.55701
| 65>    O       -4.22372       -10.95129        -9.80051
| 66>    C       -4.49370       -11.03332       -11.13052
| 67>    C       -4.09264        -9.85197       -11.75605
| 68>    C       -3.58290        -9.01964       -10.74071
| 69>    C       -3.04462        -7.64755       -10.93551
| 70>    C       -4.18877        -9.50807       -13.19617
| 71>    C       -5.17664       -12.16600       -11.61431
| 72>    C       -5.60698       -13.15046       -10.76977
| 73>    C       -6.38663       -14.24537       -11.16191
| 74>    C       -7.00779       -15.11255       -10.28888
| 75>    C       -7.46582       -16.45231       -10.61168
| 76>    C       -7.67568       -16.98131       -11.85930
| 77>    C       -7.52210       -16.28257       -13.07421
| 78>    N       -7.42515       -15.77369       -14.09957
| 79>    C       -8.11514       -18.29973       -12.09769
| 80>    N       -8.46588       -19.36025       -12.36348
| 81>    C       -7.65824       -17.14922        -9.34429
| 82>    C       -7.44327       -16.23735        -8.28612
| 83>    C       -7.55282       -16.64687        -6.96817
| 84>    C       -7.87065       -17.97220        -6.70960
| 85>    C       -8.08608       -18.86751        -7.74644
| 86>    C       -7.98579       -18.46703        -9.07137
| 87>    C       -7.16891       -14.92838        -8.86012
| 88>    C       -7.27068       -13.73041        -8.19177
| 89>    C       -7.35964       -13.60296        -6.79552
| 90>    N       -7.37910       -13.40474        -5.66289
| 91>    C       -7.40606       -12.47018        -8.81345
| 92>    N       -7.59775       -11.42351        -9.24471
| 93>    H      -14.46328       -11.85517         3.24508
| 94>    H      -14.07900       -13.40497         1.38324
| 95>    H      -11.95589       -13.38867         0.14693
| 96>    H      -10.15970       -11.82497         0.75881
| 97>    H      -11.56880        -7.59591         5.24551
| 98>    H      -10.19095        -4.11729         5.73682
| 99>    H       -9.39800        -5.43574         6.59432
|100>    H      -11.08068        -5.60786         6.09997
|101>    H       -7.34693        -3.96260         4.67706
|102>    H       -8.74328        -3.11334         4.02036
|103>    H       -7.44760        -3.64545         2.94121
|104>    H       -7.10010        -5.22582         1.32210
|105>    H       -8.32695        -7.98589         0.82209
|106>    H       -7.54901        -9.33000        -0.78890
|107>    H       -6.54526       -11.78188        -3.96817
|108>    H       -6.35439       -13.07429        -1.73122
|109>    H       -5.35684       -11.70419        -1.19029
|110>    H       -4.81651       -13.44423        -3.46556
|111>    H       -3.86149       -13.16187        -2.16071
|112>    H       -8.54507       -10.51762        -2.95732
|113>    H       -8.03372       -11.21293        -1.39358
|114>    H       -8.48921       -12.87750        -3.73933
|115>    H       -9.56223       -12.66464        -2.51282
|116>    H       -4.62923       -11.48266        -5.13306
|117>    H       -2.28097       -10.65385        -5.49537
|118>    H       -1.86421        -8.22115        -6.02688
|119>    H       -2.94861        -6.82470        -4.33037
|120>    H       -4.41625        -5.80975        -2.41135
|121>    H       -5.91037        -5.38204        -0.51823
|122>    H       -3.73398       -11.28288        -7.41805
|123>    H       -3.04987        -8.36786        -8.04167
|124>    H       -2.19184        -7.67073       -11.61354
|125>    H       -2.72843        -7.21280        -9.99249
|126>    H       -3.80507        -7.00689       -11.38023
|127>    H       -4.51094       -10.36160       -13.78439
|128>    H       -3.22212        -9.16790       -13.56558
|129>    H       -4.90090        -8.69543       -13.33886
|130>    H       -5.43014       -12.19360       -12.66323
|131>    H       -5.32208       -13.06224        -9.73115
|132>    H       -6.44972       -14.44812       -12.22161
|133>    H       -7.38663       -15.96036        -6.15346
|134>    H       -7.95090       -18.30782        -5.68688
|135>    H       -8.33509       -19.89364        -7.52312
|136>    H       -8.15828       -19.17717        -9.86311
|137> *
|138>
|139>                          ****END OF INPUT****

CARTESIAN COORDINATES (ANGSTROEM)
---------------------------------
  C    -13.525320  -11.832290    2.715370
  C    -13.302940  -12.708410    1.662220
  C    -12.104370  -12.700520    0.965420
  C    -11.087730  -11.820590    1.307700
  C    -11.300430  -10.939860    2.353970
  C    -12.524550  -10.938850    3.059620
  C    -12.477720   -9.897350    4.081810
  C    -13.462040   -9.638930    5.005150
  C    -14.662290  -10.369210    5.109510
  N    -15.660530  -10.919250    5.253550
  C    -13.409150   -8.637030    5.993350
  N    -13.435840   -7.839320    6.820830
  C    -11.224140   -9.191400    3.905100
  C    -10.423770   -9.952250    2.966750
  C     -9.053490   -9.939080    2.865240
  C     -8.218890   -9.252780    3.770620
  N     -7.516400   -8.769140    4.539550
  C     -8.328630  -10.652400    1.896130
  N     -7.690990  -11.159050    1.084370
  C    -10.948500   -7.946150    4.434480
  C    -10.024810   -7.007650    3.966520
  O     -9.368790   -7.181440    2.787880
  C     -8.569980   -6.111230    2.587770
  C     -8.722080   -5.205890    3.642250
  C     -9.653370   -5.771800    4.520970
  C    -10.116190   -5.200380    5.808410
  C     -8.022730   -3.906450    3.824230
  C     -7.723250   -6.096120    1.450940
  C     -7.668750   -7.154370    0.602810
  C     -6.826900   -7.346620   -0.535540
  C     -6.882180   -8.574690   -1.170470
  C     -6.053960   -8.859270   -2.266580
  C     -5.905650   -9.998880   -3.052740
  C     -6.547530  -11.336730   -2.966990
  C     -5.694230  -12.263240   -2.065470
  N     -4.530000  -12.738990   -2.793880
  C     -7.999960  -11.348890   -2.477160
  N     -8.577010  -12.655580   -2.752020
  C     -4.841690   -9.709740   -3.988980
  C     -4.280630  -10.480420   -4.936080
  C     -3.129760   -9.993490   -5.754280
  C     -2.706940   -8.590010   -5.461690
  C     -3.296130   -7.830050   -4.521160
  C     -4.368310   -8.343480   -3.750800
  C     -5.118610   -7.829960   -2.714110
  C     -5.098620   -6.572310   -2.064330
  C     -5.924860   -6.339630   -1.015130
  C     -3.425290  -10.268620   -7.203030
  C     -3.353400   -9.389510   -8.207160
  C     -3.689280   -9.739010   -9.557010
  O     -4.223720  -10.951290   -9.800510
  C     -4.493700  -11.033320  -11.130520
  C     -4.092640   -9.851970  -11.756050
  C     -3.582900   -9.019640  -10.740710
  C     -3.044620   -7.647550  -10.935510
  C     -4.188770   -9.508070  -13.196170
  C     -5.176640  -12.166000  -11.614310
  C     -5.606980  -13.150460  -10.769770
  C     -6.386630  -14.245370  -11.161910
  C     -7.007790  -15.112550  -10.288880
  C     -7.465820  -16.452310  -10.611680
  C     -7.675680  -16.981310  -11.859300
  C     -7.522100  -16.282570  -13.074210
  N     -7.425150  -15.773690  -14.099570
  C     -8.115140  -18.299730  -12.097690
  N     -8.465880  -19.360250  -12.363480
  C     -7.658240  -17.149220   -9.344290
  C     -7.443270  -16.237350   -8.286120
  C     -7.552820  -16.646870   -6.968170
  C     -7.870650  -17.972200   -6.709600
  C     -8.086080  -18.867510   -7.746440
  C     -7.985790  -18.467030   -9.071370
  C     -7.168910  -14.928380   -8.860120
  C     -7.270680  -13.730410   -8.191770
  C     -7.359640  -13.602960   -6.795520
  N     -7.379100  -13.404740   -5.662890
  C     -7.406060  -12.470180   -8.813450
  N     -7.597750  -11.423510   -9.244710
  H    -14.463280  -11.855170    3.245080
  H    -14.079000  -13.404970    1.383240
  H    -11.955890  -13.388670    0.146930
  H    -10.159700  -11.824970    0.758810
  H    -11.568800   -7.595910    5.245510
  H    -10.190950   -4.117290    5.736820
  H     -9.398000   -5.435740    6.594320
  H    -11.080680   -5.607860    6.099970
  H     -7.346930   -3.962600    4.677060
  H     -8.743280   -3.113340    4.020360
  H     -7.447600   -3.645450    2.941210
  H     -7.100100   -5.225820    1.322100
  H     -8.326950   -7.985890    0.822090
  H     -7.549010   -9.330000   -0.788900
  H     -6.545260  -11.781880   -3.968170
  H     -6.354390  -13.074290   -1.731220
  H     -5.356840  -11.704190   -1.190290
  H     -4.816510  -13.444230   -3.465560
  H     -3.861490  -13.161870   -2.160710
  H     -8.545070  -10.517620   -2.957320
  H     -8.033720  -11.212930   -1.393580
  H     -8.489210  -12.877500   -3.739330
  H     -9.562230  -12.664640   -2.512820
  H     -4.629230  -11.482660   -5.133060
  H     -2.280970  -10.653850   -5.495370
  H     -1.864210   -8.221150   -6.026880
  H     -2.948610   -6.824700   -4.330370
  H     -4.416250   -5.809750   -2.411350
  H     -5.910370   -5.382040   -0.518230
  H     -3.733980  -11.282880   -7.418050
  H     -3.049870   -8.367860   -8.041670
  H     -2.191840   -7.670730  -11.613540
  H     -2.728430   -7.212800   -9.992490
  H     -3.805070   -7.006890  -11.380230
  H     -4.510940  -10.361600  -13.784390
  H     -3.222120   -9.167900  -13.565580
  H     -4.900900   -8.695430  -13.338860
  H     -5.430140  -12.193600  -12.663230
  H     -5.322080  -13.062240   -9.731150
  H     -6.449720  -14.448120  -12.221610
  H     -7.386630  -15.960360   -6.153460
  H     -7.950900  -18.307820   -5.686880
  H     -8.335090  -19.893640   -7.523120
  H     -8.158280  -19.177170   -9.863110

 Total Charge           Charge          ....    0
 Multiplicity           Mult            ....    1
 Number of Electrons    NEL             ....  526
 Basis Dimension        Dim             .... 1312

ORBITAL ENERGIES
----------------

  NO   OCC          E(Eh)            E(eV)
   0   2.0000     -19.301255      -525.2138
   1   2.0000     -19.291259      -524.9419
   2   2.0000     -14.433274      -392.7494
   3   2.0000     -14.422536      -392.4572
   4   2.0000     -14.419019      -392.3615
   5   2.0000     -14.418577      -392.3494
   6   2.0000     -14.413682      -392.2162
   7   2.0000     -14.410191      -392.1212
   8   2.0000     -14.404627      -391.9698
   9   2.0000     -14.401566      -391.8865
  10   2.0000     -14.371918      -391.0798
  11   2.0000     -14.359024      -390.7289
  12   2.0000     -10.351810      -281.6871
  13   2.0000     -10.351177      -281.6699
  14   2.0000     -10.349217      -281.6165
  15   2.0000     -10.348945      -281.6091
  16   2.0000     -10.348665      -281.6015
  17   2.0000     -10.346806      -281.5509
  18   2.0000     -10.342544      -281.4349
  19   2.0000     -10.338728      -281.3311
  20   2.0000     -10.334180      -281.2073
  21   2.0000     -10.332699      -281.1670
  22   2.0000     -10.331351      -281.1304
  23   2.0000     -10.331115      -281.1239
  24   2.0000     -10.329702      -281.0855
  25   2.0000     -10.325033      -280.9584
  26   2.0000     -10.323379      -280.9134
  27   2.0000     -10.321940      -280.8743
  28   2.0000     -10.321823      -280.8711
  29   2.0000     -10.320123      -280.8248
  30   2.0000     -10.317691      -280.7586
  31   2.0000     -10.313556      -280.6461
  32   2.0000     -10.313463      -280.6436
  33   2.0000     -10.313052      -280.6324
  34   2.0000     -10.312712      -280.6232
  35   2.0000     -10.311843      -280.5995
  36   2.0000     -10.308578      -280.5107
  37   2.0000     -10.305401      -280.4242
  38   2.0000     -10.304315      -280.3947
  39   2.0000     -10.303340      -280.3681
  40   2.0000     -10.301573      -280.3201
  41   2.0000     -10.301318      -280.3131
  42   2.0000     -10.300411      -280.2884
  43   2.0000     -10.300275      -280.2847
  44   2.0000     -10.298702      -280.2419
  45   2.0000     -10.298381      -280.2332
  46   2.0000     -10.297577      -280.2113
  47   2.0000     -10.297446      -280.2077
  48   2.0000     -10.296960      -280.1945
  49   2.0000     -10.296247      -280.1751
  50   2.0000     -10.293541      -280.1015
  51   2.0000     -10.291619      -280.0492
  52   2.0000     -10.291357      -280.0421
  53   2.0000     -10.290860      -280.0285
  54   2.0000     -10.288819      -279.9730
  55   2.0000     -10.288327      -279.9596
  56   2.0000     -10.287956      -279.9495
  57   2.0000     -10.286850      -279.9194
  58   2.0000     -10.286712      -279.9157
  59   2.0000     -10.285702      -279.8882
  60   2.0000     -10.283051      -279.8160
  61   2.0000     -10.278897      -279.7030
  62   2.0000     -10.278034      -279.6795
  63   2.0000     -10.277928      -279.6766
  64   2.0000     -10.270913      -279.4858
  65   2.0000     -10.270146      -279.4649
  66   2.0000     -10.269200      -279.4391
  67   2.0000     -10.265537      -279.3395
  68   2.0000     -10.264500      -279.3113
  69   2.0000     -10.264164      -279.3021
  70   2.0000     -10.263507      -279.2842
  71   2.0000     -10.262424      -279.2548
  72   2.0000     -10.261883      -279.2400
  73   2.0000     -10.261338      -279.2252
  74   2.0000     -10.256617      -279.0967
  75   2.0000     -10.256415      -279.0912
  76   2.0000     -10.252203      -278.9766
  77   2.0000     -10.250223      -278.9228
  78   2.0000      -1.222349       -33.2618
  79   2.0000      -1.214273       -33.0420
  80   2.0000      -1.037007       -28.2184
  81   2.0000      -1.022471       -27.8229
  82   2.0000      -1.020660       -27.7736
  83   2.0000      -1.010734       -27.5035
  84   2.0000      -1.005624       -27.3644
  85   2.0000      -1.001797       -27.2603
  86   2.0000      -0.998894       -27.1813
  87   2.0000      -0.995509       -27.0892
  88   2.0000      -0.985862       -26.8267
  89   2.0000      -0.984572       -26.7916
  90   2.0000      -0.977124       -26.5889
  91   2.0000      -0.961910       -26.1749
  92   2.0000      -0.954023       -25.9603
  93   2.0000      -0.947896       -25.7936
  94   2.0000      -0.946337       -25.7511
  95   2.0000      -0.941073       -25.6079
  96   2.0000      -0.940354       -25.5883
  97   2.0000      -0.936890       -25.4941
  98   2.0000      -0.936080       -25.4720
  99   2.0000      -0.932535       -25.3756
 100   2.0000      -0.924848       -25.1664
 101   2.0000      -0.923211       -25.1218
 102   2.0000      -0.910918       -24.7873
 103   2.0000      -0.899729       -24.4829
 104   2.0000      -0.894916       -24.3519
 105   2.0000      -0.880466       -23.9587
 106   2.0000      -0.875752       -23.8304
 107   2.0000      -0.871941       -23.7267
 108   2.0000      -0.867708       -23.6115
 109   2.0000      -0.859249       -23.3814
 110   2.0000      -0.853276       -23.2188
 111   2.0000      -0.847510       -23.0619
 112   2.0000      -0.839133       -22.8340
 113   2.0000      -0.832250       -22.6467
 114   2.0000      -0.820500       -22.3269
 115   2.0000      -0.818470       -22.2717
 116   2.0000      -0.810453       -22.0535
 117   2.0000      -0.804228       -21.8842
 118   2.0000      -0.800805       -21.7910
 119   2.0000      -0.793100       -21.5813
 120   2.0000      -0.792818       -21.5737
 121   2.0000      -0.776887       -21.1402
 122   2.0000      -0.775934       -21.1142
 123   2.0000      -0.760860       -20.7041
 124   2.0000      -0.751346       -20.4452
 125   2.0000      -0.736495       -20.0411
 126   2.0000      -0.724112       -19.7041
 127   2.0000      -0.718504       -19.5515
 128   2.0000      -0.712788       -19.3959
 129   2.0000      -0.705451       -19.1963
 130   2.0000      -0.703904       -19.1542
 131   2.0000      -0.702960       -19.1285
 132   2.0000      -0.698221       -18.9996
 133   2.0000      -0.694645       -18.9022
 134   2.0000      -0.688664       -18.7395
 135   2.0000      -0.686690       -18.6858
 136   2.0000      -0.672675       -18.3044
 137   2.0000      -0.670351       -18.2412
 138   2.0000      -0.667266       -18.1572
 139   2.0000      -0.665301       -18.1038
 140   2.0000      -0.658780       -17.9263
 141   2.0000      -0.653735       -17.7890
 142   2.0000      -0.652352       -17.7514
 143   2.0000      -0.648334       -17.6421
 144   2.0000      -0.645730       -17.5712
 145   2.0000      -0.636917       -17.3314
 146   2.0000      -0.634640       -17.2694
 147   2.0000      -0.623227       -16.9589
 148   2.0000      -0.615805       -16.7569
 149   2.0000      -0.612049       -16.6547
 150   2.0000      -0.606623       -16.5070
 151   2.0000      -0.596374       -16.2282
 152   2.0000      -0.591090       -16.0844
 153   2.0000      -0.586879       -15.9698
 154   2.0000      -0.585295       -15.9267
 155   2.0000      -0.577016       -15.7014
 156   2.0000      -0.574726       -15.6391
 157   2.0000      -0.572520       -15.5791
 158   2.0000      -0.571445       -15.5498
 159   2.0000      -0.569974       -15.5098
 160   2.0000      -0.566587       -15.4176
 161   2.0000      -0.562886       -15.3169
 162   2.0000      -0.556253       -15.1364
 163   2.0000      -0.554446       -15.0872
 164   2.0000      -0.552910       -15.0454
 165   2.0000      -0.547538       -14.8993
 166   2.0000      -0.543424       -14.7873
 167   2.0000      -0.542720       -14.7682
 168   2.0000      -0.539910       -14.6917
 169   2.0000      -0.535827       -14.5806
 170   2.0000      -0.530971       -14.4485
 171   2.0000      -0.528959       -14.3937
 172   2.0000      -0.526210       -14.3189
 173   2.0000      -0.525396       -14.2968
 174   2.0000      -0.524883       -14.2828
 175   2.0000      -0.521331       -14.1861
 176   2.0000      -0.520048       -14.1512
 177   2.0000      -0.519745       -14.1430
 178   2.0000      -0.517161       -14.0727
 179   2.0000      -0.513052       -13.9609
 180   2.0000      -0.511761       -13.9257
 181   2.0000      -0.510925       -13.9030
 182   2.0000      -0.508630       -13.8405
 183   2.0000      -0.507316       -13.8048
 184   2.0000      -0.504984       -13.7413
 185   2.0000      -0.503810       -13.7094
 186   2.0000      -0.501176       -13.6377
 187   2.0000      -0.497772       -13.5451
 188   2.0000      -0.496347       -13.5063
 189   2.0000      -0.495626       -13.4867
 190   2.0000      -0.494368       -13.4524
 191   2.0000      -0.491928       -13.3861
 192   2.0000      -0.490859       -13.3569
 193   2.0000      -0.489976       -13.3329
 194   2.0000      -0.484447       -13.1825
 195   2.0000      -0.482814       -13.1380
 196   2.0000      -0.481888       -13.1128
 197   2.0000      -0.477419       -12.9912
 198   2.0000      -0.476588       -12.9686
 199   2.0000      -0.474723       -12.9179
 200   2.0000      -0.471565       -12.8319
 201   2.0000      -0.469810       -12.7842
 202   2.0000      -0.467629       -12.7248
 203   2.0000      -0.465387       -12.6638
 204   2.0000      -0.464468       -12.6388
 205   2.0000      -0.461092       -12.5470
 206   2.0000      -0.456979       -12.4350
 207   2.0000      -0.456939       -12.4339
 208   2.0000      -0.455134       -12.3848
 209   2.0000      -0.453878       -12.3507
 210   2.0000      -0.453570       -12.3423
 211   2.0000      -0.451192       -12.2776
 212   2.0000      -0.449496       -12.2314
 213   2.0000      -0.447821       -12.1858
 214   2.0000      -0.446317       -12.1449
 215   2.0000      -0.443659       -12.0726
 216   2.0000      -0.442356       -12.0371
 217   2.0000      -0.441016       -12.0006
 218   2.0000      -0.438438       -11.9305
 219   2.0000      -0.437880       -11.9153
 220   2.0000      -0.436532       -11.8786
 221   2.0000      -0.435255       -11.8439
 222   2.0000      -0.434751       -11.8302
 223   2.0000      -0.433814       -11.8047
 224   2.0000      -0.433354       -11.7922
 225   2.0000      -0.431555       -11.7432
 226   2.0000      -0.429787       -11.6951
 227   2.0000      -0.428388       -11.6570
 228   2.0000      -0.427638       -11.6366
 229   2.0000      -0.424960       -11.5637
 230   2.0000      -0.419771       -11.4225
 231   2.0000      -0.419482       -11.4147
 232   2.0000      -0.417454       -11.3595
 233   2.0000      -0.414567       -11.2809
 234   2.0000      -0.412641       -11.2285
 235   2.0000      -0.411252       -11.1907
 236   2.0000      -0.407779       -11.0962
 237   2.0000      -0.404240       -10.9999
 238   2.0000      -0.400760       -10.9052
 239   2.0000      -0.399171       -10.8620
 240   2.0000      -0.394941       -10.7469
 241   2.0000      -0.387308       -10.5392
 242   2.0000      -0.385207       -10.4820
 243   2.0000      -0.382449       -10.4070
 244   2.0000      -0.380425       -10.3519
 245   2.0000      -0.374165       -10.1815
 246   2.0000      -0.370904       -10.0928
 247   2.0000      -0.360676        -9.8145
 248   2.0000      -0.358871        -9.7654
 249   2.0000      -0.357556        -9.7296
 250   2.0000      -0.340341        -9.2612
 251   2.0000      -0.336228        -9.1492
 252   2.0000      -0.332823        -9.0566
 253   2.0000      -0.326526        -8.8852
 254   2.0000      -0.320503        -8.7213
 255   2.0000      -0.312224        -8.4961
 256   2.0000      -0.309109        -8.4113
 257   2.0000      -0.297432        -8.0935
 258   2.0000      -0.288551        -7.8519
 259   2.0000      -0.276664        -7.5284
 260   2.0000      -0.260136        -7.0787
 261   2.0000      -0.250197        -6.8082
 262   2.0000      -0.213734        -5.8160
 263   0.0000      -0.103289        -2.8106
 264   0.0000      -0.091182        -2.4812
 265   0.0000      -0.089927        -2.4470
 266   0.0000      -0.075039        -2.0419
 267   0.0000      -0.057666        -1.5692

MULLIKEN ATOMIC CHARGES
-----------------------
   0 C :   -0.031644
   1 C :    0.042611
   2 C :    0.046127
   3 C :   -0.044742
   4 C :    0.020640
   5 C :   -0.000136
   6 C :    0.304416
   7 C :   -0.360201
   8 C :   -0.190175
   9 N :    0.147490
  10 C :   -0.183474
  11 N :    0.141362
  12 C :   -0.066647
  13 C :    0.234415
  14 C :   -0.332115
  15 C :   -0.205020
  16 N :    0.163709
  17 C :   -0.163503
  18 N :    0.135213
  19 C :    0.006958
  20 C :    0.097019
  21 O :   -0.228834
  22 C :    0.184083
  23 C :   -0.154372
  24 C :   -0.090910
  25 C :    0.120777
  26 C :    0.123167
  27 C :   -0.052149
  28 C :    0.019708
  29 C :    0.119368
  30 C :   -0.066891
  31 C :    0.026283
  32 C :    0.028673
  33 C :   -0.094611
  34 C :    0.154584
  35 N :   -0.228279
  36 C :    0.109576
  37 N :   -0.221878
  38 C :    0.074031
  39 C :   -0.081548
  40 C :    0.193340
  41 C :   -0.075601
  42 C :    0.029293
  43 C :    0.009281
  44 C :    0.034441
  45 C :   -0.002033
  46 C :   -0.006678
  47 C :   -0.083549
  48 C :   -0.008663
  49 C :    0.161018
  50 O :   -0.211582
  51 C :    0.133806
  52 C :   -0.108829
  53 C :   -0.152846
  54 C :    0.127016
  55 C :    0.122254
  56 C :   -0.012146
  57 C :   -0.025386
  58 C :    0.048084
  59 C :   -0.074844
  60 C :    0.307137
  61 C :   -0.348959
  62 C :   -0.183052
  63 N :    0.146789
  64 C :   -0.189389
  65 N :    0.160632
  66 C :    0.009315
  67 C :    0.011460
  68 C :   -0.041729
  69 C :    0.046384
  70 C :    0.048196
  71 C :   -0.034054
  72 C :    0.254109
  73 C :   -0.360651
  74 C :   -0.152058
  75 N :    0.144212
  76 C :   -0.212970
  77 N :    0.176052
  78 H :    0.001507
  79 H :   -0.001523
  80 H :   -0.002814
  81 H :   -0.002373
  82 H :   -0.005842
  83 H :    0.020429
  84 H :    0.053523
  85 H :    0.040931
  86 H :    0.038479
  87 H :    0.027606
  88 H :    0.010515
  89 H :   -0.015651
  90 H :   -0.000025
  91 H :   -0.046719
  92 H :   -0.012504
  93 H :    0.006847
  94 H :    0.001878
  95 H :    0.089613
  96 H :    0.091551
  97 H :   -0.015362
  98 H :    0.028835
  99 H :    0.086256
 100 H :    0.078986
 101 H :   -0.018570
 102 H :    0.053690
 103 H :   -0.012815
 104 H :   -0.041160
 105 H :   -0.042532
 106 H :   -0.037627
 107 H :    0.007851
 108 H :   -0.002054
 109 H :    0.029839
 110 H :    0.012326
 111 H :    0.031157
 112 H :    0.017089
 113 H :    0.030863
 114 H :    0.041908
 115 H :    0.013938
 116 H :    0.033079
 117 H :    0.012914
 118 H :    0.001277
 119 H :    0.003608
 120 H :    0.003812
 121 H :    0.006380
Sum of atomic charges:   -0.0000000

LOEWDIN ATOMIC CHARGES
----------------------
   0 C :    0.002802
   1 C :   -0.004761
   2 C :   -0.001923
   3 C :   -0.005807
   4 C :   -0.008235
   5 C :   -0.013240
   6 C :    0.080563
   7 C :   -0.150990
   8 C :   -0.019661
   9 N :   -0.060608
  10 C :   -0.018339
  11 N :   -0.063468
  12 C :   -0.082487
  13 C :    0.073702
  14 C :   -0.147159
  15 C :   -0.023628
  16 N :   -0.062520
  17 C :   -0.008926
  18 N :   -0.063328
  19 C :    0.041158
  20 C :    0.000948
  21 O :    0.016376
  22 C :    0.088541
  23 C :   -0.072850
  24 C :    0.010062
  25 C :   -0.041913
  26 C :   -0.042924
  27 C :   -0.075940
  28 C :    0.038635
  29 C :   -0.048313
  30 C :    0.029528
  31 C :   -0.036769
  32 C :    0.013173
  33 C :   -0.042423
  34 C :    0.034719
  35 N :   -0.114417
  36 C :    0.020914
  37 N :   -0.122614
  38 C :   -0.016958
  39 C :    0.092953
  40 C :   -0.031118
  41 C :   -0.051248
  42 C :   -0.008477
  43 C :   -0.049647
  44 C :   -0.025038
  45 C :   -0.011035
  46 C :   -0.026310
  47 C :    0.025533
  48 C :   -0.054343
  49 C :    0.064262
  50 O :    0.015772
  51 C :    0.010303
  52 C :   -0.017031
  53 C :   -0.069355
  54 C :   -0.042962
  55 C :   -0.041810
  56 C :    0.037944
  57 C :   -0.046895
  58 C :    0.065375
  59 C :   -0.076490
  60 C :    0.077767
  61 C :   -0.137387
  62 C :   -0.019560
  63 N :   -0.051715
  64 C :   -0.019764
  65 N :   -0.049707
  66 C :   -0.012031
  67 C :   -0.012521
  68 C :   -0.002935
  69 C :    0.001730
  70 C :    0.001245
  71 C :    0.004811
  72 C :    0.077462
  73 C :   -0.150007
  74 C :    0.004513
  75 N :   -0.061022
  76 C :   -0.025982
  77 N :   -0.047221
  78 H :    0.040339
  79 H :    0.035236
  80 H :    0.034243
  81 H :    0.038411
  82 H :    0.048654
  83 H :    0.038747
  84 H :    0.053124
  85 H :    0.043070
  86 H :    0.042344
  87 H :    0.037293
  88 H :    0.033400
  89 H :    0.030631
  90 H :    0.033560
  91 H :    0.028058
  92 H :    0.022909
  93 H :    0.007275
  94 H :    0.020286
  95 H :    0.049505
  96 H :    0.054441
  97 H :   -0.001238
  98 H :    0.012946
  99 H :    0.040058
 100 H :    0.048583
 101 H :    0.026491
 102 H :    0.069937
 103 H :    0.020437
 104 H :    0.028115
 105 H :    0.025519
 106 H :    0.022363
 107 H :    0.027163
 108 H :    0.034927
 109 H :    0.038768
 110 H :    0.034501
 111 H :    0.040028
 112 H :    0.035253
 113 H :    0.042103
 114 H :    0.046144
 115 H :    0.044419
 116 H :    0.033024
 117 H :    0.044657
 118 H :    0.038773
 119 H :    0.037255
 120 H :    0.037550
 121 H :    0.041719

  Mayer bond orders larger than 0.100000
B(  0-C ,  1-C ) :   1.3612 B(  0-C ,  5-C ) :   1.3948 B(  0-C , 78-H ) :   0.9829
B(  1-C ,  2-C ) :   1.3843 B(  1-C , 79-H ) :   0.9859 B(  2-C ,  3-C ) :   1.3588
B(  2-C , 80-H ) :   0.9870 B(  3-C ,  4-C ) :   1.3869 B(  3-C , 81-H ) :   0.9882
B(  4-C ,  5-C ) :   1.3128 B(  4-C , 13-C ) :   1.0121 B(  5-C ,  6-C ) :   0.9921
B(  6-C ,  7-C ) :   1.5985 B(  6-C , 12-C ) :   1.1008 B(  7-C ,  8-C ) :   1.1537
B(  7-C , 10-C ) :   1.1434 B(  8-C ,  9-N ) :   2.9703 B( 10-C , 11-N ) :   2.9783
B( 12-C , 13-C ) :   1.0613 B( 12-C , 19-C ) :   1.4385 B( 13-C , 14-C ) :   1.6162
B( 14-C , 15-C ) :   1.1586 B( 14-C , 17-C ) :   1.1524 B( 15-C , 16-N ) :   3.0092
B( 17-C , 18-N ) :   2.9184 B( 19-C , 20-C ) :   1.3237 B( 19-C , 82-H ) :   0.9231
B( 20-C , 21-O ) :   1.0778 B( 20-C , 24-C ) :   1.3067 B( 21-O , 22-C ) :   1.1489
B( 22-C , 23-C ) :   1.3357 B( 22-C , 27-C ) :   1.1957 B( 23-C , 24-C ) :   1.3704
B( 23-C , 26-C ) :   1.1127 B( 24-C , 25-C ) :   1.1304 B( 25-C , 83-H ) :   0.9349
B( 25-C , 84-H ) :   0.9364 B( 25-C , 85-H ) :   0.9343 B( 26-C , 86-H ) :   0.9446
B( 26-C , 87-H ) :   0.9436 B( 26-C , 88-H ) :   0.9424 B( 27-C , 28-C ) :   1.5950
B( 27-C , 89-H ) :   0.9541 B( 28-C , 29-C ) :   1.1069 B( 28-C , 90-H ) :   0.9859
B( 29-C , 30-C ) :   1.4529 B( 29-C , 46-C ) :   1.1172 B( 30-C , 31-C ) :   1.1410
B( 30-C , 91-H ) :   0.9996 B( 31-C , 32-C ) :   1.4554 B( 31-C , 44-C ) :   1.1148
B( 32-C , 33-C ) :   1.0293 B( 32-C , 38-C ) :   1.1248 B( 33-C , 34-C ) :   1.0062
B( 33-C , 36-C ) :   1.0458 B( 33-C , 92-H ) :   0.8939 B( 34-C , 35-N ) :   1.0953
B( 34-C , 93-H ) :   0.9395 B( 34-C , 94-H ) :   0.9330 B( 35-N , 95-H ) :   0.9688
B( 35-N , 96-H ) :   0.9693 B( 36-C , 37-N ) :   1.0656 B( 36-C , 97-H ) :   0.9455
B( 36-C , 98-H ) :   0.9106 B( 37-N , 99-H ) :   0.9528 B( 37-N ,100-H ) :   0.9647
B( 38-C , 39-C ) :   1.7040 B( 38-C , 43-C ) :   1.0473 B( 39-C , 40-C ) :   0.9534
B( 39-C ,101-H ) :   0.9446 B( 40-C , 41-C ) :   1.0126 B( 40-C , 47-C ) :   0.9315
B( 40-C ,102-H ) :   0.8297 B( 41-C , 42-C ) :   1.7322 B( 41-C ,103-H ) :   0.9572
B( 42-C , 43-C ) :   1.1233 B( 42-C ,104-H ) :   0.9876 B( 43-C , 44-C ) :   1.4480
B( 44-C , 45-C ) :   1.1357 B( 45-C , 46-C ) :   1.6222 B( 45-C ,105-H ) :   0.9885
B( 46-C ,106-H ) :   0.9813 B( 47-C , 48-C ) :   1.8278 B( 47-C ,107-H ) :   0.9767
B( 48-C , 49-C ) :   1.1153 B( 48-C ,108-H ) :   0.9410 B( 49-C , 50-O ) :   1.1654
B( 49-C , 53-C ) :   1.4072 B( 50-O , 51-C ) :   1.1047 B( 51-C , 52-C ) :   1.3573
B( 51-C , 56-C ) :   1.2224 B( 52-C , 53-C ) :   1.3206 B( 52-C , 55-C ) :   1.1248
B( 53-C , 54-C ) :   1.1160 B( 54-C ,109-H ) :   0.9443 B( 54-C ,110-H ) :   0.9423
B( 54-C ,111-H ) :   0.9428 B( 55-C ,112-H ) :   0.9429 B( 55-C ,113-H ) :   0.9399
B( 55-C ,114-H ) :   0.9387 B( 56-C , 57-C ) :   1.5212 B( 56-C ,115-H ) :   0.9733
B( 57-C , 58-C ) :   1.2230 B( 57-C ,116-H ) :   0.9692 B( 58-C , 59-C ) :   1.4744
B( 58-C ,117-H ) :   0.9508 B( 59-C , 60-C ) :   1.0679 B( 59-C , 72-C ) :   1.0694
B( 60-C , 61-C ) :   1.6228 B( 60-C , 66-C ) :   0.9931 B( 61-C , 62-C ) :   1.1434
B( 61-C , 64-C ) :   1.1473 B( 62-C , 63-N ) :   2.9662 B( 64-C , 65-N ) :   2.9760
B( 66-C , 67-C ) :   1.3128 B( 66-C , 71-C ) :   1.3889 B( 67-C , 68-C ) :   1.3822
B( 67-C , 72-C ) :   1.0172 B( 68-C , 69-C ) :   1.3620 B( 68-C ,118-H ) :   0.9864
B( 69-C , 70-C ) :   1.3828 B( 69-C ,119-H ) :   0.9868 B( 70-C , 71-C ) :   1.3635
B( 70-C ,120-H ) :   0.9859 B( 71-C ,121-H ) :   0.9837 B( 72-C , 73-C ) :   1.5768
B( 73-C , 74-C ) :   1.1602 B( 73-C , 76-C ) :   1.1549 B( 74-C , 75-N ) :   2.9007
B( 76-C , 77-N ) :   3.0126

-----------------------------------------------------------------------------
         ABSORPTION SPECTRUM VIA TRANSITION ELECTRIC DIPOLE MOMENTS
-----------------------------------------------------------------------------
State   Energy  Wavelength   fosc         T2         TX        TY        TZ
        (cm-1)    (nm)                  (au**2)     (au)      (au)      (au)
-----------------------------------------------------------------------------
   0   11601.2    862.0   0.150011144   4.25692   1.05843  -0.18829  -1.76102
   1   12473.3    801.7   0.079031548   2.08591   1.01245   0.42590  -0.93779
   2   15618.1    640.3   0.086744969   1.82848  -0.71764  -0.62095   0.96327
   3   16360.8    611.2   0.004496120   0.09047   0.15278   0.19288   0.17300
   4   16893.6    591.9   0.151797722   2.95814   0.85935  -0.84424  -1.22756
   5   17398.7    574.8   0.906993077  17.16180  -2.73571  -2.92161   1.06858
   6   18777.5    532.6   0.026640287   0.46706   0.07657   0.66976  -0.11237
   7   20053.1    498.7   0.340511713   5.59018   0.72054   1.92587   1.16705
   8   22355.7    447.3   0.169971457   2.50302   1.35857   0.04980  -0.80922
   9   23164.2    431.7   0.007236870   0.10285  -0.02924  -0.30185  -0.10433
  10   24127.6    414.5   0.003150344   0.04299   0.10519  -0.17827  -0.01194
  11   24882.0    401.9   0.123516368   1.63423  -0.34716   1.05572   0.63179
  12   26378.4    379.1   0.117870968   1.47107  -0.64565   0.56681   0.85611
  13   26531.8    376.9   0.011292892   0.14012  -0.28298  -0.00206   0.24503
  14   27006.0    370.3   0.091831883   1.11946  -0.65008  -0.83217  -0.06600
  15   27220.6    367.4   0.084032673   1.01631  -0.14720  -0.95394  -0.29091
  16   27375.1    365.3   0.015347662   0.18457   0.00982   0.07481   0.42294
  17   27554.5    362.9   0.008726241   0.10426  -0.02476  -0.27295  -0.17072
  18   28066.2    356.3   0.027140506   0.31835  -0.23499  -0.24795   0.44906
  19   28236.8    354.1   0.005530143   0.06448   0.00243   0.24989   0.04502
  20   28794.6    347.3   0.050355403   0.57572  -0.06501  -0.75597   0.00105
  21   29168.0    342.8   0.420714041   4.74850   0.95155  -0.97529  -1.70055
  22   29765.9    336.0   0.569682524   6.30071  -1.20438   1.15649   1.87422
  23   30288.6    330.2   0.377944968   4.10794  -0.14907  -1.27633  -1.56739
  24   30636.1    326.4   0.266697300   2.86590   1.52213  -0.03723  -0.74003
  25   31131.8    321.2   0.086990519   0.91990   0.08292   0.61298   0.73299
  26   31515.3    317.3   0.024174072   0.25252  -0.10938   0.23357   0.43128
  27   31728.3    315.2   0.049763883   0.51635   0.02148  -0.32502  -0.64051
  28   31939.6    313.1   0.117712537   1.21330  -0.08054   0.81604   0.73546
  29   32337.6    309.2   0.034510742   0.35134  -0.04120   0.35131   0.47563
  30   32805.1    304.8   0.405148399   4.06583  -1.92738  -0.19346   0.56001
  31   32845.9    304.5   0.094275244   0.94491  -0.10213  -0.93626  -0.24063
  32   33122.4    301.9   0.051799343   0.51485  -0.42198   0.41266   0.40803
  33   33288.7    300.4   0.242935918   2.40254  -0.09849  -1.17011  -1.01178
  34   33332.6    300.0   0.035326431   0.34890  -0.32648  -0.39941  -0.28773
  35   34082.4    293.4   0.166201517   1.60539  -0.38199  -1.18640   0.22789
  36   34118.1    293.1   0.026835463   0.25894  -0.39033  -0.32609   0.01565
  37   34750.8    287.8   0.715012897   6.77367  -0.04523  -1.25665  -2.27870
  38   34963.7    286.0   0.393967336   3.70953   0.23122   1.42442  -1.27557
  39   35179.2    284.3   0.032003602   0.29949   0.31983  -0.38682  -0.21812
  40   35280.9    283.4   0.027087136   0.25275  -0.41721  -0.27255  -0.06639
  41   35349.5    282.9   0.104303496   0.97139   0.03107  -0.54724  -0.81912
  42   35593.6    280.9   0.056374754   0.52142   0.32745   0.47487   0.43440
  43   35863.8    278.8   0.041373643   0.37979  -0.30806  -0.52945  -0.06760
  44   35975.7    278.0   0.017806097   0.16294   0.18167  -0.04937  -0.35707
  45   36642.4    272.9   0.152588157   1.37092   0.33438  -0.61858  -0.93620
  46   36765.2    272.0   0.004389101   0.03930  -0.07452   0.03143  -0.18100
  47   37321.2    267.9   0.009553928   0.08428   0.14483   0.22213   0.11815
  48   37703.9    265.2   0.008260629   0.07213  -0.18966   0.12919   0.13953
  49   38171.2    262.0   0.348510689   3.00577   0.54030  -0.83237  -1.42162
  50   38437.8    260.2   0.115146245   0.98620  -0.03168  -0.56163   0.81840
  51   38543.6    259.4   0.001005312   0.00859   0.00980   0.07163   0.05797
  52   38835.1    257.5   0.024788823   0.21014   0.09484  -0.19121  -0.40569
  53   38894.5    257.1   0.000302656   0.00256  -0.04536   0.01787  -0.01360
  54   39253.9    254.8   0.106451655   0.89278  -0.33250   0.46306   0.75352
  55   39701.8    251.9   0.035143345   0.29141   0.12531  -0.04022  -0.52354
  56   39827.9    251.1   0.066461771   0.54936   0.12934  -0.37450  -0.62640
  57   39912.8    250.5   0.000103854   0.00086  -0.02853   0.00579   0.00305
  58   40179.9    248.9   0.001491278   0.01222  -0.03994  -0.02816   0.09915

FINAL SINGLE POINT ENERGY     -3235.061596469423

DIPOLE MOMENT
-------------
                                X             Y             Z
Electronic contribution:    -33.27772     -31.97906       6.57439
Nuclear contribution   :     36.75206      33.50898      -9.53177
                        -----------------------------------------
Total Dipole Moment    :      3.47434       1.52992      -2.95737
                        -----------------------------------------
Magnitude (a.u.)       :      4.81225
Magnitude (Debye)      :     12.23177

Rotational constants in cm-1:     0.001289     0.000348     0.000289
Rotational constants in MHz :    38.656464    10.445909     8.677229

                             ****ORCA TERMINATED NORMALLY****
TOTAL RUN TIME: 0 days 0 hours 15 minutes 3 seconds 327 msec
