                         Program Version 4.2.0 -  RELEASE  -
|  1> # ORCA input file
|  2> # SCF done       -200.808638762334          0.000517520517
|  3> ! CAM-B3LYP def2-SVP def2/J RIJCOSX Grid4 TightSCF
|  4> %maxcore 5000
|  5> %tddft
|  6>     Mode sTDDFT
|  7>     Ethresh 5.0
|  8>     maxcore 5000
|  9> end
| 10>
| 11> %pal
| 12>   nprocs 6
| 13>   end
| 14> * xyz 0 1
| 15>    C       -4.15150        -8.23505        -8.53906
| 16>    C       -5.05782        -9.10428        -9.12835
| 17>    C       -6.24423        -9.44228        -8.49313
| 18>    C       -6.56585        -8.91055        -7.25289
| 19>    C       -5.67077        -8.03808        -6.65805
| 20>    C       -4.45457        -7.70377        -7.29520
| 21>    C       -3.70342        -6.80230        -6.43161
| 22>    C       -2.54743        -6.14942        -6.76344
| 23>    C       -1.90828        -6.26429        -8.01710
| 24>    N       -1.33826        -6.30631        -9.01222
| 25>    C       -1.85352        -5.23815        -5.93904
| 26>    N       -1.23870        -4.48478        -5.32852
| 27>    C       -4.43077        -6.73039        -5.16618
| 28>    C       -5.74541        -7.30943        -5.40063
| 29>    C       -6.90355        -7.01273        -4.73296
| 30>    C       -6.99872        -6.07649        -3.68589
| 31>    N       -7.12115        -5.32101        -2.82963
| 32>    C       -8.16960        -7.53370        -5.07776
| 33>    N       -9.22694        -7.91584        -5.30525
| 34>    C       -3.87494        -6.30152        -3.99096
| 35>    C       -4.32592        -6.54596        -2.68101
| 36>    S       -3.68575        -5.61359        -1.33212
| 37>    C       -4.63356        -6.43796        -0.11640
| 38>    C       -5.36502        -7.41367        -0.75960
| 39>    C       -5.20279        -7.47150        -2.14918
| 40>    O       -5.98596        -8.47578        -2.62421
| 41>    C       -6.62609        -9.00153        -1.54768
| 42>    S       -7.68209       -10.21455        -1.63737
| 43>    O       -6.26550        -8.37801        -0.40747
| 44>    C       -4.65546        -6.05294         1.26035
| 45>    C       -5.45012        -6.74394         2.15208
| 46>    C       -5.55786        -6.29009         3.47745
| 47>    C       -6.33277        -6.75684         4.53248
| 48>    C       -7.20662        -7.96170         4.51139
| 49>    C       -6.93864        -8.90034         5.70523
| 50>    N       -7.23472       -10.25954         5.30623
| 51>    C       -8.69272        -7.56227         4.42228
| 52>    N       -9.51825        -8.73936         4.20899
| 53>    C       -6.14546        -5.82472         5.62139
| 54>    C       -6.73756        -5.72700         6.82588
| 55>    C       -6.45447        -4.58062         7.74142
| 56>    C       -5.35436        -3.67616         7.29218
| 57>    C       -4.78053        -3.78043         6.08002
| 58>    C       -5.16818        -4.81134         5.19042
| 59>    C       -4.82241        -5.10028         3.88764
| 60>    C       -3.96777        -4.45441         2.96129
| 61>    C       -3.89064        -4.91820         1.69055
| 62>    C       -6.33025        -5.06918         9.15585
| 63>    C       -5.21243        -5.01009         9.88760
| 64>    C       -5.16627        -5.42699        11.25478
| 65>    S       -3.71331        -5.32170        12.21397
| 66>    C       -4.46360        -5.92416        13.68613
| 67>    C       -5.78798        -6.17466        13.39121
| 68>    C       -6.16729        -5.90576        12.06699
| 69>    O       -7.49932        -6.17825        11.95245
| 70>    C       -7.91353        -6.58730        13.17129
| 71>    S       -9.42177        -7.01508        13.53490
| 72>    O       -6.89163        -6.58619        14.06789
| 73>    C       -3.72845        -5.97060        14.89034
| 74>    C       -4.07545        -6.56529        16.06894
| 75>    C       -3.49489        -6.19808        17.36281
| 76>    C       -2.30224        -5.56898        17.58593
| 77>    C       -1.37638        -5.19352        16.58805
| 78>    N       -0.57816        -4.86689        15.83066
| 79>    C       -1.80900        -5.24607        18.86978
| 80>    N       -1.35096        -4.95290        19.87982
| 81>    C       -4.43689        -6.64138        18.38078
| 82>    C       -5.44997        -7.40976        17.76297
| 83>    C       -6.49546        -7.93169        18.50563
| 84>    C       -6.52160        -7.68699        19.87079
| 85>    C       -5.52172        -6.94355        20.48238
| 86>    C       -4.47128        -6.41355        19.74793
| 87>    C       -5.14804        -7.51339        16.34376
| 88>    C       -5.60592        -8.49222        15.50523
| 89>    C       -6.57941        -9.44901        15.86834
| 90>    N       -7.36299       -10.25245        16.10340
| 91>    C       -5.10136        -8.71763        14.20977
| 92>    N       -4.71762        -8.92080        13.14702
| 93>    H       -3.23137        -7.99120        -9.04398
| 94>    H       -4.83018        -9.52742       -10.09474
| 95>    H       -6.92794       -10.12951        -8.96735
| 96>    H       -7.48517        -9.18760        -6.76308
| 97>    H       -2.94113        -5.75841        -4.04158
| 98>    H       -6.00901        -7.60756         1.82733
| 99>    H       -6.96932        -8.54268         3.61454
|100>    H       -7.52487        -8.56536         6.57639
|101>    H       -5.87779        -8.84816         5.97266
|102>    H       -8.21795       -10.32320         5.05861
|103>    H       -7.04475       -10.90852         6.06114
|104>    H       -8.79877        -6.80561         3.62555
|105>    H       -9.00674        -7.09905         5.36210
|106>    H       -9.31867        -9.14207         3.29821
|107>    H      -10.50131        -8.48997         4.22553
|108>    H       -7.46576        -6.44590         7.17076
|109>    H       -7.38114        -3.97482         7.72673
|110>    H       -5.08263        -2.88552         7.97438
|111>    H       -4.01957        -3.08042         5.76840
|112>    H       -3.39923        -3.59099         3.27162
|113>    H       -3.26043        -4.43386         0.95932
|114>    H       -7.22922        -5.49083         9.58463
|115>    H       -4.29191        -4.62124         9.47839
|116>    H       -2.82000        -5.38404        14.86909
|117>    H       -7.28273        -8.50076        18.03847
|118>    H       -7.33388        -8.07943        20.46294
|119>    H       -5.56236        -6.76758        21.54632
|120>    H       -3.70896        -5.83109        20.23857
|121> *
|122>
|123>                          ****END OF INPUT****

CARTESIAN COORDINATES (ANGSTROEM)
---------------------------------
  C     -4.151500   -8.235050   -8.539060
  C     -5.057820   -9.104280   -9.128350
  C     -6.244230   -9.442280   -8.493130
  C     -6.565850   -8.910550   -7.252890
  C     -5.670770   -8.038080   -6.658050
  C     -4.454570   -7.703770   -7.295200
  C     -3.703420   -6.802300   -6.431610
  C     -2.547430   -6.149420   -6.763440
  C     -1.908280   -6.264290   -8.017100
  N     -1.338260   -6.306310   -9.012220
  C     -1.853520   -5.238150   -5.939040
  N     -1.238700   -4.484780   -5.328520
  C     -4.430770   -6.730390   -5.166180
  C     -5.745410   -7.309430   -5.400630
  C     -6.903550   -7.012730   -4.732960
  C     -6.998720   -6.076490   -3.685890
  N     -7.121150   -5.321010   -2.829630
  C     -8.169600   -7.533700   -5.077760
  N     -9.226940   -7.915840   -5.305250
  C     -3.874940   -6.301520   -3.990960
  C     -4.325920   -6.545960   -2.681010
  S     -3.685750   -5.613590   -1.332120
  C     -4.633560   -6.437960   -0.116400
  C     -5.365020   -7.413670   -0.759600
  C     -5.202790   -7.471500   -2.149180
  O     -5.985960   -8.475780   -2.624210
  C     -6.626090   -9.001530   -1.547680
  S     -7.682090  -10.214550   -1.637370
  O     -6.265500   -8.378010   -0.407470
  C     -4.655460   -6.052940    1.260350
  C     -5.450120   -6.743940    2.152080
  C     -5.557860   -6.290090    3.477450
  C     -6.332770   -6.756840    4.532480
  C     -7.206620   -7.961700    4.511390
  C     -6.938640   -8.900340    5.705230
  N     -7.234720  -10.259540    5.306230
  C     -8.692720   -7.562270    4.422280
  N     -9.518250   -8.739360    4.208990
  C     -6.145460   -5.824720    5.621390
  C     -6.737560   -5.727000    6.825880
  C     -6.454470   -4.580620    7.741420
  C     -5.354360   -3.676160    7.292180
  C     -4.780530   -3.780430    6.080020
  C     -5.168180   -4.811340    5.190420
  C     -4.822410   -5.100280    3.887640
  C     -3.967770   -4.454410    2.961290
  C     -3.890640   -4.918200    1.690550
  C     -6.330250   -5.069180    9.155850
  C     -5.212430   -5.010090    9.887600
  C     -5.166270   -5.426990   11.254780
  S     -3.713310   -5.321700   12.213970
  C     -4.463600   -5.924160   13.686130
  C     -5.787980   -6.174660   13.391210
  C     -6.167290   -5.905760   12.066990
  O     -7.499320   -6.178250   11.952450
  C     -7.913530   -6.587300   13.171290
  S     -9.421770   -7.015080   13.534900
  O     -6.891630   -6.586190   14.067890
  C     -3.728450   -5.970600   14.890340
  C     -4.075450   -6.565290   16.068940
  C     -3.494890   -6.198080   17.362810
  C     -2.302240   -5.568980   17.585930
  C     -1.376380   -5.193520   16.588050
  N     -0.578160   -4.866890   15.830660
  C     -1.809000   -5.246070   18.869780
  N     -1.350960   -4.952900   19.879820
  C     -4.436890   -6.641380   18.380780
  C     -5.449970   -7.409760   17.762970
  C     -6.495460   -7.931690   18.505630
  C     -6.521600   -7.686990   19.870790
  C     -5.521720   -6.943550   20.482380
  C     -4.471280   -6.413550   19.747930
  C     -5.148040   -7.513390   16.343760
  C     -5.605920   -8.492220   15.505230
  C     -6.579410   -9.449010   15.868340
  N     -7.362990  -10.252450   16.103400
  C     -5.101360   -8.717630   14.209770
  N     -4.717620   -8.920800   13.147020
  H     -3.231370   -7.991200   -9.043980
  H     -4.830180   -9.527420  -10.094740
  H     -6.927940  -10.129510   -8.967350
  H     -7.485170   -9.187600   -6.763080
  H     -2.941130   -5.758410   -4.041580
  H     -6.009010   -7.607560    1.827330
  H     -6.969320   -8.542680    3.614540
  H     -7.524870   -8.565360    6.576390
  H     -5.877790   -8.848160    5.972660
  H     -8.217950  -10.323200    5.058610
  H     -7.044750  -10.908520    6.061140
  H     -8.798770   -6.805610    3.625550
  H     -9.006740   -7.099050    5.362100
  H     -9.318670   -9.142070    3.298210
  H    -10.501310   -8.489970    4.225530
  H     -7.465760   -6.445900    7.170760
  H     -7.381140   -3.974820    7.726730
  H     -5.082630   -2.885520    7.974380
  H     -4.019570   -3.080420    5.768400
  H     -3.399230   -3.590990    3.271620
  H     -3.260430   -4.433860    0.959320
  H     -7.229220   -5.490830    9.584630
  H     -4.291910   -4.621240    9.478390
  H     -2.820000   -5.384040   14.869090
  H     -7.282730   -8.500760   18.038470
  H     -7.333880   -8.079430   20.462940
  H     -5.562360   -6.767580   21.546320
  H     -3.708960   -5.831090   20.238570

 Total Charge           Charge          ....    0
 Multiplicity           Mult            ....    1
 Number of Electrons    NEL             ....  554
 Basis Dimension        Dim             .... 1248

ORBITAL ENERGIES
----------------

  NO   OCC          E(Eh)            E(eV)
   0   2.0000     -88.998904     -2421.7833
   1   2.0000     -88.989449     -2421.5260
   2   2.0000     -88.911757     -2419.4119
   3   2.0000     -88.903164     -2419.1781
   4   2.0000     -19.345054      -526.4057
   5   2.0000     -19.340418      -526.2795
   6   2.0000     -19.337143      -526.1904
   7   2.0000     -19.331800      -526.0450
   8   2.0000     -14.433051      -392.7433
   9   2.0000     -14.432915      -392.7396
  10   2.0000     -14.428652      -392.6236
  11   2.0000     -14.427366      -392.5886
  12   2.0000     -14.426027      -392.5522
  13   2.0000     -14.426017      -392.5519
  14   2.0000     -14.421760      -392.4360
  15   2.0000     -14.420448      -392.4004
  16   2.0000     -14.393637      -391.6708
  17   2.0000     -14.362326      -390.8188
  18   2.0000     -10.463131      -284.7163
  19   2.0000     -10.455035      -284.4960
  20   2.0000     -10.388241      -282.6784
  21   2.0000     -10.379986      -282.4538
  22   2.0000     -10.377006      -282.3727
  23   2.0000     -10.367153      -282.1046
  24   2.0000     -10.361494      -281.9506
  25   2.0000     -10.361420      -281.9486
  26   2.0000     -10.358929      -281.8808
  27   2.0000     -10.355516      -281.7879
  28   2.0000     -10.354065      -281.7484
  29   2.0000     -10.353276      -281.7270
  30   2.0000     -10.353261      -281.7266
  31   2.0000     -10.351463      -281.6776
  32   2.0000     -10.351330      -281.6740
  33   2.0000     -10.347111      -281.5592
  34   2.0000     -10.346813      -281.5511
  35   2.0000     -10.345284      -281.5095
  36   2.0000     -10.341579      -281.4087
  37   2.0000     -10.337296      -281.2921
  38   2.0000     -10.334748      -281.2228
  39   2.0000     -10.334193      -281.2077
  40   2.0000     -10.333281      -281.1829
  41   2.0000     -10.330793      -281.1152
  42   2.0000     -10.328842      -281.0621
  43   2.0000     -10.328027      -281.0399
  44   2.0000     -10.326729      -281.0046
  45   2.0000     -10.324563      -280.9456
  46   2.0000     -10.324290      -280.9382
  47   2.0000     -10.322347      -280.8853
  48   2.0000     -10.321066      -280.8505
  49   2.0000     -10.320207      -280.8271
  50   2.0000     -10.319869      -280.8179
  51   2.0000     -10.316849      -280.7357
  52   2.0000     -10.315899      -280.7099
  53   2.0000     -10.314249      -280.6650
  54   2.0000     -10.313003      -280.6311
  55   2.0000     -10.312622      -280.6207
  56   2.0000     -10.308068      -280.4968
  57   2.0000     -10.307006      -280.4679
  58   2.0000     -10.306304      -280.4488
  59   2.0000     -10.305150      -280.4174
  60   2.0000     -10.305002      -280.4133
  61   2.0000     -10.301266      -280.3117
  62   2.0000     -10.300248      -280.2840
  63   2.0000     -10.299749      -280.2704
  64   2.0000     -10.298638      -280.2402
  65   2.0000     -10.293860      -280.1102
  66   2.0000     -10.292204      -280.0651
  67   2.0000     -10.290410      -280.0163
  68   2.0000     -10.288241      -279.9573
  69   2.0000     -10.286316      -279.9049
  70   2.0000     -10.285719      -279.8886
  71   2.0000     -10.285242      -279.8757
  72   2.0000     -10.281107      -279.7632
  73   2.0000     -10.279044      -279.7070
  74   2.0000     -10.278380      -279.6890
  75   2.0000     -10.277481      -279.6645
  76   2.0000     -10.276553      -279.6392
  77   2.0000     -10.271368      -279.4981
  78   2.0000      -8.093751      -220.2422
  79   2.0000      -8.083963      -219.9758
  80   2.0000      -8.009591      -217.9521
  81   2.0000      -8.000969      -217.7174
  82   2.0000      -6.063334      -164.9917
  83   2.0000      -6.059326      -164.8826
  84   2.0000      -6.055122      -164.7683
  85   2.0000      -6.053564      -164.7259
  86   2.0000      -6.049565      -164.6170
  87   2.0000      -6.045336      -164.5020
  88   2.0000      -5.979381      -162.7072
  89   2.0000      -5.976104      -162.6181
  90   2.0000      -5.970788      -162.4734
  91   2.0000      -5.969457      -162.4372
  92   2.0000      -5.967414      -162.3816
  93   2.0000      -5.960898      -162.2043
  94   2.0000      -1.310388       -35.6575
  95   2.0000      -1.302392       -35.4399
  96   2.0000      -1.202210       -32.7138
  97   2.0000      -1.193801       -32.4850
  98   2.0000      -1.047096       -28.4929
  99   2.0000      -1.039567       -28.2880
 100   2.0000      -1.033343       -28.1187
 101   2.0000      -1.027216       -27.9520
 102   2.0000      -1.025248       -27.8984
 103   2.0000      -1.020085       -27.7579
 104   2.0000      -1.017334       -27.6831
 105   2.0000      -1.010442       -27.4955
 106   2.0000      -1.008856       -27.4524
 107   2.0000      -1.007531       -27.4163
 108   2.0000      -1.001950       -27.2645
 109   2.0000      -1.000724       -27.2311
 110   2.0000      -0.998373       -27.1671
 111   2.0000      -0.978125       -26.6161
 112   2.0000      -0.969185       -26.3729
 113   2.0000      -0.965700       -26.2780
 114   2.0000      -0.960352       -26.1325
 115   2.0000      -0.949939       -25.8492
 116   2.0000      -0.944726       -25.7073
 117   2.0000      -0.942508       -25.6469
 118   2.0000      -0.941182       -25.6109
 119   2.0000      -0.928870       -25.2759
 120   2.0000      -0.924752       -25.1638
 121   2.0000      -0.919799       -25.0290
 122   2.0000      -0.906705       -24.6727
 123   2.0000      -0.903308       -24.5802
 124   2.0000      -0.896030       -24.3822
 125   2.0000      -0.894739       -24.3471
 126   2.0000      -0.883383       -24.0381
 127   2.0000      -0.873447       -23.7677
 128   2.0000      -0.866666       -23.5832
 129   2.0000      -0.863432       -23.4952
 130   2.0000      -0.853084       -23.2136
 131   2.0000      -0.845166       -22.9981
 132   2.0000      -0.840324       -22.8664
 133   2.0000      -0.838171       -22.8078
 134   2.0000      -0.830534       -22.6000
 135   2.0000      -0.818545       -22.2737
 136   2.0000      -0.802618       -21.8404
 137   2.0000      -0.799855       -21.7652
 138   2.0000      -0.796494       -21.6737
 139   2.0000      -0.793085       -21.5810
 140   2.0000      -0.773063       -21.0361
 141   2.0000      -0.770040       -20.9539
 142   2.0000      -0.754477       -20.5304
 143   2.0000      -0.752063       -20.4647
 144   2.0000      -0.745653       -20.2902
 145   2.0000      -0.735891       -20.0246
 146   2.0000      -0.728014       -19.8103
 147   2.0000      -0.725890       -19.7525
 148   2.0000      -0.724699       -19.7201
 149   2.0000      -0.719931       -19.5903
 150   2.0000      -0.717625       -19.5276
 151   2.0000      -0.715466       -19.4688
 152   2.0000      -0.710716       -19.3396
 153   2.0000      -0.705668       -19.2022
 154   2.0000      -0.700003       -19.0480
 155   2.0000      -0.693668       -18.8757
 156   2.0000      -0.680838       -18.5265
 157   2.0000      -0.678567       -18.4648
 158   2.0000      -0.676290       -18.4028
 159   2.0000      -0.674614       -18.3572
 160   2.0000      -0.671640       -18.2762
 161   2.0000      -0.668018       -18.1777
 162   2.0000      -0.666801       -18.1446
 163   2.0000      -0.652672       -17.7601
 164   2.0000      -0.648855       -17.6562
 165   2.0000      -0.642531       -17.4842
 166   2.0000      -0.642296       -17.4778
 167   2.0000      -0.634462       -17.2646
 168   2.0000      -0.624446       -16.9920
 169   2.0000      -0.616681       -16.7807
 170   2.0000      -0.611491       -16.6395
 171   2.0000      -0.607935       -16.5428
 172   2.0000      -0.603628       -16.4256
 173   2.0000      -0.595708       -16.2100
 174   2.0000      -0.592651       -16.1269
 175   2.0000      -0.588579       -16.0160
 176   2.0000      -0.586831       -15.9685
 177   2.0000      -0.586161       -15.9503
 178   2.0000      -0.576184       -15.6788
 179   2.0000      -0.569378       -15.4936
 180   2.0000      -0.566613       -15.4183
 181   2.0000      -0.556506       -15.1433
 182   2.0000      -0.554098       -15.0778
 183   2.0000      -0.552190       -15.0259
 184   2.0000      -0.550051       -14.9677
 185   2.0000      -0.548304       -14.9201
 186   2.0000      -0.546882       -14.8814
 187   2.0000      -0.542688       -14.7673
 188   2.0000      -0.539928       -14.6922
 189   2.0000      -0.538996       -14.6668
 190   2.0000      -0.536462       -14.5979
 191   2.0000      -0.535858       -14.5814
 192   2.0000      -0.533835       -14.5264
 193   2.0000      -0.530969       -14.4484
 194   2.0000      -0.528980       -14.3943
 195   2.0000      -0.526775       -14.3343
 196   2.0000      -0.524977       -14.2854
 197   2.0000      -0.523704       -14.2507
 198   2.0000      -0.520203       -14.1554
 199   2.0000      -0.517631       -14.0855
 200   2.0000      -0.517406       -14.0793
 201   2.0000      -0.515120       -14.0171
 202   2.0000      -0.514472       -13.9995
 203   2.0000      -0.512280       -13.9399
 204   2.0000      -0.509487       -13.8638
 205   2.0000      -0.506396       -13.7797
 206   2.0000      -0.502997       -13.6872
 207   2.0000      -0.501825       -13.6554
 208   2.0000      -0.500713       -13.6251
 209   2.0000      -0.496694       -13.5157
 210   2.0000      -0.495156       -13.4739
 211   2.0000      -0.492355       -13.3977
 212   2.0000      -0.489283       -13.3141
 213   2.0000      -0.487612       -13.2686
 214   2.0000      -0.482706       -13.1351
 215   2.0000      -0.480830       -13.0840
 216   2.0000      -0.478214       -13.0129
 217   2.0000      -0.474988       -12.9251
 218   2.0000      -0.472485       -12.8570
 219   2.0000      -0.466519       -12.6946
 220   2.0000      -0.466331       -12.6895
 221   2.0000      -0.465277       -12.6608
 222   2.0000      -0.463608       -12.6154
 223   2.0000      -0.462832       -12.5943
 224   2.0000      -0.461509       -12.5583
 225   2.0000      -0.460240       -12.5238
 226   2.0000      -0.458824       -12.4852
 227   2.0000      -0.457181       -12.4405
 228   2.0000      -0.456654       -12.4262
 229   2.0000      -0.456262       -12.4155
 230   2.0000      -0.454723       -12.3737
 231   2.0000      -0.453690       -12.3455
 232   2.0000      -0.451229       -12.2786
 233   2.0000      -0.450341       -12.2544
 234   2.0000      -0.448250       -12.1975
 235   2.0000      -0.447246       -12.1702
 236   2.0000      -0.442824       -12.0499
 237   2.0000      -0.442038       -12.0285
 238   2.0000      -0.441165       -12.0047
 239   2.0000      -0.439523       -11.9600
 240   2.0000      -0.437192       -11.8966
 241   2.0000      -0.436445       -11.8763
 242   2.0000      -0.434951       -11.8356
 243   2.0000      -0.433048       -11.7838
 244   2.0000      -0.430431       -11.7126
 245   2.0000      -0.424737       -11.5577
 246   2.0000      -0.420761       -11.4495
 247   2.0000      -0.420639       -11.4462
 248   2.0000      -0.420434       -11.4406
 249   2.0000      -0.418254       -11.3813
 250   2.0000      -0.417124       -11.3505
 251   2.0000      -0.413481       -11.2514
 252   2.0000      -0.411409       -11.1950
 253   2.0000      -0.409231       -11.1357
 254   2.0000      -0.398504       -10.8438
 255   2.0000      -0.393042       -10.6952
 256   2.0000      -0.388538       -10.5726
 257   2.0000      -0.386537       -10.5182
 258   2.0000      -0.385123       -10.4797
 259   2.0000      -0.381966       -10.3938
 260   2.0000      -0.374402       -10.1880
 261   2.0000      -0.365559        -9.9474
 262   2.0000      -0.349853        -9.5200
 263   2.0000      -0.341968        -9.3054
 264   2.0000      -0.336584        -9.1589
 265   2.0000      -0.334315        -9.0972
 266   2.0000      -0.323579        -8.8050
 267   2.0000      -0.321978        -8.7615
 268   2.0000      -0.317118        -8.6292
 269   2.0000      -0.317029        -8.6268
 270   2.0000      -0.314169        -8.5490
 271   2.0000      -0.313312        -8.5257
 272   2.0000      -0.308733        -8.4011
 273   2.0000      -0.293388        -7.9835
 274   2.0000      -0.290336        -7.9004
 275   2.0000      -0.284633        -7.7452
 276   2.0000      -0.236476        -6.4348
 277   0.0000      -0.110450        -3.0055
 278   0.0000      -0.106414        -2.8957
 279   0.0000      -0.094290        -2.5658
 280   0.0000      -0.087875        -2.3912
 281   0.0000      -0.078902        -2.1470

MULLIKEN ATOMIC CHARGES
-----------------------
   0 C :   -0.029318
   1 C :    0.046768
   2 C :    0.046282
   3 C :   -0.030533
   4 C :    0.007474
   5 C :    0.006374
   6 C :    0.292807
   7 C :   -0.342099
   8 C :   -0.190534
   9 N :    0.163498
  10 C :   -0.178690
  11 N :    0.157083
  12 C :   -0.073098
  13 C :    0.236116
  14 C :   -0.308452
  15 C :   -0.219365
  16 N :    0.179744
  17 C :   -0.185657
  18 N :    0.173861
  19 C :    0.123568
  20 C :   -0.227731
  21 S :    0.176160
  22 C :   -0.148294
  23 C :    0.175445
  24 C :    0.194070
  25 O :   -0.180438
  26 C :    0.241576
  27 S :   -0.132642
  28 O :   -0.177582
  29 C :    0.152794
  30 C :   -0.105515
  31 C :    0.052222
  32 C :   -0.014857
  33 C :   -0.070807
  34 C :    0.149839
  35 N :   -0.220169
  36 C :    0.145537
  37 N :   -0.216122
  38 C :    0.086195
  39 C :   -0.114748
  40 C :    0.177504
  41 C :   -0.065841
  42 C :    0.026501
  43 C :    0.004542
  44 C :    0.036831
  45 C :    0.004962
  46 C :   -0.042246
  47 C :   -0.107418
  48 C :    0.100772
  49 C :   -0.163948
  50 S :    0.196702
  51 C :   -0.230613
  52 C :    0.186666
  53 C :    0.182522
  54 O :   -0.177090
  55 C :    0.240117
  56 S :   -0.123223
  57 O :   -0.181639
  58 C :    0.123585
  59 C :   -0.061029
  60 C :    0.285796
  61 C :   -0.339838
  62 C :   -0.181356
  63 N :    0.161227
  64 C :   -0.185205
  65 N :    0.166130
  66 C :    0.010347
  67 C :    0.008128
  68 C :   -0.028861
  69 C :    0.049025
  70 C :    0.046479
  71 C :   -0.031962
  72 C :    0.226055
  73 C :   -0.295618
  74 C :   -0.184834
  75 N :    0.174466
  76 C :   -0.216883
  77 N :    0.181168
  78 H :    0.005822
  79 H :    0.003627
  80 H :    0.006501
  81 H :    0.011604
  82 H :    0.005964
  83 H :   -0.012688
  84 H :   -0.012904
  85 H :   -0.025504
  86 H :    0.000920
  87 H :    0.082741
  88 H :    0.086016
  89 H :   -0.000966
  90 H :   -0.019149
  91 H :    0.108084
  92 H :    0.099473
  93 H :   -0.001821
  94 H :    0.061389
  95 H :   -0.004818
  96 H :   -0.031021
  97 H :   -0.029927
  98 H :   -0.010702
  99 H :    0.025579
 100 H :   -0.003297
 101 H :    0.007235
 102 H :    0.012467
 103 H :    0.007811
 104 H :    0.007165
 105 H :    0.007713
Sum of atomic charges:   -0.0000000

LOEWDIN ATOMIC CHARGES
----------------------
   0 C :    0.005914
   1 C :    0.000476
   2 C :    0.006351
   3 C :    0.003076
   4 C :   -0.007292
   5 C :   -0.016406
   6 C :    0.080005
   7 C :   -0.132252
   8 C :   -0.019114
   9 N :   -0.044181
  10 C :   -0.021834
  11 N :   -0.044119
  12 C :   -0.053581
  13 C :    0.063764
  14 C :   -0.125322
  15 C :   -0.022266
  16 N :   -0.044259
  17 C :   -0.019425
  18 N :   -0.039167
  19 C :    0.034996
  20 C :   -0.205570
  21 S :    0.481225
  22 C :   -0.141639
  23 C :   -0.008540
  24 C :    0.018393
  25 O :   -0.001552
  26 C :   -0.064829
  27 S :    0.027948
  28 O :   -0.008461
  29 C :   -0.051722
  30 C :    0.016654
  31 C :   -0.024126
  32 C :   -0.009181
  33 C :   -0.042386
  34 C :    0.031087
  35 N :   -0.123312
  36 C :    0.027582
  37 N :   -0.104929
  38 C :   -0.015606
  39 C :    0.074594
  40 C :   -0.031317
  41 C :   -0.041480
  42 C :   -0.008771
  43 C :   -0.037314
  44 C :   -0.027191
  45 C :    0.000367
  46 C :   -0.033152
  47 C :    0.019902
  48 C :   -0.047977
  49 C :   -0.160400
  50 S :    0.485662
  51 C :   -0.202613
  52 C :    0.017293
  53 C :   -0.007662
  54 O :   -0.011408
  55 C :   -0.064652
  56 S :    0.037260
  57 O :   -0.002143
  58 C :    0.033073
  59 C :   -0.045537
  60 C :    0.079758
  61 C :   -0.128406
  62 C :   -0.022417
  63 N :   -0.040250
  64 C :   -0.019134
  65 N :   -0.040024
  66 C :   -0.016400
  67 C :   -0.007542
  68 C :    0.003861
  69 C :    0.008169
  70 C :    0.001862
  71 C :    0.006665
  72 C :    0.061614
  73 C :   -0.120740
  74 C :   -0.019484
  75 N :   -0.034387
  76 C :   -0.022646
  77 N :   -0.041293
  78 H :    0.041356
  79 H :    0.037572
  80 H :    0.038262
  81 H :    0.042662
  82 H :    0.047657
  83 H :    0.030285
  84 H :    0.028306
  85 H :   -0.005105
  86 H :    0.017986
  87 H :    0.038055
  88 H :    0.052006
  89 H :    0.004582
  90 H :    0.011593
  91 H :    0.060248
  92 H :    0.059330
  93 H :    0.028520
  94 H :    0.075388
  95 H :    0.025805
  96 H :    0.032239
  97 H :    0.030818
  98 H :    0.021766
  99 H :    0.031819
 100 H :    0.035948
 101 H :    0.047992
 102 H :    0.043136
 103 H :    0.039057
 104 H :    0.038724
 105 H :    0.041853

  Mayer bond orders larger than 0.100000
B(  0-C ,  1-C ) :   1.3705 B(  0-C ,  5-C ) :   1.3819 B(  0-C , 78-H ) :   0.9840
B(  1-C ,  2-C ) :   1.3781 B(  1-C , 79-H ) :   0.9861 B(  2-C ,  3-C ) :   1.3632
B(  2-C , 80-H ) :   0.9869 B(  3-C ,  4-C ) :   1.3860 B(  3-C , 81-H ) :   0.9870
B(  4-C ,  5-C ) :   1.3097 B(  4-C , 13-C ) :   1.0092 B(  5-C ,  6-C ) :   0.9998
B(  6-C ,  7-C ) :   1.6421 B(  6-C , 12-C ) :   1.0560 B(  7-C ,  8-C ) :   1.1465
B(  7-C , 10-C ) :   1.1343 B(  8-C ,  9-N ) :   2.9798 B( 10-C , 11-N ) :   2.9712
B( 12-C , 13-C ) :   1.0362 B( 12-C , 19-C ) :   1.5947 B( 13-C , 14-C ) :   1.6465
B( 14-C , 15-C ) :   1.1659 B( 14-C , 17-C ) :   1.1400 B( 15-C , 16-N ) :   3.0034
B( 17-C , 18-N ) :   2.9995 B( 19-C , 20-C ) :   1.2240 B( 19-C , 82-H ) :   0.9093
B( 20-C , 21-S ) :   1.0835 B( 20-C , 24-C ) :   1.4238 B( 21-S , 22-C ) :   1.1165
B( 22-C , 23-C ) :   1.4919 B( 22-C , 29-C ) :   1.1007 B( 23-C , 24-C ) :   1.2801
B( 23-C , 28-O ) :   1.0517 B( 24-C , 25-O ) :   1.0837 B( 25-O , 26-C ) :   1.0632
B( 26-C , 27-S ) :   1.8151 B( 26-C , 28-O ) :   1.1006 B( 29-C , 30-C ) :   1.5070
B( 29-C , 46-C ) :   1.0878 B( 30-C , 31-C ) :   1.1495 B( 30-C , 83-H ) :   0.9862
B( 31-C , 32-C ) :   1.4939 B( 31-C , 44-C ) :   1.1083 B( 32-C , 33-C ) :   1.0269
B( 32-C , 38-C ) :   1.0886 B( 33-C , 34-C ) :   1.0171 B( 33-C , 36-C ) :   1.0476
B( 33-C , 84-H ) :   0.8777 B( 34-C , 35-N ) :   1.1201 B( 34-C , 85-H ) :   0.9196
B( 34-C , 86-H ) :   0.9498 B( 35-N , 87-H ) :   0.9454 B( 35-N , 88-H ) :   0.9663
B( 36-C , 37-N ) :   1.0897 B( 36-C , 89-H ) :   0.9456 B( 36-C , 90-H ) :   0.9315
B( 37-N , 91-H ) :   0.9610 B( 37-N , 92-H ) :   0.9670 B( 38-C , 39-C ) :   1.6838
B( 38-C , 43-C ) :   1.0446 B( 39-C , 40-C ) :   0.9604 B( 39-C , 93-H ) :   0.9604
B( 40-C , 41-C ) :   1.0085 B( 40-C , 47-C ) :   0.9515 B( 40-C , 94-H ) :   0.8294
B( 41-C , 42-C ) :   1.7140 B( 41-C , 95-H ) :   0.9670 B( 42-C , 43-C ) :   1.1283
B( 42-C , 96-H ) :   0.9916 B( 43-C , 44-C ) :   1.4522 B( 44-C , 45-C ) :   1.1375
B( 45-C , 46-C ) :   1.6305 B( 45-C , 97-H ) :   0.9913 B( 46-C , 98-H ) :   0.9834
B( 47-C , 48-C ) :   1.8333 B( 47-C , 99-H ) :   0.9658 B( 48-C , 49-C ) :   1.0841
B( 48-C ,100-H ) :   0.9485 B( 49-C , 50-S ) :   1.1204 B( 49-C , 53-C ) :   1.5068
B( 50-S , 51-C ) :   1.0946 B( 51-C , 52-C ) :   1.4463 B( 51-C , 58-C ) :   1.2025
B( 52-C , 53-C ) :   1.2704 B( 52-C , 57-O ) :   1.0809 B( 53-C , 54-O ) :   1.0599
B( 54-O , 55-C ) :   1.0954 B( 55-C , 56-S ) :   1.8245 B( 55-C , 57-O ) :   1.0611
B( 58-C , 59-C ) :   1.6247 B( 58-C ,101-H ) :   0.9105 B( 59-C , 60-C ) :   1.0447
B( 59-C , 72-C ) :   1.0282 B( 60-C , 61-C ) :   1.6531 B( 60-C , 66-C ) :   1.0030
B( 61-C , 62-C ) :   1.1330 B( 61-C , 64-C ) :   1.1427 B( 62-C , 63-N ) :   2.9765
B( 64-C , 65-N ) :   2.9826 B( 66-C , 67-C ) :   1.3091 B( 66-C , 71-C ) :   1.3793
B( 67-C , 68-C ) :   1.3868 B( 67-C , 72-C ) :   1.0098 B( 68-C , 69-C ) :   1.3638
B( 68-C ,102-H ) :   0.9869 B( 69-C , 70-C ) :   1.3775 B( 69-C ,103-H ) :   0.9864
B( 70-C , 71-C ) :   1.3726 B( 70-C ,104-H ) :   0.9860 B( 71-C ,105-H ) :   0.9844
B( 72-C , 73-C ) :   1.6595 B( 73-C , 74-C ) :   1.1371 B( 73-C , 76-C ) :   1.1612
B( 74-C , 75-N ) :   3.0000 B( 76-C , 77-N ) :   3.0035

-----------------------------------------------------------------------------
         ABSORPTION SPECTRUM VIA TRANSITION ELECTRIC DIPOLE MOMENTS
-----------------------------------------------------------------------------
State   Energy  Wavelength   fosc         T2         TX        TY        TZ
        (cm-1)    (nm)                  (au**2)     (au)      (au)      (au)
-----------------------------------------------------------------------------
   0   13215.2    756.7   0.157194231   3.91597   0.50109   0.55897  -1.83097
   1   16489.2    606.5   0.024335868   0.48587  -0.13220   0.28215   0.62353
   2   17361.6    576.0   0.679881599  12.89198  -0.22136  -0.71023  -3.51263
   3   20630.7    484.7   0.051127877   0.81587  -0.74044  -0.08267   0.51066
   4   22417.2    446.1   1.107680439  16.26704   0.01742  -0.51648   4.00000
   5   22560.1    443.3   0.010511088   0.15338   0.08198   0.16512   0.34554
   6   23097.1    433.0   0.256951175   3.66242  -0.81967   0.75803  -1.55434
   7   24623.9    406.1   0.005434169   0.07265  -0.05348  -0.25271  -0.07700
   8   25509.4    392.0   0.108900868   1.40542   0.73889   0.79732   0.47303
   9   26018.0    384.3   0.037136401   0.46990   0.03049   0.56893  -0.38117
  10   26954.0    371.0   0.147961693   1.80718   1.05410   0.20170   0.80954
  11   27034.0    369.9   0.135085463   1.64503   1.11615   0.57026  -0.27212
  12   27070.7    369.4   0.093446303   1.13642   0.82768   0.10773  -0.66314
  13   27465.2    364.1   0.143527662   1.72040   0.21957  -0.55856  -1.16627
  14   27727.3    360.7   0.001773202   0.02105  -0.02933  -0.06644   0.12562
  15   27836.7    359.2   0.148565563   1.75701   0.49860   0.31257  -1.18773
  16   28598.3    349.7   0.011631682   0.13390   0.30501   0.14327   0.14264
  17   28713.9    348.3   0.015592522   0.17877  -0.32847  -0.15058  -0.21956
  18   29510.1    338.9   0.002607770   0.02909  -0.13507  -0.09781   0.03577
  19   29949.6    333.9   0.018794571   0.20659   0.19146  -0.05664  -0.40832
  20   30166.3    331.5   0.143889444   1.57030   0.12927  -0.47349  -1.15300
  21   30284.9    330.2   0.024715178   0.26867   0.11795  -0.28890  -0.41387
  22   30308.7    329.9   0.389031189   4.22564  -0.46652   0.62064   1.90337
  23   30711.3    325.6   0.077843862   0.83445  -0.69878  -0.39730  -0.43394
  24   30861.2    324.0   0.097550150   1.04062  -0.47812  -0.26390  -0.86161
  25   31538.1    317.1   0.002598891   0.02713  -0.02253  -0.08274   0.14062
  26   31820.1    314.3   0.052236696   0.54044  -0.50016  -0.35523  -0.40509
  27   31847.0    314.0   0.064038930   0.66199  -0.66489  -0.16305   0.43968
  28   33051.1    302.6   0.104507306   1.04096  -0.94118  -0.21481   0.33016
  29   33186.0    301.3   0.447977394   4.44403   1.45833   1.41318   0.56589
  30   33263.3    300.6   0.461320548   4.56576  -1.97936  -0.64369   0.48328
  31   33723.0    296.5   0.008468147   0.08267   0.16996   0.17267   0.15481
  32   33829.2    295.6   0.121903040   1.18631  -0.86639   0.20840   0.62630
  33   33888.6    295.1   0.001079898   0.01049  -0.06168  -0.06506  -0.04953
  34   34597.3    289.0   0.225964650   2.15017   0.44657  -0.33873  -1.35499
  35   34708.0    288.1   0.015726575   0.14917  -0.08196  -0.37722  -0.01260
  36   34950.6    286.1   0.000158758   0.00150   0.01879  -0.00889  -0.03261
  37   35077.1    285.1   0.499621909   4.68914   0.05472  -1.01916  -1.90983
  38   35191.9    284.2   0.008710824   0.08149  -0.14740  -0.16648   0.17901
  39   35216.5    284.0   0.046856095   0.43802   0.26899   0.08998  -0.59797
  40   35293.6    283.3   0.002411748   0.02250   0.10392   0.06122  -0.08916
  41   35849.3    278.9   0.016826937   0.15453   0.08905   0.10118  -0.36927
  42   36297.1    275.5   0.002003635   0.01817   0.05269   0.12377   0.00880
  43   36527.5    273.8   0.001164050   0.01049   0.03993   0.05201  -0.07869
  44   36565.8    273.5   0.024341094   0.21915  -0.05145  -0.36198  -0.29235
  45   36650.9    272.8   0.069471562   0.62402  -0.46732  -0.60798   0.18971
  46   36743.9    272.2   0.012862708   0.11525  -0.19433  -0.13072   0.24575
  47   36842.0    271.4   0.034303146   0.30653   0.09392   0.08404  -0.53911
  48   36988.9    270.4   0.026039251   0.23176  -0.13993  -0.02465   0.45996
  49   37073.7    269.7   0.357813719   3.17736   0.24460  -0.17758  -1.75670
  50   37220.0    268.7   0.039542197   0.34975  -0.09193  -0.05706   0.58142
  51   37370.4    267.6   0.002340028   0.02061   0.04131   0.11384  -0.07713
  52   37603.4    265.9   0.036275249   0.31758   0.20068   0.50751  -0.14054
  53   38193.3    261.8   0.001659326   0.01430   0.02049   0.09348   0.07172
  54   38660.6    258.7   0.000024185   0.00021  -0.00141   0.01134  -0.00868
  55   38885.2    257.2   0.004012984   0.03397   0.16660  -0.06321  -0.04715
  56   39125.7    255.6   0.000207466   0.00175  -0.02990   0.02177   0.01943
  57   39313.0    254.4   0.007968202   0.06673   0.12154   0.20501  -0.09964
  58   39634.9    252.3   0.151964516   1.26224  -0.05555  -0.27310  -1.08838
  59   39837.2    251.0   0.001840951   0.01521  -0.04578  -0.11448  -0.00361
  60   39975.9    250.2   0.105634409   0.86993   0.09663  -0.37710  -0.84758

FINAL SINGLE POINT ENERGY     -4739.638994569882

DIPOLE MOMENT
-------------
                                X             Y             Z
Electronic contribution:     20.29415       7.27924       0.33783
Nuclear contribution   :    -21.76787      -6.58042       1.52043
                        -----------------------------------------
Total Dipole Moment    :     -1.47372       0.69882       1.85826
                        -----------------------------------------
Magnitude (a.u.)       :      2.47251
Magnitude (Debye)      :      6.28462

Rotational constants in cm-1:     0.002329     0.000186     0.000178
Rotational constants in MHz :    69.823767     5.579571     5.338448

                             ****ORCA TERMINATED NORMALLY****
TOTAL RUN TIME: 0 days 0 hours 12 minutes 15 seconds 825 msec
