                         Program Version 4.2.0 -  RELEASE  -
|  1> # ORCA input file
|  2> # SCF done       -211.020377212307          0.000765856395
|  3> ! CAM-B3LYP def2-SVP def2/J RIJCOSX Grid4 TightSCF
|  4> %maxcore 5000
|  5> %tddft
|  6>     Mode sTDDFT
|  7>     Ethresh 5.0
|  8>     maxcore 5000
|  9> end
| 10>
| 11> %pal
| 12>   nprocs 6
| 13>   end
| 14> * xyz 0 1
| 15>    C       -9.56321        -0.42774        -5.05035
| 16>    C       -9.36829         0.94191        -4.95395
| 17>    C       -8.45588         1.47498        -4.05383
| 18>    C       -7.70578         0.65198        -3.22783
| 19>    C       -7.89028        -0.71855        -3.31615
| 20>    C       -8.82545        -1.26349        -4.22611
| 21>    C       -8.82585        -2.71355        -4.09254
| 22>    C       -9.48407        -3.59540        -4.90311
| 23>    C      -10.28111        -3.21161        -6.00475
| 24>    N      -10.93894        -2.96953        -6.91272
| 25>    C       -9.43136        -5.00290        -4.79991
| 26>    N       -9.42851        -6.15065        -4.78495
| 27>    C       -7.98156        -3.02854        -2.93866
| 28>    C       -7.24193        -1.81176        -2.61056
| 29>    C       -6.03718        -1.73991        -1.96545
| 30>    C       -5.29428        -2.84927        -1.51338
| 31>    N       -4.60495        -3.69663        -1.16025
| 32>    C       -5.34161        -0.53346        -1.73410
| 33>    N       -4.73946         0.41350        -1.49592
| 34>    C       -8.00398        -4.21832        -2.27720
| 35>    C       -7.48422        -4.54980        -0.99430
| 36>    S       -6.83396        -6.15151        -0.80959
| 37>    C       -6.41030        -5.84032         0.83789
| 38>    C       -6.82531        -4.57074         1.23720
| 39>    C       -7.43886        -3.84365         0.20308
| 40>    C       -8.09965        -2.51776         0.42657
| 41>    C       -7.25418        -1.63561         1.32195
| 42>    S       -7.33622        -2.44885         2.94764
| 43>    O       -6.52238        -1.75125         3.89770
| 44>    O       -8.72168        -2.65333         3.26398
| 45>    C       -6.55917        -4.06426         2.61290
| 46>    C       -5.72053        -6.79413         1.63069
| 47>    C       -5.27917        -7.98473         1.16002
| 48>    C       -4.59456        -8.97960         1.90764
| 49>    S       -3.96011       -10.35926         1.06988
| 50>    C       -3.34530       -11.07284         2.53029
| 51>    C       -3.60211       -10.24735         3.61226
| 52>    C       -4.31781        -9.07187         3.27098
| 53>    C       -4.75274        -8.12139         4.21288
| 54>    N       -5.13718        -7.35251         4.97217
| 55>    C       -3.10584       -10.50840         4.99894
| 56>    F       -1.86610       -11.03596         5.00820
| 57>    F       -3.03974        -9.40903         5.75036
| 58>    F       -3.88073       -11.38438         5.67617
| 59>    C       -2.69549       -12.33982         2.43169
| 60>    C       -2.61512       -13.27450         3.40433
| 61>    C       -1.93391       -14.51203         3.25546
| 62>    S       -1.00631       -14.86065         1.83448
| 63>    C       -0.55034       -16.41694         2.45559
| 64>    C       -1.13511       -16.65891         3.69953
| 65>    C       -1.89822       -15.57061         4.16011
| 66>    C       -2.65812       -15.51106         5.45309
| 67>    C       -2.21651       -16.55965         6.45067
| 68>    S       -2.38138       -18.15219         5.59284
| 69>    O       -2.05066       -19.22923         6.47987
| 70>    O       -3.64859       -18.17959         4.92372
| 71>    C       -1.03623       -17.97639         4.37913
| 72>    C        0.31358       -17.20628         1.65468
| 73>    C        1.10306       -18.23351         2.05994
| 74>    C        1.98774       -18.94058         1.20043
| 75>    C        1.84237       -19.18724        -0.13405
| 76>    C        2.93948       -19.52625        -1.03933
| 77>    C        4.18370       -19.98310        -0.70228
| 78>    C        4.62912       -20.26264         0.60791
| 79>    N        5.06077       -20.51133         1.64219
| 80>    C        5.19729       -20.28038        -1.63974
| 81>    N        6.06349       -20.54432        -2.34436
| 82>    C        2.45806       -19.27563        -2.39126
| 83>    C        1.07907       -18.96872        -2.33741
| 84>    C        0.37623       -18.66627        -3.49243
| 85>    C        1.05523       -18.67530        -4.70127
| 86>    C        2.40693       -18.98563        -4.75793
| 87>    C        3.12149       -19.28809        -3.60853
| 88>    C        0.64023       -19.06321        -0.95454
| 89>    C       -0.64948       -19.26828        -0.54201
| 90>    C       -1.76643       -19.22351        -1.40243
| 91>    N       -2.70774       -19.17727        -2.05694
| 92>    C       -1.00120       -19.61762         0.77596
| 93>    N       -1.32536       -19.94302         1.82824
| 94>    H      -10.28081        -0.82237        -5.75033
| 95>    H       -9.94004         1.60167        -5.58808
| 96>    H       -8.32769         2.54455        -3.99230
| 97>    H       -7.00635         1.07789        -2.52705
| 98>    H       -8.48183        -5.05017        -2.77948
| 99>    H       -9.04169        -2.69414         0.95973
|100>    H       -8.34186        -2.02885        -0.51681
|101>    H       -7.66400        -0.63541         1.43075
|102>    H       -6.20723        -1.58445         1.03605
|103>    H       -6.94184        -4.73949         3.37742
|104>    H       -5.49332        -3.91005         2.77843
|105>    H       -5.54399        -6.51853         2.65841
|106>    H       -5.43445        -8.22212         0.11463
|107>    H       -2.28522       -12.56778         1.45560
|108>    H       -3.10731       -13.12127         4.35096
|109>    H       -3.71559       -15.68816         5.23075
|110>    H       -2.56570       -14.51398         5.89151
|111>    H       -2.85065       -16.57242         7.33227
|112>    H       -1.17529       -16.46426         6.74515
|113>    H       -1.13134       -18.79397         3.66049
|114>    H       -0.12239       -18.10061         4.95792
|115>    H        0.38818       -16.88135         0.62267
|116>    H        1.18279       -18.46860         3.10984
|117>    H        2.90885       -19.26289         1.66796
|118>    H       -0.67179       -18.41645        -3.45902
|119>    H        0.52307       -18.43605        -5.60906
|120>    H        2.91437       -18.98894        -5.71032
|121>    H        4.17160       -19.52048        -3.67215
|122> *
|123>
|124>                          ****END OF INPUT****

CARTESIAN COORDINATES (ANGSTROEM)
---------------------------------
  C     -9.563210   -0.427740   -5.050350
  C     -9.368290    0.941910   -4.953950
  C     -8.455880    1.474980   -4.053830
  C     -7.705780    0.651980   -3.227830
  C     -7.890280   -0.718550   -3.316150
  C     -8.825450   -1.263490   -4.226110
  C     -8.825850   -2.713550   -4.092540
  C     -9.484070   -3.595400   -4.903110
  C    -10.281110   -3.211610   -6.004750
  N    -10.938940   -2.969530   -6.912720
  C     -9.431360   -5.002900   -4.799910
  N     -9.428510   -6.150650   -4.784950
  C     -7.981560   -3.028540   -2.938660
  C     -7.241930   -1.811760   -2.610560
  C     -6.037180   -1.739910   -1.965450
  C     -5.294280   -2.849270   -1.513380
  N     -4.604950   -3.696630   -1.160250
  C     -5.341610   -0.533460   -1.734100
  N     -4.739460    0.413500   -1.495920
  C     -8.003980   -4.218320   -2.277200
  C     -7.484220   -4.549800   -0.994300
  S     -6.833960   -6.151510   -0.809590
  C     -6.410300   -5.840320    0.837890
  C     -6.825310   -4.570740    1.237200
  C     -7.438860   -3.843650    0.203080
  C     -8.099650   -2.517760    0.426570
  C     -7.254180   -1.635610    1.321950
  S     -7.336220   -2.448850    2.947640
  O     -6.522380   -1.751250    3.897700
  O     -8.721680   -2.653330    3.263980
  C     -6.559170   -4.064260    2.612900
  C     -5.720530   -6.794130    1.630690
  C     -5.279170   -7.984730    1.160020
  C     -4.594560   -8.979600    1.907640
  S     -3.960110  -10.359260    1.069880
  C     -3.345300  -11.072840    2.530290
  C     -3.602110  -10.247350    3.612260
  C     -4.317810   -9.071870    3.270980
  C     -4.752740   -8.121390    4.212880
  N     -5.137180   -7.352510    4.972170
  C     -3.105840  -10.508400    4.998940
  F     -1.866100  -11.035960    5.008200
  F     -3.039740   -9.409030    5.750360
  F     -3.880730  -11.384380    5.676170
  C     -2.695490  -12.339820    2.431690
  C     -2.615120  -13.274500    3.404330
  C     -1.933910  -14.512030    3.255460
  S     -1.006310  -14.860650    1.834480
  C     -0.550340  -16.416940    2.455590
  C     -1.135110  -16.658910    3.699530
  C     -1.898220  -15.570610    4.160110
  C     -2.658120  -15.511060    5.453090
  C     -2.216510  -16.559650    6.450670
  S     -2.381380  -18.152190    5.592840
  O     -2.050660  -19.229230    6.479870
  O     -3.648590  -18.179590    4.923720
  C     -1.036230  -17.976390    4.379130
  C      0.313580  -17.206280    1.654680
  C      1.103060  -18.233510    2.059940
  C      1.987740  -18.940580    1.200430
  C      1.842370  -19.187240   -0.134050
  C      2.939480  -19.526250   -1.039330
  C      4.183700  -19.983100   -0.702280
  C      4.629120  -20.262640    0.607910
  N      5.060770  -20.511330    1.642190
  C      5.197290  -20.280380   -1.639740
  N      6.063490  -20.544320   -2.344360
  C      2.458060  -19.275630   -2.391260
  C      1.079070  -18.968720   -2.337410
  C      0.376230  -18.666270   -3.492430
  C      1.055230  -18.675300   -4.701270
  C      2.406930  -18.985630   -4.757930
  C      3.121490  -19.288090   -3.608530
  C      0.640230  -19.063210   -0.954540
  C     -0.649480  -19.268280   -0.542010
  C     -1.766430  -19.223510   -1.402430
  N     -2.707740  -19.177270   -2.056940
  C     -1.001200  -19.617620    0.775960
  N     -1.325360  -19.943020    1.828240
  H    -10.280810   -0.822370   -5.750330
  H     -9.940040    1.601670   -5.588080
  H     -8.327690    2.544550   -3.992300
  H     -7.006350    1.077890   -2.527050
  H     -8.481830   -5.050170   -2.779480
  H     -9.041690   -2.694140    0.959730
  H     -8.341860   -2.028850   -0.516810
  H     -7.664000   -0.635410    1.430750
  H     -6.207230   -1.584450    1.036050
  H     -6.941840   -4.739490    3.377420
  H     -5.493320   -3.910050    2.778430
  H     -5.543990   -6.518530    2.658410
  H     -5.434450   -8.222120    0.114630
  H     -2.285220  -12.567780    1.455600
  H     -3.107310  -13.121270    4.350960
  H     -3.715590  -15.688160    5.230750
  H     -2.565700  -14.513980    5.891510
  H     -2.850650  -16.572420    7.332270
  H     -1.175290  -16.464260    6.745150
  H     -1.131340  -18.793970    3.660490
  H     -0.122390  -18.100610    4.957920
  H      0.388180  -16.881350    0.622670
  H      1.182790  -18.468600    3.109840
  H      2.908850  -19.262890    1.667960
  H     -0.671790  -18.416450   -3.459020
  H      0.523070  -18.436050   -5.609060
  H      2.914370  -18.988940   -5.710320
  H      4.171600  -19.520480   -3.672150

 Total Charge           Charge          ....    0
 Multiplicity           Mult            ....    1
 Number of Electrons    NEL             ....  578
 Basis Dimension        Dim             .... 1266

ORBITAL ENERGIES
----------------

  NO   OCC          E(Eh)            E(eV)
   0   2.0000     -89.145373     -2425.7689
   1   2.0000     -89.137962     -2425.5673
   2   2.0000     -89.001771     -2421.8613
   3   2.0000     -88.987560     -2421.4746
   4   2.0000     -88.985163     -2421.4094
   5   2.0000     -24.820546      -675.4014
   6   2.0000     -24.818744      -675.3524
   7   2.0000     -24.816702      -675.2968
   8   2.0000     -19.200012      -522.4589
   9   2.0000     -19.196377      -522.3600
  10   2.0000     -19.195182      -522.3274
  11   2.0000     -19.190463      -522.1990
  12   2.0000     -14.439153      -392.9093
  13   2.0000     -14.438566      -392.8934
  14   2.0000     -14.438127      -392.8814
  15   2.0000     -14.435794      -392.8179
  16   2.0000     -14.434205      -392.7747
  17   2.0000     -14.431897      -392.7119
  18   2.0000     -14.430847      -392.6833
  19   2.0000     -14.429126      -392.6365
  20   2.0000     -14.428754      -392.6264
  21   2.0000     -10.543035      -286.8906
  22   2.0000     -10.370608      -282.1986
  23   2.0000     -10.367635      -282.1177
  24   2.0000     -10.366622      -282.0901
  25   2.0000     -10.364724      -282.0385
  26   2.0000     -10.362098      -281.9670
  27   2.0000     -10.361421      -281.9486
  28   2.0000     -10.360486      -281.9232
  29   2.0000     -10.358849      -281.8786
  30   2.0000     -10.355788      -281.7953
  31   2.0000     -10.354193      -281.7519
  32   2.0000     -10.347568      -281.5716
  33   2.0000     -10.347247      -281.5629
  34   2.0000     -10.340743      -281.3859
  35   2.0000     -10.340334      -281.3748
  36   2.0000     -10.339636      -281.3558
  37   2.0000     -10.339253      -281.3454
  38   2.0000     -10.338771      -281.3323
  39   2.0000     -10.338672      -281.3296
  40   2.0000     -10.338380      -281.3216
  41   2.0000     -10.336192      -281.2621
  42   2.0000     -10.335584      -281.2455
  43   2.0000     -10.334911      -281.2272
  44   2.0000     -10.334293      -281.2104
  45   2.0000     -10.333521      -281.1894
  46   2.0000     -10.333002      -281.1753
  47   2.0000     -10.332623      -281.1650
  48   2.0000     -10.331282      -281.1285
  49   2.0000     -10.331160      -281.1251
  50   2.0000     -10.330394      -281.1043
  51   2.0000     -10.329875      -281.0902
  52   2.0000     -10.329711      -281.0857
  53   2.0000     -10.329385      -281.0769
  54   2.0000     -10.324544      -280.9451
  55   2.0000     -10.324191      -280.9355
  56   2.0000     -10.323878      -280.9270
  57   2.0000     -10.323103      -280.9059
  58   2.0000     -10.321830      -280.8713
  59   2.0000     -10.321678      -280.8671
  60   2.0000     -10.321092      -280.8512
  61   2.0000     -10.320693      -280.8403
  62   2.0000     -10.319635      -280.8116
  63   2.0000     -10.319016      -280.7947
  64   2.0000     -10.318182      -280.7720
  65   2.0000     -10.317041      -280.7410
  66   2.0000     -10.315950      -280.7113
  67   2.0000     -10.315306      -280.6937
  68   2.0000     -10.314917      -280.6831
  69   2.0000     -10.314329      -280.6671
  70   2.0000     -10.313532      -280.6455
  71   2.0000     -10.313069      -280.6329
  72   2.0000     -10.312593      -280.6199
  73   2.0000     -10.311933      -280.6020
  74   2.0000     -10.311037      -280.5776
  75   2.0000     -10.310615      -280.5661
  76   2.0000     -10.310208      -280.5550
  77   2.0000     -10.309518      -280.5363
  78   2.0000     -10.306196      -280.4459
  79   2.0000      -8.211580      -223.4485
  80   2.0000      -8.204329      -223.2511
  81   2.0000      -8.097757      -220.3512
  82   2.0000      -8.083100      -219.9523
  83   2.0000      -8.081039      -219.8962
  84   2.0000      -6.180349      -168.1758
  85   2.0000      -6.180223      -168.1724
  86   2.0000      -6.179751      -168.1596
  87   2.0000      -6.173201      -167.9813
  88   2.0000      -6.172822      -167.9710
  89   2.0000      -6.172495      -167.9621
  90   2.0000      -6.066886      -165.0884
  91   2.0000      -6.062755      -164.9759
  92   2.0000      -6.060010      -164.9013
  93   2.0000      -6.052284      -164.6910
  94   2.0000      -6.050091      -164.6313
  95   2.0000      -6.048288      -164.5823
  96   2.0000      -6.046238      -164.5265
  97   2.0000      -6.045203      -164.4983
  98   2.0000      -6.043265      -164.4456
  99   2.0000      -1.409892       -38.3651
 100   2.0000      -1.312980       -35.7280
 101   2.0000      -1.307786       -35.5867
 102   2.0000      -1.207271       -32.8515
 103   2.0000      -1.201005       -32.6810
 104   2.0000      -1.086281       -29.5592
 105   2.0000      -1.080762       -29.4090
 106   2.0000      -1.054438       -28.6927
 107   2.0000      -1.047764       -28.5111
 108   2.0000      -1.042245       -28.3609
 109   2.0000      -1.035677       -28.1822
 110   2.0000      -1.029554       -28.0156
 111   2.0000      -1.027933       -27.9715
 112   2.0000      -1.024400       -27.8753
 113   2.0000      -1.024127       -27.8679
 114   2.0000      -1.018901       -27.7257
 115   2.0000      -1.015730       -27.6394
 116   2.0000      -1.014091       -27.5948
 117   2.0000      -1.011478       -27.5237
 118   2.0000      -1.009692       -27.4751
 119   2.0000      -1.008554       -27.4441
 120   2.0000      -0.976065       -26.5601
 121   2.0000      -0.972686       -26.4681
 122   2.0000      -0.958528       -26.0829
 123   2.0000      -0.955456       -25.9993
 124   2.0000      -0.951954       -25.9040
 125   2.0000      -0.947875       -25.7930
 126   2.0000      -0.944110       -25.6905
 127   2.0000      -0.940208       -25.5844
 128   2.0000      -0.928836       -25.2749
 129   2.0000      -0.918653       -24.9978
 130   2.0000      -0.911599       -24.8059
 131   2.0000      -0.908778       -24.7291
 132   2.0000      -0.904953       -24.6250
 133   2.0000      -0.893267       -24.3070
 134   2.0000      -0.889537       -24.2055
 135   2.0000      -0.882304       -24.0087
 136   2.0000      -0.877635       -23.8817
 137   2.0000      -0.876493       -23.8506
 138   2.0000      -0.868584       -23.6354
 139   2.0000      -0.850614       -23.1464
 140   2.0000      -0.848294       -23.0833
 141   2.0000      -0.836725       -22.7684
 142   2.0000      -0.824595       -22.4384
 143   2.0000      -0.812797       -22.1173
 144   2.0000      -0.809248       -22.0208
 145   2.0000      -0.803239       -21.8573
 146   2.0000      -0.801132       -21.7999
 147   2.0000      -0.781738       -21.2722
 148   2.0000      -0.764103       -20.7923
 149   2.0000      -0.759816       -20.6756
 150   2.0000      -0.757400       -20.6099
 151   2.0000      -0.751784       -20.4571
 152   2.0000      -0.735049       -20.0017
 153   2.0000      -0.733510       -19.9598
 154   2.0000      -0.730201       -19.8698
 155   2.0000      -0.727069       -19.7846
 156   2.0000      -0.725592       -19.7444
 157   2.0000      -0.725093       -19.7308
 158   2.0000      -0.721435       -19.6312
 159   2.0000      -0.698091       -18.9960
 160   2.0000      -0.695976       -18.9385
 161   2.0000      -0.694440       -18.8967
 162   2.0000      -0.692466       -18.8430
 163   2.0000      -0.691532       -18.8175
 164   2.0000      -0.682971       -18.5846
 165   2.0000      -0.679934       -18.5019
 166   2.0000      -0.678016       -18.4498
 167   2.0000      -0.677206       -18.4277
 168   2.0000      -0.669575       -18.2201
 169   2.0000      -0.665341       -18.1048
 170   2.0000      -0.663006       -18.0413
 171   2.0000      -0.655026       -17.8242
 172   2.0000      -0.646987       -17.6054
 173   2.0000      -0.638990       -17.3878
 174   2.0000      -0.634012       -17.2524
 175   2.0000      -0.626156       -17.0386
 176   2.0000      -0.618631       -16.8338
 177   2.0000      -0.614796       -16.7295
 178   2.0000      -0.604046       -16.4369
 179   2.0000      -0.602995       -16.4083
 180   2.0000      -0.600753       -16.3473
 181   2.0000      -0.597719       -16.2648
 182   2.0000      -0.595181       -16.1957
 183   2.0000      -0.594353       -16.1732
 184   2.0000      -0.591875       -16.1058
 185   2.0000      -0.585450       -15.9309
 186   2.0000      -0.579621       -15.7723
 187   2.0000      -0.575131       -15.6501
 188   2.0000      -0.572818       -15.5872
 189   2.0000      -0.570420       -15.5219
 190   2.0000      -0.569443       -15.4953
 191   2.0000      -0.564983       -15.3740
 192   2.0000      -0.563430       -15.3317
 193   2.0000      -0.560500       -15.2520
 194   2.0000      -0.558969       -15.2103
 195   2.0000      -0.558584       -15.1998
 196   2.0000      -0.554926       -15.1003
 197   2.0000      -0.554069       -15.0770
 198   2.0000      -0.551663       -15.0115
 199   2.0000      -0.549408       -14.9502
 200   2.0000      -0.547090       -14.8871
 201   2.0000      -0.543901       -14.8003
 202   2.0000      -0.540320       -14.7028
 203   2.0000      -0.538039       -14.6408
 204   2.0000      -0.536718       -14.6048
 205   2.0000      -0.533936       -14.5291
 206   2.0000      -0.533028       -14.5044
 207   2.0000      -0.527777       -14.3615
 208   2.0000      -0.527282       -14.3481
 209   2.0000      -0.526334       -14.3223
 210   2.0000      -0.524500       -14.2724
 211   2.0000      -0.521998       -14.2043
 212   2.0000      -0.519880       -14.1466
 213   2.0000      -0.516854       -14.0643
 214   2.0000      -0.516668       -14.0593
 215   2.0000      -0.513338       -13.9686
 216   2.0000      -0.510908       -13.9025
 217   2.0000      -0.505838       -13.7646
 218   2.0000      -0.503847       -13.7104
 219   2.0000      -0.501107       -13.6358
 220   2.0000      -0.500867       -13.6293
 221   2.0000      -0.499302       -13.5867
 222   2.0000      -0.498219       -13.5572
 223   2.0000      -0.496928       -13.5221
 224   2.0000      -0.493474       -13.4281
 225   2.0000      -0.489742       -13.3266
 226   2.0000      -0.484517       -13.1844
 227   2.0000      -0.482126       -13.1193
 228   2.0000      -0.479278       -13.0418
 229   2.0000      -0.479110       -13.0372
 230   2.0000      -0.475778       -12.9466
 231   2.0000      -0.474444       -12.9103
 232   2.0000      -0.472855       -12.8670
 233   2.0000      -0.472407       -12.8549
 234   2.0000      -0.470622       -12.8063
 235   2.0000      -0.469859       -12.7855
 236   2.0000      -0.467585       -12.7236
 237   2.0000      -0.467451       -12.7200
 238   2.0000      -0.465650       -12.6710
 239   2.0000      -0.463830       -12.6215
 240   2.0000      -0.463276       -12.6064
 241   2.0000      -0.461998       -12.5716
 242   2.0000      -0.461889       -12.5686
 243   2.0000      -0.459869       -12.5137
 244   2.0000      -0.458589       -12.4788
 245   2.0000      -0.457773       -12.4566
 246   2.0000      -0.456223       -12.4145
 247   2.0000      -0.455365       -12.3911
 248   2.0000      -0.455154       -12.3854
 249   2.0000      -0.450789       -12.2666
 250   2.0000      -0.449383       -12.2283
 251   2.0000      -0.446913       -12.1611
 252   2.0000      -0.446168       -12.1408
 253   2.0000      -0.445414       -12.1203
 254   2.0000      -0.444292       -12.0898
 255   2.0000      -0.443497       -12.0682
 256   2.0000      -0.440333       -11.9821
 257   2.0000      -0.438566       -11.9340
 258   2.0000      -0.436754       -11.8847
 259   2.0000      -0.432356       -11.7650
 260   2.0000      -0.429780       -11.6949
 261   2.0000      -0.427004       -11.6194
 262   2.0000      -0.426328       -11.6010
 263   2.0000      -0.421633       -11.4732
 264   2.0000      -0.421476       -11.4689
 265   2.0000      -0.414301       -11.2737
 266   2.0000      -0.407514       -11.0890
 267   2.0000      -0.401990       -10.9387
 268   2.0000      -0.401496       -10.9253
 269   2.0000      -0.396984       -10.8025
 270   2.0000      -0.396296       -10.7838
 271   2.0000      -0.393876       -10.7179
 272   2.0000      -0.391024       -10.6403
 273   2.0000      -0.381732       -10.3875
 274   2.0000      -0.373880       -10.1738
 275   2.0000      -0.368785       -10.0351
 276   2.0000      -0.363514        -9.8917
 277   2.0000      -0.360633        -9.8133
 278   2.0000      -0.358481        -9.7548
 279   2.0000      -0.355910        -9.6848
 280   2.0000      -0.350842        -9.5469
 281   2.0000      -0.345170        -9.3926
 282   2.0000      -0.343022        -9.3341
 283   2.0000      -0.340250        -9.2587
 284   2.0000      -0.339881        -9.2486
 285   2.0000      -0.326288        -8.8787
 286   2.0000      -0.315916        -8.5965
 287   2.0000      -0.291290        -7.9264
 288   2.0000      -0.268526        -7.3070
 289   0.0000      -0.121922        -3.3177
 290   0.0000      -0.114416        -3.1134
 291   0.0000      -0.104582        -2.8458
 292   0.0000      -0.098838        -2.6895
 293   0.0000      -0.081132        -2.2077

MULLIKEN ATOMIC CHARGES
-----------------------
   0 C :   -0.032352
   1 C :    0.049884
   2 C :    0.047965
   3 C :   -0.032726
   4 C :    0.012999
   5 C :    0.014799
   6 C :    0.292151
   7 C :   -0.335802
   8 C :   -0.187219
   9 N :    0.166789
  10 C :   -0.177995
  11 N :    0.161568
  12 C :   -0.061033
  13 C :    0.208084
  14 C :   -0.349620
  15 C :   -0.189392
  16 N :    0.194563
  17 C :   -0.195909
  18 N :    0.179308
  19 C :    0.048532
  20 C :   -0.205619
  21 S :    0.173543
  22 C :   -0.051828
  23 C :   -0.085604
  24 C :   -0.024485
  25 C :    0.122277
  26 C :   -0.061086
  27 S :    0.667479
  28 O :   -0.439195
  29 O :   -0.453970
  30 C :    0.065158
  31 C :   -0.021043
  32 C :    0.058679
  33 C :   -0.081281
  34 S :    0.185551
  35 C :   -0.133435
  36 C :   -0.025476
  37 C :   -0.057099
  38 C :   -0.224530
  39 N :    0.141687
  40 C :    0.515975
  41 F :   -0.160761
  42 F :   -0.133104
  43 F :   -0.162508
  44 C :    0.032990
  45 C :    0.015310
  46 C :   -0.107989
  47 S :    0.138107
  48 C :   -0.136475
  49 C :   -0.043384
  50 C :   -0.069305
  51 C :    0.092593
  52 C :   -0.042749
  53 S :    0.683099
  54 O :   -0.446343
  55 O :   -0.444675
  56 C :    0.033899
  57 C :    0.072590
  58 C :   -0.039855
  59 C :    0.045333
  60 C :   -0.061706
  61 C :    0.296365
  62 C :   -0.339490
  63 C :   -0.181409
  64 N :    0.161998
  65 C :   -0.188723
  66 N :    0.164783
  67 C :    0.017823
  68 C :    0.000756
  69 C :   -0.030429
  70 C :    0.047489
  71 C :    0.049314
  72 C :   -0.033251
  73 C :    0.214904
  74 C :   -0.337327
  75 C :   -0.180496
  76 N :    0.170523
  77 C :   -0.140394
  78 N :    0.170279
  79 H :    0.010158
  80 H :    0.010391
  81 H :    0.011463
  82 H :    0.008164
  83 H :    0.030096
  84 H :    0.072390
  85 H :    0.019801
  86 H :    0.075850
  87 H :    0.069417
  88 H :    0.092356
  89 H :    0.083348
  90 H :    0.017649
  91 H :   -0.001360
  92 H :    0.005312
  93 H :    0.011333
  94 H :    0.064385
  95 H :    0.044884
  96 H :    0.069626
  97 H :    0.051879
  98 H :    0.088319
  99 H :    0.068893
 100 H :    0.013397
 101 H :    0.013808
 102 H :    0.027500
 103 H :    0.008310
 104 H :    0.007488
 105 H :    0.007681
 106 H :    0.009390
Sum of atomic charges:   -0.0000000

LOEWDIN ATOMIC CHARGES
----------------------
   0 C :    0.007461
   1 C :    0.007713
   2 C :    0.007893
   3 C :    0.002845
   4 C :   -0.014059
   5 C :   -0.011788
   6 C :    0.076637
   7 C :   -0.125232
   8 C :   -0.019345
   9 N :   -0.037485
  10 C :   -0.022354
  11 N :   -0.036919
  12 C :   -0.054403
  13 C :    0.062997
  14 C :   -0.129236
  15 C :   -0.022664
  16 N :   -0.038730
  17 C :   -0.024538
  18 N :   -0.036384
  19 C :    0.039226
  20 C :   -0.182638
  21 S :    0.483493
  22 C :   -0.146458
  23 C :   -0.065377
  24 C :   -0.032878
  25 C :   -0.046766
  26 C :   -0.133947
  27 S :    1.164709
  28 O :   -0.503475
  29 O :   -0.509273
  30 C :   -0.138417
  31 C :   -0.013684
  32 C :   -0.040971
  33 C :   -0.136702
  34 S :    0.491026
  35 C :   -0.141181
  36 C :   -0.102111
  37 C :   -0.091799
  38 C :   -0.035641
  39 N :   -0.044320
  40 C :    0.173622
  41 F :   -0.058573
  42 F :   -0.028612
  43 F :   -0.065764
  44 C :   -0.058166
  45 C :   -0.009493
  46 C :   -0.162133
  47 S :    0.459229
  48 C :   -0.170865
  49 C :   -0.054931
  50 C :   -0.045832
  51 C :   -0.044428
  52 C :   -0.138313
  53 S :    1.164131
  54 O :   -0.509102
  55 O :   -0.503705
  56 C :   -0.146047
  57 C :    0.006694
  58 C :   -0.035478
  59 C :    0.060379
  60 C :   -0.053832
  61 C :    0.076972
  62 C :   -0.127367
  63 C :   -0.022262
  64 N :   -0.038241
  65 C :   -0.019188
  66 N :   -0.040615
  67 C :   -0.012244
  68 C :   -0.012804
  69 C :    0.002930
  70 C :    0.006201
  71 C :    0.005555
  72 C :    0.006320
  73 C :    0.067704
  74 C :   -0.133339
  75 C :   -0.021900
  76 N :   -0.039846
  77 C :    0.002862
  78 N :   -0.035928
  79 H :    0.043059
  80 H :    0.040261
  81 H :    0.040326
  82 H :    0.041688
  83 H :    0.048338
  84 H :    0.049595
  85 H :    0.034208
  86 H :    0.046268
  87 H :    0.033378
  88 H :    0.056777
  89 H :    0.050743
  90 H :    0.041786
  91 H :    0.027399
  92 H :    0.025266
  93 H :    0.031171
  94 H :    0.049595
  95 H :    0.041234
  96 H :    0.045043
  97 H :    0.032486
  98 H :    0.046844
  99 H :    0.039070
 100 H :    0.033976
 101 H :    0.040081
 102 H :    0.050153
 103 H :    0.041603
 104 H :    0.039009
 105 H :    0.039234
 106 H :    0.042598

  Mayer bond orders larger than 0.100000
B(  0-C ,  1-C ) :   1.3731 B(  0-C ,  5-C ) :   1.3789 B(  0-C , 79-H ) :   0.9841
B(  1-C ,  2-C ) :   1.3742 B(  1-C , 80-H ) :   0.9861 B(  2-C ,  3-C ) :   1.3686
B(  2-C , 81-H ) :   0.9861 B(  3-C ,  4-C ) :   1.3767 B(  3-C , 82-H ) :   0.9882
B(  4-C ,  5-C ) :   1.3084 B(  4-C , 13-C ) :   1.0121 B(  5-C ,  6-C ) :   1.0031
B(  6-C ,  7-C ) :   1.6552 B(  6-C , 12-C ) :   1.0364 B(  7-C ,  8-C ) :   1.1435
B(  7-C , 10-C ) :   1.1327 B(  8-C ,  9-N ) :   2.9794 B( 10-C , 11-N ) :   2.9712
B( 12-C , 13-C ) :   1.0083 B( 12-C , 19-C ) :   1.6750 B( 13-C , 14-C ) :   1.6574
B( 14-C , 15-C ) :   1.1677 B( 14-C , 17-C ) :   1.1397 B( 15-C , 16-N ) :   3.0006
B( 17-C , 18-N ) :   2.9882 B( 19-C , 20-C ) :   1.1180 B( 19-C , 83-H ) :   0.9085
B( 20-C , 21-S ) :   1.1331 B( 20-C , 22-C ) :   0.1034 B( 20-C , 24-C ) :   1.4769
B( 21-S , 22-C ) :   1.1358 B( 22-C , 23-C ) :   1.4946 B( 22-C , 31-C ) :   1.1761
B( 23-C , 24-C ) :   1.3167 B( 23-C , 30-C ) :   1.0147 B( 24-C , 25-C ) :   1.0652
B( 25-C , 26-C ) :   1.0080 B( 25-C , 84-H ) :   0.9010 B( 25-C , 85-H ) :   0.9057
B( 26-C , 27-S ) :   0.8709 B( 26-C , 86-H ) :   0.9330 B( 26-C , 87-H ) :   0.9409
B( 27-S , 28-O ) :   1.7623 B( 27-S , 29-O ) :   1.6867 B( 27-S , 30-C ) :   0.8273
B( 30-C , 88-H ) :   0.8905 B( 30-C , 89-H ) :   0.9122 B( 31-C , 32-C ) :   1.6593
B( 31-C , 90-H ) :   0.9515 B( 32-C , 33-C ) :   1.1533 B( 32-C , 91-H ) :   0.9426
B( 33-C , 34-S ) :   1.1313 B( 33-C , 37-C ) :   1.4830 B( 34-S , 35-C ) :   1.1483
B( 35-C , 36-C ) :   1.5165 B( 35-C , 44-C ) :   1.1056 B( 36-C , 37-C ) :   1.3009
B( 36-C , 40-C ) :   0.9363 B( 37-C , 38-C ) :   1.1309 B( 38-C , 39-N ) :   2.9509
B( 40-C , 41-F ) :   1.1629 B( 40-C , 42-F ) :   1.1809 B( 40-C , 43-F ) :   1.1279
B( 44-C , 45-C ) :   1.6814 B( 44-C , 92-H ) :   0.9461 B( 45-C , 46-C ) :   1.1836
B( 45-C , 93-H ) :   0.9492 B( 46-C , 47-S ) :   1.1283 B( 46-C , 50-C ) :   1.4805
B( 47-S , 48-C ) :   1.1274 B( 48-C , 49-C ) :   1.4864 B( 48-C , 57-C ) :   1.1717
B( 49-C , 50-C ) :   1.3315 B( 49-C , 56-C ) :   1.0022 B( 50-C , 51-C ) :   1.0550
B( 51-C , 52-C ) :   1.0355 B( 51-C , 94-H ) :   0.9035 B( 51-C , 95-H ) :   0.9075
B( 52-C , 53-S ) :   0.8646 B( 52-C , 96-H ) :   0.9286 B( 52-C , 97-H ) :   0.9407
B( 53-S , 54-O ) :   1.7519 B( 53-S , 55-O ) :   1.7120 B( 53-S , 56-C ) :   0.8398
B( 56-C , 98-H ) :   0.8677 B( 56-C , 99-H ) :   0.9006 B( 57-C , 58-C ) :   1.6462
B( 57-C ,100-H ) :   0.9420 B( 58-C , 59-C ) :   1.1679 B( 58-C ,101-H ) :   0.9557
B( 59-C , 60-C ) :   1.6311 B( 59-C ,102-H ) :   0.9210 B( 60-C , 61-C ) :   1.0450
B( 60-C , 73-C ) :   1.0133 B( 61-C , 62-C ) :   1.6507 B( 61-C , 67-C ) :   0.9989
B( 62-C , 63-C ) :   1.1333 B( 62-C , 65-C ) :   1.1458 B( 63-C , 64-N ) :   2.9747
B( 65-C , 66-N ) :   2.9785 B( 67-C , 68-C ) :   1.3094 B( 67-C , 72-C ) :   1.3802
B( 68-C , 69-C ) :   1.3792 B( 68-C , 73-C ) :   1.0131 B( 69-C , 70-C ) :   1.3688
B( 69-C ,103-H ) :   0.9872 B( 70-C , 71-C ) :   1.3728 B( 70-C ,104-H ) :   0.9870
B( 71-C , 72-C ) :   1.3727 B( 71-C ,105-H ) :   0.9868 B( 72-C ,106-H ) :   0.9833
B( 73-C , 74-C ) :   1.6569 B( 74-C , 75-C ) :   1.1342 B( 74-C , 77-C ) :   1.1689
B( 75-C , 76-N ) :   2.9956 B( 77-C , 78-N ) :   2.9255 B( 78-N , 98-H ) :   0.1093

-----------------------------------------------------------------------------
         ABSORPTION SPECTRUM VIA TRANSITION ELECTRIC DIPOLE MOMENTS
-----------------------------------------------------------------------------
State   Energy  Wavelength   fosc         T2         TX        TY        TZ
        (cm-1)    (nm)                  (au**2)     (au)      (au)      (au)
-----------------------------------------------------------------------------
   0   16815.6    594.7   1.499561016  29.35813   2.47169  -4.79847   0.47286
   1   18798.6    532.0   0.427909930   7.49379   0.33371   0.02606  -2.71694
   2   22116.3    452.2   0.355495892   5.29173   1.70722  -0.75701   1.34316
   3   22640.8    441.7   0.176609794   2.56802  -1.12209   0.71051   0.89672
   4   24730.5    404.4   0.010086266   0.13427  -0.10558   0.06403  -0.34500
   5   25276.3    395.6   0.160053171   2.08461   0.81127  -1.19413   0.02243
   6   26798.0    373.2   0.182780934   2.24546   0.10247  -1.16175   0.94090
   7   27600.4    362.3   0.084562552   1.00865  -0.14829   0.19490  -0.97400
   8   28571.0    350.0   0.200410695   2.30925   0.70599  -1.34219   0.09672
   9   29608.8    337.7   0.078419163   0.87192   0.73761  -0.38499   0.42384
  10   29998.8    333.3   0.161297693   1.77011   1.05359  -0.72389  -0.36883
  11   30149.0    331.7   0.246698975   2.69383   1.36392   0.52742   0.74523
  12   30660.8    326.1   0.017926647   0.19248   0.16087   0.14019  -0.38334
  13   31319.8    319.3   0.064693318   0.68001   0.24597  -0.76132   0.19975
  14   31623.4    316.2   0.147401041   1.53450   0.77534   0.66118   0.70440
  15   32031.9    312.2   0.051050089   0.52467  -0.70957   0.14501  -0.01252
  16   32552.6    307.2   0.020883894   0.21120  -0.22587   0.39899  -0.03155
  17   33146.0    301.7   0.446074266   4.43049   1.98475  -0.38101  -0.58831
  18   33268.1    300.6   0.168689802   1.66931   0.99550   0.61224   0.55085
  19   33587.7    297.7   0.389388318   3.81661  -1.62268  -0.23192  -1.06289
  20   33921.9    294.8   0.050982267   0.49478  -0.59703   0.23618  -0.28732
  21   34593.4    289.1   0.101733496   0.96816  -0.35961  -0.59824  -0.69350
  22   34713.7    288.1   0.205659198   1.95040   0.25714  -1.12223   0.79049
  23   34742.6    287.8   0.130971204   1.24105  -0.01625   0.35296  -1.05650
  24   34837.9    287.0   0.120199966   1.13587  -0.28618   0.96120   0.36064
  25   34956.6    286.1   0.047154063   0.44408   0.11034  -0.00127   0.65720
  26   36344.3    275.1   0.132516375   1.20035  -0.54137   0.40841   0.86051
  27   36655.3    272.8   0.011027016   0.09904   0.05729   0.18237   0.24999
  28   36806.0    271.7   0.024769826   0.22155   0.12375  -0.43603   0.12694
  29   37263.3    268.4   0.236354121   2.08813   0.22656  -1.02515   0.99291
  30   37769.0    264.8   0.016553632   0.14429   0.00419   0.18204  -0.33336
  31   37886.4    263.9   0.001693980   0.01472  -0.08531   0.00745  -0.08594
  32   38835.1    257.5   0.016944910   0.14365   0.14178  -0.25806  -0.23864
  33   38956.9    256.7   0.095708282   0.80880  -0.13734  -0.09154   0.88406
  34   39005.0    256.4   0.077836293   0.65696  -0.10294   0.12599  -0.79403
  35   39373.6    254.0   0.060097154   0.50249   0.11825   0.02915  -0.69832
  36   40123.4    249.2   0.167415156   1.37364  -0.18743   0.82732  -0.80874
  37   40219.1    248.6   0.050647288   0.41457  -0.03727  -0.64278  -0.00332
  38   40311.2    248.1   0.064029857   0.52292  -0.29333   0.42543  -0.50585

FINAL SINGLE POINT ENERGY     -5306.071319740843

DIPOLE MOMENT
-------------
                                X             Y             Z
Electronic contribution:      4.84054      -5.93433       9.16897
Nuclear contribution   :     -4.48121       8.75757     -12.11668
                        -----------------------------------------
Total Dipole Moment    :      0.35933       2.82324      -2.94770
                        -----------------------------------------
Magnitude (a.u.)       :      4.09741
Magnitude (Debye)      :     10.41479

Rotational constants in cm-1:     0.001114     0.000215     0.000192
Rotational constants in MHz :    33.392967     6.443665     5.770374

                             ****ORCA TERMINATED NORMALLY****
TOTAL RUN TIME: 0 days 0 hours 11 minutes 35 seconds 176 msec
