                         Program Version 4.2.0 -  RELEASE  -
|  1> # ORCA input file
|  2> # SCF done       -236.576245099132          0.000708886413
|  3> ! CAM-B3LYP def2-SVP def2/J RIJCOSX Grid4 TightSCF
|  4> %maxcore 5000
|  5> %tddft
|  6>     Mode sTDDFT
|  7>     Ethresh 5.0
|  8>     maxcore 5000
|  9> end
| 10>
| 11> %pal
| 12>   nprocs 6
| 13>   end
| 14> * xyz 0 1
| 15>    C       -6.93925        -3.12690       -12.54894
| 16>    C       -7.76868        -2.16850       -13.11236
| 17>    C       -8.97067        -1.81957       -12.51333
| 18>    C       -9.38385        -2.42711       -11.33704
| 19>    C       -8.56489        -3.38690       -10.76650
| 20>    C       -7.33417        -3.73550       -11.36801
| 21>    C       -6.67181        -4.73678       -10.54337
| 22>    C       -5.51693        -5.40052       -10.85905
| 23>    C       -4.79639        -5.20848       -12.05807
| 24>    N       -4.15955        -5.10664       -13.00730
| 25>    C       -4.89735        -6.39458       -10.07235
| 26>    N       -4.34205        -7.21451        -9.49069
| 27>    C       -7.47293        -4.87742        -9.33119
| 28>    C       -8.73916        -4.19761        -9.57287
| 29>    C       -9.93068        -4.44555        -8.94402
| 30>    C      -10.12845        -5.45517        -7.98183
| 31>    N      -10.35656        -6.29410        -7.23164
| 32>    C      -11.13809        -3.78613        -9.25737
| 33>    N      -12.14355        -3.26748        -9.44825
| 34>    C       -7.02753        -5.46823        -8.18030
| 35>    C       -7.54652        -5.37421        -6.87072
| 36>    S       -7.38176        -6.76091        -5.84295
| 37>    C       -8.34043        -6.07722        -4.57969
| 38>    C       -8.64279        -4.72866        -4.87240
| 39>    C       -8.20119        -4.33742        -6.17886
| 40>    C       -8.34540        -2.99291        -6.57357
| 41>    F       -7.82802        -2.56178        -7.73563
| 42>    C       -8.95152        -2.07848        -5.74525
| 43>    F       -9.09008        -0.80730        -6.12745
| 44>    C       -9.37201        -2.45919        -4.45652
| 45>    F       -9.88878        -1.53394        -3.64494
| 46>    C       -9.18934        -3.75172        -4.01874
| 47>    F       -9.46489        -4.03198        -2.74054
| 48>    C       -8.74512        -6.92713        -3.53093
| 49>    C       -9.88539        -6.79545        -2.79203
| 50>    C      -10.24083        -7.67764        -1.75549
| 51>    S       -9.06059        -8.80602        -1.17856
| 52>    C      -10.09626        -9.43837         0.05491
| 53>    C      -11.31515        -8.72528         0.07728
| 54>    C      -11.42980        -7.77999        -0.99353
| 55>    C      -12.66576        -7.10595        -1.16804
| 56>    C      -12.99148        -6.26858        -2.37192
| 57>    F      -12.64693        -6.86290        -3.52803
| 58>    F      -14.30450        -6.01836        -2.47187
| 59>    F      -12.39765        -5.05767        -2.37060
| 60>    C      -13.65641        -7.26341        -0.22642
| 61>    C      -13.47856        -8.05380         0.90679
| 62>    C      -12.32614        -8.79166         1.07936
| 63>    O      -12.06791        -9.54718         2.15975
| 64>    C      -13.02934        -9.63440         3.19081
| 65>    C       -9.59548       -10.56924         0.73093
| 66>    C      -10.29430       -11.54285         1.38304
| 67>    C       -9.68464       -12.67904         1.94367
| 68>    S       -7.97511       -12.93198         1.87818
| 69>    C       -8.05569       -14.50477         2.60822
| 70>    C       -9.38381       -14.79864         2.97965
| 71>    C      -10.30493       -13.77046         2.59151
| 72>    C      -11.67183       -13.91765         2.89471
| 73>    F      -12.55822       -12.97211         2.54616
| 74>    C      -12.12605       -15.01977         3.57802
| 75>    F      -13.42277       -15.15347         3.87188
| 76>    C      -11.21637       -16.00461         4.00911
| 77>    F      -11.67013       -17.04190         4.71799
| 78>    C       -9.87603       -15.88833         3.72702
| 79>    F       -9.04926       -16.81780         4.22623
| 80>    C       -6.85046       -15.23661         2.62109
| 81>    C       -6.69922       -16.59147         2.63086
| 82>    C       -5.43064       -17.19471         2.53479
| 83>    C       -5.19931       -18.51642         2.25563
| 84>    C       -3.95381       -19.22418         2.52204
| 85>    C       -2.71973       -18.67251         2.74042
| 86>    C       -2.42603       -17.29335         2.69180
| 87>    N       -2.11644       -16.18811         2.65905
| 88>    C       -1.55235       -19.42190         3.00049
| 89>    N       -0.56670       -19.96833         3.21738
| 90>    C       -4.26886       -20.64665         2.50706
| 91>    C       -5.61203       -20.81312         2.09817
| 92>    C       -6.17341       -22.07659         2.01886
| 93>    C       -5.38805       -23.17211         2.34614
| 94>    C       -4.06692       -23.01142         2.73819
| 95>    C       -3.49363       -21.75110         2.82268
| 96>    C       -6.16559       -19.50191         1.79303
| 97>    C       -7.26764       -19.26435         1.01340
| 98>    C       -8.13912       -20.27751         0.55843
| 99>    N       -8.89325       -21.05042         0.17023
|100>    C       -7.61625       -18.01308         0.46121
|101>    N       -7.93168       -17.03970        -0.06008
|102>    H       -6.00600        -3.37872       -13.02490
|103>    H       -7.46816        -1.68415       -14.02880
|104>    H       -9.59367        -1.06310       -12.96525
|105>    H      -10.31475        -2.14071       -10.87572
|106>    H       -6.15834        -6.10872        -8.26055
|107>    H       -8.13758        -7.81396        -3.39577
|108>    H      -10.55036        -5.98636        -3.02361
|109>    H      -14.59757        -6.75197        -0.35172
|110>    H      -14.26933        -8.08598         1.63647
|111>    H      -13.95991       -10.08063         2.83065
|112>    H      -13.23220        -8.65531         3.63249
|113>    H      -12.58719       -10.28621         3.94169
|114>    H       -8.52720       -10.71893         0.61258
|115>    H      -11.36509       -11.47576         1.44936
|116>    H       -5.96058       -14.63815         2.46213
|117>    H       -7.56056       -17.23408         2.69311
|118>    H       -4.58050       -16.56538         2.75856
|119>    H       -7.20053       -22.21462         1.72282
|120>    H       -5.81424       -24.16226         2.29526
|121>    H       -3.47395       -23.87843         2.98588
|122>    H       -2.46762       -21.64489         3.13425
|123> *
|124>
|125>                          ****END OF INPUT****

CARTESIAN COORDINATES (ANGSTROEM)
---------------------------------
  C     -6.939250   -3.126900  -12.548940
  C     -7.768680   -2.168500  -13.112360
  C     -8.970670   -1.819570  -12.513330
  C     -9.383850   -2.427110  -11.337040
  C     -8.564890   -3.386900  -10.766500
  C     -7.334170   -3.735500  -11.368010
  C     -6.671810   -4.736780  -10.543370
  C     -5.516930   -5.400520  -10.859050
  C     -4.796390   -5.208480  -12.058070
  N     -4.159550   -5.106640  -13.007300
  C     -4.897350   -6.394580  -10.072350
  N     -4.342050   -7.214510   -9.490690
  C     -7.472930   -4.877420   -9.331190
  C     -8.739160   -4.197610   -9.572870
  C     -9.930680   -4.445550   -8.944020
  C    -10.128450   -5.455170   -7.981830
  N    -10.356560   -6.294100   -7.231640
  C    -11.138090   -3.786130   -9.257370
  N    -12.143550   -3.267480   -9.448250
  C     -7.027530   -5.468230   -8.180300
  C     -7.546520   -5.374210   -6.870720
  S     -7.381760   -6.760910   -5.842950
  C     -8.340430   -6.077220   -4.579690
  C     -8.642790   -4.728660   -4.872400
  C     -8.201190   -4.337420   -6.178860
  C     -8.345400   -2.992910   -6.573570
  F     -7.828020   -2.561780   -7.735630
  C     -8.951520   -2.078480   -5.745250
  F     -9.090080   -0.807300   -6.127450
  C     -9.372010   -2.459190   -4.456520
  F     -9.888780   -1.533940   -3.644940
  C     -9.189340   -3.751720   -4.018740
  F     -9.464890   -4.031980   -2.740540
  C     -8.745120   -6.927130   -3.530930
  C     -9.885390   -6.795450   -2.792030
  C    -10.240830   -7.677640   -1.755490
  S     -9.060590   -8.806020   -1.178560
  C    -10.096260   -9.438370    0.054910
  C    -11.315150   -8.725280    0.077280
  C    -11.429800   -7.779990   -0.993530
  C    -12.665760   -7.105950   -1.168040
  C    -12.991480   -6.268580   -2.371920
  F    -12.646930   -6.862900   -3.528030
  F    -14.304500   -6.018360   -2.471870
  F    -12.397650   -5.057670   -2.370600
  C    -13.656410   -7.263410   -0.226420
  C    -13.478560   -8.053800    0.906790
  C    -12.326140   -8.791660    1.079360
  O    -12.067910   -9.547180    2.159750
  C    -13.029340   -9.634400    3.190810
  C     -9.595480  -10.569240    0.730930
  C    -10.294300  -11.542850    1.383040
  C     -9.684640  -12.679040    1.943670
  S     -7.975110  -12.931980    1.878180
  C     -8.055690  -14.504770    2.608220
  C     -9.383810  -14.798640    2.979650
  C    -10.304930  -13.770460    2.591510
  C    -11.671830  -13.917650    2.894710
  F    -12.558220  -12.972110    2.546160
  C    -12.126050  -15.019770    3.578020
  F    -13.422770  -15.153470    3.871880
  C    -11.216370  -16.004610    4.009110
  F    -11.670130  -17.041900    4.717990
  C     -9.876030  -15.888330    3.727020
  F     -9.049260  -16.817800    4.226230
  C     -6.850460  -15.236610    2.621090
  C     -6.699220  -16.591470    2.630860
  C     -5.430640  -17.194710    2.534790
  C     -5.199310  -18.516420    2.255630
  C     -3.953810  -19.224180    2.522040
  C     -2.719730  -18.672510    2.740420
  C     -2.426030  -17.293350    2.691800
  N     -2.116440  -16.188110    2.659050
  C     -1.552350  -19.421900    3.000490
  N     -0.566700  -19.968330    3.217380
  C     -4.268860  -20.646650    2.507060
  C     -5.612030  -20.813120    2.098170
  C     -6.173410  -22.076590    2.018860
  C     -5.388050  -23.172110    2.346140
  C     -4.066920  -23.011420    2.738190
  C     -3.493630  -21.751100    2.822680
  C     -6.165590  -19.501910    1.793030
  C     -7.267640  -19.264350    1.013400
  C     -8.139120  -20.277510    0.558430
  N     -8.893250  -21.050420    0.170230
  C     -7.616250  -18.013080    0.461210
  N     -7.931680  -17.039700   -0.060080
  H     -6.006000   -3.378720  -13.024900
  H     -7.468160   -1.684150  -14.028800
  H     -9.593670   -1.063100  -12.965250
  H    -10.314750   -2.140710  -10.875720
  H     -6.158340   -6.108720   -8.260550
  H     -8.137580   -7.813960   -3.395770
  H    -10.550360   -5.986360   -3.023610
  H    -14.597570   -6.751970   -0.351720
  H    -14.269330   -8.085980    1.636470
  H    -13.959910  -10.080630    2.830650
  H    -13.232200   -8.655310    3.632490
  H    -12.587190  -10.286210    3.941690
  H     -8.527200  -10.718930    0.612580
  H    -11.365090  -11.475760    1.449360
  H     -5.960580  -14.638150    2.462130
  H     -7.560560  -17.234080    2.693110
  H     -4.580500  -16.565380    2.758560
  H     -7.200530  -22.214620    1.722820
  H     -5.814240  -24.162260    2.295260
  H     -3.473950  -23.878430    2.985880
  H     -2.467620  -21.644890    3.134250

 Total Charge           Charge          ....    0
 Multiplicity           Mult            ....    1
 Number of Electrons    NEL             ....  616
 Basis Dimension        Dim             .... 1335

ORBITAL ENERGIES
----------------

  NO   OCC          E(Eh)            E(eV)
   0   2.0000     -88.998792     -2421.7802
   1   2.0000     -88.992814     -2421.6176
   2   2.0000     -88.988836     -2421.5093
   3   2.0000     -24.827187      -675.5821
   4   2.0000     -24.821535      -675.4283
   5   2.0000     -24.818691      -675.3509
   6   2.0000     -24.818327      -675.3410
   7   2.0000     -24.815553      -675.2655
   8   2.0000     -24.815080      -675.2526
   9   2.0000     -24.814873      -675.2470
  10   2.0000     -24.809680      -675.1057
  11   2.0000     -24.804433      -674.9629
  12   2.0000     -24.804165      -674.9557
  13   2.0000     -24.801783      -674.8908
  14   2.0000     -19.282550      -524.7049
  15   2.0000     -14.424967      -392.5233
  16   2.0000     -14.423495      -392.4833
  17   2.0000     -14.423105      -392.4726
  18   2.0000     -14.421295      -392.4234
  19   2.0000     -14.420002      -392.3882
  20   2.0000     -14.415957      -392.2781
  21   2.0000     -14.415403      -392.2631
  22   2.0000     -14.414842      -392.2478
  23   2.0000     -10.523408      -286.3565
  24   2.0000     -10.401371      -283.0357
  25   2.0000     -10.401139      -283.0294
  26   2.0000     -10.400222      -283.0044
  27   2.0000     -10.398716      -282.9634
  28   2.0000     -10.398550      -282.9589
  29   2.0000     -10.395471      -282.8751
  30   2.0000     -10.391665      -282.7716
  31   2.0000     -10.391264      -282.7607
  32   2.0000     -10.372783      -282.2578
  33   2.0000     -10.354772      -281.7677
  34   2.0000     -10.352009      -281.6925
  35   2.0000     -10.349536      -281.6252
  36   2.0000     -10.349415      -281.6219
  37   2.0000     -10.349046      -281.6119
  38   2.0000     -10.348406      -281.5945
  39   2.0000     -10.348348      -281.5929
  40   2.0000     -10.345568      -281.5172
  41   2.0000     -10.343957      -281.4734
  42   2.0000     -10.343605      -281.4638
  43   2.0000     -10.342363      -281.4300
  44   2.0000     -10.342174      -281.4249
  45   2.0000     -10.340175      -281.3705
  46   2.0000     -10.335641      -281.2471
  47   2.0000     -10.333544      -281.1900
  48   2.0000     -10.333393      -281.1859
  49   2.0000     -10.330419      -281.1050
  50   2.0000     -10.329355      -281.0760
  51   2.0000     -10.327352      -281.0215
  52   2.0000     -10.326694      -281.0036
  53   2.0000     -10.325930      -280.9828
  54   2.0000     -10.325725      -280.9773
  55   2.0000     -10.325158      -280.9618
  56   2.0000     -10.324523      -280.9445
  57   2.0000     -10.324354      -280.9400
  58   2.0000     -10.323921      -280.9282
  59   2.0000     -10.322571      -280.8914
  60   2.0000     -10.322508      -280.8897
  61   2.0000     -10.319381      -280.8046
  62   2.0000     -10.318386      -280.7776
  63   2.0000     -10.318373      -280.7772
  64   2.0000     -10.317970      -280.7662
  65   2.0000     -10.315360      -280.6952
  66   2.0000     -10.315269      -280.6927
  67   2.0000     -10.314414      -280.6695
  68   2.0000     -10.314108      -280.6612
  69   2.0000     -10.313586      -280.6470
  70   2.0000     -10.308927      -280.5202
  71   2.0000     -10.308066      -280.4967
  72   2.0000     -10.307801      -280.4895
  73   2.0000     -10.307779      -280.4889
  74   2.0000     -10.307509      -280.4816
  75   2.0000     -10.307158      -280.4720
  76   2.0000     -10.305038      -280.4143
  77   2.0000     -10.302441      -280.3437
  78   2.0000     -10.302306      -280.3400
  79   2.0000     -10.301922      -280.3295
  80   2.0000     -10.301288      -280.3123
  81   2.0000     -10.300496      -280.2907
  82   2.0000     -10.296118      -280.1716
  83   2.0000     -10.295774      -280.1622
  84   2.0000     -10.295160      -280.1455
  85   2.0000     -10.294392      -280.1247
  86   2.0000     -10.293755      -280.1073
  87   2.0000      -8.094190      -220.2541
  88   2.0000      -8.088119      -220.0889
  89   2.0000      -8.084558      -219.9920
  90   2.0000      -6.063088      -164.9850
  91   2.0000      -6.059067      -164.8756
  92   2.0000      -6.057134      -164.8230
  93   2.0000      -6.056925      -164.8173
  94   2.0000      -6.053430      -164.7222
  95   2.0000      -6.052935      -164.7087
  96   2.0000      -6.050795      -164.6505
  97   2.0000      -6.049356      -164.6113
  98   2.0000      -6.047346      -164.5566
  99   2.0000      -1.394289       -37.9405
 100   2.0000      -1.348440       -36.6929
 101   2.0000      -1.342361       -36.5275
 102   2.0000      -1.341611       -36.5071
 103   2.0000      -1.334601       -36.3163
 104   2.0000      -1.331818       -36.2406
 105   2.0000      -1.324566       -36.0433
 106   2.0000      -1.322390       -35.9841
 107   2.0000      -1.315866       -35.8065
 108   2.0000      -1.295792       -35.2603
 109   2.0000      -1.294510       -35.2254
 110   2.0000      -1.189529       -32.3687
 111   2.0000      -1.038727       -28.2652
 112   2.0000      -1.037566       -28.2336
 113   2.0000      -1.036371       -28.2011
 114   2.0000      -1.028165       -27.9778
 115   2.0000      -1.024197       -27.8698
 116   2.0000      -1.020640       -27.7730
 117   2.0000      -1.014094       -27.5949
 118   2.0000      -1.009919       -27.4813
 119   2.0000      -1.003604       -27.3095
 120   2.0000      -1.001803       -27.2604
 121   2.0000      -1.001337       -27.2478
 122   2.0000      -0.995984       -27.1021
 123   2.0000      -0.994346       -27.0575
 124   2.0000      -0.980933       -26.6926
 125   2.0000      -0.973901       -26.5012
 126   2.0000      -0.965157       -26.2633
 127   2.0000      -0.962801       -26.1992
 128   2.0000      -0.955410       -25.9980
 129   2.0000      -0.946227       -25.7482
 130   2.0000      -0.942292       -25.6411
 131   2.0000      -0.936016       -25.4703
 132   2.0000      -0.934711       -25.4348
 133   2.0000      -0.919990       -25.0342
 134   2.0000      -0.909050       -24.7365
 135   2.0000      -0.896542       -24.3961
 136   2.0000      -0.891494       -24.2588
 137   2.0000      -0.890281       -24.2258
 138   2.0000      -0.886514       -24.1233
 139   2.0000      -0.876781       -23.8584
 140   2.0000      -0.874242       -23.7893
 141   2.0000      -0.869267       -23.6540
 142   2.0000      -0.867987       -23.6191
 143   2.0000      -0.867642       -23.6097
 144   2.0000      -0.862606       -23.4727
 145   2.0000      -0.861495       -23.4425
 146   2.0000      -0.847248       -23.0548
 147   2.0000      -0.833532       -22.6815
 148   2.0000      -0.825545       -22.4642
 149   2.0000      -0.810361       -22.0510
 150   2.0000      -0.794647       -21.6234
 151   2.0000      -0.793745       -21.5989
 152   2.0000      -0.787553       -21.4304
 153   2.0000      -0.782026       -21.2800
 154   2.0000      -0.775258       -21.0958
 155   2.0000      -0.768328       -20.9073
 156   2.0000      -0.762860       -20.7585
 157   2.0000      -0.759650       -20.6711
 158   2.0000      -0.748252       -20.3610
 159   2.0000      -0.744165       -20.2498
 160   2.0000      -0.728570       -19.8254
 161   2.0000      -0.724015       -19.7015
 162   2.0000      -0.718869       -19.5614
 163   2.0000      -0.716860       -19.5067
 164   2.0000      -0.711559       -19.3625
 165   2.0000      -0.709069       -19.2948
 166   2.0000      -0.708465       -19.2783
 167   2.0000      -0.700487       -19.0612
 168   2.0000      -0.698444       -19.0056
 169   2.0000      -0.694647       -18.9023
 170   2.0000      -0.687777       -18.7154
 171   2.0000      -0.684268       -18.6199
 172   2.0000      -0.681401       -18.5419
 173   2.0000      -0.678906       -18.4740
 174   2.0000      -0.677516       -18.4361
 175   2.0000      -0.676302       -18.4031
 176   2.0000      -0.669191       -18.2096
 177   2.0000      -0.668579       -18.1929
 178   2.0000      -0.666126       -18.1262
 179   2.0000      -0.662778       -18.0351
 180   2.0000      -0.661888       -18.0109
 181   2.0000      -0.654860       -17.8196
 182   2.0000      -0.651950       -17.7405
 183   2.0000      -0.647613       -17.6224
 184   2.0000      -0.642221       -17.4757
 185   2.0000      -0.640731       -17.4352
 186   2.0000      -0.638340       -17.3701
 187   2.0000      -0.635749       -17.2996
 188   2.0000      -0.633827       -17.2473
 189   2.0000      -0.628535       -17.1033
 190   2.0000      -0.626933       -17.0597
 191   2.0000      -0.622054       -16.9270
 192   2.0000      -0.618988       -16.8435
 193   2.0000      -0.615820       -16.7573
 194   2.0000      -0.612193       -16.6586
 195   2.0000      -0.604583       -16.4515
 196   2.0000      -0.597520       -16.2593
 197   2.0000      -0.594261       -16.1707
 198   2.0000      -0.593538       -16.1510
 199   2.0000      -0.589740       -16.0476
 200   2.0000      -0.588566       -16.0157
 201   2.0000      -0.587909       -15.9978
 202   2.0000      -0.587022       -15.9737
 203   2.0000      -0.581888       -15.8340
 204   2.0000      -0.580591       -15.7987
 205   2.0000      -0.577196       -15.7063
 206   2.0000      -0.574227       -15.6255
 207   2.0000      -0.569126       -15.4867
 208   2.0000      -0.565624       -15.3914
 209   2.0000      -0.563591       -15.3361
 210   2.0000      -0.558905       -15.2086
 211   2.0000      -0.557065       -15.1585
 212   2.0000      -0.555467       -15.1150
 213   2.0000      -0.553398       -15.0587
 214   2.0000      -0.550983       -14.9930
 215   2.0000      -0.549782       -14.9603
 216   2.0000      -0.546272       -14.8648
 217   2.0000      -0.542600       -14.7649
 218   2.0000      -0.541915       -14.7463
 219   2.0000      -0.539805       -14.6888
 220   2.0000      -0.539531       -14.6814
 221   2.0000      -0.535721       -14.5777
 222   2.0000      -0.534220       -14.5369
 223   2.0000      -0.532317       -14.4851
 224   2.0000      -0.531500       -14.4629
 225   2.0000      -0.528663       -14.3857
 226   2.0000      -0.527422       -14.3519
 227   2.0000      -0.526672       -14.3315
 228   2.0000      -0.524419       -14.2702
 229   2.0000      -0.523655       -14.2494
 230   2.0000      -0.520251       -14.1568
 231   2.0000      -0.518301       -14.1037
 232   2.0000      -0.517836       -14.0910
 233   2.0000      -0.513257       -13.9664
 234   2.0000      -0.511657       -13.9229
 235   2.0000      -0.510387       -13.8883
 236   2.0000      -0.508783       -13.8447
 237   2.0000      -0.507143       -13.8001
 238   2.0000      -0.501322       -13.6417
 239   2.0000      -0.499312       -13.5870
 240   2.0000      -0.498498       -13.5648
 241   2.0000      -0.496312       -13.5053
 242   2.0000      -0.495246       -13.4763
 243   2.0000      -0.490908       -13.3583
 244   2.0000      -0.490366       -13.3435
 245   2.0000      -0.488473       -13.2920
 246   2.0000      -0.485330       -13.2065
 247   2.0000      -0.484557       -13.1855
 248   2.0000      -0.482938       -13.1414
 249   2.0000      -0.479362       -13.0441
 250   2.0000      -0.477488       -12.9931
 251   2.0000      -0.474711       -12.9176
 252   2.0000      -0.472588       -12.8598
 253   2.0000      -0.471639       -12.8340
 254   2.0000      -0.466524       -12.6948
 255   2.0000      -0.462124       -12.5750
 256   2.0000      -0.460245       -12.5239
 257   2.0000      -0.459291       -12.4979
 258   2.0000      -0.457556       -12.4507
 259   2.0000      -0.456484       -12.4216
 260   2.0000      -0.455377       -12.3914
 261   2.0000      -0.454885       -12.3780
 262   2.0000      -0.453520       -12.3409
 263   2.0000      -0.451480       -12.2854
 264   2.0000      -0.450756       -12.2657
 265   2.0000      -0.450111       -12.2482
 266   2.0000      -0.449289       -12.2258
 267   2.0000      -0.448751       -12.2111
 268   2.0000      -0.445164       -12.1135
 269   2.0000      -0.443156       -12.0589
 270   2.0000      -0.442837       -12.0502
 271   2.0000      -0.439727       -11.9656
 272   2.0000      -0.436559       -11.8794
 273   2.0000      -0.435774       -11.8580
 274   2.0000      -0.434364       -11.8197
 275   2.0000      -0.432919       -11.7803
 276   2.0000      -0.432424       -11.7669
 277   2.0000      -0.430723       -11.7206
 278   2.0000      -0.429964       -11.6999
 279   2.0000      -0.428688       -11.6652
 280   2.0000      -0.428033       -11.6474
 281   2.0000      -0.427547       -11.6342
 282   2.0000      -0.424394       -11.5484
 283   2.0000      -0.423552       -11.5254
 284   2.0000      -0.419542       -11.4163
 285   2.0000      -0.417489       -11.3605
 286   2.0000      -0.413751       -11.2587
 287   2.0000      -0.411310       -11.1923
 288   2.0000      -0.408359       -11.1120
 289   2.0000      -0.403372       -10.9763
 290   2.0000      -0.389319       -10.5939
 291   2.0000      -0.387443       -10.5428
 292   2.0000      -0.381397       -10.3783
 293   2.0000      -0.379083       -10.3154
 294   2.0000      -0.354406        -9.6439
 295   2.0000      -0.348489        -9.4829
 296   2.0000      -0.345745        -9.4082
 297   2.0000      -0.344912        -9.3855
 298   2.0000      -0.339808        -9.2467
 299   2.0000      -0.338327        -9.2063
 300   2.0000      -0.336169        -9.1476
 301   2.0000      -0.333606        -9.0779
 302   2.0000      -0.329338        -8.9617
 303   2.0000      -0.310926        -8.4607
 304   2.0000      -0.307289        -8.3618
 305   2.0000      -0.292117        -7.9489
 306   2.0000      -0.266250        -7.2450
 307   2.0000      -0.235414        -6.4060
 308   0.0000      -0.127625        -3.4728
 309   0.0000      -0.104675        -2.8483
 310   0.0000      -0.089802        -2.4436
 311   0.0000      -0.082618        -2.2482
 312   0.0000      -0.078602        -2.1389

MULLIKEN ATOMIC CHARGES
-----------------------
   0 C :   -0.034551
   1 C :    0.047805
   2 C :    0.044457
   3 C :   -0.029961
   4 C :    0.006832
   5 C :    0.014708
   6 C :    0.297980
   7 C :   -0.352310
   8 C :   -0.191431
   9 N :    0.158481
  10 C :   -0.175648
  11 N :    0.150347
  12 C :   -0.061214
  13 C :    0.249712
  14 C :   -0.358519
  15 C :   -0.189042
  16 N :    0.170653
  17 C :   -0.197342
  18 N :    0.164192
  19 C :    0.066639
  20 C :   -0.246098
  21 S :    0.233826
  22 C :   -0.102442
  23 C :    0.068358
  24 C :    0.115015
  25 C :    0.146065
  26 F :   -0.167300
  27 C :    0.162180
  28 F :   -0.150754
  29 C :    0.149712
  30 F :   -0.155815
  31 C :    0.146676
  32 F :   -0.158165
  33 C :    0.013181
  34 C :    0.030969
  35 C :   -0.147977
  36 S :    0.160359
  37 C :   -0.135008
  38 C :    0.086232
  39 C :    0.149650
  40 C :   -0.153133
  41 C :    0.516997
  42 F :   -0.160158
  43 F :   -0.152508
  44 F :   -0.165393
  45 C :    0.019429
  46 C :   -0.113755
  47 C :    0.200971
  48 O :   -0.303587
  49 C :    0.172877
  50 C :    0.030848
  51 C :    0.023727
  52 C :   -0.122144
  53 S :    0.183591
  54 C :   -0.141826
  55 C :    0.109750
  56 C :    0.074390
  57 C :    0.148690
  58 F :   -0.171893
  59 C :    0.147768
  60 F :   -0.156770
  61 C :    0.161221
  62 F :   -0.154257
  63 C :    0.137623
  64 F :   -0.164672
  65 C :    0.056324
  66 C :   -0.013851
  67 C :    0.015914
  68 C :   -0.060478
  69 C :    0.303461
  70 C :   -0.340807
  71 C :   -0.186159
  72 N :    0.153161
  73 C :   -0.190842
  74 N :    0.160751
  75 C :    0.007233
  76 C :    0.008968
  77 C :   -0.031966
  78 C :    0.048622
  79 C :    0.046335
  80 C :   -0.031023
  81 C :    0.246597
  82 C :   -0.330781
  83 C :   -0.188005
  84 N :    0.159892
  85 C :   -0.215222
  86 N :    0.176772
  87 H :    0.004724
  88 H :    0.002153
  89 H :    0.003914
  90 H :    0.004399
  91 H :    0.016442
  92 H :   -0.000027
  93 H :    0.022224
  94 H :    0.006668
  95 H :   -0.017620
  96 H :    0.038186
  97 H :    0.037606
  98 H :    0.043990
  99 H :   -0.001921
 100 H :    0.012089
 101 H :    0.012733
 102 H :    0.034855
 103 H :    0.014871
 104 H :    0.006566
 105 H :    0.004725
 106 H :    0.004320
 107 H :    0.005973
Sum of atomic charges:   -0.0000000

LOEWDIN ATOMIC CHARGES
----------------------
   0 C :    0.004458
   1 C :    0.000447
   2 C :    0.003715
   3 C :    0.002865
   4 C :   -0.007945
   5 C :   -0.012803
   6 C :    0.080434
   7 C :   -0.137071
   8 C :   -0.019371
   9 N :   -0.049255
  10 C :   -0.020481
  11 N :   -0.049541
  12 C :   -0.061983
  13 C :    0.069183
  14 C :   -0.143636
  15 C :   -0.017262
  16 N :   -0.057891
  17 C :   -0.021801
  18 N :   -0.050947
  19 C :    0.022257
  20 C :   -0.195064
  21 S :    0.538759
  22 C :   -0.121002
  23 C :   -0.068520
  24 C :   -0.048629
  25 C :    0.046673
  26 F :   -0.035157
  27 C :    0.051552
  28 F :   -0.029896
  29 C :    0.029327
  30 F :   -0.035083
  31 C :    0.066981
  32 F :   -0.030220
  33 C :   -0.070318
  34 C :   -0.002481
  35 C :   -0.177093
  36 S :    0.505022
  37 C :   -0.146317
  38 C :   -0.059887
  39 C :   -0.014671
  40 C :   -0.103337
  41 C :    0.171207
  42 F :   -0.054618
  43 F :   -0.051464
  44 F :   -0.064233
  45 C :    0.022619
  46 C :   -0.089978
  47 C :    0.079112
  48 O :   -0.072543
  49 C :    0.082727
  50 C :   -0.042698
  51 C :   -0.031391
  52 C :   -0.149705
  53 S :    0.515835
  54 C :   -0.171317
  55 C :   -0.052136
  56 C :   -0.063960
  57 C :    0.060099
  58 F :   -0.042419
  59 C :    0.033299
  60 F :   -0.036352
  61 C :    0.041494
  62 F :   -0.033385
  63 C :    0.054823
  64 F :   -0.035985
  65 C :    0.004560
  66 C :   -0.028359
  67 C :    0.056091
  68 C :   -0.059863
  69 C :    0.077776
  70 C :   -0.133550
  71 C :   -0.020281
  72 N :   -0.048740
  73 C :   -0.019660
  74 N :   -0.046144
  75 C :   -0.013281
  76 C :   -0.010639
  77 C :    0.001892
  78 C :    0.004464
  79 C :    0.001998
  80 C :    0.005141
  81 C :    0.071583
  82 C :   -0.132677
  83 C :   -0.020182
  84 N :   -0.044608
  85 C :   -0.023376
  86 N :   -0.048544
  87 H :    0.041061
  88 H :    0.036879
  89 H :    0.037213
  90 H :    0.040912
  91 H :    0.045475
  92 H :    0.022432
  93 H :    0.027025
  94 H :    0.039331
  95 H :    0.033412
  96 H :    0.022077
  97 H :    0.022062
  98 H :    0.031407
  99 H :    0.021098
 100 H :    0.031563
 101 H :    0.039587
 102 H :    0.028101
 103 H :    0.045407
 104 H :    0.041104
 105 H :    0.037813
 106 H :    0.037827
 107 H :    0.041571

  Mayer bond orders larger than 0.100000
B(  0-C ,  1-C ) :   1.3686 B(  0-C ,  5-C ) :   1.3811 B(  0-C , 87-H ) :   0.9834
B(  1-C ,  2-C ) :   1.3778 B(  1-C , 88-H ) :   0.9865 B(  2-C ,  3-C ) :   1.3619
B(  2-C , 89-H ) :   0.9866 B(  3-C ,  4-C ) :   1.3871 B(  3-C , 90-H ) :   0.9868
B(  4-C ,  5-C ) :   1.3106 B(  4-C , 13-C ) :   1.0097 B(  5-C ,  6-C ) :   0.9965
B(  6-C ,  7-C ) :   1.6266 B(  6-C , 12-C ) :   1.0741 B(  7-C ,  8-C ) :   1.1475
B(  7-C , 10-C ) :   1.1386 B(  8-C ,  9-N ) :   2.9775 B( 10-C , 11-N ) :   2.9616
B( 12-C , 13-C ) :   1.0265 B( 12-C , 19-C ) :   1.5961 B( 13-C , 14-C ) :   1.6314
B( 14-C , 15-C ) :   1.1720 B( 14-C , 17-C ) :   1.1392 B( 15-C , 16-N ) :   3.0062
B( 17-C , 18-N ) :   2.9941 B( 19-C , 20-C ) :   1.2129 B( 19-C , 91-H ) :   0.9044
B( 20-C , 21-S ) :   1.1444 B( 20-C , 22-C ) :   0.1021 B( 20-C , 24-C ) :   1.2896
B( 21-S , 22-C ) :   1.2081 B( 22-C , 23-C ) :   1.2842 B( 22-C , 33-C ) :   1.1951
B( 23-C , 24-C ) :   1.2317 B( 23-C , 31-C ) :   1.1679 B( 24-C , 25-C ) :   1.1687
B( 25-C , 26-F ) :   1.1416 B( 25-C , 27-C ) :   1.3959 B( 27-C , 28-F ) :   1.1783
B( 27-C , 29-C ) :   1.1839 B( 29-C , 30-F ) :   1.1708 B( 29-C , 31-C ) :   1.3919
B( 31-C , 32-F ) :   1.1684 B( 33-C , 34-C ) :   1.5956 B( 33-C , 92-H ) :   0.9391
B( 34-C , 35-C ) :   1.2374 B( 34-C , 93-H ) :   0.9387 B( 35-C , 36-S ) :   1.1311
B( 35-C , 39-C ) :   1.3118 B( 36-S , 37-C ) :   1.1784 B( 37-C , 38-C ) :   1.2846
B( 37-C , 50-C ) :   1.1978 B( 38-C , 39-C ) :   1.2541 B( 38-C , 47-C ) :   1.1975
B( 39-C , 40-C ) :   1.2152 B( 40-C , 41-C ) :   0.9540 B( 40-C , 45-C ) :   1.5373
B( 41-C , 42-F ) :   1.1505 B( 41-C , 43-F ) :   1.1634 B( 41-C , 44-F ) :   1.1143
B( 45-C , 46-C ) :   1.2175 B( 45-C , 94-H ) :   0.9876 B( 46-C , 47-C ) :   1.4145
B( 46-C , 95-H ) :   0.9949 B( 47-C , 48-O ) :   1.2065 B( 48-O , 49-C ) :   0.9358
B( 49-C , 96-H ) :   0.9706 B( 49-C , 97-H ) :   0.9702 B( 49-C , 98-H ) :   0.9773
B( 50-C , 51-C ) :   1.5958 B( 50-C , 99-H ) :   0.9372 B( 51-C , 52-C ) :   1.2396
B( 51-C ,100-H ) :   0.9530 B( 52-C , 53-S ) :   1.1686 B( 52-C , 56-C ) :   1.2990
B( 53-S , 54-C ) :   1.1481 B( 54-C , 55-C ) :   1.3114 B( 54-C , 65-C ) :   1.1829
B( 55-C , 56-C ) :   1.2281 B( 55-C , 63-C ) :   1.1531 B( 56-C , 57-C ) :   1.1569
B( 57-C , 58-F ) :   1.1250 B( 57-C , 59-C ) :   1.4201 B( 59-C , 60-F ) :   1.1716
B( 59-C , 61-C ) :   1.1699 B( 61-C , 62-F ) :   1.1723 B( 61-C , 63-C ) :   1.4116
B( 63-C , 64-F ) :   1.1522 B( 65-C , 66-C ) :   1.6040 B( 65-C ,101-H ) :   0.9526
B( 66-C , 67-C ) :   1.2024 B( 66-C ,102-H ) :   0.9462 B( 67-C , 68-C ) :   1.5302
B( 67-C ,103-H ) :   0.9501 B( 68-C , 69-C ) :   1.0546 B( 68-C , 81-C ) :   1.0363
B( 69-C , 70-C ) :   1.6329 B( 69-C , 75-C ) :   0.9998 B( 70-C , 71-C ) :   1.1393
B( 70-C , 73-C ) :   1.1458 B( 71-C , 72-N ) :   2.9734 B( 73-C , 74-N ) :   2.9780
B( 75-C , 76-C ) :   1.3096 B( 75-C , 80-C ) :   1.3872 B( 76-C , 77-C ) :   1.3841
B( 76-C , 81-C ) :   1.0096 B( 77-C , 78-C ) :   1.3643 B( 77-C ,104-H ) :   0.9852
B( 78-C , 79-C ) :   1.3780 B( 78-C ,105-H ) :   0.9868 B( 79-C , 80-C ) :   1.3683
B( 79-C ,106-H ) :   0.9863 B( 80-C ,107-H ) :   0.9828 B( 81-C , 82-C ) :   1.6297
B( 82-C , 83-C ) :   1.1406 B( 82-C , 85-C ) :   1.1538 B( 83-C , 84-N ) :   2.9898
B( 85-C , 86-N ) :   3.0161

-----------------------------------------------------------------------------
         ABSORPTION SPECTRUM VIA TRANSITION ELECTRIC DIPOLE MOMENTS
-----------------------------------------------------------------------------
State   Energy  Wavelength   fosc         T2         TX        TY        TZ
        (cm-1)    (nm)                  (au**2)     (au)      (au)      (au)
-----------------------------------------------------------------------------
   0   10024.5    997.6   1.485456477  48.78330  -0.85114   5.35245  -4.40570
   1   14958.3    668.5   0.715087953  15.73811  -2.42964   1.47443   2.76785
   2   17474.8    572.3   0.162701199   3.06516   0.99214  -1.15739  -0.86096
   3   19236.4    519.8   0.099259380   1.69872  -0.87982  -0.16776   0.94683
   4   19530.2    512.0   0.161664413   2.72510   1.62311  -0.25208  -0.16448
   5   20516.1    487.4   0.097561960   1.56553   0.90714   0.85250  -0.12595
   6   21664.0    461.6   0.028999905   0.44069  -0.65337   0.11694  -0.01121
   7   24101.9    414.9   0.013201137   0.18032   0.31186   0.16382   0.23711
   8   24653.6    405.6   0.012071156   0.16119  -0.26353  -0.30258   0.01392
   9   25177.0    397.2   0.057684829   0.75428   0.06498  -0.32882   0.80121
  10   25375.8    394.1   0.019788768   0.25673  -0.49311  -0.10807  -0.04346
  11   27304.3    366.2   0.056568931   0.68206   0.65214   0.49164   0.12272
  12   27482.3    363.9   0.058074484   0.69568  -0.70725   0.06942  -0.43665
  13   27811.8    359.6   0.009287195   0.10993   0.21428   0.23999  -0.08014
  14   28483.6    351.1   0.065324837   0.75502   0.78063  -0.17330  -0.34001
  15   29060.6    344.1   0.021354565   0.24191   0.23198   0.27955  -0.33159
  16   29368.1    340.5   0.005460731   0.06121   0.17836   0.04051  -0.16662
  17   30002.2    333.3   0.092649254   1.01664   0.06722  -0.97310  -0.25531
  18   30137.9    331.8   0.038604600   0.42170  -0.61430  -0.11303   0.17765
  19   30450.8    328.4   0.085620537   0.92567  -0.85969   0.38459  -0.19668
  20   31276.6    319.7   0.019067178   0.20070  -0.38592  -0.19423  -0.11850
  21   31430.9    318.2   0.156812186   1.64247  -0.88887   0.82030   0.42367
  22   31915.1    313.3   0.058800681   0.60654  -0.74836   0.13083   0.17141
  23   32181.9    310.7   0.113492877   1.16100  -0.05132  -0.13806  -1.06738
  24   32310.0    309.5   0.661448745   6.73961  -2.44838   0.32919   0.79791
  25   32411.2    308.5   0.349155776   3.54650  -1.59698  -0.46524  -0.88300
  26   32647.3    306.3   0.086256786   0.86980  -0.90118  -0.23799   0.03221
  27   32956.8    303.4   0.076413645   0.76331  -0.80949  -0.23149   0.23334
  28   33694.3    296.8   0.074431113   0.72723  -0.08430  -0.78475   0.32295
  29   34050.4    293.7   0.059853855   0.57869   0.23295  -0.36764  -0.62391
  30   34159.2    292.7   0.267552481   2.57856   0.45829   1.44445  -0.53112
  31   34354.4    291.1   0.072997752   0.69952  -0.72020   0.24798  -0.34546
  32   34450.3    290.3   0.198568268   1.89754   0.17386  -1.13353   0.76317
  33   34845.7    287.0   0.151956910   1.43564   0.34102  -1.12198   0.24598
  34   35265.5    283.6   0.017780106   0.16598  -0.37260   0.08260  -0.14257
  35   35588.7    281.0   0.184592193   1.70756  -0.07655   0.85594  -0.98441
  36   35917.0    278.4   0.008948887   0.08202  -0.07427  -0.15440   0.22950
  37   36270.4    275.7   0.079200783   0.71887   0.82000  -0.19375  -0.09453
  38   36416.9    274.6   0.025011273   0.22610  -0.10730   0.45920   0.06106
  39   36876.0    271.2   0.076176099   0.68006  -0.65171   0.08897   0.49741
  40   37107.8    269.5   0.002891672   0.02565  -0.14770   0.03979   0.04748
  41   37192.0    268.9   0.024673031   0.21840  -0.34996   0.16071  -0.26477
  42   37586.9    266.1   0.054513710   0.47747  -0.21462   0.49628  -0.43025
  43   38175.5    261.9   0.115477799   0.99584   0.14515  -0.88012   0.44739
  44   38356.7    260.7   0.055174109   0.47355   0.23486   0.08449  -0.64129
  45   38544.5    259.4   0.010107028   0.08632   0.00933   0.06881   0.28549
  46   38756.4    258.0   0.002820269   0.02396  -0.10774   0.08118   0.07588
  47   39186.6    255.2   0.022083951   0.18553  -0.19308   0.34844   0.16383
  48   39229.0    254.9   0.133050801   1.11657   0.38873  -0.96950   0.15980
  49   39389.6    253.9   0.008485832   0.07092   0.12037   0.14659  -0.18694
  50   39607.3    252.5   0.038694455   0.32162   0.34209   0.37058  -0.25937
  51   39752.7    251.6   0.047236584   0.39119  -0.17162   0.58882  -0.12260
  52   39986.8    250.1   0.037216190   0.30640  -0.01053   0.55192  -0.04088

FINAL SINGLE POINT ENERGY     -5251.988417138117

DIPOLE MOMENT
-------------
                                X             Y             Z
Electronic contribution:    -24.94998      40.77806       2.14778
Nuclear contribution   :     22.88040     -40.42608       1.71902
                        -----------------------------------------
Total Dipole Moment    :     -2.06958       0.35198       3.86680
                        -----------------------------------------
Magnitude (a.u.)       :      4.39991
Magnitude (Debye)      :     11.18369

Rotational constants in cm-1:     0.000909     0.000216     0.000186
Rotational constants in MHz :    27.265426     6.473894     5.576484

                             ****ORCA TERMINATED NORMALLY****
TOTAL RUN TIME: 0 days 0 hours 14 minutes 54 seconds 218 msec
