                         Program Version 4.2.0 -  RELEASE  -
|  1> # ORCA input file
|  2> # SCF done       -194.834177063995          0.000607680277
|  3> ! CAM-B3LYP def2-SVP def2/J RIJCOSX Grid4 TightSCF
|  4> %maxcore 5000
|  5> %tddft
|  6>     Mode sTDDFT
|  7>     Ethresh 5.0
|  8>     maxcore 5000
|  9> end
| 10>
| 11> %pal
| 12>   nprocs 6
| 13>   end
| 14> * xyz 0 1
| 15>    C      -12.52353        -1.99119         2.61564
| 16>    C      -12.86077        -2.45234         1.35122
| 17>    C      -12.42312        -3.68843         0.89811
| 18>    C      -11.64075        -4.50556         1.70099
| 19>    C      -11.29607        -4.05407         2.96308
| 20>    C      -11.73224        -2.79097         3.42432
| 21>    C      -11.20620        -2.57067         4.76694
| 22>    C      -11.50507        -1.51225         5.58615
| 23>    C      -12.38513        -0.46586         5.24027
| 24>    N      -13.08752         0.41601         5.02397
| 25>    C      -11.01083        -1.34387         6.89498
| 26>    N      -10.63765        -1.16245         7.96650
| 27>    C      -10.30901        -3.67967         5.04925
| 28>    C      -10.53753        -4.68917         4.02886
| 29>    C      -10.35225        -6.03866         4.18621
| 30>    C       -9.94851        -6.62037         5.40567
| 31>    N       -9.67803        -7.11840         6.40447
| 32>    C      -10.63931        -6.99426         3.19231
| 33>    N      -10.83136        -7.81186         2.40970
| 34>    C       -9.35665        -3.68610         6.03787
| 35>    C       -8.18920        -4.45739         6.11802
| 36>    S       -7.41090        -5.28896         4.76782
| 37>    C       -6.06442        -5.87205         5.73739
| 38>    C       -6.22790        -5.40660         7.02958
| 39>    C       -7.37728        -4.61102         7.23422
| 40>    N       -7.38416        -4.24169         8.54612
| 41>    C       -6.28442        -4.77240         9.17771
| 42>    S       -5.87750        -4.58375        10.74867
| 43>    N       -5.58104        -5.48027         8.23719
| 44>    C       -5.04914        -6.69441         5.21075
| 45>    C       -4.99368        -7.07945         3.90664
| 46>    C       -4.02912        -7.93861         3.34075
| 47>    S       -4.10120        -8.25947         1.61536
| 48>    C       -2.75523        -9.30922         1.74289
| 49>    C       -2.27442        -9.41011         3.05457
| 50>    C       -2.98760        -8.63448         3.94994
| 51>    C       -1.10394       -10.36388         3.12228
| 52>    C        0.17163        -9.64871         3.57731
| 53>    C       -1.41040       -11.55720         4.03145
| 54>    C       -1.00780       -10.78553         1.67426
| 55>    C       -1.98131       -10.13766         0.90571
| 56>    S       -1.90793       -10.57501        -0.74836
| 57>    C       -0.56794       -11.66053        -0.41431
| 58>    C       -0.21651       -11.64466         0.93157
| 59>    C       -0.02424       -12.40868        -1.48366
| 60>    C        0.90421       -13.39373        -1.35518
| 61>    C        1.43026       -14.14382        -2.42943
| 62>    S        2.38150       -15.58803        -2.10529
| 63>    C        2.58594       -15.98615        -3.80628
| 64>    C        1.97993       -14.99045        -4.55875
| 65>    C        1.33626       -13.98239        -3.80192
| 66>    N        0.85356       -13.07265        -4.70785
| 67>    C        1.21651       -13.45230        -5.97839
| 68>    S        0.88176       -12.62758        -7.34859
| 69>    N        1.87851       -14.65048        -5.87682
| 70>    C        3.24428       -17.15009        -4.23827
| 71>    C        3.00930       -17.74383        -5.44667
| 72>    C        3.69959       -18.88007        -5.91969
| 73>    C        5.01277       -19.18335        -5.65751
| 74>    C        5.60618       -20.51091        -5.71922
| 75>    C        5.05311       -21.64547        -6.25220
| 76>    C        3.79228       -21.72658        -6.87922
| 77>    N        2.77894       -21.87248        -7.39923
| 78>    C        5.69277       -22.90307        -6.27403
| 79>    N        6.15303       -23.95320        -6.32840
| 80>    C        6.90802       -20.42102        -5.06844
| 81>    C        7.16264       -19.06992        -4.74003
| 82>    C        8.32747       -18.70972        -4.08297
| 83>    C        9.23909       -19.70343        -3.75883
| 84>    C        8.99675       -21.02852        -4.09066
| 85>    C        7.83265       -21.40155        -4.74679
| 86>    C        6.05326       -18.26365        -5.22451
| 87>    C        6.11106       -16.91579        -5.48803
| 88>    C        7.19381       -16.08881        -5.12794
| 89>    N        8.03350       -15.36105        -4.83954
| 90>    C        5.13065       -16.20867        -6.20357
| 91>    N        4.38088       -15.58672        -6.81518
| 92>    H      -12.87197        -1.02747         2.94890
| 93>    H      -13.47212        -1.83496         0.71093
| 94>    H      -12.69356        -4.02123        -0.09232
| 95>    H      -11.30130        -5.46313         1.34009
| 96>    H       -9.45591        -2.95801         6.83255
| 97>    H       -8.07294        -3.68147         9.02244
| 98>    H       -4.73792        -5.98333         8.45490
| 99>    H       -4.29606        -7.02667         5.91134
|100>    H       -5.75556        -6.70622         3.23382
|101>    H       -2.78539        -8.57309         5.00335
|102>    H        0.05446        -9.28886         4.59635
|103>    H        0.38199        -8.80057         2.92969
|104>    H        1.01598       -10.33236         3.54187
|105>    H       -1.55080       -11.22058         5.05544
|106>    H       -0.58758       -12.26704         4.00564
|107>    H       -2.31654       -12.06090         3.70273
|108>    H        0.58788       -12.23530         1.32929
|109>    H       -0.42756       -12.18593        -2.46149
|110>    H        1.25783       -13.67156        -0.37328
|111>    H        0.38786       -12.20076        -4.52192
|112>    H        2.45273       -15.03718        -6.62058
|113>    H        3.92322       -17.61984        -3.53751
|114>    H        2.16858       -17.40202        -6.03495
|115>    H        3.11678       -19.58188        -6.50050
|116>    H        8.52290       -17.68422        -3.81423
|117>    H       10.14811       -19.43925        -3.24053
|118>    H        9.72184       -21.78507        -3.83253
|119>    H        7.66079       -22.43647        -4.99228
|120> *
|121>
|122>                          ****END OF INPUT****

CARTESIAN COORDINATES (ANGSTROEM)
---------------------------------
  C    -12.523530   -1.991190    2.615640
  C    -12.860770   -2.452340    1.351220
  C    -12.423120   -3.688430    0.898110
  C    -11.640750   -4.505560    1.700990
  C    -11.296070   -4.054070    2.963080
  C    -11.732240   -2.790970    3.424320
  C    -11.206200   -2.570670    4.766940
  C    -11.505070   -1.512250    5.586150
  C    -12.385130   -0.465860    5.240270
  N    -13.087520    0.416010    5.023970
  C    -11.010830   -1.343870    6.894980
  N    -10.637650   -1.162450    7.966500
  C    -10.309010   -3.679670    5.049250
  C    -10.537530   -4.689170    4.028860
  C    -10.352250   -6.038660    4.186210
  C     -9.948510   -6.620370    5.405670
  N     -9.678030   -7.118400    6.404470
  C    -10.639310   -6.994260    3.192310
  N    -10.831360   -7.811860    2.409700
  C     -9.356650   -3.686100    6.037870
  C     -8.189200   -4.457390    6.118020
  S     -7.410900   -5.288960    4.767820
  C     -6.064420   -5.872050    5.737390
  C     -6.227900   -5.406600    7.029580
  C     -7.377280   -4.611020    7.234220
  N     -7.384160   -4.241690    8.546120
  C     -6.284420   -4.772400    9.177710
  S     -5.877500   -4.583750   10.748670
  N     -5.581040   -5.480270    8.237190
  C     -5.049140   -6.694410    5.210750
  C     -4.993680   -7.079450    3.906640
  C     -4.029120   -7.938610    3.340750
  S     -4.101200   -8.259470    1.615360
  C     -2.755230   -9.309220    1.742890
  C     -2.274420   -9.410110    3.054570
  C     -2.987600   -8.634480    3.949940
  C     -1.103940  -10.363880    3.122280
  C      0.171630   -9.648710    3.577310
  C     -1.410400  -11.557200    4.031450
  C     -1.007800  -10.785530    1.674260
  C     -1.981310  -10.137660    0.905710
  S     -1.907930  -10.575010   -0.748360
  C     -0.567940  -11.660530   -0.414310
  C     -0.216510  -11.644660    0.931570
  C     -0.024240  -12.408680   -1.483660
  C      0.904210  -13.393730   -1.355180
  C      1.430260  -14.143820   -2.429430
  S      2.381500  -15.588030   -2.105290
  C      2.585940  -15.986150   -3.806280
  C      1.979930  -14.990450   -4.558750
  C      1.336260  -13.982390   -3.801920
  N      0.853560  -13.072650   -4.707850
  C      1.216510  -13.452300   -5.978390
  S      0.881760  -12.627580   -7.348590
  N      1.878510  -14.650480   -5.876820
  C      3.244280  -17.150090   -4.238270
  C      3.009300  -17.743830   -5.446670
  C      3.699590  -18.880070   -5.919690
  C      5.012770  -19.183350   -5.657510
  C      5.606180  -20.510910   -5.719220
  C      5.053110  -21.645470   -6.252200
  C      3.792280  -21.726580   -6.879220
  N      2.778940  -21.872480   -7.399230
  C      5.692770  -22.903070   -6.274030
  N      6.153030  -23.953200   -6.328400
  C      6.908020  -20.421020   -5.068440
  C      7.162640  -19.069920   -4.740030
  C      8.327470  -18.709720   -4.082970
  C      9.239090  -19.703430   -3.758830
  C      8.996750  -21.028520   -4.090660
  C      7.832650  -21.401550   -4.746790
  C      6.053260  -18.263650   -5.224510
  C      6.111060  -16.915790   -5.488030
  C      7.193810  -16.088810   -5.127940
  N      8.033500  -15.361050   -4.839540
  C      5.130650  -16.208670   -6.203570
  N      4.380880  -15.586720   -6.815180
  H    -12.871970   -1.027470    2.948900
  H    -13.472120   -1.834960    0.710930
  H    -12.693560   -4.021230   -0.092320
  H    -11.301300   -5.463130    1.340090
  H     -9.455910   -2.958010    6.832550
  H     -8.072940   -3.681470    9.022440
  H     -4.737920   -5.983330    8.454900
  H     -4.296060   -7.026670    5.911340
  H     -5.755560   -6.706220    3.233820
  H     -2.785390   -8.573090    5.003350
  H      0.054460   -9.288860    4.596350
  H      0.381990   -8.800570    2.929690
  H      1.015980  -10.332360    3.541870
  H     -1.550800  -11.220580    5.055440
  H     -0.587580  -12.267040    4.005640
  H     -2.316540  -12.060900    3.702730
  H      0.587880  -12.235300    1.329290
  H     -0.427560  -12.185930   -2.461490
  H      1.257830  -13.671560   -0.373280
  H      0.387860  -12.200760   -4.521920
  H      2.452730  -15.037180   -6.620580
  H      3.923220  -17.619840   -3.537510
  H      2.168580  -17.402020   -6.034950
  H      3.116780  -19.581880   -6.500500
  H      8.522900  -17.684220   -3.814230
  H     10.148110  -19.439250   -3.240530
  H      9.721840  -21.785070   -3.832530
  H      7.660790  -22.436470   -4.992280

 Total Charge           Charge          ....    0
 Multiplicity           Mult            ....    1
 Number of Electrons    NEL             ....  562
 Basis Dimension        Dim             .... 1242

ORBITAL ENERGIES
----------------

  NO   OCC          E(Eh)            E(eV)
   0   2.0000     -88.983462     -2421.3631
   1   2.0000     -88.983080     -2421.3527
   2   2.0000     -88.977431     -2421.1990
   3   2.0000     -88.976882     -2421.1840
   4   2.0000     -88.875095     -2418.4143
   5   2.0000     -88.867724     -2418.2137
   6   2.0000     -14.496291      -394.4641
   7   2.0000     -14.490566      -394.3084
   8   2.0000     -14.485949      -394.1827
   9   2.0000     -14.478766      -393.9873
  10   2.0000     -14.435368      -392.8063
  11   2.0000     -14.425288      -392.5320
  12   2.0000     -14.424950      -392.5229
  13   2.0000     -14.423630      -392.4869
  14   2.0000     -14.422657      -392.4604
  15   2.0000     -14.421087      -392.4177
  16   2.0000     -14.418016      -392.3342
  17   2.0000     -14.417528      -392.3209
  18   2.0000     -10.400616      -283.0152
  19   2.0000     -10.391941      -282.7791
  20   2.0000     -10.359439      -281.8947
  21   2.0000     -10.354335      -281.7558
  22   2.0000     -10.353421      -281.7309
  23   2.0000     -10.352275      -281.6997
  24   2.0000     -10.351140      -281.6688
  25   2.0000     -10.349380      -281.6209
  26   2.0000     -10.348506      -281.5972
  27   2.0000     -10.348160      -281.5878
  28   2.0000     -10.347488      -281.5695
  29   2.0000     -10.346093      -281.5315
  30   2.0000     -10.345032      -281.5026
  31   2.0000     -10.343574      -281.4630
  32   2.0000     -10.342471      -281.4329
  33   2.0000     -10.342162      -281.4245
  34   2.0000     -10.337935      -281.3095
  35   2.0000     -10.332792      -281.1696
  36   2.0000     -10.332012      -281.1483
  37   2.0000     -10.328269      -281.0465
  38   2.0000     -10.328013      -281.0395
  39   2.0000     -10.327716      -281.0314
  40   2.0000     -10.327347      -281.0214
  41   2.0000     -10.327018      -281.0125
  42   2.0000     -10.326558      -280.9999
  43   2.0000     -10.325735      -280.9775
  44   2.0000     -10.325655      -280.9754
  45   2.0000     -10.325224      -280.9636
  46   2.0000     -10.324739      -280.9504
  47   2.0000     -10.323559      -280.9183
  48   2.0000     -10.323482      -280.9162
  49   2.0000     -10.321159      -280.8530
  50   2.0000     -10.320414      -280.8327
  51   2.0000     -10.319692      -280.8131
  52   2.0000     -10.317295      -280.7479
  53   2.0000     -10.316940      -280.7382
  54   2.0000     -10.315498      -280.6990
  55   2.0000     -10.314789      -280.6797
  56   2.0000     -10.314397      -280.6690
  57   2.0000     -10.314030      -280.6590
  58   2.0000     -10.311819      -280.5989
  59   2.0000     -10.311504      -280.5903
  60   2.0000     -10.310710      -280.5687
  61   2.0000     -10.309733      -280.5421
  62   2.0000     -10.306046      -280.4418
  63   2.0000     -10.304914      -280.4110
  64   2.0000     -10.304241      -280.3926
  65   2.0000     -10.303628      -280.3760
  66   2.0000     -10.303278      -280.3664
  67   2.0000     -10.301617      -280.3212
  68   2.0000     -10.300260      -280.2843
  69   2.0000     -10.300073      -280.2792
  70   2.0000     -10.299328      -280.2590
  71   2.0000     -10.299322      -280.2588
  72   2.0000     -10.298080      -280.2250
  73   2.0000     -10.296098      -280.1711
  74   2.0000     -10.295891      -280.1654
  75   2.0000     -10.282989      -279.8144
  76   2.0000     -10.282639      -279.8048
  77   2.0000      -8.078490      -219.8269
  78   2.0000      -8.078170      -219.8182
  79   2.0000      -8.072613      -219.6670
  80   2.0000      -8.071166      -219.6276
  81   2.0000      -7.972860      -216.9525
  82   2.0000      -7.965510      -216.7525
  83   2.0000      -6.047753      -164.5677
  84   2.0000      -6.047448      -164.5594
  85   2.0000      -6.043728      -164.4582
  86   2.0000      -6.043455      -164.4508
  87   2.0000      -6.042345      -164.4206
  88   2.0000      -6.041070      -164.3859
  89   2.0000      -6.040635      -164.3740
  90   2.0000      -6.040264      -164.3639
  91   2.0000      -6.038270      -164.3097
  92   2.0000      -6.036926      -164.2731
  93   2.0000      -6.033808      -164.1883
  94   2.0000      -6.032109      -164.1420
  95   2.0000      -5.943296      -161.7253
  96   2.0000      -5.938073      -161.5832
  97   2.0000      -5.935895      -161.5239
  98   2.0000      -5.933487      -161.4584
  99   2.0000      -5.930765      -161.3843
 100   2.0000      -5.926137      -161.2584
 101   2.0000      -1.161672       -31.6107
 102   2.0000      -1.152591       -31.3636
 103   2.0000      -1.041583       -28.3429
 104   2.0000      -1.036681       -28.2095
 105   2.0000      -1.033177       -28.1142
 106   2.0000      -1.031554       -28.0700
 107   2.0000      -1.026977       -27.9455
 108   2.0000      -1.021716       -27.8023
 109   2.0000      -1.018531       -27.7156
 110   2.0000      -1.013991       -27.5921
 111   2.0000      -1.007975       -27.4284
 112   2.0000      -1.007156       -27.4061
 113   2.0000      -1.006332       -27.3837
 114   2.0000      -1.004715       -27.3397
 115   2.0000      -1.002108       -27.2687
 116   2.0000      -0.999324       -27.1930
 117   2.0000      -0.997074       -27.1318
 118   2.0000      -0.995497       -27.0888
 119   2.0000      -0.966249       -26.2930
 120   2.0000      -0.959186       -26.1008
 121   2.0000      -0.952256       -25.9122
 122   2.0000      -0.944982       -25.7143
 123   2.0000      -0.939364       -25.5614
 124   2.0000      -0.936892       -25.4941
 125   2.0000      -0.926038       -25.1988
 126   2.0000      -0.916970       -24.9520
 127   2.0000      -0.903328       -24.5808
 128   2.0000      -0.899581       -24.4788
 129   2.0000      -0.893065       -24.3015
 130   2.0000      -0.887545       -24.1513
 131   2.0000      -0.883362       -24.0375
 132   2.0000      -0.877413       -23.8756
 133   2.0000      -0.871013       -23.7015
 134   2.0000      -0.866009       -23.5653
 135   2.0000      -0.865168       -23.5424
 136   2.0000      -0.851852       -23.1801
 137   2.0000      -0.844134       -22.9701
 138   2.0000      -0.843238       -22.9457
 139   2.0000      -0.830725       -22.6052
 140   2.0000      -0.810776       -22.0623
 141   2.0000      -0.805353       -21.9148
 142   2.0000      -0.801601       -21.8127
 143   2.0000      -0.796961       -21.6864
 144   2.0000      -0.795845       -21.6560
 145   2.0000      -0.794537       -21.6204
 146   2.0000      -0.790212       -21.5028
 147   2.0000      -0.773907       -21.0591
 148   2.0000      -0.770713       -20.9722
 149   2.0000      -0.760629       -20.6978
 150   2.0000      -0.752696       -20.4819
 151   2.0000      -0.737318       -20.0635
 152   2.0000      -0.722039       -19.6477
 153   2.0000      -0.720658       -19.6101
 154   2.0000      -0.720203       -19.5977
 155   2.0000      -0.718699       -19.5568
 156   2.0000      -0.717533       -19.5251
 157   2.0000      -0.715487       -19.4694
 158   2.0000      -0.708310       -19.2741
 159   2.0000      -0.691100       -18.8058
 160   2.0000      -0.683329       -18.5943
 161   2.0000      -0.680792       -18.5253
 162   2.0000      -0.675979       -18.3943
 163   2.0000      -0.672891       -18.3103
 164   2.0000      -0.670745       -18.2519
 165   2.0000      -0.666244       -18.1294
 166   2.0000      -0.665961       -18.1217
 167   2.0000      -0.663520       -18.0553
 168   2.0000      -0.658080       -17.9073
 169   2.0000      -0.651489       -17.7279
 170   2.0000      -0.647883       -17.6298
 171   2.0000      -0.642383       -17.4801
 172   2.0000      -0.635555       -17.2943
 173   2.0000      -0.631918       -17.1954
 174   2.0000      -0.624238       -16.9864
 175   2.0000      -0.617748       -16.8098
 176   2.0000      -0.612925       -16.6785
 177   2.0000      -0.608630       -16.5617
 178   2.0000      -0.601656       -16.3719
 179   2.0000      -0.593982       -16.1631
 180   2.0000      -0.591874       -16.1057
 181   2.0000      -0.590467       -16.0674
 182   2.0000      -0.586404       -15.9569
 183   2.0000      -0.584922       -15.9165
 184   2.0000      -0.583730       -15.8841
 185   2.0000      -0.581050       -15.8112
 186   2.0000      -0.574843       -15.6423
 187   2.0000      -0.568334       -15.4652
 188   2.0000      -0.563132       -15.3236
 189   2.0000      -0.557044       -15.1579
 190   2.0000      -0.551999       -15.0206
 191   2.0000      -0.548051       -14.9132
 192   2.0000      -0.547063       -14.8863
 193   2.0000      -0.545709       -14.8495
 194   2.0000      -0.543875       -14.7996
 195   2.0000      -0.542037       -14.7496
 196   2.0000      -0.539873       -14.6907
 197   2.0000      -0.538489       -14.6530
 198   2.0000      -0.532496       -14.4899
 199   2.0000      -0.529334       -14.4039
 200   2.0000      -0.524792       -14.2803
 201   2.0000      -0.523029       -14.2323
 202   2.0000      -0.517493       -14.0817
 203   2.0000      -0.517010       -14.0686
 204   2.0000      -0.514700       -14.0057
 205   2.0000      -0.509639       -13.8680
 206   2.0000      -0.506601       -13.7853
 207   2.0000      -0.502035       -13.6611
 208   2.0000      -0.501531       -13.6473
 209   2.0000      -0.499845       -13.6015
 210   2.0000      -0.495991       -13.4966
 211   2.0000      -0.492752       -13.4085
 212   2.0000      -0.492027       -13.3887
 213   2.0000      -0.489118       -13.3096
 214   2.0000      -0.486926       -13.2499
 215   2.0000      -0.485669       -13.2157
 216   2.0000      -0.484428       -13.1820
 217   2.0000      -0.481498       -13.1022
 218   2.0000      -0.477759       -13.0005
 219   2.0000      -0.476465       -12.9653
 220   2.0000      -0.473253       -12.8779
 221   2.0000      -0.470248       -12.7961
 222   2.0000      -0.468957       -12.7610
 223   2.0000      -0.466260       -12.6876
 224   2.0000      -0.465744       -12.6735
 225   2.0000      -0.463759       -12.6195
 226   2.0000      -0.462489       -12.5850
 227   2.0000      -0.460979       -12.5439
 228   2.0000      -0.459473       -12.5029
 229   2.0000      -0.458351       -12.4724
 230   2.0000      -0.456278       -12.4160
 231   2.0000      -0.455980       -12.4078
 232   2.0000      -0.454060       -12.3556
 233   2.0000      -0.452801       -12.3213
 234   2.0000      -0.452636       -12.3169
 235   2.0000      -0.450537       -12.2597
 236   2.0000      -0.450117       -12.2483
 237   2.0000      -0.448041       -12.1918
 238   2.0000      -0.446732       -12.1562
 239   2.0000      -0.446337       -12.1454
 240   2.0000      -0.443917       -12.0796
 241   2.0000      -0.441425       -12.0118
 242   2.0000      -0.437862       -11.9148
 243   2.0000      -0.437421       -11.9028
 244   2.0000      -0.436269       -11.8715
 245   2.0000      -0.434605       -11.8262
 246   2.0000      -0.434292       -11.8177
 247   2.0000      -0.433031       -11.7834
 248   2.0000      -0.430427       -11.7125
 249   2.0000      -0.429722       -11.6933
 250   2.0000      -0.429081       -11.6759
 251   2.0000      -0.424496       -11.5511
 252   2.0000      -0.423742       -11.5306
 253   2.0000      -0.422391       -11.4938
 254   2.0000      -0.420561       -11.4440
 255   2.0000      -0.418369       -11.3844
 256   2.0000      -0.415510       -11.3066
 257   2.0000      -0.415262       -11.2999
 258   2.0000      -0.412367       -11.2211
 259   2.0000      -0.403030       -10.9670
 260   2.0000      -0.391547       -10.6545
 261   2.0000      -0.390312       -10.6209
 262   2.0000      -0.384206       -10.4548
 263   2.0000      -0.373323       -10.1586
 264   2.0000      -0.361399        -9.8342
 265   2.0000      -0.358457        -9.7541
 266   2.0000      -0.352350        -9.5879
 267   2.0000      -0.346902        -9.4397
 268   2.0000      -0.342020        -9.3068
 269   2.0000      -0.339295        -9.2327
 270   2.0000      -0.337079        -9.1724
 271   2.0000      -0.333659        -9.0793
 272   2.0000      -0.319075        -8.6825
 273   2.0000      -0.309708        -8.4276
 274   2.0000      -0.293892        -7.9972
 275   2.0000      -0.292454        -7.9581
 276   2.0000      -0.284713        -7.7474
 277   2.0000      -0.276974        -7.5369
 278   2.0000      -0.269185        -7.3249
 279   2.0000      -0.267550        -7.2804
 280   2.0000      -0.237315        -6.4577
 281   0.0000      -0.117229        -3.1900
 282   0.0000      -0.106678        -2.9029
 283   0.0000      -0.094156        -2.5621
 284   0.0000      -0.087404        -2.3784
 285   0.0000      -0.068821        -1.8727

MULLIKEN ATOMIC CHARGES
-----------------------
   0 C :   -0.032959
   1 C :    0.042532
   2 C :    0.049065
   3 C :   -0.032481
   4 C :    0.009845
   5 C :    0.011425
   6 C :    0.303874
   7 C :   -0.351488
   8 C :   -0.184920
   9 N :    0.154289
  10 C :   -0.173840
  11 N :    0.137833
  12 C :   -0.086559
  13 C :    0.212625
  14 C :   -0.327534
  15 C :   -0.187510
  16 N :    0.165369
  17 C :   -0.180684
  18 N :    0.158239
  19 C :    0.017615
  20 C :   -0.228940
  21 S :    0.116848
  22 C :   -0.142217
  23 C :    0.147753
  24 C :    0.207722
  25 N :   -0.023949
  26 C :    0.076981
  27 S :   -0.227125
  28 N :   -0.039741
  29 C :   -0.016636
  30 C :    0.051951
  31 C :   -0.084189
  32 S :    0.170296
  33 C :   -0.084563
  34 C :    0.006938
  35 C :   -0.028858
  36 C :   -0.111804
  37 C :    0.106004
  38 C :    0.101720
  39 C :    0.010437
  40 C :   -0.087262
  41 S :    0.159807
  42 C :   -0.087011
  43 C :   -0.032188
  44 C :    0.040654
  45 C :    0.069482
  46 C :   -0.206183
  47 S :    0.135994
  48 C :   -0.222942
  49 C :    0.150402
  50 C :    0.141411
  51 N :   -0.049376
  52 C :    0.076940
  53 S :   -0.234948
  54 N :   -0.027778
  55 C :    0.086263
  56 C :   -0.063398
  57 C :    0.038529
  58 C :   -0.083431
  59 C :    0.307565
  60 C :   -0.347803
  61 C :   -0.184923
  62 N :    0.159900
  63 C :   -0.187677
  64 N :    0.157758
  65 C :    0.017928
  66 C :   -0.002329
  67 C :   -0.031675
  68 C :    0.049078
  69 C :    0.048456
  70 C :   -0.038240
  71 C :    0.224042
  72 C :   -0.343127
  73 C :   -0.185337
  74 N :    0.160163
  75 C :   -0.119848
  76 N :    0.118162
  77 H :    0.004724
  78 H :    0.004457
  79 H :    0.003067
  80 H :    0.003801
  81 H :    0.001651
  82 H :    0.157050
  83 H :    0.139118
  84 H :   -0.020177
  85 H :    0.002621
  86 H :   -0.021843
  87 H :    0.011958
  88 H :    0.024974
  89 H :    0.014668
  90 H :    0.013459
  91 H :    0.013976
  92 H :    0.026514
  93 H :   -0.019180
  94 H :   -0.037406
  95 H :   -0.021427
  96 H :    0.139151
  97 H :    0.153768
  98 H :    0.010249
  99 H :    0.017131
 100 H :    0.033727
 101 H :    0.006046
 102 H :    0.004692
 103 H :    0.005814
 104 H :    0.006994
Sum of atomic charges:   -0.0000000

LOEWDIN ATOMIC CHARGES
----------------------
   0 C :    0.005313
   1 C :   -0.000871
   2 C :    0.003655
   3 C :   -0.000800
   4 C :   -0.009188
   5 C :   -0.014243
   6 C :    0.081302
   7 C :   -0.142875
   8 C :   -0.020208
   9 N :   -0.050172
  10 C :   -0.015631
  11 N :   -0.059591
  12 C :   -0.075945
  13 C :    0.058419
  14 C :   -0.141912
  15 C :   -0.033982
  16 N :   -0.053342
  17 C :   -0.020334
  18 N :   -0.049671
  19 C :    0.035972
  20 C :   -0.209161
  21 S :    0.439396
  22 C :   -0.149406
  23 C :   -0.027050
  24 C :    0.033885
  25 N :    0.062686
  26 C :   -0.090383
  27 S :   -0.096358
  28 N :    0.045232
  29 C :   -0.057498
  30 C :   -0.018924
  31 C :   -0.171709
  32 S :    0.454208
  33 C :   -0.188747
  34 C :   -0.033318
  35 C :   -0.040464
  36 C :   -0.035314
  37 C :   -0.023160
  38 C :   -0.023449
  39 C :   -0.029683
  40 C :   -0.195711
  41 S :    0.446641
  42 C :   -0.165402
  43 C :   -0.046846
  44 C :   -0.036381
  45 C :   -0.044085
  46 C :   -0.173946
  47 S :    0.421889
  48 C :   -0.214881
  49 C :    0.012939
  50 C :   -0.022050
  51 N :    0.041808
  52 C :   -0.091365
  53 S :   -0.100760
  54 N :    0.058547
  55 C :    0.019883
  56 C :   -0.051991
  57 C :    0.061198
  58 C :   -0.069462
  59 C :    0.076075
  60 C :   -0.132346
  61 C :   -0.021553
  62 N :   -0.043075
  63 C :   -0.019084
  64 N :   -0.046280
  65 C :   -0.011607
  66 C :   -0.013769
  67 C :    0.002444
  68 C :    0.003366
  69 C :    0.003376
  70 C :    0.004770
  71 C :    0.073323
  72 C :   -0.148461
  73 C :   -0.023154
  74 N :   -0.050470
  75 C :    0.023503
  76 N :   -0.064572
  77 H :    0.041391
  78 H :    0.037368
  79 H :    0.037030
  80 H :    0.040083
  81 H :    0.045553
  82 H :    0.108316
  83 H :    0.098205
  84 H :    0.029990
  85 H :    0.027829
  86 H :    0.029643
  87 H :    0.024490
  88 H :    0.031444
  89 H :    0.025300
  90 H :    0.024884
  91 H :    0.025018
  92 H :    0.032015
  93 H :    0.030317
  94 H :    0.022347
  95 H :    0.030925
  96 H :    0.092851
  97 H :    0.082910
  98 H :    0.036492
  99 H :    0.038353
 100 H :    0.048941
 101 H :    0.040987
 102 H :    0.037828
 103 H :    0.038323
 104 H :    0.041971

  Mayer bond orders larger than 0.100000
B(  0-C ,  1-C ) :   1.3677 B(  0-C ,  5-C ) :   1.3844 B(  0-C , 77-H ) :   0.9847
B(  1-C ,  2-C ) :   1.3826 B(  1-C , 78-H ) :   0.9857 B(  2-C ,  3-C ) :   1.3586
B(  2-C , 79-H ) :   0.9867 B(  3-C ,  4-C ) :   1.3879 B(  3-C , 80-H ) :   0.9876
B(  4-C ,  5-C ) :   1.3149 B(  4-C , 13-C ) :   1.0117 B(  5-C ,  6-C ) :   0.9989
B(  6-C ,  7-C ) :   1.6191 B(  6-C , 12-C ) :   1.0787 B(  7-C ,  8-C ) :   1.1461
B(  7-C , 10-C ) :   1.1448 B(  8-C ,  9-N ) :   2.9748 B( 10-C , 11-N ) :   2.9583
B( 12-C , 13-C ) :   1.0392 B( 12-C , 19-C ) :   1.5251 B( 13-C , 14-C ) :   1.6309
B( 14-C , 15-C ) :   1.1480 B( 14-C , 17-C ) :   1.1487 B( 15-C , 16-N ) :   3.0181
B( 17-C , 18-N ) :   2.9932 B( 19-C , 20-C ) :   1.2737 B( 19-C , 81-H ) :   0.9274
B( 20-C , 21-S ) :   1.0471 B( 20-C , 24-C ) :   1.3575 B( 21-S , 22-C ) :   1.0740
B( 22-C , 23-C ) :   1.4070 B( 22-C , 29-C ) :   1.2182 B( 23-C , 24-C ) :   1.2575
B( 23-C , 28-N ) :   1.1406 B( 24-C , 25-N ) :   1.2127 B( 25-N , 26-C ) :   1.1170
B( 25-N , 82-H ) :   0.9170 B( 26-C , 27-S ) :   1.6695 B( 26-C , 28-N ) :   1.1454
B( 28-N , 83-H ) :   0.9249 B( 29-C , 30-C ) :   1.6131 B( 29-C , 84-H ) :   0.9753
B( 30-C , 31-C ) :   1.1571 B( 30-C , 85-H ) :   0.9603 B( 31-C , 32-S ) :   1.1003
B( 31-C , 35-C ) :   1.4181 B( 32-S , 33-C ) :   1.1014 B( 33-C , 34-C ) :   1.4944
B( 33-C , 40-C ) :   1.1931 B( 34-C , 35-C ) :   1.3550 B( 34-C , 36-C ) :   0.9391
B( 35-C , 86-H ) :   0.9970 B( 36-C , 37-C ) :   1.0321 B( 36-C , 38-C ) :   1.0349
B( 36-C , 39-C ) :   0.9398 B( 37-C , 87-H ) :   0.9648 B( 37-C , 88-H ) :   0.9643
B( 37-C , 89-H ) :   0.9648 B( 38-C , 90-H ) :   0.9646 B( 38-C , 91-H ) :   0.9647
B( 38-C , 92-H ) :   0.9650 B( 39-C , 40-C ) :   1.5035 B( 39-C , 43-C ) :   1.3412
B( 40-C , 41-S ) :   1.0906 B( 41-S , 42-C ) :   1.1049 B( 42-C , 43-C ) :   1.4330
B( 42-C , 44-C ) :   1.1562 B( 43-C , 93-H ) :   0.9983 B( 44-C , 45-C ) :   1.6511
B( 44-C , 94-H ) :   0.9539 B( 45-C , 46-C ) :   1.1676 B( 45-C , 95-H ) :   0.9482
B( 46-C , 47-S ) :   1.0935 B( 46-C , 50-C ) :   1.4163 B( 47-S , 48-C ) :   1.0455
B( 48-C , 49-C ) :   1.3884 B( 48-C , 55-C ) :   1.2265 B( 49-C , 50-C ) :   1.2724
B( 49-C , 54-N ) :   1.2043 B( 50-C , 51-N ) :   1.1470 B( 51-N , 52-C ) :   1.1308
B( 51-N , 96-H ) :   0.9221 B( 52-C , 53-S ) :   1.6569 B( 52-C , 54-N ) :   1.1390
B( 54-N , 97-H ) :   0.8782 B( 55-C , 56-C ) :   1.5770 B( 55-C , 98-H ) :   0.9482
B( 56-C , 57-C ) :   1.2188 B( 56-C , 99-H ) :   0.9574 B( 57-C , 58-C ) :   1.5485
B( 57-C ,100-H ) :   0.9267 B( 58-C , 59-C ) :   1.0657 B( 58-C , 71-C ) :   1.0496
B( 59-C , 60-C ) :   1.6332 B( 59-C , 65-C ) :   0.9924 B( 60-C , 61-C ) :   1.1396
B( 60-C , 63-C ) :   1.1478 B( 61-C , 62-N ) :   2.9682 B( 63-C , 64-N ) :   2.9735
B( 65-C , 66-C ) :   1.3120 B( 65-C , 70-C ) :   1.3823 B( 66-C , 67-C ) :   1.3808
B( 66-C , 71-C ) :   1.0069 B( 67-C , 68-C ) :   1.3658 B( 67-C ,101-H ) :   0.9872
B( 68-C , 69-C ) :   1.3774 B( 68-C ,102-H ) :   0.9861 B( 69-C , 70-C ) :   1.3677
B( 69-C ,103-H ) :   0.9862 B( 70-C ,104-H ) :   0.9840 B( 71-C , 72-C ) :   1.6136
B( 72-C , 73-C ) :   1.1401 B( 72-C , 75-C ) :   1.1772 B( 73-C , 74-N ) :   2.9917
B( 75-C , 76-N ) :   2.9083

-----------------------------------------------------------------------------
         ABSORPTION SPECTRUM VIA TRANSITION ELECTRIC DIPOLE MOMENTS
-----------------------------------------------------------------------------
State   Energy  Wavelength   fosc         T2         TX        TY        TZ
        (cm-1)    (nm)                  (au**2)     (au)      (au)      (au)
-----------------------------------------------------------------------------
   0   12622.6    792.2   2.481901513  64.73096   5.27849  -4.84276  -3.66281
   1   15552.9    643.0   0.053173573   1.12554  -0.21406  -0.76967  -0.69809
   2   17840.2    560.5   0.142427422   2.62826  -0.89956   0.48309  -1.25924
   3   19494.0    513.0   0.244675069   4.13204   0.14575  -1.92438  -0.63840
   4   19970.0    500.8   0.124735449   2.05630   0.67996  -1.17188  -0.46973
   5   20478.0    488.3   0.354984141   5.70685  -1.38057   0.04991  -1.94895
   6   21071.7    474.6   0.000500822   0.00782  -0.03349  -0.01353  -0.08075
   7   21196.7    471.8   0.015377048   0.23882   0.02852   0.19924   0.44532
   8   22427.2    445.9   0.202832512   2.97741   0.06952   0.90797   1.46566
   9   23063.2    433.6   0.000025795   0.00037  -0.01089   0.01506   0.00480
  10   24004.9    416.6   0.055014562   0.75449   0.28881   0.33986  -0.74537
  11   24417.9    409.5   0.280687246   3.78433   0.42808  -0.82371  -1.70956
  12   25527.9    391.7   0.040768003   0.52575  -0.06685  -0.62750  -0.35711
  13   26032.8    384.1   0.009673658   0.12233   0.05564  -0.32827  -0.10711
  14   26382.2    379.0   0.019724891   0.24614  -0.16435   0.46760   0.02190
  15   26628.9    375.5   0.131314818   1.62344  -0.96770   0.80816  -0.18406
  16   27604.9    362.3   0.085702774   1.02208   0.25295   0.97394   0.09762
  17   27933.7    358.0   0.186009731   2.19221   0.35861  -1.31689  -0.57395
  18   28759.7    347.7   0.038516973   0.44090  -0.44776   0.43568  -0.22494
  19   29139.5    343.2   0.024776813   0.27992   0.31475  -0.32196   0.27785
  20   29143.7    343.1   0.012576647   0.14207   0.17501  -0.02991   0.33248
  21   29191.4    342.6   0.075643236   0.85308   0.40220  -0.06540   0.82888
  22   30279.2    330.3   0.001183174   0.01286   0.01969   0.08571   0.07162
  23   30338.6    329.6   0.019903917   0.21598  -0.06658  -0.23542  -0.39513
  24   30680.6    325.9   0.186248764   1.99851   0.18008   1.38341  -0.22858
  25   30824.6    324.4   0.068086393   0.72717   0.53806   0.33761   0.56893
  26   31034.8    322.2   0.089972511   0.95441   0.30017  -0.92165  -0.12194
  27   31703.7    315.4   0.011982297   0.12442  -0.03278   0.11050   0.33338
  28   32276.2    309.8   0.003610332   0.03682   0.05126  -0.18415   0.01691
  29   32635.6    306.4   0.697983815   7.04093   0.12845  -2.64459  -0.17489
  30   32718.3    305.6   0.120312014   1.21058  -0.55663   0.92084   0.22977
  31   33133.6    301.8   0.036165211   0.35933  -0.20646   0.44559  -0.34374
  32   33292.8    300.4   0.000167714   0.00166  -0.00851   0.01505  -0.03687
  33   33605.5    297.6   0.074291016   0.72778  -0.73724  -0.10134  -0.41713
  34   33902.8    295.0   0.180559931   1.75332  -0.33901  -0.73969  -1.04463
  35   33933.9    294.7   0.000071164   0.00069   0.00727  -0.01564   0.01982
  36   33950.4    294.5   0.100120337   0.97085  -0.24448  -0.57541  -0.76157
  37   34162.4    292.7   0.179377066   1.72860   0.47888  -0.87220   0.85939
  38   34502.5    289.8   0.100469911   0.95865   0.31269   0.42273   0.82594
  39   34756.9    287.7   0.094540847   0.89548   0.75007  -0.53835   0.20747
  40   35153.1    284.5   0.055664295   0.52130   0.42450   0.36205  -0.45829
  41   35406.3    282.4   0.058482946   0.54378   0.01406   0.50192   0.54006
  42   35445.9    282.1   0.002827318   0.02626  -0.01603  -0.14420   0.07217
  43   35795.9    279.4   0.111816785   1.02837   0.71778  -0.27895   0.65981
  44   36297.5    275.5   0.063837168   0.57899   0.60930  -0.38724   0.24040
  45   36624.5    273.0   0.023919313   0.21501   0.27586  -0.04678   0.36976
  46   36964.7    270.5   0.004635515   0.04128  -0.04285   0.03453   0.19559
  47   37124.8    269.4   0.018631764   0.16522  -0.16670   0.35182  -0.11685
  48   37283.9    268.2   0.000042634   0.00038   0.00216  -0.00522  -0.01856
  49   37312.9    268.0   0.000018791   0.00017   0.00851  -0.00065   0.00964
  50   37734.1    265.0   0.178419554   1.55662  -0.87329  -0.03379  -0.89042
  51   37804.1    264.5   0.082170433   0.71557  -0.05211   0.49656  -0.68285
  52   38399.4    260.4   0.028222426   0.24196   0.00258  -0.04663  -0.48967
  53   38542.6    259.5   0.104791727   0.89508   0.69668   0.03933   0.63889
  54   38959.8    256.7   0.000000571   0.00000  -0.00167   0.00087   0.00113
  55   39194.8    255.1   0.128321424   1.07782   0.00379  -0.34889  -0.97779
  56   39441.9    253.5   0.003539099   0.02954  -0.11779   0.04284   0.11760
  57   39888.0    250.7   0.158778495   1.31047   0.42486   0.14364   1.05324
  58   40159.5    249.0   0.026663264   0.21857   0.19638   0.23619  -0.35245

FINAL SINGLE POINT ENERGY     -5306.649971937578

DIPOLE MOMENT
-------------
                                X             Y             Z
Electronic contribution:    -21.09570      10.52554      -8.73534
Nuclear contribution   :     23.69039     -10.88954       9.90624
                        -----------------------------------------
Total Dipole Moment    :      2.59469      -0.36400       1.17090
                        -----------------------------------------
Magnitude (a.u.)       :      2.86983
Magnitude (Debye)      :      7.29453

Rotational constants in cm-1:     0.001802     0.000149     0.000143
Rotational constants in MHz :    54.033913     4.474758     4.282001

                             ****ORCA TERMINATED NORMALLY****
TOTAL RUN TIME: 0 days 0 hours 12 minutes 51 seconds 185 msec
