                         Program Version 4.2.0 -  RELEASE  -
|  1> # ORCA input file
|  2> # SCF done       -191.445323749346          0.000546603789
|  3> ! CAM-B3LYP def2-SVP def2/J RIJCOSX Grid4 TightSCF
|  4> %maxcore 5000
|  5> %tddft
|  6>     Mode sTDDFT
|  7>     Ethresh 5.0
|  8>     maxcore 5000
|  9> end
| 10>
| 11> %pal
| 12>   nprocs 6
| 13>   end
| 14> * xyz 0 1
| 15>    C      -12.52118        -5.25109         4.01806
| 16>    C      -13.35379        -6.02065         3.21894
| 17>    C      -13.27885        -5.95541         1.83501
| 18>    C      -12.37335        -5.11148         1.20922
| 19>    C      -11.53639        -4.33886         1.99650
| 20>    C      -11.60481        -4.41035         3.40635
| 21>    C      -10.60204        -3.51587         3.97151
| 22>    C      -10.45208        -3.21829         5.29973
| 23>    C      -11.26366        -3.74905         6.32533
| 24>    N      -11.88286        -4.13899         7.20969
| 25>    C       -9.51309        -2.31592         5.84333
| 26>    N       -8.78976        -1.59442         6.36774
| 27>    C       -9.80913        -3.01677         2.85374
| 28>    C      -10.52272        -3.36082         1.63497
| 29>    C      -10.43709        -2.71194         0.43198
| 30>    C       -9.64399        -1.57053         0.20368
| 31>    N       -9.04135        -0.62112        -0.02907
| 32>    C      -11.18040        -3.06721        -0.71119
| 33>    N      -11.73417        -3.32337        -1.68370
| 34>    C       -8.57104        -2.44291         2.98879
| 35>    C       -7.55867        -2.29356         2.02645
| 36>    C       -7.33294        -2.97770         0.81763
| 37>    N       -8.04796        -3.99259         0.30424
| 38>    C       -7.64081        -4.46255        -0.84995
| 39>    C       -6.51296        -3.95783        -1.52684
| 40>    N       -5.76587        -3.01018        -1.01432
| 41>    C       -6.15763        -2.51488         0.16198
| 42>    C       -5.46431        -1.50467         0.86631
| 43>    S       -6.27553        -1.15635         2.34382
| 44>    C       -4.29951        -0.90883         0.34812
| 45>    S       -3.74393        -1.42937        -1.21520
| 46>    C       -3.45982         0.07538         0.88391
| 47>    C       -3.67284         0.68611         2.19259
| 48>    O       -4.60190         0.38117         2.93627
| 49>    C       -2.68061         1.68127         2.53022
| 50>    C       -2.56238         2.46493         3.65992
| 51>    N       -1.46951         3.24898         3.52549
| 52>    C       -1.05019         4.25773         4.46631
| 53>    C       -1.71089         5.60002         4.15929
| 54>    C       -0.87766         3.00363         2.33159
| 55>    C       -1.59547         2.02816         1.67519
| 56>    C       -1.36188         1.42426         0.37205
| 57>    O       -0.43498         1.73834        -0.35389
| 58>    C       -2.37567         0.40294         0.03331
| 59>    C       -2.38408        -0.33019        -1.15343
| 60>    C       -1.44482        -0.26050        -2.20311
| 61>    C       -1.58351        -0.94758        -3.37298
| 62>    C       -0.65605        -0.89705        -4.42794
| 63>    C        0.59259        -0.23719        -4.48658
| 64>    N        1.13193         0.50642        -3.51341
| 65>    C        2.30023         1.04011        -3.76340
| 66>    C        2.94073         0.89864        -5.01198
| 67>    N        2.44389         0.16934        -5.97996
| 68>    C        1.27992        -0.44937        -5.71962
| 69>    C        0.57976        -1.28723        -6.61155
| 70>    S       -0.94180        -1.74031        -5.90522
| 71>    C        0.89316        -1.67948        -7.91996
| 72>    C        2.12994        -1.68067        -8.51935
| 73>    C        3.43676        -1.64671        -7.88631
| 74>    C        3.75643        -2.14603        -6.65022
| 75>    C        2.83753        -2.77982        -5.79250
| 76>    N        2.13298        -3.32862        -5.07012
| 77>    C        5.05532        -2.13514        -6.10535
| 78>    N        6.08288        -2.13381        -5.59308
| 79>    C        4.39488        -1.24941        -8.90580
| 80>    C        3.74298        -1.26009       -10.15948
| 81>    C        4.44512        -0.94709       -11.31246
| 82>    C        5.78826        -0.61693       -11.20413
| 83>    C        6.42403        -0.59896        -9.97128
| 84>    C        5.73584        -0.91865        -8.81010
| 85>    C        2.34294        -1.61478        -9.95840
| 86>    C        1.42055        -1.82338       -10.95041
| 87>    C        1.70748        -1.73468       -12.32925
| 88>    N        1.86575        -1.68196       -13.46501
| 89>    C        0.07229        -2.19045       -10.75776
| 90>    N       -1.03354        -2.49269       -10.68437
| 91>    H      -12.59097        -5.31931         5.09115
| 92>    H      -14.06767        -6.68269         3.68479
| 93>    H      -13.93234        -6.57018         1.23500
| 94>    H      -12.31867        -5.07313         0.13345
| 95>    H       -8.29080        -2.09715         3.97583
| 96>    H       -8.21919        -5.27733        -1.26278
| 97>    H       -6.20919        -4.35111        -2.48580
| 98>    H       -3.18585         2.49503         4.53137
| 99>    H        0.03699         4.35412         4.41026
|100>    H       -1.32132         3.92873         5.47251
|101>    H       -1.44426         5.93422         3.15954
|102>    H       -1.38287         6.34722         4.87603
|103>    H       -2.79304         5.51202         4.21734
|104>    H        0.00891         3.51811         2.01831
|105>    H       -0.58631         0.38195        -2.05583
|106>    H       -2.45835        -1.56803        -3.52760
|107>    H        2.74064         1.62351        -2.96804
|108>    H        3.87362         1.40194        -5.22513
|109>    H        0.03993        -1.94443        -8.53050
|110>    H        3.96829        -0.95057       -12.27867
|111>    H        6.34333        -0.36682       -12.09537
|112>    H        7.46814        -0.33173        -9.91190
|113>    H        6.23758        -0.89545        -7.85645
|114> *
|115>
|116>                          ****END OF INPUT****

CARTESIAN COORDINATES (ANGSTROEM)
---------------------------------
  C    -12.521180   -5.251090    4.018060
  C    -13.353790   -6.020650    3.218940
  C    -13.278850   -5.955410    1.835010
  C    -12.373350   -5.111480    1.209220
  C    -11.536390   -4.338860    1.996500
  C    -11.604810   -4.410350    3.406350
  C    -10.602040   -3.515870    3.971510
  C    -10.452080   -3.218290    5.299730
  C    -11.263660   -3.749050    6.325330
  N    -11.882860   -4.138990    7.209690
  C     -9.513090   -2.315920    5.843330
  N     -8.789760   -1.594420    6.367740
  C     -9.809130   -3.016770    2.853740
  C    -10.522720   -3.360820    1.634970
  C    -10.437090   -2.711940    0.431980
  C     -9.643990   -1.570530    0.203680
  N     -9.041350   -0.621120   -0.029070
  C    -11.180400   -3.067210   -0.711190
  N    -11.734170   -3.323370   -1.683700
  C     -8.571040   -2.442910    2.988790
  C     -7.558670   -2.293560    2.026450
  C     -7.332940   -2.977700    0.817630
  N     -8.047960   -3.992590    0.304240
  C     -7.640810   -4.462550   -0.849950
  C     -6.512960   -3.957830   -1.526840
  N     -5.765870   -3.010180   -1.014320
  C     -6.157630   -2.514880    0.161980
  C     -5.464310   -1.504670    0.866310
  S     -6.275530   -1.156350    2.343820
  C     -4.299510   -0.908830    0.348120
  S     -3.743930   -1.429370   -1.215200
  C     -3.459820    0.075380    0.883910
  C     -3.672840    0.686110    2.192590
  O     -4.601900    0.381170    2.936270
  C     -2.680610    1.681270    2.530220
  C     -2.562380    2.464930    3.659920
  N     -1.469510    3.248980    3.525490
  C     -1.050190    4.257730    4.466310
  C     -1.710890    5.600020    4.159290
  C     -0.877660    3.003630    2.331590
  C     -1.595470    2.028160    1.675190
  C     -1.361880    1.424260    0.372050
  O     -0.434980    1.738340   -0.353890
  C     -2.375670    0.402940    0.033310
  C     -2.384080   -0.330190   -1.153430
  C     -1.444820   -0.260500   -2.203110
  C     -1.583510   -0.947580   -3.372980
  C     -0.656050   -0.897050   -4.427940
  C      0.592590   -0.237190   -4.486580
  N      1.131930    0.506420   -3.513410
  C      2.300230    1.040110   -3.763400
  C      2.940730    0.898640   -5.011980
  N      2.443890    0.169340   -5.979960
  C      1.279920   -0.449370   -5.719620
  C      0.579760   -1.287230   -6.611550
  S     -0.941800   -1.740310   -5.905220
  C      0.893160   -1.679480   -7.919960
  C      2.129940   -1.680670   -8.519350
  C      3.436760   -1.646710   -7.886310
  C      3.756430   -2.146030   -6.650220
  C      2.837530   -2.779820   -5.792500
  N      2.132980   -3.328620   -5.070120
  C      5.055320   -2.135140   -6.105350
  N      6.082880   -2.133810   -5.593080
  C      4.394880   -1.249410   -8.905800
  C      3.742980   -1.260090  -10.159480
  C      4.445120   -0.947090  -11.312460
  C      5.788260   -0.616930  -11.204130
  C      6.424030   -0.598960   -9.971280
  C      5.735840   -0.918650   -8.810100
  C      2.342940   -1.614780   -9.958400
  C      1.420550   -1.823380  -10.950410
  C      1.707480   -1.734680  -12.329250
  N      1.865750   -1.681960  -13.465010
  C      0.072290   -2.190450  -10.757760
  N     -1.033540   -2.492690  -10.684370
  H    -12.590970   -5.319310    5.091150
  H    -14.067670   -6.682690    3.684790
  H    -13.932340   -6.570180    1.235000
  H    -12.318670   -5.073130    0.133450
  H     -8.290800   -2.097150    3.975830
  H     -8.219190   -5.277330   -1.262780
  H     -6.209190   -4.351110   -2.485800
  H     -3.185850    2.495030    4.531370
  H      0.036990    4.354120    4.410260
  H     -1.321320    3.928730    5.472510
  H     -1.444260    5.934220    3.159540
  H     -1.382870    6.347220    4.876030
  H     -2.793040    5.512020    4.217340
  H      0.008910    3.518110    2.018310
  H     -0.586310    0.381950   -2.055830
  H     -2.458350   -1.568030   -3.527600
  H      2.740640    1.623510   -2.968040
  H      3.873620    1.401940   -5.225130
  H      0.039930   -1.944430   -8.530500
  H      3.968290   -0.950570  -12.278670
  H      6.343330   -0.366820  -12.095370
  H      7.468140   -0.331730   -9.911900
  H      6.237580   -0.895450   -7.856450

 Total Charge           Charge          ....    0
 Multiplicity           Mult            ....    1
 Number of Electrons    NEL             ....  526
 Basis Dimension        Dim             .... 1191

ORBITAL ENERGIES
----------------

  NO   OCC          E(Eh)            E(eV)
   0   2.0000     -88.998167     -2421.7632
   1   2.0000     -88.997528     -2421.7459
   2   2.0000     -88.978737     -2421.2345
   3   2.0000     -19.222269      -523.0645
   4   2.0000     -19.209752      -522.7239
   5   2.0000     -14.498031      -394.5115
   6   2.0000     -14.451036      -393.2327
   7   2.0000     -14.444241      -393.0478
   8   2.0000     -14.443313      -393.0225
   9   2.0000     -14.442328      -392.9957
  10   2.0000     -14.419346      -392.3703
  11   2.0000     -14.419326      -392.3698
  12   2.0000     -14.416029      -392.2801
  13   2.0000     -14.415996      -392.2792
  14   2.0000     -14.415624      -392.2691
  15   2.0000     -14.415082      -392.2543
  16   2.0000     -14.414800      -392.2467
  17   2.0000     -14.413937      -392.2232
  18   2.0000     -10.377085      -282.3748
  19   2.0000     -10.370019      -282.1826
  20   2.0000     -10.345920      -281.5268
  21   2.0000     -10.344806      -281.4965
  22   2.0000     -10.344533      -281.4890
  23   2.0000     -10.343986      -281.4742
  24   2.0000     -10.343357      -281.4571
  25   2.0000     -10.343126      -281.4508
  26   2.0000     -10.343057      -281.4489
  27   2.0000     -10.341161      -281.3973
  28   2.0000     -10.341027      -281.3936
  29   2.0000     -10.339572      -281.3541
  30   2.0000     -10.339355      -281.3482
  31   2.0000     -10.339186      -281.3436
  32   2.0000     -10.338712      -281.3307
  33   2.0000     -10.337682      -281.3026
  34   2.0000     -10.337339      -281.2933
  35   2.0000     -10.337250      -281.2909
  36   2.0000     -10.334893      -281.2267
  37   2.0000     -10.334545      -281.2173
  38   2.0000     -10.334036      -281.2034
  39   2.0000     -10.332792      -281.1696
  40   2.0000     -10.327502      -281.0256
  41   2.0000     -10.325468      -280.9703
  42   2.0000     -10.324673      -280.9486
  43   2.0000     -10.324546      -280.9452
  44   2.0000     -10.323849      -280.9262
  45   2.0000     -10.321934      -280.8741
  46   2.0000     -10.321827      -280.8712
  47   2.0000     -10.321660      -280.8667
  48   2.0000     -10.318966      -280.7933
  49   2.0000     -10.318555      -280.7822
  50   2.0000     -10.317954      -280.7658
  51   2.0000     -10.317905      -280.7645
  52   2.0000     -10.317268      -280.7471
  53   2.0000     -10.317247      -280.7466
  54   2.0000     -10.317204      -280.7454
  55   2.0000     -10.313386      -280.6415
  56   2.0000     -10.311610      -280.5932
  57   2.0000     -10.307341      -280.4770
  58   2.0000     -10.307072      -280.4697
  59   2.0000     -10.306984      -280.4673
  60   2.0000     -10.306718      -280.4600
  61   2.0000     -10.306354      -280.4502
  62   2.0000     -10.305646      -280.4309
  63   2.0000     -10.301657      -280.3223
  64   2.0000     -10.297327      -280.2045
  65   2.0000     -10.296260      -280.1755
  66   2.0000     -10.295820      -280.1635
  67   2.0000     -10.295397      -280.1520
  68   2.0000     -10.295394      -280.1519
  69   2.0000     -10.295068      -280.1430
  70   2.0000     -10.294654      -280.1318
  71   2.0000     -10.294191      -280.1192
  72   2.0000     -10.293479      -280.0998
  73   2.0000     -10.288339      -279.9599
  74   2.0000     -10.280624      -279.7500
  75   2.0000     -10.279217      -279.7117
  76   2.0000      -8.092422      -220.2060
  77   2.0000      -8.089422      -220.1244
  78   2.0000      -8.072449      -219.6625
  79   2.0000      -6.061186      -164.9333
  80   2.0000      -6.058508      -164.8604
  81   2.0000      -6.057251      -164.8262
  82   2.0000      -6.055444      -164.7770
  83   2.0000      -6.053888      -164.7347
  84   2.0000      -6.052704      -164.7024
  85   2.0000      -6.041814      -164.4061
  86   2.0000      -6.037351      -164.2847
  87   2.0000      -6.034703      -164.2126
  88   2.0000      -1.139158       -30.9981
  89   2.0000      -1.127193       -30.6725
  90   2.0000      -1.117981       -30.4218
  91   2.0000      -1.104934       -30.0668
  92   2.0000      -1.101254       -29.9667
  93   2.0000      -1.033844       -28.1323
  94   2.0000      -1.031524       -28.0692
  95   2.0000      -1.027825       -27.9685
  96   2.0000      -1.022867       -27.8336
  97   2.0000      -1.015272       -27.6270
  98   2.0000      -1.013059       -27.5667
  99   2.0000      -1.012076       -27.5400
 100   2.0000      -1.006045       -27.3759
 101   2.0000      -1.003298       -27.3011
 102   2.0000      -1.002413       -27.2770
 103   2.0000      -0.997157       -27.1340
 104   2.0000      -0.995759       -27.0960
 105   2.0000      -0.995145       -27.0793
 106   2.0000      -0.992813       -27.0158
 107   2.0000      -0.992322       -27.0025
 108   2.0000      -0.954071       -25.9616
 109   2.0000      -0.953592       -25.9486
 110   2.0000      -0.947900       -25.7937
 111   2.0000      -0.934364       -25.4253
 112   2.0000      -0.933229       -25.3944
 113   2.0000      -0.927852       -25.2481
 114   2.0000      -0.909680       -24.7537
 115   2.0000      -0.898851       -24.4590
 116   2.0000      -0.890715       -24.2376
 117   2.0000      -0.887859       -24.1599
 118   2.0000      -0.885082       -24.0843
 119   2.0000      -0.875148       -23.8140
 120   2.0000      -0.873619       -23.7724
 121   2.0000      -0.864308       -23.5190
 122   2.0000      -0.861331       -23.4380
 123   2.0000      -0.860432       -23.4135
 124   2.0000      -0.851077       -23.1590
 125   2.0000      -0.846106       -23.0237
 126   2.0000      -0.834188       -22.6994
 127   2.0000      -0.819232       -22.2924
 128   2.0000      -0.792002       -21.5515
 129   2.0000      -0.788526       -21.4569
 130   2.0000      -0.786204       -21.3937
 131   2.0000      -0.785257       -21.3679
 132   2.0000      -0.777531       -21.1577
 133   2.0000      -0.774155       -21.0658
 134   2.0000      -0.772951       -21.0331
 135   2.0000      -0.768475       -20.9113
 136   2.0000      -0.756206       -20.5774
 137   2.0000      -0.733132       -19.9495
 138   2.0000      -0.727076       -19.7847
 139   2.0000      -0.718731       -19.5577
 140   2.0000      -0.712211       -19.3803
 141   2.0000      -0.710070       -19.3220
 142   2.0000      -0.709618       -19.3097
 143   2.0000      -0.707060       -19.2401
 144   2.0000      -0.705919       -19.2090
 145   2.0000      -0.678795       -18.4710
 146   2.0000      -0.674544       -18.3553
 147   2.0000      -0.669722       -18.2241
 148   2.0000      -0.663058       -18.0427
 149   2.0000      -0.661586       -18.0027
 150   2.0000      -0.660480       -17.9726
 151   2.0000      -0.660001       -17.9595
 152   2.0000      -0.658806       -17.9270
 153   2.0000      -0.657397       -17.8887
 154   2.0000      -0.644977       -17.5507
 155   2.0000      -0.640380       -17.4256
 156   2.0000      -0.636464       -17.3191
 157   2.0000      -0.631836       -17.1931
 158   2.0000      -0.629295       -17.1240
 159   2.0000      -0.627344       -17.0709
 160   2.0000      -0.609282       -16.5794
 161   2.0000      -0.598085       -16.2747
 162   2.0000      -0.596021       -16.2185
 163   2.0000      -0.591541       -16.0967
 164   2.0000      -0.583347       -15.8737
 165   2.0000      -0.581064       -15.8116
 166   2.0000      -0.580764       -15.8034
 167   2.0000      -0.579705       -15.7746
 168   2.0000      -0.572326       -15.5738
 169   2.0000      -0.569698       -15.5023
 170   2.0000      -0.566795       -15.4233
 171   2.0000      -0.562137       -15.2965
 172   2.0000      -0.559166       -15.2157
 173   2.0000      -0.557717       -15.1763
 174   2.0000      -0.554433       -15.0869
 175   2.0000      -0.550467       -14.9790
 176   2.0000      -0.547876       -14.9085
 177   2.0000      -0.540539       -14.7088
 178   2.0000      -0.539762       -14.6877
 179   2.0000      -0.537711       -14.6319
 180   2.0000      -0.536162       -14.5897
 181   2.0000      -0.534542       -14.5456
 182   2.0000      -0.533088       -14.5061
 183   2.0000      -0.532479       -14.4895
 184   2.0000      -0.531476       -14.4622
 185   2.0000      -0.529210       -14.4005
 186   2.0000      -0.524581       -14.2746
 187   2.0000      -0.523145       -14.2355
 188   2.0000      -0.514135       -13.9903
 189   2.0000      -0.512391       -13.9429
 190   2.0000      -0.508299       -13.8315
 191   2.0000      -0.507002       -13.7962
 192   2.0000      -0.505104       -13.7446
 193   2.0000      -0.502319       -13.6688
 194   2.0000      -0.502097       -13.6628
 195   2.0000      -0.500826       -13.6282
 196   2.0000      -0.494471       -13.4552
 197   2.0000      -0.493472       -13.4281
 198   2.0000      -0.489532       -13.3208
 199   2.0000      -0.486458       -13.2372
 200   2.0000      -0.481583       -13.1045
 201   2.0000      -0.480149       -13.0655
 202   2.0000      -0.479177       -13.0391
 203   2.0000      -0.477222       -12.9859
 204   2.0000      -0.474783       -12.9195
 205   2.0000      -0.471926       -12.8418
 206   2.0000      -0.468563       -12.7503
 207   2.0000      -0.463445       -12.6110
 208   2.0000      -0.460441       -12.5292
 209   2.0000      -0.459495       -12.5035
 210   2.0000      -0.458281       -12.4705
 211   2.0000      -0.457230       -12.4419
 212   2.0000      -0.455720       -12.4008
 213   2.0000      -0.454529       -12.3684
 214   2.0000      -0.453842       -12.3497
 215   2.0000      -0.451460       -12.2849
 216   2.0000      -0.450872       -12.2688
 217   2.0000      -0.450282       -12.2528
 218   2.0000      -0.450079       -12.2473
 219   2.0000      -0.448461       -12.2032
 220   2.0000      -0.444948       -12.1077
 221   2.0000      -0.443856       -12.0779
 222   2.0000      -0.443397       -12.0654
 223   2.0000      -0.442561       -12.0427
 224   2.0000      -0.441744       -12.0205
 225   2.0000      -0.434569       -11.8252
 226   2.0000      -0.432869       -11.7790
 227   2.0000      -0.429003       -11.6738
 228   2.0000      -0.428356       -11.6561
 229   2.0000      -0.427643       -11.6368
 230   2.0000      -0.426308       -11.6004
 231   2.0000      -0.425782       -11.5861
 232   2.0000      -0.424159       -11.5420
 233   2.0000      -0.423634       -11.5277
 234   2.0000      -0.417422       -11.3586
 235   2.0000      -0.416475       -11.3329
 236   2.0000      -0.411658       -11.2018
 237   2.0000      -0.410886       -11.1808
 238   2.0000      -0.408628       -11.1193
 239   2.0000      -0.407909       -11.0998
 240   2.0000      -0.406340       -11.0571
 241   2.0000      -0.402150       -10.9431
 242   2.0000      -0.399549       -10.8723
 243   2.0000      -0.378008       -10.2861
 244   2.0000      -0.377303       -10.2669
 245   2.0000      -0.372767       -10.1435
 246   2.0000      -0.361199        -9.8287
 247   2.0000      -0.351688        -9.5699
 248   2.0000      -0.347691        -9.4612
 249   2.0000      -0.346025        -9.4158
 250   2.0000      -0.343899        -9.3580
 251   2.0000      -0.341598        -9.2954
 252   2.0000      -0.341324        -9.2879
 253   2.0000      -0.335020        -9.1164
 254   2.0000      -0.333424        -9.0729
 255   2.0000      -0.332116        -9.0373
 256   2.0000      -0.325826        -8.8662
 257   2.0000      -0.323288        -8.7971
 258   2.0000      -0.314325        -8.5532
 259   2.0000      -0.306397        -8.3375
 260   2.0000      -0.299843        -8.1591
 261   2.0000      -0.277087        -7.5399
 262   2.0000      -0.249945        -6.8014
 263   0.0000      -0.125861        -3.4248
 264   0.0000      -0.106374        -2.8946
 265   0.0000      -0.082727        -2.2511
 266   0.0000      -0.081840        -2.2270
 267   0.0000      -0.062981        -1.7138

MULLIKEN ATOMIC CHARGES
-----------------------
   0 C :   -0.034981
   1 C :    0.045189
   2 C :    0.047913
   3 C :   -0.038741
   4 C :    0.007706
   5 C :    0.008232
   6 C :    0.296877
   7 C :   -0.347659
   8 C :   -0.190879
   9 N :    0.158543
  10 C :   -0.180088
  11 N :    0.154347
  12 C :   -0.068507
  13 C :    0.286272
  14 C :   -0.333266
  15 C :   -0.209334
  16 N :    0.174789
  17 C :   -0.199202
  18 N :    0.158716
  19 C :    0.062637
  20 C :   -0.208695
  21 C :    0.054160
  22 N :   -0.005301
  23 C :    0.043857
  24 C :    0.042550
  25 N :   -0.046641
  26 C :    0.008187
  27 C :   -0.093764
  28 S :    0.305765
  29 C :   -0.119418
  30 S :    0.177742
  31 C :   -0.007534
  32 C :    0.179044
  33 O :   -0.212212
  34 C :   -0.014604
  35 C :    0.012623
  36 N :   -0.131895
  37 C :    0.086675
  38 C :    0.001073
  39 C :    0.012838
  40 C :   -0.020474
  41 C :    0.136025
  42 O :   -0.156381
  43 C :    0.018170
  44 C :   -0.100797
  45 C :   -0.002769
  46 C :    0.029260
  47 C :   -0.105727
  48 C :    0.024381
  49 N :    0.008617
  50 C :    0.032656
  51 C :    0.051761
  52 N :   -0.013861
  53 C :    0.042015
  54 C :   -0.211263
  55 S :    0.241618
  56 C :    0.064242
  57 C :   -0.075251
  58 C :    0.297491
  59 C :   -0.346413
  60 C :   -0.205775
  61 N :    0.169874
  62 C :   -0.195444
  63 N :    0.155065
  64 C :    0.003012
  65 C :    0.011151
  66 C :   -0.034594
  67 C :    0.045264
  68 C :    0.048854
  69 C :   -0.039599
  70 C :    0.298202
  71 C :   -0.349326
  72 C :   -0.188715
  73 N :    0.153541
  74 C :   -0.175870
  75 N :    0.149126
  76 H :    0.005959
  77 H :    0.001791
  78 H :    0.002342
  79 H :    0.004429
  80 H :    0.007227
  81 H :    0.025437
  82 H :    0.020770
  83 H :    0.013486
  84 H :    0.036645
  85 H :    0.036784
  86 H :    0.030293
  87 H :    0.034320
  88 H :    0.034026
  89 H :    0.007712
  90 H :    0.047050
  91 H :   -0.009832
  92 H :    0.024131
  93 H :    0.023358
  94 H :    0.006138
  95 H :    0.002904
  96 H :    0.000741
  97 H :    0.001749
  98 H :    0.001457
Sum of atomic charges:   -0.0000000

LOEWDIN ATOMIC CHARGES
----------------------
   0 C :    0.004141
   1 C :   -0.001928
   2 C :    0.003175
   3 C :   -0.001018
   4 C :   -0.005361
   5 C :   -0.014741
   6 C :    0.080713
   7 C :   -0.135785
   8 C :   -0.018712
   9 N :   -0.049804
  10 C :   -0.022350
  11 N :   -0.047151
  12 C :   -0.053828
  13 C :    0.078402
  14 C :   -0.132574
  15 C :   -0.018905
  16 N :   -0.054583
  17 C :   -0.019853
  18 N :   -0.056376
  19 C :    0.033357
  20 C :   -0.208396
  21 C :   -0.032876
  22 N :   -0.034139
  23 C :    0.023113
  24 C :    0.014945
  25 N :   -0.045509
  26 C :   -0.043200
  27 C :   -0.178221
  28 S :    0.624091
  29 C :   -0.136182
  30 S :    0.511429
  31 C :   -0.079595
  32 C :    0.087273
  33 O :   -0.190682
  34 C :   -0.103361
  35 C :    0.037701
  36 N :    0.092320
  37 C :    0.044483
  38 C :   -0.056687
  39 C :    0.033672
  40 C :   -0.099673
  41 C :    0.079882
  42 O :   -0.155859
  43 C :   -0.074603
  44 C :   -0.136048
  45 C :    0.007092
  46 C :   -0.044944
  47 C :   -0.134437
  48 C :   -0.040225
  49 N :   -0.011056
  50 C :    0.011058
  51 C :    0.027629
  52 N :   -0.037041
  53 C :   -0.026990
  54 C :   -0.200898
  55 S :    0.543475
  56 C :    0.031563
  57 C :   -0.057454
  58 C :    0.080391
  59 C :   -0.138765
  60 C :   -0.018116
  61 N :   -0.057609
  62 C :   -0.020473
  63 N :   -0.058928
  64 C :   -0.005445
  65 C :   -0.014400
  66 C :    0.004182
  67 C :   -0.002286
  68 C :    0.002249
  69 C :   -0.001295
  70 C :    0.080712
  71 C :   -0.138228
  72 C :   -0.018790
  73 N :   -0.051018
  74 C :   -0.020621
  75 N :   -0.050744
  76 H :    0.041072
  77 H :    0.036586
  78 H :    0.036583
  79 H :    0.040068
  80 H :    0.044675
  81 H :    0.032624
  82 H :    0.031526
  83 H :    0.032493
  84 H :    0.034781
  85 H :    0.035091
  86 H :    0.030652
  87 H :    0.034743
  88 H :    0.031777
  89 H :    0.030419
  90 H :    0.041637
  91 H :    0.023587
  92 H :    0.032972
  93 H :    0.031988
  94 H :    0.044603
  95 H :    0.040710
  96 H :    0.036294
  97 H :    0.036309
  98 H :    0.039524

  Mayer bond orders larger than 0.100000
B(  0-C ,  1-C ) :   1.3698 B(  0-C ,  5-C ) :   1.3846 B(  0-C , 76-H ) :   0.9825
B(  1-C ,  2-C ) :   1.3809 B(  1-C , 77-H ) :   0.9855 B(  2-C ,  3-C ) :   1.3619
B(  2-C , 78-H ) :   0.9861 B(  3-C ,  4-C ) :   1.3857 B(  3-C , 79-H ) :   0.9858
B(  4-C ,  5-C ) :   1.3109 B(  4-C , 13-C ) :   1.0122 B(  5-C ,  6-C ) :   0.9974
B(  6-C ,  7-C ) :   1.6269 B(  6-C , 12-C ) :   1.0681 B(  7-C ,  8-C ) :   1.1494
B(  7-C , 10-C ) :   1.1363 B(  8-C ,  9-N ) :   2.9769 B( 10-C , 11-N ) :   2.9695
B( 12-C , 13-C ) :   1.0446 B( 12-C , 19-C ) :   1.5755 B( 13-C , 14-C ) :   1.6256
B( 14-C , 15-C ) :   1.1657 B( 14-C , 17-C ) :   1.1536 B( 15-C , 16-N ) :   3.0084
B( 17-C , 18-N ) :   2.9905 B( 19-C , 20-C ) :   1.2380 B( 19-C , 80-H ) :   0.9052
B( 20-C , 21-C ) :   1.2481 B( 20-C , 27-C ) :   0.1103 B( 20-C , 28-S ) :   1.1195
B( 21-C , 22-N ) :   1.4458 B( 21-C , 26-C ) :   1.2473 B( 22-N , 23-C ) :   1.6264
B( 23-C , 24-C ) :   1.2293 B( 23-C , 81-H ) :   0.9741 B( 24-C , 25-N ) :   1.6278
B( 24-C , 82-H ) :   0.9747 B( 25-N , 26-C ) :   1.4165 B( 26-C , 27-C ) :   1.2521
B( 27-C , 28-S ) :   1.2258 B( 27-C , 29-C ) :   1.2542 B( 28-S , 33-O ) :   0.1141
B( 29-C , 30-S ) :   1.1673 B( 29-C , 31-C ) :   1.4131 B( 30-S , 44-C ) :   1.0688
B( 31-C , 32-C ) :   0.9810 B( 31-C , 43-C ) :   1.2183 B( 32-C , 33-O ) :   2.0625
B( 32-C , 34-C ) :   1.0221 B( 34-C , 35-C ) :   1.4088 B( 34-C , 40-C ) :   1.2919
B( 35-C , 36-N ) :   1.2448 B( 35-C , 83-H ) :   0.9947 B( 36-N , 37-C ) :   0.9470
B( 36-N , 39-C ) :   1.2309 B( 37-C , 38-C ) :   1.1118 B( 37-C , 84-H ) :   0.9509
B( 37-C , 85-H ) :   0.9513 B( 38-C , 86-H ) :   0.9674 B( 38-C , 87-H ) :   0.9681
B( 38-C , 88-H ) :   0.9673 B( 39-C , 40-C ) :   1.4319 B( 39-C , 89-H ) :   0.9941
B( 40-C , 41-C ) :   0.9934 B( 41-C , 42-O ) :   2.2069 B( 41-C , 43-C ) :   0.9296
B( 43-C , 44-C ) :   1.4539 B( 44-C , 45-C ) :   1.1937 B( 45-C , 46-C ) :   1.5535
B( 45-C , 90-H ) :   0.9409 B( 46-C , 47-C ) :   1.1974 B( 46-C , 91-H ) :   0.9486
B( 47-C , 48-C ) :   1.2549 B( 47-C , 54-C ) :   0.1139 B( 47-C , 55-S ) :   1.2159
B( 48-C , 49-N ) :   1.4579 B( 48-C , 53-C ) :   1.2332 B( 49-N , 50-C ) :   1.6500
B( 50-C , 51-C ) :   1.2105 B( 50-C , 92-H ) :   0.9760 B( 51-C , 52-N ) :   1.6321
B( 51-C , 93-H ) :   0.9735 B( 52-N , 53-C ) :   1.4409 B( 53-C , 54-C ) :   1.2671
B( 54-C , 55-S ) :   1.1390 B( 54-C , 56-C ) :   1.2511 B( 56-C , 57-C ) :   1.5535
B( 56-C , 94-H ) :   0.9077 B( 57-C , 58-C ) :   1.0528 B( 57-C , 70-C ) :   1.0846
B( 58-C , 59-C ) :   1.6120 B( 58-C , 64-C ) :   1.0102 B( 59-C , 60-C ) :   1.1687
B( 59-C , 62-C ) :   1.1549 B( 60-C , 61-N ) :   3.0080 B( 62-C , 63-N ) :   2.9883
B( 64-C , 65-C ) :   1.3138 B( 64-C , 69-C ) :   1.3827 B( 65-C , 66-C ) :   1.3829
B( 65-C , 70-C ) :   0.9911 B( 66-C , 67-C ) :   1.3662 B( 66-C , 95-H ) :   0.9846
B( 67-C , 68-C ) :   1.3814 B( 67-C , 96-H ) :   0.9861 B( 68-C , 69-C ) :   1.3604
B( 68-C , 97-H ) :   0.9861 B( 69-C , 98-H ) :   0.9875 B( 70-C , 71-C ) :   1.6213
B( 71-C , 72-C ) :   1.1491 B( 71-C , 74-C ) :   1.1365 B( 72-C , 73-N ) :   2.9747
B( 74-C , 75-N ) :   2.9608

-----------------------------------------------------------------------------
         ABSORPTION SPECTRUM VIA TRANSITION ELECTRIC DIPOLE MOMENTS
-----------------------------------------------------------------------------
State   Energy  Wavelength   fosc         T2         TX        TY        TZ
        (cm-1)    (nm)                  (au**2)     (au)      (au)      (au)
-----------------------------------------------------------------------------
   0   12147.7    823.2   1.466138778  39.73345   4.71228   0.45936  -4.16135
   1   16233.6    616.0   0.265573097   5.38572   0.97157   1.54532   1.43310
   2   19427.1    514.7   0.000669020   0.01134  -0.04555   0.07458   0.06082
   3   21062.3    474.8   0.100124215   1.56498   0.77875   0.41014  -0.88899
   4   21520.3    464.7   0.149385973   2.28527   0.51452  -0.04813   1.42064
   5   22003.2    454.5   0.141031297   2.11011  -0.25716  -0.16510   1.42011
   6   22557.4    443.3   0.077935207   1.13742  -0.62337  -0.78148  -0.37166
   7   23718.4    421.6   0.050204493   0.69684  -0.70851   0.10944   0.42764
   8   24856.1    402.3   0.076000825   1.00661  -0.88126  -0.18221   0.44362
   9   25508.5    392.0   0.030835080   0.39796   0.34923   0.52140  -0.06433
  10   25699.4    389.1   0.043586536   0.55835  -0.08510   0.31260   0.67334
  11   26104.6    383.1   0.074631175   0.94119  -0.50374   0.62983   0.53922
  12   26288.0    380.4   0.106273758   1.33090  -0.11733   0.60448   0.97557
  13   26665.2    375.0   0.003092364   0.03818   0.16030  -0.11172   0.00131
  14   26839.1    372.6   0.014036913   0.17218   0.30507  -0.13991  -0.24400
  15   27026.6    370.0   0.012687801   0.15455  -0.18597  -0.22825  -0.26051
  16   28035.3    356.7   0.125469993   1.47337  -1.13206  -0.16972   0.40373
  17   28671.6    348.8   0.243912693   2.80065  -0.74102  -0.51583   1.40906
  18   28945.5    345.5   0.016555880   0.18830  -0.29620  -0.31645   0.02066
  19   29850.4    335.0   0.035418517   0.39062   0.08353  -0.26725   0.55877
  20   30119.4    332.0   0.033830345   0.36977  -0.41373  -0.30143  -0.32824
  21   30280.8    330.2   0.033760742   0.36705  -0.26810  -0.02030   0.54291
  22   30547.2    327.4   0.038467246   0.41457  -0.26081   0.42834  -0.40382
  23   30799.7    324.7   0.432001842   4.61759   0.50384   0.07911   2.08746
  24   31159.7    320.9   0.111674803   1.17988   0.17278   0.22124   1.04932
  25   31366.1    318.8   0.011459665   0.12028  -0.23288  -0.13483   0.21879
  26   31476.7    317.7   0.151439680   1.58390  -0.66669  -0.39123  -0.99316
  27   31802.9    314.4   0.090425731   0.93605  -0.66454  -0.46171   0.53035
  28   32006.0    312.4   0.078323572   0.80563   0.03141   0.88963   0.11490
  29   32300.4    309.6   0.058489549   0.59614   0.48425   0.52657  -0.29046
  30   32583.0    306.9   0.012910024   0.13044   0.03170   0.10871   0.34295
  31   32692.9    305.9   0.027994541   0.28190  -0.25076  -0.17470  -0.43417
  32   32985.0    303.2   0.071910176   0.71771  -0.03697   0.31531   0.78544
  33   33282.3    300.5   0.060540996   0.59884   0.13963  -0.27706   0.70893
  34   33391.7    299.5   0.001983017   0.01955   0.01738  -0.09280  -0.10313
  35   33533.8    298.2   0.197560709   1.93952   0.69269  -0.39344   1.14232
  36   33816.7    295.7   0.224284220   2.18345   1.00590   0.22835   1.05805
  37   34489.6    289.9   0.207348135   1.97919   0.48165   0.79749   1.05414
  38   34847.5    287.0   0.178466586   1.68601   0.91639   0.91991  -0.00241
  39   34899.1    286.5   0.004035263   0.03807   0.10117  -0.16321  -0.03454
  40   35132.9    284.6   0.084648075   0.79319  -0.59486  -0.61190   0.25477
  41   35514.7    281.6   0.016202119   0.15019  -0.10118   0.30447  -0.21737
  42   35973.3    278.0   0.011949465   0.10936  -0.32556   0.05793  -0.00310
  43   36391.0    274.8   0.025070681   0.22680   0.32073   0.22415  -0.27146
  44   36579.1    273.4   0.002865340   0.02579   0.08041  -0.13679   0.02470
  45   37018.4    270.1   0.117679893   1.04655  -0.78901  -0.56381  -0.32579
  46   37058.6    269.8   0.029786131   0.26461  -0.01662  -0.35733  -0.36965
  47   37455.3    267.0   0.133506848   1.17345  -1.04085  -0.24509   0.17328
  48   37690.1    265.3   0.044981961   0.39290  -0.57433  -0.22813  -0.10490
  49   37923.4    263.7   0.017300144   0.15018  -0.36740   0.02700  -0.12029
  50   38087.0    262.6   0.023575861   0.20378  -0.34859  -0.22971  -0.17175
  51   38218.0    261.7   0.047116629   0.40586   0.12797  -0.23666  -0.57748
  52   38362.5    260.7   0.063122816   0.54169  -0.58357  -0.43363   0.11451
  53   38742.3    258.1   0.174153834   1.47987  -0.79616  -0.34507   0.85260
  54   38779.1    257.9   0.051243816   0.43503   0.29261   0.08594  -0.58483
  55   38902.5    257.1   0.003428863   0.02902  -0.11858  -0.05340  -0.11002
  56   38970.3    256.6   0.030676426   0.25915  -0.44051  -0.13447  -0.21682
  57   39167.9    255.3   0.136283107   1.14548   0.76476   0.25755  -0.70306
  58   39229.0    254.9   0.024980893   0.20964  -0.22461  -0.18146   0.35533
  59   39388.0    253.9   0.024783078   0.20714   0.24968   0.34373  -0.16326
  60   39550.9    252.8   0.001171907   0.00975   0.08622  -0.01276  -0.04645
  61   39633.9    252.3   0.131156018   1.08942   0.30571   0.67005   0.73959
  62   39768.9    251.5   0.026236276   0.21719  -0.11678   0.06114   0.44700
  63   39899.5    250.6   0.142038690   1.17197   0.24266   0.38638  -0.98173
  64   40070.8    249.6   0.045551054   0.37424   0.22458   0.31900  -0.47121
  65   40151.8    249.1   0.042839674   0.35125   0.11129  -0.03633  -0.58099

FINAL SINGLE POINT ENERGY     -4276.331935278429

DIPOLE MOMENT
-------------
                                X             Y             Z
Electronic contribution:    -13.92329     -22.53745     -14.97053
Nuclear contribution   :     15.86430      24.65139      16.80106
                        -----------------------------------------
Total Dipole Moment    :      1.94101       2.11394       1.83054
                        -----------------------------------------
Magnitude (a.u.)       :      3.40399
Magnitude (Debye)      :      8.65224

Rotational constants in cm-1:     0.001439     0.000310     0.000266
Rotational constants in MHz :    43.143094     9.300460     7.959883

                             ****ORCA TERMINATED NORMALLY****
TOTAL RUN TIME: 0 days 0 hours 16 minutes 22 seconds 618 msec
