                         Program Version 4.2.0 -  RELEASE  -
|  1> # ORCA input file
|  2> # SCF done       -209.318227393928          0.000494984647
|  3> ! CAM-B3LYP def2-SVP def2/J RIJCOSX Grid4 TightSCF
|  4> %maxcore 5000
|  5> %tddft
|  6>     Mode sTDDFT
|  7>     Ethresh 5.0
|  8>     maxcore 5000
|  9> end
| 10>
| 11> %pal
| 12>   nprocs 6
| 13>   end
| 14> * xyz 0 1
| 15>    C      -12.86016        -3.86865         0.32512
| 16>    C      -13.09831        -4.38593        -0.93962
| 17>    C      -12.72517        -5.68203        -1.26656
| 18>    C      -12.10883        -6.50282        -0.33393
| 19>    C      -11.86438        -5.99637         0.93133
| 20>    C      -12.23521        -4.67338         1.26492
| 21>    C      -11.84099        -4.40410         2.64202
| 22>    C      -12.13041        -3.27141         3.35602
| 23>    C      -12.87325        -2.18366         2.84933
| 24>    N      -13.46578        -1.26483         2.50071
| 25>    C      -11.76218        -3.04160         4.69780
| 26>    N      -11.48827        -2.79662         5.78638
| 27>    C      -11.07360        -5.56087         3.08987
| 28>    C      -11.28477        -6.61855         2.11017
| 29>    C      -11.22614        -7.96243         2.36272
| 30>    C      -10.98749        -8.48988         3.65022
| 31>    N      -10.85382        -8.93959         4.69714
| 32>    C      -11.48219        -8.95702         1.39825
| 33>    N      -11.64863        -9.80396         0.64176
| 34>    C      -10.22961        -5.55243         4.16576
| 35>    C       -9.12852        -6.38898         4.44580
| 36>    S       -8.30354        -7.29583         3.20569
| 37>    C       -7.06968        -7.78510         4.31781
| 38>    C       -7.29958        -7.27497         5.59635
| 39>    C       -8.45191        -6.47909         5.66527
| 40>    C       -8.95588        -5.84654         6.92178
| 41>    C       -7.81794        -5.41294         7.82146
| 42>    S       -6.98145        -6.94607         8.32435
| 43>    O       -5.83144        -6.63079         9.12385
| 44>    O       -7.96576        -7.83155         8.87107
| 45>    C       -6.38154        -7.58516         6.72685
| 46>    C       -6.00002        -8.62225         3.92134
| 47>    C       -5.90893        -9.22376         2.70819
| 48>    C       -4.87238       -10.10052         2.29385
| 49>    S       -4.55639       -10.20746         0.59046
| 50>    C       -3.12243       -11.14756         0.80821
| 51>    C       -2.90393       -11.38707         2.16985
| 52>    C       -3.93296       -10.85537         3.01483
| 53>    C       -3.90223       -11.14990         4.40610
| 54>    C       -5.05275       -10.95331         5.33193
| 55>    O       -4.94187       -10.51890         6.44623
| 56>    O       -6.24909       -11.35668         4.87032
| 57>    C       -2.78316       -11.74961         4.93277
| 58>    C       -1.70452       -12.12879         4.12718
| 59>    C       -1.75508       -11.98477         2.76188
| 60>    O       -0.73575       -12.35756         1.96074
| 61>    C       -2.41863       -11.68552        -0.31512
| 62>    S       -1.96769       -13.35784        -0.29412
| 63>    C       -1.31956       -13.25213        -1.89457
| 64>    C       -1.45670       -11.96396        -2.41159
| 65>    C       -2.09764       -11.08212        -1.52639
| 66>    C       -2.29808        -9.61740        -1.78573
| 67>    C       -2.46998        -9.31279        -3.25816
| 68>    S       -0.91169        -9.82117        -4.03212
| 69>    O       -0.93534        -9.56748        -5.44353
| 70>    O        0.17999        -9.28403        -3.27032
| 71>    C       -0.98364       -11.62265        -3.78255
| 72>    C       -0.78107       -14.38369        -2.54974
| 73>    C       -0.70981       -15.62278        -1.99628
| 74>    C       -0.17355       -16.78504        -2.60150
| 75>    C       -0.00811       -17.08901        -3.92466
| 76>    C        0.90135       -18.12995        -4.40273
| 77>    C        1.42018       -19.17509        -3.68827
| 78>    C        1.13960       -19.47470        -2.33754
| 79>    N        0.96011       -19.79124        -1.24851
| 80>    C        2.28785       -20.14797        -4.23163
| 81>    N        2.99363       -20.97164        -4.60602
| 82>    C        1.14967       -17.85656        -5.81165
| 83>    C        0.29137       -16.81524        -6.23107
| 84>    C        0.34040       -16.33992        -7.53143
| 85>    C        1.24656       -16.91230        -8.41127
| 86>    C        2.08346       -17.94176        -8.00403
| 87>    C        2.04549       -18.42405        -6.70424
| 88>    C       -0.55261       -16.43270        -5.10896
| 89>    C       -1.75753       -15.79174        -5.21888
| 90>    C       -2.26095       -15.26042        -6.42531
| 91>    N       -2.72106       -14.78257        -7.36175
| 92>    C       -2.68391       -15.62010        -4.17052
| 93>    N       -3.49633       -15.45841        -3.37592
| 94>    H      -13.15530        -2.85911         0.55901
| 95>    H      -13.58000        -3.76624        -1.68031
| 96>    H      -12.91623        -6.05869        -2.25969
| 97>    H      -11.81846        -7.50702        -0.59756
| 98>    H      -10.34451        -4.73002         4.85864
| 99>    H       -9.54273        -6.59380         7.46770
|100>    H       -9.61543        -5.00478         6.70089
|101>    H       -8.17546        -4.92098         8.72127
|102>    H       -7.08319        -4.78856         7.32117
|103>    H       -6.24731        -8.65990         6.86162
|104>    H       -5.40223        -7.12693         6.59036
|105>    H       -5.22365        -8.76627         4.65623
|106>    H       -6.64709        -8.98081         1.95300
|107>    H       -6.21030       -11.71489         3.97399
|108>    H       -2.75134       -11.94332         5.99348
|109>    H       -0.83005       -12.56766         4.58547
|110>    H       -0.01626       -12.72988         2.48766
|111>    H       -1.40039        -9.08834        -1.44621
|112>    H       -3.14857        -9.24065        -1.21724
|113>    H       -2.61229        -8.25215        -3.44379
|114>    H       -3.26259        -9.88560        -3.73052
|115>    H        0.02247       -11.99373        -3.96917
|116>    H       -1.65615       -11.99765        -4.55418
|117>    H       -0.39116       -14.21662        -3.54477
|118>    H       -1.01802       -15.73225        -0.96404
|119>    H        0.20627       -17.51130        -1.89460
|120>    H       -0.29706       -15.53431        -7.85774
|121>    H        1.30113       -16.54805        -9.42553
|122>    H        2.78007       -18.37306        -8.70632
|123>    H        2.70888       -19.21818        -6.40422
|124> *
|125>
|126>                          ****END OF INPUT****

CARTESIAN COORDINATES (ANGSTROEM)
---------------------------------
  C    -12.860160   -3.868650    0.325120
  C    -13.098310   -4.385930   -0.939620
  C    -12.725170   -5.682030   -1.266560
  C    -12.108830   -6.502820   -0.333930
  C    -11.864380   -5.996370    0.931330
  C    -12.235210   -4.673380    1.264920
  C    -11.840990   -4.404100    2.642020
  C    -12.130410   -3.271410    3.356020
  C    -12.873250   -2.183660    2.849330
  N    -13.465780   -1.264830    2.500710
  C    -11.762180   -3.041600    4.697800
  N    -11.488270   -2.796620    5.786380
  C    -11.073600   -5.560870    3.089870
  C    -11.284770   -6.618550    2.110170
  C    -11.226140   -7.962430    2.362720
  C    -10.987490   -8.489880    3.650220
  N    -10.853820   -8.939590    4.697140
  C    -11.482190   -8.957020    1.398250
  N    -11.648630   -9.803960    0.641760
  C    -10.229610   -5.552430    4.165760
  C     -9.128520   -6.388980    4.445800
  S     -8.303540   -7.295830    3.205690
  C     -7.069680   -7.785100    4.317810
  C     -7.299580   -7.274970    5.596350
  C     -8.451910   -6.479090    5.665270
  C     -8.955880   -5.846540    6.921780
  C     -7.817940   -5.412940    7.821460
  S     -6.981450   -6.946070    8.324350
  O     -5.831440   -6.630790    9.123850
  O     -7.965760   -7.831550    8.871070
  C     -6.381540   -7.585160    6.726850
  C     -6.000020   -8.622250    3.921340
  C     -5.908930   -9.223760    2.708190
  C     -4.872380  -10.100520    2.293850
  S     -4.556390  -10.207460    0.590460
  C     -3.122430  -11.147560    0.808210
  C     -2.903930  -11.387070    2.169850
  C     -3.932960  -10.855370    3.014830
  C     -3.902230  -11.149900    4.406100
  C     -5.052750  -10.953310    5.331930
  O     -4.941870  -10.518900    6.446230
  O     -6.249090  -11.356680    4.870320
  C     -2.783160  -11.749610    4.932770
  C     -1.704520  -12.128790    4.127180
  C     -1.755080  -11.984770    2.761880
  O     -0.735750  -12.357560    1.960740
  C     -2.418630  -11.685520   -0.315120
  S     -1.967690  -13.357840   -0.294120
  C     -1.319560  -13.252130   -1.894570
  C     -1.456700  -11.963960   -2.411590
  C     -2.097640  -11.082120   -1.526390
  C     -2.298080   -9.617400   -1.785730
  C     -2.469980   -9.312790   -3.258160
  S     -0.911690   -9.821170   -4.032120
  O     -0.935340   -9.567480   -5.443530
  O      0.179990   -9.284030   -3.270320
  C     -0.983640  -11.622650   -3.782550
  C     -0.781070  -14.383690   -2.549740
  C     -0.709810  -15.622780   -1.996280
  C     -0.173550  -16.785040   -2.601500
  C     -0.008110  -17.089010   -3.924660
  C      0.901350  -18.129950   -4.402730
  C      1.420180  -19.175090   -3.688270
  C      1.139600  -19.474700   -2.337540
  N      0.960110  -19.791240   -1.248510
  C      2.287850  -20.147970   -4.231630
  N      2.993630  -20.971640   -4.606020
  C      1.149670  -17.856560   -5.811650
  C      0.291370  -16.815240   -6.231070
  C      0.340400  -16.339920   -7.531430
  C      1.246560  -16.912300   -8.411270
  C      2.083460  -17.941760   -8.004030
  C      2.045490  -18.424050   -6.704240
  C     -0.552610  -16.432700   -5.108960
  C     -1.757530  -15.791740   -5.218880
  C     -2.260950  -15.260420   -6.425310
  N     -2.721060  -14.782570   -7.361750
  C     -2.683910  -15.620100   -4.170520
  N     -3.496330  -15.458410   -3.375920
  H    -13.155300   -2.859110    0.559010
  H    -13.580000   -3.766240   -1.680310
  H    -12.916230   -6.058690   -2.259690
  H    -11.818460   -7.507020   -0.597560
  H    -10.344510   -4.730020    4.858640
  H     -9.542730   -6.593800    7.467700
  H     -9.615430   -5.004780    6.700890
  H     -8.175460   -4.920980    8.721270
  H     -7.083190   -4.788560    7.321170
  H     -6.247310   -8.659900    6.861620
  H     -5.402230   -7.126930    6.590360
  H     -5.223650   -8.766270    4.656230
  H     -6.647090   -8.980810    1.953000
  H     -6.210300  -11.714890    3.973990
  H     -2.751340  -11.943320    5.993480
  H     -0.830050  -12.567660    4.585470
  H     -0.016260  -12.729880    2.487660
  H     -1.400390   -9.088340   -1.446210
  H     -3.148570   -9.240650   -1.217240
  H     -2.612290   -8.252150   -3.443790
  H     -3.262590   -9.885600   -3.730520
  H      0.022470  -11.993730   -3.969170
  H     -1.656150  -11.997650   -4.554180
  H     -0.391160  -14.216620   -3.544770
  H     -1.018020  -15.732250   -0.964040
  H      0.206270  -17.511300   -1.894600
  H     -0.297060  -15.534310   -7.857740
  H      1.301130  -16.548050   -9.425530
  H      2.780070  -18.373060   -8.706320
  H      2.708880  -19.218180   -6.404220

 Total Charge           Charge          ....    0
 Multiplicity           Mult            ....    1
 Number of Electrons    NEL             ....  576
 Basis Dimension        Dim             .... 1276

ORBITAL ENERGIES
----------------

  NO   OCC          E(Eh)            E(eV)
   0   2.0000     -89.150046     -2425.8961
   1   2.0000     -89.132416     -2425.4164
   2   2.0000     -89.004108     -2421.9249
   3   2.0000     -88.985754     -2421.4255
   4   2.0000     -88.981817     -2421.3183
   5   2.0000     -19.289222      -524.8864
   6   2.0000     -19.273995      -524.4721
   7   2.0000     -19.216817      -522.9162
   8   2.0000     -19.206024      -522.6225
   9   2.0000     -19.201399      -522.4966
  10   2.0000     -19.187970      -522.1312
  11   2.0000     -19.183104      -521.9988
  12   2.0000     -14.435144      -392.8002
  13   2.0000     -14.433756      -392.7625
  14   2.0000     -14.432462      -392.7272
  15   2.0000     -14.430430      -392.6720
  16   2.0000     -14.428834      -392.6285
  17   2.0000     -14.427585      -392.5946
  18   2.0000     -14.423784      -392.4911
  19   2.0000     -14.422266      -392.4498
  20   2.0000     -10.420390      -283.5532
  21   2.0000     -10.381413      -282.4926
  22   2.0000     -10.364150      -282.0229
  23   2.0000     -10.361418      -281.9485
  24   2.0000     -10.361065      -281.9389
  25   2.0000     -10.358922      -281.8806
  26   2.0000     -10.356721      -281.8207
  27   2.0000     -10.354756      -281.7672
  28   2.0000     -10.353988      -281.7463
  29   2.0000     -10.351740      -281.6852
  30   2.0000     -10.351576      -281.6807
  31   2.0000     -10.342511      -281.4340
  32   2.0000     -10.342031      -281.4210
  33   2.0000     -10.336894      -281.2812
  34   2.0000     -10.336301      -281.2650
  35   2.0000     -10.335985      -281.2564
  36   2.0000     -10.335817      -281.2519
  37   2.0000     -10.334948      -281.2282
  38   2.0000     -10.334387      -281.2130
  39   2.0000     -10.332931      -281.1733
  40   2.0000     -10.332904      -281.1726
  41   2.0000     -10.332379      -281.1583
  42   2.0000     -10.331445      -281.1329
  43   2.0000     -10.331162      -281.1252
  44   2.0000     -10.329943      -281.0921
  45   2.0000     -10.329535      -281.0809
  46   2.0000     -10.329117      -281.0696
  47   2.0000     -10.327789      -281.0334
  48   2.0000     -10.326541      -280.9995
  49   2.0000     -10.324521      -280.9445
  50   2.0000     -10.324142      -280.9342
  51   2.0000     -10.323963      -280.9293
  52   2.0000     -10.323610      -280.9197
  53   2.0000     -10.323548      -280.9180
  54   2.0000     -10.323494      -280.9166
  55   2.0000     -10.322828      -280.8984
  56   2.0000     -10.321696      -280.8676
  57   2.0000     -10.319878      -280.8182
  58   2.0000     -10.318327      -280.7760
  59   2.0000     -10.318194      -280.7723
  60   2.0000     -10.317845      -280.7628
  61   2.0000     -10.313964      -280.6572
  62   2.0000     -10.313538      -280.6456
  63   2.0000     -10.313531      -280.6455
  64   2.0000     -10.312845      -280.6268
  65   2.0000     -10.311752      -280.5970
  66   2.0000     -10.310790      -280.5709
  67   2.0000     -10.310691      -280.5682
  68   2.0000     -10.309804      -280.5440
  69   2.0000     -10.309126      -280.5256
  70   2.0000     -10.308918      -280.5199
  71   2.0000     -10.306960      -280.4666
  72   2.0000     -10.306709      -280.4598
  73   2.0000     -10.306245      -280.4472
  74   2.0000     -10.305839      -280.4361
  75   2.0000     -10.305148      -280.4173
  76   2.0000     -10.303817      -280.3811
  77   2.0000     -10.302009      -280.3319
  78   2.0000     -10.299454      -280.2624
  79   2.0000      -8.216417      -223.5801
  80   2.0000      -8.198620      -223.0958
  81   2.0000      -8.099126      -220.3884
  82   2.0000      -8.081137      -219.8989
  83   2.0000      -8.076880      -219.7831
  84   2.0000      -6.185263      -168.3096
  85   2.0000      -6.185015      -168.3028
  86   2.0000      -6.184500      -168.2888
  87   2.0000      -6.167409      -167.8237
  88   2.0000      -6.167206      -167.8182
  89   2.0000      -6.166809      -167.8074
  90   2.0000      -6.068082      -165.1209
  91   2.0000      -6.063926      -165.0078
  92   2.0000      -6.061971      -164.9546
  93   2.0000      -6.050238      -164.6354
  94   2.0000      -6.046233      -164.5264
  95   2.0000      -6.046150      -164.5241
  96   2.0000      -6.043337      -164.4476
  97   2.0000      -6.042190      -164.4163
  98   2.0000      -6.038846      -164.3254
  99   2.0000      -1.212299       -32.9883
 100   2.0000      -1.198675       -32.6176
 101   2.0000      -1.194335       -32.4995
 102   2.0000      -1.188242       -32.3337
 103   2.0000      -1.113574       -30.3019
 104   2.0000      -1.091049       -29.6890
 105   2.0000      -1.073425       -29.2094
 106   2.0000      -1.047866       -28.5139
 107   2.0000      -1.042766       -28.3751
 108   2.0000      -1.039727       -28.2924
 109   2.0000      -1.030193       -28.0330
 110   2.0000      -1.024636       -27.8818
 111   2.0000      -1.021987       -27.8097
 112   2.0000      -1.019608       -27.7450
 113   2.0000      -1.019168       -27.7330
 114   2.0000      -1.012958       -27.5640
 115   2.0000      -1.012462       -27.5505
 116   2.0000      -1.008635       -27.4463
 117   2.0000      -1.004881       -27.3442
 118   2.0000      -1.002445       -27.2779
 119   2.0000      -0.972379       -26.4598
 120   2.0000      -0.966740       -26.3063
 121   2.0000      -0.965093       -26.2615
 122   2.0000      -0.952686       -25.9239
 123   2.0000      -0.951458       -25.8905
 124   2.0000      -0.948712       -25.8158
 125   2.0000      -0.945779       -25.7359
 126   2.0000      -0.936875       -25.4937
 127   2.0000      -0.930078       -25.3087
 128   2.0000      -0.920154       -25.0387
 129   2.0000      -0.907257       -24.6877
 130   2.0000      -0.904289       -24.6070
 131   2.0000      -0.899514       -24.4770
 132   2.0000      -0.884552       -24.0699
 133   2.0000      -0.881801       -23.9950
 134   2.0000      -0.877994       -23.8914
 135   2.0000      -0.876901       -23.8617
 136   2.0000      -0.871525       -23.7154
 137   2.0000      -0.871284       -23.7088
 138   2.0000      -0.855542       -23.2805
 139   2.0000      -0.849821       -23.1248
 140   2.0000      -0.842838       -22.9348
 141   2.0000      -0.828217       -22.5369
 142   2.0000      -0.819695       -22.3050
 143   2.0000      -0.803956       -21.8768
 144   2.0000      -0.799698       -21.7609
 145   2.0000      -0.796224       -21.6664
 146   2.0000      -0.782550       -21.2943
 147   2.0000      -0.766912       -20.8687
 148   2.0000      -0.762213       -20.7409
 149   2.0000      -0.756813       -20.5939
 150   2.0000      -0.748042       -20.3552
 151   2.0000      -0.745107       -20.2754
 152   2.0000      -0.729941       -19.8627
 153   2.0000      -0.725641       -19.7457
 154   2.0000      -0.725051       -19.7296
 155   2.0000      -0.721995       -19.6465
 156   2.0000      -0.720774       -19.6133
 157   2.0000      -0.716269       -19.4907
 158   2.0000      -0.713940       -19.4273
 159   2.0000      -0.697616       -18.9831
 160   2.0000      -0.691039       -18.8041
 161   2.0000      -0.688808       -18.7434
 162   2.0000      -0.682833       -18.5808
 163   2.0000      -0.677887       -18.4462
 164   2.0000      -0.675685       -18.3863
 165   2.0000      -0.672900       -18.3105
 166   2.0000      -0.670777       -18.2528
 167   2.0000      -0.666774       -18.1438
 168   2.0000      -0.661349       -17.9962
 169   2.0000      -0.655766       -17.8443
 170   2.0000      -0.645725       -17.5711
 171   2.0000      -0.641090       -17.4449
 172   2.0000      -0.634076       -17.2541
 173   2.0000      -0.628249       -17.0955
 174   2.0000      -0.621174       -16.9030
 175   2.0000      -0.618966       -16.8429
 176   2.0000      -0.610723       -16.6186
 177   2.0000      -0.604756       -16.4562
 178   2.0000      -0.597790       -16.2667
 179   2.0000      -0.597535       -16.2598
 180   2.0000      -0.592467       -16.1218
 181   2.0000      -0.591678       -16.1004
 182   2.0000      -0.590067       -16.0565
 183   2.0000      -0.587766       -15.9939
 184   2.0000      -0.584103       -15.8942
 185   2.0000      -0.574158       -15.6236
 186   2.0000      -0.573752       -15.6126
 187   2.0000      -0.571824       -15.5601
 188   2.0000      -0.566097       -15.4043
 189   2.0000      -0.560538       -15.2530
 190   2.0000      -0.559482       -15.2243
 191   2.0000      -0.557479       -15.1698
 192   2.0000      -0.555796       -15.1240
 193   2.0000      -0.552716       -15.0402
 194   2.0000      -0.551029       -14.9943
 195   2.0000      -0.549920       -14.9641
 196   2.0000      -0.549035       -14.9400
 197   2.0000      -0.547358       -14.8944
 198   2.0000      -0.545905       -14.8548
 199   2.0000      -0.545087       -14.8326
 200   2.0000      -0.541616       -14.7381
 201   2.0000      -0.540634       -14.7114
 202   2.0000      -0.539772       -14.6879
 203   2.0000      -0.536967       -14.6116
 204   2.0000      -0.533610       -14.5203
 205   2.0000      -0.530237       -14.4285
 206   2.0000      -0.526598       -14.3295
 207   2.0000      -0.524413       -14.2700
 208   2.0000      -0.521180       -14.1820
 209   2.0000      -0.520664       -14.1680
 210   2.0000      -0.517417       -14.0796
 211   2.0000      -0.514819       -14.0089
 212   2.0000      -0.512659       -13.9502
 213   2.0000      -0.510865       -13.9013
 214   2.0000      -0.506932       -13.7943
 215   2.0000      -0.503997       -13.7145
 216   2.0000      -0.501238       -13.6394
 217   2.0000      -0.500502       -13.6194
 218   2.0000      -0.497566       -13.5395
 219   2.0000      -0.495221       -13.4756
 220   2.0000      -0.492359       -13.3978
 221   2.0000      -0.490258       -13.3406
 222   2.0000      -0.489539       -13.3210
 223   2.0000      -0.485180       -13.2024
 224   2.0000      -0.484452       -13.1826
 225   2.0000      -0.479005       -13.0344
 226   2.0000      -0.475967       -12.9517
 227   2.0000      -0.472825       -12.8662
 228   2.0000      -0.470688       -12.8081
 229   2.0000      -0.469910       -12.7869
 230   2.0000      -0.468978       -12.7615
 231   2.0000      -0.468312       -12.7434
 232   2.0000      -0.467023       -12.7083
 233   2.0000      -0.466305       -12.6888
 234   2.0000      -0.464486       -12.6393
 235   2.0000      -0.462618       -12.5885
 236   2.0000      -0.462430       -12.5834
 237   2.0000      -0.459806       -12.5120
 238   2.0000      -0.459396       -12.5008
 239   2.0000      -0.458441       -12.4748
 240   2.0000      -0.456797       -12.4301
 241   2.0000      -0.456579       -12.4241
 242   2.0000      -0.453057       -12.3283
 243   2.0000      -0.452637       -12.3169
 244   2.0000      -0.450099       -12.2478
 245   2.0000      -0.446850       -12.1594
 246   2.0000      -0.445420       -12.1205
 247   2.0000      -0.444555       -12.0970
 248   2.0000      -0.441799       -12.0219
 249   2.0000      -0.440686       -11.9917
 250   2.0000      -0.439773       -11.9668
 251   2.0000      -0.438263       -11.9257
 252   2.0000      -0.437872       -11.9151
 253   2.0000      -0.437114       -11.8945
 254   2.0000      -0.436578       -11.8799
 255   2.0000      -0.434569       -11.8252
 256   2.0000      -0.429811       -11.6958
 257   2.0000      -0.426877       -11.6159
 258   2.0000      -0.421355       -11.4657
 259   2.0000      -0.420555       -11.4439
 260   2.0000      -0.418016       -11.3748
 261   2.0000      -0.416557       -11.3351
 262   2.0000      -0.413072       -11.2403
 263   2.0000      -0.407349       -11.0845
 264   2.0000      -0.401715       -10.9312
 265   2.0000      -0.400791       -10.9061
 266   2.0000      -0.396465       -10.7883
 267   2.0000      -0.394944       -10.7470
 268   2.0000      -0.390142       -10.6163
 269   2.0000      -0.385218       -10.4823
 270   2.0000      -0.382626       -10.4118
 271   2.0000      -0.378703       -10.3050
 272   2.0000      -0.371872       -10.1192
 273   2.0000      -0.366750        -9.9798
 274   2.0000      -0.362389        -9.8611
 275   2.0000      -0.360879        -9.8200
 276   2.0000      -0.353843        -9.6286
 277   2.0000      -0.350668        -9.5422
 278   2.0000      -0.347159        -9.4467
 279   2.0000      -0.345301        -9.3961
 280   2.0000      -0.339867        -9.2483
 281   2.0000      -0.338158        -9.2017
 282   2.0000      -0.336533        -9.1575
 283   2.0000      -0.326238        -8.8774
 284   2.0000      -0.321551        -8.7498
 285   2.0000      -0.303467        -8.2578
 286   2.0000      -0.288146        -7.8408
 287   2.0000      -0.258120        -7.0238
 288   0.0000      -0.123415        -3.3583
 289   0.0000      -0.110599        -3.0096
 290   0.0000      -0.098622        -2.6836
 291   0.0000      -0.092799        -2.5252
 292   0.0000      -0.078708        -2.1417

MULLIKEN ATOMIC CHARGES
-----------------------
   0 C :   -0.033190
   1 C :    0.046397
   2 C :    0.049395
   3 C :   -0.033280
   4 C :    0.011645
   5 C :    0.011147
   6 C :    0.295844
   7 C :   -0.349603
   8 C :   -0.186529
   9 N :    0.160335
  10 C :   -0.178743
  11 N :    0.152238
  12 C :   -0.065954
  13 C :    0.204867
  14 C :   -0.323159
  15 C :   -0.203328
  16 N :    0.189798
  17 C :   -0.180029
  18 N :    0.163301
  19 C :    0.022634
  20 C :   -0.138687
  21 S :    0.132640
  22 C :   -0.077926
  23 C :   -0.066147
  24 C :   -0.022126
  25 C :    0.109464
  26 C :   -0.054597
  27 S :    0.668447
  28 O :   -0.454196
  29 O :   -0.444880
  30 C :    0.060487
  31 C :    0.021563
  32 C :    0.002874
  33 C :   -0.197244
  34 S :    0.198528
  35 C :   -0.175707
  36 C :    0.093360
  37 C :    0.116020
  38 C :   -0.070817
  39 C :    0.109619
  40 O :   -0.189339
  41 O :   -0.144200
  42 C :    0.017500
  43 C :   -0.067257
  44 C :    0.125712
  45 O :   -0.165970
  46 C :   -0.119845
  47 S :    0.201846
  48 C :   -0.106363
  49 C :   -0.068882
  50 C :   -0.056534
  51 C :    0.124118
  52 C :   -0.057034
  53 S :    0.671612
  54 O :   -0.444643
  55 O :   -0.451970
  56 C :    0.056449
  57 C :    0.024758
  58 C :   -0.013905
  59 C :    0.042846
  60 C :   -0.052794
  61 C :    0.287453
  62 C :   -0.338775
  63 C :   -0.180030
  64 N :    0.159239
  65 C :   -0.188566
  66 N :    0.160347
  67 C :    0.015721
  68 C :    0.001595
  69 C :   -0.034136
  70 C :    0.049456
  71 C :    0.048439
  72 C :   -0.031924
  73 C :    0.230140
  74 C :   -0.352086
  75 C :   -0.186764
  76 N :    0.174484
  77 C :   -0.202791
  78 N :    0.189366
  79 H :    0.006413
  80 H :    0.005967
  81 H :    0.004867
  82 H :    0.004059
  83 H :    0.007732
  84 H :    0.081448
  85 H :    0.036756
  86 H :    0.076842
  87 H :    0.052737
  88 H :    0.103997
  89 H :    0.066724
  90 H :    0.024121
  91 H :    0.002151
  92 H :    0.194127
  93 H :    0.015362
  94 H :   -0.024006
  95 H :    0.193013
  96 H :    0.066790
  97 H :    0.013412
  98 H :    0.073999
  99 H :    0.060131
 100 H :    0.076663
 101 H :    0.076970
 102 H :    0.019661
 103 H :    0.012657
 104 H :    0.021922
 105 H :    0.008722
 106 H :    0.008308
 107 H :    0.008298
 108 H :    0.008421
Sum of atomic charges:   -0.0000000

LOEWDIN ATOMIC CHARGES
----------------------
   0 C :    0.006243
   1 C :    0.001431
   2 C :    0.005266
   3 C :   -0.000165
   4 C :   -0.009391
   5 C :   -0.013963
   6 C :    0.080968
   7 C :   -0.137445
   8 C :   -0.019954
   9 N :   -0.045714
  10 C :   -0.017247
  11 N :   -0.051346
  12 C :   -0.066763
  13 C :    0.057559
  14 C :   -0.135986
  15 C :   -0.038522
  16 N :   -0.034625
  17 C :   -0.020252
  18 N :   -0.045145
  19 C :    0.041425
  20 C :   -0.182306
  21 S :    0.466786
  22 C :   -0.132557
  23 C :   -0.071415
  24 C :   -0.005032
  25 C :   -0.042080
  26 C :   -0.136638
  27 S :    1.163967
  28 O :   -0.514719
  29 O :   -0.502574
  30 C :   -0.143142
  31 C :   -0.031932
  32 C :   -0.045831
  33 C :   -0.195568
  34 S :    0.515010
  35 C :   -0.181259
  36 C :   -0.065433
  37 C :   -0.038883
  38 C :   -0.104938
  39 C :    0.077823
  40 O :   -0.157171
  41 O :   -0.017189
  42 C :    0.034684
  43 C :   -0.089266
  44 C :    0.072383
  45 O :   -0.035291
  46 C :   -0.179010
  47 S :    0.506557
  48 C :   -0.175453
  49 C :   -0.063077
  50 C :   -0.056700
  51 C :   -0.049037
  52 C :   -0.135454
  53 S :    1.163178
  54 O :   -0.508866
  55 O :   -0.509477
  56 C :   -0.141313
  57 C :    0.020283
  58 C :   -0.045734
  59 C :    0.056393
  60 C :   -0.055555
  61 C :    0.077694
  62 C :   -0.130035
  63 C :   -0.022941
  64 N :   -0.041558
  65 C :   -0.019239
  66 N :   -0.042131
  67 C :   -0.012644
  68 C :   -0.012725
  69 C :    0.002301
  70 C :    0.006727
  71 C :    0.005409
  72 C :    0.006410
  73 C :    0.066205
  74 C :   -0.136896
  75 C :   -0.024511
  76 N :   -0.041044
  77 C :   -0.020582
  78 N :   -0.034652
  79 H :    0.041932
  80 H :    0.038254
  81 H :    0.037852
  82 H :    0.040264
  83 H :    0.047040
  84 H :    0.057416
  85 H :    0.042323
  86 H :    0.046979
  87 H :    0.032005
  88 H :    0.055120
  89 H :    0.043952
  90 H :    0.040583
  91 H :    0.025468
  92 H :    0.097872
  93 H :    0.045758
  94 H :    0.032548
  95 H :    0.103971
  96 H :    0.048994
  97 H :    0.018497
  98 H :    0.045720
  99 H :    0.035371
 100 H :    0.048607
 101 H :    0.046567
 102 H :    0.036187
 103 H :    0.031749
 104 H :    0.049842
 105 H :    0.041602
 106 H :    0.039377
 107 H :    0.039397
 108 H :    0.042423

  Mayer bond orders larger than 0.100000
B(  0-C ,  1-C ) :   1.3716 B(  0-C ,  5-C ) :   1.3825 B(  0-C , 79-H ) :   0.9838
B(  1-C ,  2-C ) :   1.3790 B(  1-C , 80-H ) :   0.9851 B(  2-C ,  3-C ) :   1.3634
B(  2-C , 81-H ) :   0.9864 B(  3-C ,  4-C ) :   1.3847 B(  3-C , 82-H ) :   0.9871
B(  4-C ,  5-C ) :   1.3129 B(  4-C , 13-C ) :   1.0155 B(  5-C ,  6-C ) :   1.0028
B(  6-C ,  7-C ) :   1.6322 B(  6-C , 12-C ) :   1.0640 B(  7-C ,  8-C ) :   1.1463
B(  7-C , 10-C ) :   1.1434 B(  8-C ,  9-N ) :   2.9766 B( 10-C , 11-N ) :   2.9800
B( 12-C , 13-C ) :   1.0155 B( 12-C , 19-C ) :   1.5897 B( 13-C , 14-C ) :   1.6534
B( 14-C , 15-C ) :   1.1452 B( 14-C , 17-C ) :   1.1440 B( 15-C , 16-N ) :   3.0264
B( 17-C , 18-N ) :   2.9937 B( 19-C , 20-C ) :   1.2015 B( 19-C , 83-H ) :   0.9249
B( 20-C , 21-S ) :   1.0970 B( 20-C , 24-C ) :   1.4342 B( 21-S , 22-C ) :   1.1360
B( 22-C , 23-C ) :   1.4638 B( 22-C , 31-C ) :   1.2204 B( 23-C , 24-C ) :   1.3375
B( 23-C , 30-C ) :   1.0127 B( 24-C , 25-C ) :   1.0707 B( 25-C , 26-C ) :   1.0207
B( 25-C , 84-H ) :   0.8977 B( 25-C , 85-H ) :   0.8998 B( 26-C , 27-S ) :   0.8726
B( 26-C , 86-H ) :   0.9319 B( 26-C , 87-H ) :   0.9430 B( 27-S , 28-O ) :   1.7445
B( 27-S , 29-O ) :   1.7090 B( 27-S , 30-C ) :   0.8280 B( 30-C , 88-H ) :   0.8768
B( 30-C , 89-H ) :   0.9082 B( 31-C , 32-C ) :   1.6402 B( 31-C , 90-H ) :   0.9283
B( 32-C , 33-C ) :   1.1422 B( 32-C , 91-H ) :   0.9485 B( 33-C , 34-S ) :   1.1425
B( 33-C , 35-C ) :   0.1148 B( 33-C , 37-C ) :   1.3547 B( 34-S , 35-C ) :   1.1928
B( 35-C , 36-C ) :   1.3709 B( 35-C , 46-C ) :   1.0824 B( 36-C , 37-C ) :   1.2137
B( 36-C , 44-C ) :   1.1658 B( 37-C , 38-C ) :   1.1734 B( 38-C , 39-C ) :   0.9149
B( 38-C , 42-C ) :   1.5544 B( 39-C , 40-O ) :   2.1021 B( 39-C , 41-O ) :   1.2254
B( 41-O , 92-H ) :   0.9450 B( 42-C , 43-C ) :   1.2043 B( 42-C , 93-H ) :   0.9888
B( 43-C , 44-C ) :   1.4503 B( 43-C , 94-H ) :   0.9889 B( 44-C , 45-O ) :   1.2485
B( 45-O , 95-H ) :   0.9484 B( 46-C , 47-S ) :   1.1708 B( 46-C , 48-C ) :   0.1023
B( 46-C , 50-C ) :   1.5046 B( 47-S , 48-C ) :   1.1460 B( 48-C , 49-C ) :   1.4625
B( 48-C , 57-C ) :   1.2251 B( 49-C , 50-C ) :   1.3359 B( 49-C , 56-C ) :   1.0018
B( 50-C , 51-C ) :   1.0571 B( 51-C , 52-C ) :   1.0232 B( 51-C , 96-H ) :   0.9027
B( 51-C , 97-H ) :   0.8978 B( 52-C , 53-S ) :   0.8703 B( 52-C , 98-H ) :   0.9316
B( 52-C , 99-H ) :   0.9422 B( 53-S , 54-O ) :   1.7527 B( 53-S , 55-O ) :   1.6978
B( 53-S , 56-C ) :   0.8381 B( 56-C ,100-H ) :   0.8960 B( 56-C ,101-H ) :   0.9154
B( 57-C , 58-C ) :   1.6002 B( 57-C ,102-H ) :   0.9520 B( 58-C , 59-C ) :   1.2064
B( 58-C ,103-H ) :   0.9525 B( 59-C , 60-C ) :   1.6073 B( 59-C ,104-H ) :   0.9203
B( 60-C , 61-C ) :   1.0514 B( 60-C , 73-C ) :   1.0155 B( 61-C , 62-C ) :   1.6445
B( 61-C , 67-C ) :   0.9965 B( 62-C , 63-C ) :   1.1333 B( 62-C , 65-C ) :   1.1450
B( 63-C , 64-N ) :   2.9759 B( 65-C , 66-N ) :   2.9782 B( 67-C , 68-C ) :   1.3102
B( 67-C , 72-C ) :   1.3792 B( 68-C , 69-C ) :   1.3756 B( 68-C , 73-C ) :   1.0111
B( 69-C , 70-C ) :   1.3690 B( 69-C ,105-H ) :   0.9890 B( 70-C , 71-C ) :   1.3742
B( 70-C ,106-H ) :   0.9868 B( 71-C , 72-C ) :   1.3709 B( 71-C ,107-H ) :   0.9868
B( 72-C ,108-H ) :   0.9854 B( 73-C , 74-C ) :   1.6474 B( 74-C , 75-C ) :   1.1341
B( 74-C , 77-C ) :   1.1664 B( 75-C , 76-N ) :   2.9952 B( 77-C , 78-N ) :   2.9964

-----------------------------------------------------------------------------
         ABSORPTION SPECTRUM VIA TRANSITION ELECTRIC DIPOLE MOMENTS
-----------------------------------------------------------------------------
State   Energy  Wavelength   fosc         T2         TX        TY        TZ
        (cm-1)    (nm)                  (au**2)     (au)      (au)      (au)
-----------------------------------------------------------------------------
   0   14436.6    692.7   1.412516543  32.21103  -3.74688   3.63459   2.22747
   1   17737.0    563.8   0.336518341   6.24603  -1.63063  -0.46427  -1.83617
   2   21492.6    465.3   0.142634487   2.18480   0.95977  -1.11501  -0.14283
   3   21671.4    461.4   0.088011979   1.33700   0.00882   1.05284   0.47796
   4   22237.1    449.7   0.113605711   1.68189   0.19926  -1.07929  -0.69088
   5   23481.8    425.9   0.049307355   0.69128   0.29814  -0.67207   0.38823
   6   24283.4    411.8   0.081789589   1.10883   0.22048   0.05443  -1.02823
   7   26937.4    371.2   0.111769950   1.36598  -0.34180   0.33368   1.06668
   8   27208.3    367.5   0.070786975   0.85650   0.45869  -0.56260   0.57409
   9   27312.5    366.1   0.059508007   0.71728   0.70470  -0.45900  -0.09994
  10   28300.9    353.3   0.077451129   0.90096   0.75777  -0.49804   0.28053
  11   28852.3    346.6   0.302306890   3.44939  -0.71911   1.70728  -0.13214
  12   29513.5    338.8   0.043975031   0.49053   0.27423  -0.59940  -0.23672
  13   29911.0    334.3   0.059900147   0.65928  -0.20159  -0.59317  -0.51652
  14   30057.9    332.7   0.018124129   0.19851  -0.00702   0.06407  -0.44085
  15   30954.4    323.1   0.032129925   0.34171   0.28871  -0.43054   0.27019
  16   31419.9    318.3   0.015319166   0.16051   0.25202  -0.27768   0.14105
  17   31657.5    315.9   0.036896943   0.38370  -0.38488   0.36593  -0.31884
  18   32302.3    309.6   0.055449536   0.56512  -0.20449   0.72329   0.01272
  19   32744.9    305.4   0.583334811   5.86476   0.98063  -2.20580  -0.19385
  20   32935.3    303.6   0.382814114   3.82650  -1.54892   1.02856  -0.60779
  21   33102.1    302.1   0.236554726   2.35262   0.18490  -1.51875   0.10879
  22   33382.8    299.6   0.017995605   0.17747  -0.04583   0.27018   0.31995
  23   33520.8    298.3   0.022422925   0.22022   0.13748  -0.18892  -0.40697
  24   34174.4    292.6   0.344088489   3.31470   0.32422  -0.05944  -1.79055
  25   34318.3    291.4   0.049935523   0.47903   0.35165   0.48671   0.34421
  26   34834.3    287.1   0.017505574   0.16544  -0.35968  -0.17085  -0.08297
  27   35167.9    284.4   0.183268023   1.71560  -0.57727   0.20273  -1.15813
  28   35377.9    282.7   0.013678536   0.12729  -0.03062   0.34371  -0.09064
  29   35518.2    281.5   0.031535469   0.29230   0.00358  -0.42085   0.33936
  30   35811.2    279.2   0.021545891   0.19807   0.23062   0.07063  -0.37403
  31   35989.2    277.9   0.055499566   0.50768  -0.16185   0.17008   0.67273
  32   36685.4    272.6   0.000311851   0.00280   0.03751  -0.02604  -0.02672
  33   36856.5    271.3   0.001163562   0.01039  -0.01679  -0.06897   0.07318
  34   37057.3    269.9   0.063237505   0.56179  -0.14344  -0.02144  -0.73536
  35   37219.0    268.7   0.042683318   0.37755  -0.50297   0.31339   0.16234
  36   37529.1    266.5   0.389585439   3.41752   0.18068  -0.29027  -1.81676
  37   37663.0    265.5   0.018695463   0.16342   0.35290  -0.18456  -0.06941
  38   37918.2    263.7   0.025646379   0.22267  -0.01245   0.07390  -0.46589
  39   37950.5    263.5   0.013584359   0.11784   0.11218   0.08377   0.31343
  40   38935.6    256.8   0.048539974   0.41042   0.45210  -0.30511   0.33605
  41   39192.6    255.2   0.081832511   0.68738  -0.65126   0.46956   0.20677
  42   39563.4    252.8   0.025156531   0.20933   0.31214   0.05229   0.33040
  43   40046.0    249.7   0.035839144   0.29463  -0.07670   0.31787   0.43325
  44   40126.1    249.2   0.008259516   0.06776  -0.00550   0.19654   0.17061

FINAL SINGLE POINT ENERGY     -5216.875324013316

DIPOLE MOMENT
-------------
                                X             Y             Z
Electronic contribution:     -8.42860     -11.02192       1.87019
Nuclear contribution   :     10.92181      11.12814      -5.28916
                        -----------------------------------------
Total Dipole Moment    :      2.49322       0.10621      -3.41896
                        -----------------------------------------
Magnitude (a.u.)       :      4.23281
Magnitude (Debye)      :     10.75895

Rotational constants in cm-1:     0.001305     0.000270     0.000243
Rotational constants in MHz :    39.132611     8.107880     7.296039

                             ****ORCA TERMINATED NORMALLY****
TOTAL RUN TIME: 0 days 0 hours 16 minutes 33 seconds 600 msec
