                         Program Version 4.2.0 -  RELEASE  -
|  1> # ORCA input file
|  2> # SCF done       -178.908069216655          0.000775907832
|  3> ! CAM-B3LYP def2-SVP def2/J RIJCOSX Grid4 TightSCF
|  4> %maxcore 5000
|  5> %tddft
|  6>     Mode sTDDFT
|  7>     Ethresh 5.0
|  8>     maxcore 5000
|  9> end
| 10>
| 11> %pal
| 12>   nprocs 6
| 13>   end
| 14> * xyz 0 1
| 15>    C      -12.05009         0.70112         0.85923
| 16>    C      -13.23388         0.05666         0.52900
| 17>    C      -13.29546        -1.32574         0.43921
| 18>    C      -12.17446        -2.10593         0.68370
| 19>    C      -10.98673        -1.47354         1.00709
| 20>    C      -10.91976        -0.06443         1.09360
| 21>    C       -9.55257         0.32237         1.42574
| 22>    C       -9.11782         1.60504         1.65870
| 23>    C       -9.95058         2.74199         1.63569
| 24>    N      -10.56678         3.71116         1.63693
| 25>    C       -7.79545         1.96824         1.97641
| 26>    N       -6.73212         2.32579         2.23038
| 27>    C       -8.76358        -0.89470         1.43232
| 28>    C       -9.68042        -2.01313         1.35362
| 29>    C       -9.43182        -3.29400         1.78329
| 30>    C       -8.26403        -3.64508         2.48915
| 31>    N       -7.35326        -3.92754         3.12978
| 32>    C      -10.32110        -4.37012         1.62365
| 33>    N      -10.97711        -5.29954         1.45938
| 34>    C       -7.38423        -0.91955         1.38018
| 35>    C       -6.57303        -1.95959         0.91291
| 36>    O       -7.13993        -3.02766         0.27485
| 37>    C       -6.15722        -3.83813        -0.15846
| 38>    C       -4.91304        -3.30340         0.18021
| 39>    C       -5.16859        -2.10314         0.87781
| 40>    O       -4.19126        -1.33733         1.39108
| 41>    C       -4.47915        -0.37969         2.39493
| 42>    O       -3.75212        -3.91466        -0.16247
| 43>    C       -2.56607        -3.47672         0.47752
| 44>    C       -6.47439        -5.06118        -0.79204
| 45>    N       -5.49627        -5.87056        -1.32321
| 46>    C       -6.09177        -6.99051        -1.80503
| 47>    C       -5.85768        -8.20614        -2.43393
| 48>    C       -7.11130        -8.82289        -2.56647
| 49>    N       -8.08758        -8.00148        -2.03765
| 50>    C       -7.49130        -6.87625        -1.56775
| 51>    C       -7.73319        -5.66204        -0.93973
| 52>    C       -7.34874       -10.08427        -3.15392
| 53>    C       -8.55097       -10.70096        -3.31947
| 54>    C       -8.65410       -11.96019        -3.96953
| 55>    O       -7.48832       -12.52643        -4.37762
| 56>    C       -7.76539       -13.68342        -5.02956
| 57>    C       -9.15520       -13.89391        -5.01375
| 58>    C       -9.72253       -12.78512        -4.34245
| 59>    O      -11.06447       -12.67577        -4.15533
| 60>    C      -11.60772       -11.46835        -3.67771
| 61>    O       -9.69954       -14.98053        -5.56475
| 62>    C      -11.10895       -15.10065        -5.60174
| 63>    C       -6.79464       -14.53062        -5.56985
| 64>    C       -5.43402       -14.33231        -5.64731
| 65>    C       -4.46027       -15.40211        -5.77954
| 66>    C       -4.68364       -16.68749        -6.20216
| 67>    C       -5.91966       -17.19998        -6.64727
| 68>    N       -6.88342       -17.69396        -7.03036
| 69>    C       -3.68305       -17.67691        -6.28970
| 70>    N       -2.92105       -18.53123        -6.38276
| 71>    C       -3.17400       -14.85393        -5.36120
| 72>    C       -3.32960       -13.47398        -5.09962
| 73>    C       -2.25751       -12.71125        -4.66917
| 74>    C       -1.02922       -13.33191        -4.49590
| 75>    C       -0.87195       -14.68431        -4.75949
| 76>    C       -1.93799       -15.45752        -5.19627
| 77>    C       -4.70029       -13.10248        -5.41877
| 78>    C       -5.13314       -11.83025        -5.69974
| 79>    C       -4.41924       -10.66511        -5.36928
| 80>    N       -3.91805        -9.67910        -5.05579
| 81>    C       -6.31989       -11.55224        -6.40888
| 82>    N       -7.23210       -11.28443        -7.05266
| 83>    H      -12.02309         1.77619         0.92592
| 84>    H      -14.11879         0.64457         0.33854
| 85>    H      -14.22678        -1.80375         0.17592
| 86>    H      -12.23196        -3.18009         0.60981
| 87>    H       -6.87509         0.00048         1.60823
| 88>    H       -4.82771         0.56286         1.96653
| 89>    H       -3.53162        -0.20404         2.90361
| 90>    H       -5.21293        -0.76111         3.10778
| 91>    H       -1.77534        -4.11598         0.08882
| 92>    H       -2.63793        -3.59736         1.56061
| 93>    H       -2.34923        -2.43376         0.24207
| 94>    H       -4.51657        -5.64092        -1.30618
| 95>    H       -4.93073        -8.61427        -2.78292
| 96>    H       -9.06880        -8.21271        -2.00082
| 97>    H       -8.66388        -5.25058        -0.60668
| 98>    H       -6.46220       -10.58750        -3.50868
| 99>    H       -9.45604       -10.23288        -2.97374
|100>    H      -12.68740       -11.58792        -3.76140
|101>    H      -11.28867       -10.61834        -4.28670
|102>    H      -11.34805       -11.30237        -2.62787
|103>    H      -11.30149       -16.05576        -6.08671
|104>    H      -11.55719       -14.29294        -6.18364
|105>    H      -11.53437       -15.10011        -4.59651
|106>    H       -7.19546       -15.48643        -5.87612
|107>    H       -2.36884       -11.65923        -4.46150
|108>    H       -0.18600       -12.75187        -4.15274
|109>    H        0.09369       -15.14664        -4.62235
|110>    H       -1.79542       -16.50655        -5.39615
|111> *
|112>
|113>                          ****END OF INPUT****

CARTESIAN COORDINATES (ANGSTROEM)
---------------------------------
  C    -12.050090    0.701120    0.859230
  C    -13.233880    0.056660    0.529000
  C    -13.295460   -1.325740    0.439210
  C    -12.174460   -2.105930    0.683700
  C    -10.986730   -1.473540    1.007090
  C    -10.919760   -0.064430    1.093600
  C     -9.552570    0.322370    1.425740
  C     -9.117820    1.605040    1.658700
  C     -9.950580    2.741990    1.635690
  N    -10.566780    3.711160    1.636930
  C     -7.795450    1.968240    1.976410
  N     -6.732120    2.325790    2.230380
  C     -8.763580   -0.894700    1.432320
  C     -9.680420   -2.013130    1.353620
  C     -9.431820   -3.294000    1.783290
  C     -8.264030   -3.645080    2.489150
  N     -7.353260   -3.927540    3.129780
  C    -10.321100   -4.370120    1.623650
  N    -10.977110   -5.299540    1.459380
  C     -7.384230   -0.919550    1.380180
  C     -6.573030   -1.959590    0.912910
  O     -7.139930   -3.027660    0.274850
  C     -6.157220   -3.838130   -0.158460
  C     -4.913040   -3.303400    0.180210
  C     -5.168590   -2.103140    0.877810
  O     -4.191260   -1.337330    1.391080
  C     -4.479150   -0.379690    2.394930
  O     -3.752120   -3.914660   -0.162470
  C     -2.566070   -3.476720    0.477520
  C     -6.474390   -5.061180   -0.792040
  N     -5.496270   -5.870560   -1.323210
  C     -6.091770   -6.990510   -1.805030
  C     -5.857680   -8.206140   -2.433930
  C     -7.111300   -8.822890   -2.566470
  N     -8.087580   -8.001480   -2.037650
  C     -7.491300   -6.876250   -1.567750
  C     -7.733190   -5.662040   -0.939730
  C     -7.348740  -10.084270   -3.153920
  C     -8.550970  -10.700960   -3.319470
  C     -8.654100  -11.960190   -3.969530
  O     -7.488320  -12.526430   -4.377620
  C     -7.765390  -13.683420   -5.029560
  C     -9.155200  -13.893910   -5.013750
  C     -9.722530  -12.785120   -4.342450
  O    -11.064470  -12.675770   -4.155330
  C    -11.607720  -11.468350   -3.677710
  O     -9.699540  -14.980530   -5.564750
  C    -11.108950  -15.100650   -5.601740
  C     -6.794640  -14.530620   -5.569850
  C     -5.434020  -14.332310   -5.647310
  C     -4.460270  -15.402110   -5.779540
  C     -4.683640  -16.687490   -6.202160
  C     -5.919660  -17.199980   -6.647270
  N     -6.883420  -17.693960   -7.030360
  C     -3.683050  -17.676910   -6.289700
  N     -2.921050  -18.531230   -6.382760
  C     -3.174000  -14.853930   -5.361200
  C     -3.329600  -13.473980   -5.099620
  C     -2.257510  -12.711250   -4.669170
  C     -1.029220  -13.331910   -4.495900
  C     -0.871950  -14.684310   -4.759490
  C     -1.937990  -15.457520   -5.196270
  C     -4.700290  -13.102480   -5.418770
  C     -5.133140  -11.830250   -5.699740
  C     -4.419240  -10.665110   -5.369280
  N     -3.918050   -9.679100   -5.055790
  C     -6.319890  -11.552240   -6.408880
  N     -7.232100  -11.284430   -7.052660
  H    -12.023090    1.776190    0.925920
  H    -14.118790    0.644570    0.338540
  H    -14.226780   -1.803750    0.175920
  H    -12.231960   -3.180090    0.609810
  H     -6.875090    0.000480    1.608230
  H     -4.827710    0.562860    1.966530
  H     -3.531620   -0.204040    2.903610
  H     -5.212930   -0.761110    3.107780
  H     -1.775340   -4.115980    0.088820
  H     -2.637930   -3.597360    1.560610
  H     -2.349230   -2.433760    0.242070
  H     -4.516570   -5.640920   -1.306180
  H     -4.930730   -8.614270   -2.782920
  H     -9.068800   -8.212710   -2.000820
  H     -8.663880   -5.250580   -0.606680
  H     -6.462200  -10.587500   -3.508680
  H     -9.456040  -10.232880   -2.973740
  H    -12.687400  -11.587920   -3.761400
  H    -11.288670  -10.618340   -4.286700
  H    -11.348050  -11.302370   -2.627870
  H    -11.301490  -16.055760   -6.086710
  H    -11.557190  -14.292940   -6.183640
  H    -11.534370  -15.100110   -4.596510
  H     -7.195460  -15.486430   -5.876120
  H     -2.368840  -11.659230   -4.461500
  H     -0.186000  -12.751870   -4.152740
  H      0.093690  -15.146640   -4.622350
  H     -1.795420  -16.506550   -5.396150

 Total Charge           Charge          ....    0
 Multiplicity           Mult            ....    1
 Number of Electrons    NEL             ....  458
 Basis Dimension        Dim             .... 1092

ORBITAL ENERGIES
----------------

  NO   OCC          E(Eh)            E(eV)
   0   2.0000     -19.309840      -525.4475
   1   2.0000     -19.301882      -525.2309
   2   2.0000     -19.285897      -524.7959
   3   2.0000     -19.277453      -524.5662
   4   2.0000     -19.276302      -524.5348
   5   2.0000     -19.273759      -524.4656
   6   2.0000     -14.469170      -393.7261
   7   2.0000     -14.468997      -393.7214
   8   2.0000     -14.422980      -392.4692
   9   2.0000     -14.418443      -392.3458
  10   2.0000     -14.418333      -392.3428
  11   2.0000     -14.412665      -392.1885
  12   2.0000     -14.411111      -392.1463
  13   2.0000     -14.410230      -392.1223
  14   2.0000     -14.407719      -392.0540
  15   2.0000     -14.405815      -392.0021
  16   2.0000     -10.378749      -282.4201
  17   2.0000     -10.368704      -282.1468
  18   2.0000     -10.368042      -282.1288
  19   2.0000     -10.366282      -282.0809
  20   2.0000     -10.357889      -281.8525
  21   2.0000     -10.355699      -281.7929
  22   2.0000     -10.355678      -281.7923
  23   2.0000     -10.347263      -281.5633
  24   2.0000     -10.343768      -281.4682
  25   2.0000     -10.342090      -281.4226
  26   2.0000     -10.340524      -281.3800
  27   2.0000     -10.339949      -281.3643
  28   2.0000     -10.338696      -281.3302
  29   2.0000     -10.336664      -281.2749
  30   2.0000     -10.336656      -281.2747
  31   2.0000     -10.336031      -281.2577
  32   2.0000     -10.335530      -281.2441
  33   2.0000     -10.334947      -281.2282
  34   2.0000     -10.334487      -281.2157
  35   2.0000     -10.332052      -281.1494
  36   2.0000     -10.327598      -281.0282
  37   2.0000     -10.327054      -281.0134
  38   2.0000     -10.324555      -280.9454
  39   2.0000     -10.322284      -280.8836
  40   2.0000     -10.321880      -280.8726
  41   2.0000     -10.319205      -280.7998
  42   2.0000     -10.316912      -280.7375
  43   2.0000     -10.316511      -280.7265
  44   2.0000     -10.314959      -280.6843
  45   2.0000     -10.312751      -280.6242
  46   2.0000     -10.311295      -280.5846
  47   2.0000     -10.310196      -280.5547
  48   2.0000     -10.309599      -280.5385
  49   2.0000     -10.307712      -280.4871
  50   2.0000     -10.305864      -280.4368
  51   2.0000     -10.305552      -280.4283
  52   2.0000     -10.305431      -280.4250
  53   2.0000     -10.302402      -280.3426
  54   2.0000     -10.302060      -280.3333
  55   2.0000     -10.301516      -280.3185
  56   2.0000     -10.300719      -280.2968
  57   2.0000     -10.298386      -280.2333
  58   2.0000     -10.295506      -280.1550
  59   2.0000     -10.295130      -280.1447
  60   2.0000     -10.294920      -280.1390
  61   2.0000     -10.293233      -280.0931
  62   2.0000     -10.292478      -280.0726
  63   2.0000     -10.291572      -280.0479
  64   2.0000     -10.291252      -280.0392
  65   2.0000     -10.290207      -280.0108
  66   2.0000     -10.282719      -279.8070
  67   2.0000     -10.276621      -279.6411
  68   2.0000      -1.235113       -33.6091
  69   2.0000      -1.227497       -33.4019
  70   2.0000      -1.188326       -32.3360
  71   2.0000      -1.183983       -32.2178
  72   2.0000      -1.170570       -31.8528
  73   2.0000      -1.169225       -31.8162
  74   2.0000      -1.103364       -30.0241
  75   2.0000      -1.066856       -29.0306
  76   2.0000      -1.029174       -28.0052
  77   2.0000      -1.024309       -27.8729
  78   2.0000      -1.014417       -27.6037
  79   2.0000      -1.008872       -27.4528
  80   2.0000      -1.003612       -27.3097
  81   2.0000      -0.998255       -27.1639
  82   2.0000      -0.995190       -27.0805
  83   2.0000      -0.993055       -27.0224
  84   2.0000      -0.989225       -26.9182
  85   2.0000      -0.987358       -26.8674
  86   2.0000      -0.955002       -25.9869
  87   2.0000      -0.951093       -25.8805
  88   2.0000      -0.933300       -25.3964
  89   2.0000      -0.931670       -25.3520
  90   2.0000      -0.928352       -25.2618
  91   2.0000      -0.925416       -25.1818
  92   2.0000      -0.921581       -25.0775
  93   2.0000      -0.920165       -25.0390
  94   2.0000      -0.899607       -24.4796
  95   2.0000      -0.889117       -24.1941
  96   2.0000      -0.885431       -24.0938
  97   2.0000      -0.882619       -24.0173
  98   2.0000      -0.875863       -23.8334
  99   2.0000      -0.863688       -23.5022
 100   2.0000      -0.860444       -23.4139
 101   2.0000      -0.856777       -23.3141
 102   2.0000      -0.846434       -23.0326
 103   2.0000      -0.833092       -22.6696
 104   2.0000      -0.826682       -22.4952
 105   2.0000      -0.811150       -22.0725
 106   2.0000      -0.804045       -21.8792
 107   2.0000      -0.801824       -21.8187
 108   2.0000      -0.791231       -21.5305
 109   2.0000      -0.784617       -21.3505
 110   2.0000      -0.780222       -21.2309
 111   2.0000      -0.762988       -20.7619
 112   2.0000      -0.741207       -20.1693
 113   2.0000      -0.719373       -19.5751
 114   2.0000      -0.715891       -19.4804
 115   2.0000      -0.711634       -19.3646
 116   2.0000      -0.708095       -19.2682
 117   2.0000      -0.705815       -19.2062
 118   2.0000      -0.703106       -19.1325
 119   2.0000      -0.702661       -19.1204
 120   2.0000      -0.697433       -18.9781
 121   2.0000      -0.691464       -18.8157
 122   2.0000      -0.690499       -18.7894
 123   2.0000      -0.676318       -18.4035
 124   2.0000      -0.672030       -18.2869
 125   2.0000      -0.666220       -18.1288
 126   2.0000      -0.660911       -17.9843
 127   2.0000      -0.659897       -17.9567
 128   2.0000      -0.658558       -17.9203
 129   2.0000      -0.654363       -17.8061
 130   2.0000      -0.646024       -17.5792
 131   2.0000      -0.638845       -17.3838
 132   2.0000      -0.630038       -17.1442
 133   2.0000      -0.620502       -16.8847
 134   2.0000      -0.615139       -16.7388
 135   2.0000      -0.607686       -16.5360
 136   2.0000      -0.605410       -16.4740
 137   2.0000      -0.604168       -16.4402
 138   2.0000      -0.599827       -16.3221
 139   2.0000      -0.596279       -16.2256
 140   2.0000      -0.586207       -15.9515
 141   2.0000      -0.578821       -15.7505
 142   2.0000      -0.575039       -15.6476
 143   2.0000      -0.574187       -15.6244
 144   2.0000      -0.572171       -15.5696
 145   2.0000      -0.569390       -15.4939
 146   2.0000      -0.566537       -15.4163
 147   2.0000      -0.564155       -15.3514
 148   2.0000      -0.561012       -15.2659
 149   2.0000      -0.558893       -15.2082
 150   2.0000      -0.557488       -15.1700
 151   2.0000      -0.554854       -15.0983
 152   2.0000      -0.549213       -14.9448
 153   2.0000      -0.545527       -14.8445
 154   2.0000      -0.544467       -14.8157
 155   2.0000      -0.542795       -14.7702
 156   2.0000      -0.540016       -14.6946
 157   2.0000      -0.537949       -14.6383
 158   2.0000      -0.533663       -14.5217
 159   2.0000      -0.532679       -14.4949
 160   2.0000      -0.531251       -14.4561
 161   2.0000      -0.529889       -14.4190
 162   2.0000      -0.528431       -14.3793
 163   2.0000      -0.525838       -14.3088
 164   2.0000      -0.525191       -14.2912
 165   2.0000      -0.510919       -13.9028
 166   2.0000      -0.505581       -13.7576
 167   2.0000      -0.504247       -13.7213
 168   2.0000      -0.501296       -13.6410
 169   2.0000      -0.498095       -13.5538
 170   2.0000      -0.492898       -13.4124
 171   2.0000      -0.491332       -13.3698
 172   2.0000      -0.485889       -13.2217
 173   2.0000      -0.482237       -13.1223
 174   2.0000      -0.477950       -13.0057
 175   2.0000      -0.473235       -12.8774
 176   2.0000      -0.471585       -12.8325
 177   2.0000      -0.467453       -12.7201
 178   2.0000      -0.463813       -12.6210
 179   2.0000      -0.462422       -12.5831
 180   2.0000      -0.460326       -12.5261
 181   2.0000      -0.459481       -12.5031
 182   2.0000      -0.457194       -12.4409
 183   2.0000      -0.455946       -12.4069
 184   2.0000      -0.455700       -12.4002
 185   2.0000      -0.452933       -12.3249
 186   2.0000      -0.451600       -12.2886
 187   2.0000      -0.450330       -12.2541
 188   2.0000      -0.448355       -12.2004
 189   2.0000      -0.446646       -12.1539
 190   2.0000      -0.445995       -12.1361
 191   2.0000      -0.444283       -12.0896
 192   2.0000      -0.443430       -12.0664
 193   2.0000      -0.442557       -12.0426
 194   2.0000      -0.441668       -12.0184
 195   2.0000      -0.438496       -11.9321
 196   2.0000      -0.438137       -11.9223
 197   2.0000      -0.436620       -11.8810
 198   2.0000      -0.430519       -11.7150
 199   2.0000      -0.429990       -11.7006
 200   2.0000      -0.425303       -11.5731
 201   2.0000      -0.423513       -11.5244
 202   2.0000      -0.423160       -11.5148
 203   2.0000      -0.422745       -11.5035
 204   2.0000      -0.420002       -11.4288
 205   2.0000      -0.419048       -11.4029
 206   2.0000      -0.416212       -11.3257
 207   2.0000      -0.412471       -11.2239
 208   2.0000      -0.412010       -11.2114
 209   2.0000      -0.410372       -11.1668
 210   2.0000      -0.407959       -11.1011
 211   2.0000      -0.407833       -11.0977
 212   2.0000      -0.402655       -10.9568
 213   2.0000      -0.401304       -10.9200
 214   2.0000      -0.381176       -10.3723
 215   2.0000      -0.378824       -10.3083
 216   2.0000      -0.374774       -10.1981
 217   2.0000      -0.369509       -10.0549
 218   2.0000      -0.358166        -9.7462
 219   2.0000      -0.329990        -8.9795
 220   2.0000      -0.328399        -8.9362
 221   2.0000      -0.324144        -8.8204
 222   2.0000      -0.318445        -8.6653
 223   2.0000      -0.311773        -8.4838
 224   2.0000      -0.305267        -8.3067
 225   2.0000      -0.301264        -8.1978
 226   2.0000      -0.286631        -7.7996
 227   2.0000      -0.265346        -7.2204
 228   2.0000      -0.228911        -6.2290
 229   0.0000      -0.102814        -2.7977
 230   0.0000      -0.083991        -2.2855
 231   0.0000      -0.083195        -2.2638
 232   0.0000      -0.078092        -2.1250
 233   0.0000      -0.030106        -0.8192

MULLIKEN ATOMIC CHARGES
-----------------------
   0 C :   -0.037883
   1 C :    0.045831
   2 C :    0.049450
   3 C :   -0.044940
   4 C :    0.019571
   5 C :    0.003375
   6 C :    0.303502
   7 C :   -0.361686
   8 C :   -0.190529
   9 N :    0.151938
  10 C :   -0.164046
  11 N :    0.126925
  12 C :   -0.064398
  13 C :    0.235921
  14 C :   -0.331829
  15 C :   -0.197239
  16 N :    0.152008
  17 C :   -0.170969
  18 N :    0.124713
  19 C :    0.000040
  20 C :    0.044102
  21 O :   -0.225922
  22 C :    0.188493
  23 C :    0.091948
  24 C :    0.188846
  25 O :   -0.301253
  26 C :    0.162334
  27 O :   -0.337615
  28 C :    0.190819
  29 C :    0.029452
  30 N :   -0.025811
  31 C :    0.127398
  32 C :   -0.142160
  33 C :    0.079571
  34 N :   -0.032659
  35 C :    0.124015
  36 C :   -0.150914
  37 C :    0.059930
  38 C :   -0.067646
  39 C :    0.113651
  40 O :   -0.239064
  41 C :    0.061079
  42 C :    0.181351
  43 C :    0.125270
  44 O :   -0.318806
  45 C :    0.174751
  46 O :   -0.273253
  47 C :    0.191131
  48 C :    0.012180
  49 C :   -0.059401
  50 C :    0.301270
  51 C :   -0.357704
  52 C :   -0.187378
  53 N :    0.150308
  54 C :   -0.189491
  55 N :    0.150242
  56 C :    0.007252
  57 C :    0.015266
  58 C :   -0.044516
  59 C :    0.046895
  60 C :    0.046287
  61 C :   -0.035547
  62 C :    0.240254
  63 C :   -0.340721
  64 C :   -0.163581
  65 N :    0.124864
  66 C :   -0.205912
  67 N :    0.164216
  68 H :    0.004944
  69 H :    0.000116
  70 H :   -0.001675
  71 H :   -0.001073
  72 H :   -0.029222
  73 H :    0.069662
  74 H :    0.041869
  75 H :    0.047853
  76 H :    0.036468
  77 H :    0.032226
  78 H :    0.040970
  79 H :    0.135597
  80 H :   -0.021954
  81 H :    0.127559
  82 H :   -0.030533
  83 H :    0.003434
  84 H :   -0.051089
  85 H :    0.044047
  86 H :    0.038252
  87 H :    0.036384
  88 H :    0.048830
  89 H :    0.033382
  90 H :    0.034699
  91 H :    0.019119
  92 H :   -0.003301
  93 H :   -0.002550
  94 H :   -0.001122
  95 H :    0.003532
Sum of atomic charges:   -0.0000000

LOEWDIN ATOMIC CHARGES
----------------------
   0 C :    0.003698
   1 C :   -0.003639
   2 C :    0.000517
   3 C :   -0.004785
   4 C :   -0.007665
   5 C :   -0.014804
   6 C :    0.083234
   7 C :   -0.153150
   8 C :   -0.020873
   9 N :   -0.056903
  10 C :   -0.010624
  11 N :   -0.069075
  12 C :   -0.082110
  13 C :    0.070893
  14 C :   -0.145961
  15 C :   -0.022050
  16 N :   -0.068766
  17 C :   -0.018234
  18 N :   -0.070500
  19 C :    0.029649
  20 C :   -0.019543
  21 O :    0.020582
  22 C :    0.055899
  23 C :   -0.014698
  24 C :    0.048038
  25 O :   -0.078550
  26 C :    0.085026
  27 O :   -0.110697
  28 C :    0.085077
  29 C :   -0.013387
  30 N :    0.083446
  31 C :   -0.009757
  32 C :   -0.060282
  33 C :    0.001163
  34 N :    0.068113
  35 C :   -0.006283
  36 C :   -0.066205
  37 C :    0.012872
  38 C :   -0.081638
  39 C :    0.053659
  40 O :    0.013263
  41 C :   -0.015368
  42 C :    0.057945
  43 C :   -0.023714
  44 O :   -0.102848
  45 C :    0.080245
  46 O :   -0.065964
  47 C :    0.088382
  48 C :    0.047858
  49 C :   -0.081021
  50 C :    0.078808
  51 C :   -0.145217
  52 C :   -0.022626
  53 N :   -0.052458
  54 C :   -0.018917
  55 N :   -0.058288
  56 C :   -0.012520
  57 C :   -0.009621
  58 C :   -0.005285
  59 C :   -0.001577
  60 C :   -0.003143
  61 C :    0.002947
  62 C :    0.074053
  63 C :   -0.149633
  64 C :   -0.013364
  65 N :   -0.072302
  66 C :   -0.025824
  67 N :   -0.064117
  68 H :    0.041024
  69 H :    0.035975
  70 H :    0.035171
  71 H :    0.038356
  72 H :    0.045561
  73 H :    0.025618
  74 H :    0.033577
  75 H :    0.027980
  76 H :    0.027089
  77 H :    0.021571
  78 H :    0.021066
  79 H :    0.087945
  80 H :    0.031284
  81 H :    0.089589
  82 H :    0.031646
  83 H :    0.042958
  84 H :    0.021672
  85 H :    0.033538
  86 H :    0.020404
  87 H :    0.016746
  88 H :    0.032647
  89 H :    0.022552
  90 H :    0.020991
  91 H :    0.055212
  92 H :    0.037489
  93 H :    0.034703
  94 H :    0.035530
  95 H :    0.040726

  Mayer bond orders larger than 0.100000
B(  0-C ,  1-C ) :   1.3628 B(  0-C ,  5-C ) :   1.3893 B(  0-C , 68-H ) :   0.9840
B(  1-C ,  2-C ) :   1.3859 B(  1-C , 69-H ) :   0.9857 B(  2-C ,  3-C ) :   1.3554
B(  2-C , 70-H ) :   0.9860 B(  3-C ,  4-C ) :   1.3899 B(  3-C , 71-H ) :   0.9867
B(  4-C ,  5-C ) :   1.3135 B(  4-C , 13-C ) :   1.0123 B(  5-C ,  6-C ) :   0.9936
B(  6-C ,  7-C ) :   1.5923 B(  6-C , 12-C ) :   1.1016 B(  7-C ,  8-C ) :   1.1508
B(  7-C , 10-C ) :   1.1539 B(  8-C ,  9-N ) :   2.9728 B( 10-C , 11-N ) :   2.9507
B( 12-C , 13-C ) :   1.0603 B( 12-C , 19-C ) :   1.4442 B( 13-C , 14-C ) :   1.6114
B( 14-C , 15-C ) :   1.1610 B( 14-C , 17-C ) :   1.1530 B( 15-C , 16-N ) :   3.0038
B( 17-C , 18-N ) :   2.9397 B( 19-C , 20-C ) :   1.3142 B( 19-C , 72-H ) :   0.9173
B( 20-C , 21-O ) :   1.0521 B( 20-C , 22-C ) :   0.1192 B( 20-C , 24-C ) :   1.2121
B( 21-O , 22-C ) :   1.1833 B( 22-C , 23-C ) :   1.3731 B( 22-C , 29-C ) :   1.0709
B( 23-C , 24-C ) :   1.2685 B( 23-C , 27-O ) :   1.1540 B( 24-C , 25-O ) :   1.2234
B( 25-O , 26-C ) :   0.9055 B( 26-C , 73-H ) :   0.9587 B( 26-C , 74-H ) :   0.9725
B( 26-C , 75-H ) :   0.9656 B( 27-O , 28-C ) :   0.9210 B( 28-C , 76-H ) :   0.9797
B( 28-C , 77-H ) :   0.9755 B( 28-C , 78-H ) :   0.9734 B( 29-C , 30-N ) :   1.2430
B( 29-C , 36-C ) :   1.3266 B( 30-N , 31-C ) :   1.1750 B( 30-N , 79-H ) :   0.9131
B( 31-C , 32-C ) :   1.2524 B( 31-C , 35-C ) :   1.2761 B( 32-C , 33-C ) :   1.3434
B( 32-C , 80-H ) :   1.0373 B( 33-C , 34-N ) :   1.1871 B( 33-C , 37-C ) :   1.1668
B( 34-N , 35-C ) :   1.1694 B( 34-N , 81-H ) :   0.9314 B( 35-C , 36-C ) :   1.2728
B( 36-C , 82-H ) :   1.0459 B( 37-C , 38-C ) :   1.5681 B( 37-C , 83-H ) :   0.9641
B( 38-C , 39-C ) :   1.1959 B( 38-C , 84-H ) :   0.9554 B( 39-C , 40-O ) :   1.1251
B( 39-C , 43-C ) :   1.2710 B( 40-O , 41-C ) :   1.0661 B( 41-C , 42-C ) :   1.3059
B( 41-C , 48-C ) :   1.3305 B( 42-C , 43-C ) :   1.2570 B( 42-C , 46-O ) :   1.2481
B( 43-C , 44-O ) :   1.1582 B( 44-O , 45-C ) :   0.9474 B( 45-C , 85-H ) :   0.9746
B( 45-C , 86-H ) :   0.9667 B( 45-C , 87-H ) :   0.9665 B( 46-O , 47-C ) :   0.9153
B( 47-C , 88-H ) :   0.9795 B( 47-C , 89-H ) :   0.9754 B( 47-C , 90-H ) :   0.9739
B( 48-C , 49-C ) :   1.4254 B( 48-C , 91-H ) :   0.9237 B( 49-C , 50-C ) :   1.0877
B( 49-C , 62-C ) :   1.0624 B( 50-C , 51-C ) :   1.6113 B( 50-C , 56-C ) :   0.9930
B( 51-C , 52-C ) :   1.1411 B( 51-C , 54-C ) :   1.1523 B( 52-C , 53-N ) :   2.9707
B( 54-C , 55-N ) :   2.9730 B( 56-C , 57-C ) :   1.3150 B( 56-C , 61-C ) :   1.3898
B( 57-C , 58-C ) :   1.3874 B( 57-C , 62-C ) :   1.0165 B( 58-C , 59-C ) :   1.3601
B( 58-C , 92-H ) :   0.9855 B( 59-C , 60-C ) :   1.3842 B( 59-C , 93-H ) :   0.9856
B( 60-C , 61-C ) :   1.3657 B( 60-C , 94-H ) :   0.9854 B( 61-C , 95-H ) :   0.9831
B( 62-C , 63-C ) :   1.6119 B( 63-C , 64-C ) :   1.1515 B( 63-C , 66-C ) :   1.1568
B( 64-C , 65-N ) :   2.9146 B( 66-C , 67-N ) :   3.0121

-----------------------------------------------------------------------------
         ABSORPTION SPECTRUM VIA TRANSITION ELECTRIC DIPOLE MOMENTS
-----------------------------------------------------------------------------
State   Energy  Wavelength   fosc         T2         TX        TY        TZ
        (cm-1)    (nm)                  (au**2)     (au)      (au)      (au)
-----------------------------------------------------------------------------
   0   12147.7    823.2   1.304452520  35.35163   1.67180  -4.94420  -2.84808
   1   16261.9    614.9   0.006835575   0.13838   0.05128  -0.35357  -0.10364
   2   17622.6    567.5   0.290892672   5.43423  -0.15369   2.29490   0.37955
   3   18812.5    531.6   0.092169642   1.61294  -0.26031   1.17863   0.39497
   4   21781.1    459.1   0.029548611   0.44662  -0.40592  -0.52997  -0.03131
   5   24339.6    410.9   0.388643574   5.25672   1.71008   1.52697   0.02614
   6   26000.3    384.6   0.089201662   1.12946   0.22110  -1.03522  -0.09428
   7   26209.5    381.5   0.125613441   1.57780   0.17045   1.24346  -0.05060
   8   27104.1    368.9   0.049348439   0.59940   0.11664  -0.67614  -0.35865
   9   27830.5    359.3   0.025601359   0.30284  -0.50156   0.22551   0.02065
  10   27982.6    357.4   0.219740043   2.58522   1.54269   0.39938   0.21404
  11   28829.5    346.9   0.176942339   2.02055   1.20678  -0.74560  -0.09121
  12   29857.5    334.9   0.055379255   0.61062  -0.01686  -0.75415  -0.20394
  13   29859.5    334.9   0.758873554   8.36685   2.27847   1.69767   0.54164
  14   31051.2    322.0   0.162481063   1.72266   0.41043  -1.24437   0.07576
  15   31211.1    320.4   0.281390863   2.96809   0.22097  -1.70857   0.00779
  16   31387.9    318.6   0.072850093   0.76409  -0.17377   0.83402   0.19574
  17   32087.3    311.7   0.022938523   0.23535  -0.09133   0.47628   0.01290
  18   32600.6    306.7   0.005393392   0.05446   0.22899  -0.00518  -0.04471
  19   32946.6    303.5   0.008893595   0.08887   0.06086  -0.18214   0.22801
  20   33154.9    301.6   0.614641481   6.10308   0.50578  -2.41624   0.09511
  21   33530.8    298.2   0.130162954   1.27797   0.12396   1.12348   0.01960
  22   33630.2    297.4   0.005753814   0.05633  -0.13317  -0.15461   0.12119
  23   34013.9    294.0   0.002461390   0.02382  -0.11275  -0.08112   0.06731
  24   34448.2    290.3   0.040400200   0.38609  -0.44612  -0.30156  -0.31005
  25   34848.2    287.0   0.842361592   7.95782   2.62267   0.65213   0.80879
  26   35524.5    281.5   0.113816494   1.05476   0.94151   0.26232   0.31544
  27   36163.9    276.5   0.019451449   0.17707   0.41173   0.04192   0.07614
  28   36366.4    275.0   0.017175075   0.15548  -0.35983  -0.15836   0.03043
  29   37059.3    269.8   0.019430371   0.17261   0.37509  -0.17863   0.00172
  30   37155.2    269.1   0.053818962   0.47686   0.63509  -0.24586   0.11434
  31   38126.0    262.3   0.033077428   0.28562   0.51765  -0.07566   0.10925
  32   38450.1    260.1   0.082092801   0.70288   0.76572   0.20299   0.27448
  33   39032.4    256.2   0.001051720   0.00887   0.06287  -0.06190  -0.03295
  34   39586.0    252.6   0.116937165   0.97249   0.93285   0.31524  -0.05387
  35   40274.6    248.3   0.029624153   0.24215   0.43245   0.03503   0.23218

FINAL SINGLE POINT ENERGY     -2993.228639566167

DIPOLE MOMENT
-------------
                                X             Y             Z
Electronic contribution:      3.40135      -0.89310      -4.23411
Nuclear contribution   :     -3.93974       1.66757       5.34068
                        -----------------------------------------
Total Dipole Moment    :     -0.53838       0.77447       1.10658
                        -----------------------------------------
Magnitude (a.u.)       :      1.45402
Magnitude (Debye)      :      3.69582

Rotational constants in cm-1:     0.002282     0.000380     0.000336
Rotational constants in MHz :    68.412129    11.392775    10.071283

                             ****ORCA TERMINATED NORMALLY****
TOTAL RUN TIME: 0 days 0 hours 9 minutes 34 seconds 181 msec
