                         Program Version 4.2.0 -  RELEASE  -
|  1> # ORCA input file
|  2> # SCF done       -159.021766293832          0.000965575967
|  3> ! CAM-B3LYP def2-SVP def2/J RIJCOSX Grid4 TightSCF
|  4> %maxcore 5000
|  5> %tddft
|  6>     Mode sTDDFT
|  7>     Ethresh 5.0
|  8>     maxcore 5000
|  9> end
| 10>
| 11> %pal
| 12>   nprocs 6
| 13>   end
| 14> * xyz 0 1
| 15>    C      -10.19249        -4.82841         6.41119
| 16>    C      -10.91558        -6.01268         6.41312
| 17>    C      -10.61869        -7.03717         5.52528
| 18>    C       -9.58605        -6.90837         4.60833
| 19>    C       -8.86446        -5.72673         4.59040
| 20>    C       -9.16517        -4.68068         5.49340
| 21>    C       -8.25543        -3.56797         5.24657
| 22>    C       -8.11488        -2.44645         6.01501
| 23>    C       -8.87977        -2.18227         7.17146
| 24>    N       -9.47478        -1.91256         8.11469
| 25>    C       -7.14883        -1.44003         5.79335
| 26>    N       -6.37165        -0.60429         5.67721
| 27>    C       -7.51511        -3.90149         4.03351
| 28>    C       -7.72391        -5.31963         3.78682
| 29>    C       -6.87043        -6.15282         3.11403
| 30>    C       -5.58143        -5.75876         2.69316
| 31>    N       -4.50815        -5.49706         2.38262
| 32>    C       -7.15551        -7.49189         2.78960
| 33>    N       -7.35576        -8.55507         2.40294
| 34>    C       -6.96813        -2.97060         3.18988
| 35>    C       -6.64372        -3.11565         1.82798
| 36>    O       -6.86720        -4.24788         1.11635
| 37>    C       -6.52494        -4.01732        -0.17197
| 38>    C       -6.08638        -2.71109        -0.31947
| 39>    C       -6.15845        -2.12911         0.95422
| 40>    C       -5.82935        -0.80808         1.29648
| 41>    N       -5.57463         0.27823         1.55639
| 42>    C       -6.63895        -5.06909        -1.11649
| 43>    N       -6.90115        -6.36644        -0.73320
| 44>    C       -6.94346        -7.13628        -1.85038
| 45>    C       -7.13613        -8.43006        -2.30996
| 46>    C       -7.03982        -8.35348        -3.71075
| 47>    N       -6.78088        -7.05038        -4.09010
| 48>    C       -6.72680        -6.28689        -2.97489
| 49>    C       -6.52718        -4.99155        -2.50969
| 50>    C       -7.19001        -9.35153        -4.69329
| 51>    C       -7.53413       -10.65680        -4.50953
| 52>    C       -7.78519       -11.49927        -5.61445
| 53>    O       -7.66442       -11.02739        -6.86852
| 54>    C       -8.08574       -11.98709        -7.73723
| 55>    C       -8.44400       -13.12508        -7.02270
| 56>    C       -8.25906       -12.82234        -5.66731
| 57>    C       -8.49726       -13.65008        -4.56105
| 58>    N       -8.68299       -14.32509        -3.65331
| 59>    C       -8.08519       -11.79541        -9.13268
| 60>    C       -7.77289       -10.66221        -9.84045
| 61>    C       -7.38080       -10.66198       -11.24618
| 62>    C       -7.66673       -11.61432       -12.18591
| 63>    C       -8.45227       -12.76480       -11.95867
| 64>    N       -9.08489       -13.71545       -11.84104
| 65>    C       -7.24711       -11.54829       -13.53192
| 66>    N       -6.94013       -11.55261       -14.63759
| 67>    C       -6.62464        -9.43480       -11.46861
| 68>    C       -6.67515        -8.64768       -10.29526
| 69>    C       -6.03781        -7.41970       -10.23678
| 70>    C       -5.33746        -6.98439       -11.35154
| 71>    C       -5.28657        -7.75432       -12.50495
| 72>    C       -5.93016        -8.98139       -12.57859
| 73>    C       -7.52366        -9.32434        -9.32974
| 74>    C       -8.15683        -8.72615        -8.26878
| 75>    C       -7.74521        -7.53017        -7.66361
| 76>    N       -7.39073        -6.63834        -7.02734
| 77>    C       -9.30489        -9.27437        -7.65554
| 78>    N      -10.28290        -9.65811        -7.19489
| 79>    H      -10.43746        -4.04416         7.10842
| 80>    H      -11.72331        -6.13558         7.11817
| 81>    H      -11.19831        -7.94724         5.54591
| 82>    H       -9.36432        -7.70874         3.92022
| 83>    H       -6.86475        -1.95472         3.54776
| 84>    H       -5.74579        -2.24514        -1.22026
| 85>    H       -6.98057        -6.68536         0.21761
| 86>    H       -7.31778        -9.31722        -1.73913
| 87>    H       -6.77152        -6.72936        -5.05096
| 88>    H       -6.34175        -4.10152        -3.07442
| 89>    H       -7.04185        -9.01624        -5.71074
| 90>    H       -7.68493       -11.07842        -3.52880
| 91>    H       -8.80552       -14.04564        -7.43443
| 92>    H       -8.27507       -12.70230        -9.68886
| 93>    H       -6.07300        -6.81506        -9.34413
| 94>    H       -4.82773        -6.03363       -11.32019
| 95>    H       -4.73873        -7.39447       -13.36223
| 96>    H       -5.88189        -9.56184       -13.48504
| 97> *
| 98>
| 99>                          ****END OF INPUT****

CARTESIAN COORDINATES (ANGSTROEM)
---------------------------------
  C    -10.192490   -4.828410    6.411190
  C    -10.915580   -6.012680    6.413120
  C    -10.618690   -7.037170    5.525280
  C     -9.586050   -6.908370    4.608330
  C     -8.864460   -5.726730    4.590400
  C     -9.165170   -4.680680    5.493400
  C     -8.255430   -3.567970    5.246570
  C     -8.114880   -2.446450    6.015010
  C     -8.879770   -2.182270    7.171460
  N     -9.474780   -1.912560    8.114690
  C     -7.148830   -1.440030    5.793350
  N     -6.371650   -0.604290    5.677210
  C     -7.515110   -3.901490    4.033510
  C     -7.723910   -5.319630    3.786820
  C     -6.870430   -6.152820    3.114030
  C     -5.581430   -5.758760    2.693160
  N     -4.508150   -5.497060    2.382620
  C     -7.155510   -7.491890    2.789600
  N     -7.355760   -8.555070    2.402940
  C     -6.968130   -2.970600    3.189880
  C     -6.643720   -3.115650    1.827980
  O     -6.867200   -4.247880    1.116350
  C     -6.524940   -4.017320   -0.171970
  C     -6.086380   -2.711090   -0.319470
  C     -6.158450   -2.129110    0.954220
  C     -5.829350   -0.808080    1.296480
  N     -5.574630    0.278230    1.556390
  C     -6.638950   -5.069090   -1.116490
  N     -6.901150   -6.366440   -0.733200
  C     -6.943460   -7.136280   -1.850380
  C     -7.136130   -8.430060   -2.309960
  C     -7.039820   -8.353480   -3.710750
  N     -6.780880   -7.050380   -4.090100
  C     -6.726800   -6.286890   -2.974890
  C     -6.527180   -4.991550   -2.509690
  C     -7.190010   -9.351530   -4.693290
  C     -7.534130  -10.656800   -4.509530
  C     -7.785190  -11.499270   -5.614450
  O     -7.664420  -11.027390   -6.868520
  C     -8.085740  -11.987090   -7.737230
  C     -8.444000  -13.125080   -7.022700
  C     -8.259060  -12.822340   -5.667310
  C     -8.497260  -13.650080   -4.561050
  N     -8.682990  -14.325090   -3.653310
  C     -8.085190  -11.795410   -9.132680
  C     -7.772890  -10.662210   -9.840450
  C     -7.380800  -10.661980  -11.246180
  C     -7.666730  -11.614320  -12.185910
  C     -8.452270  -12.764800  -11.958670
  N     -9.084890  -13.715450  -11.841040
  C     -7.247110  -11.548290  -13.531920
  N     -6.940130  -11.552610  -14.637590
  C     -6.624640   -9.434800  -11.468610
  C     -6.675150   -8.647680  -10.295260
  C     -6.037810   -7.419700  -10.236780
  C     -5.337460   -6.984390  -11.351540
  C     -5.286570   -7.754320  -12.504950
  C     -5.930160   -8.981390  -12.578590
  C     -7.523660   -9.324340   -9.329740
  C     -8.156830   -8.726150   -8.268780
  C     -7.745210   -7.530170   -7.663610
  N     -7.390730   -6.638340   -7.027340
  C     -9.304890   -9.274370   -7.655540
  N    -10.282900   -9.658110   -7.194890
  H    -10.437460   -4.044160    7.108420
  H    -11.723310   -6.135580    7.118170
  H    -11.198310   -7.947240    5.545910
  H     -9.364320   -7.708740    3.920220
  H     -6.864750   -1.954720    3.547760
  H     -5.745790   -2.245140   -1.220260
  H     -6.980570   -6.685360    0.217610
  H     -7.317780   -9.317220   -1.739130
  H     -6.771520   -6.729360   -5.050960
  H     -6.341750   -4.101520   -3.074420
  H     -7.041850   -9.016240   -5.710740
  H     -7.684930  -11.078420   -3.528800
  H     -8.805520  -14.045640   -7.434430
  H     -8.275070  -12.702300   -9.688860
  H     -6.073000   -6.815060   -9.344130
  H     -4.827730   -6.033630  -11.320190
  H     -4.738730   -7.394470  -13.362230
  H     -5.881890   -9.561840  -13.485040

 Total Charge           Charge          ....    0
 Multiplicity           Mult            ....    1
 Number of Electrons    NEL             ....  418
 Basis Dimension        Dim             ....  986

ORBITAL ENERGIES
----------------

  NO   OCC          E(Eh)            E(eV)
   0   2.0000     -19.338120      -526.2170
   1   2.0000     -19.329788      -525.9903
   2   2.0000     -14.485268      -394.1642
   3   2.0000     -14.473558      -393.8455
   4   2.0000     -14.451772      -393.2527
   5   2.0000     -14.440333      -392.9415
   6   2.0000     -14.432149      -392.7187
   7   2.0000     -14.430109      -392.6632
   8   2.0000     -14.428648      -392.6235
   9   2.0000     -14.428414      -392.6171
  10   2.0000     -14.427495      -392.5921
  11   2.0000     -14.426762      -392.5721
  12   2.0000     -14.426409      -392.5625
  13   2.0000     -14.419366      -392.3709
  14   2.0000     -10.389540      -282.7138
  15   2.0000     -10.387052      -282.6461
  16   2.0000     -10.380929      -282.4794
  17   2.0000     -10.370915      -282.2069
  18   2.0000     -10.361786      -281.9585
  19   2.0000     -10.361529      -281.9515
  20   2.0000     -10.360862      -281.9334
  21   2.0000     -10.360505      -281.9237
  22   2.0000     -10.358648      -281.8731
  23   2.0000     -10.358397      -281.8663
  24   2.0000     -10.357932      -281.8537
  25   2.0000     -10.357563      -281.8436
  26   2.0000     -10.355853      -281.7971
  27   2.0000     -10.350260      -281.6449
  28   2.0000     -10.344536      -281.4891
  29   2.0000     -10.343479      -281.4604
  30   2.0000     -10.342358      -281.4299
  31   2.0000     -10.342325      -281.4290
  32   2.0000     -10.333831      -281.1978
  33   2.0000     -10.333310      -281.1836
  34   2.0000     -10.331373      -281.1310
  35   2.0000     -10.331060      -281.1224
  36   2.0000     -10.331018      -281.1213
  37   2.0000     -10.330957      -281.1196
  38   2.0000     -10.330787      -281.1150
  39   2.0000     -10.330341      -281.1029
  40   2.0000     -10.329564      -281.0817
  41   2.0000     -10.328417      -281.0505
  42   2.0000     -10.328387      -281.0497
  43   2.0000     -10.327498      -281.0255
  44   2.0000     -10.324619      -280.9472
  45   2.0000     -10.324276      -280.9378
  46   2.0000     -10.322264      -280.8831
  47   2.0000     -10.321973      -280.8752
  48   2.0000     -10.321825      -280.8711
  49   2.0000     -10.321622      -280.8656
  50   2.0000     -10.321326      -280.8576
  51   2.0000     -10.320926      -280.8467
  52   2.0000     -10.318486      -280.7803
  53   2.0000     -10.314471      -280.6710
  54   2.0000     -10.311790      -280.5981
  55   2.0000     -10.311689      -280.5953
  56   2.0000     -10.310352      -280.5589
  57   2.0000     -10.310187      -280.5544
  58   2.0000     -10.308709      -280.5142
  59   2.0000     -10.308043      -280.4961
  60   2.0000     -10.307233      -280.4741
  61   2.0000     -10.307108      -280.4707
  62   2.0000     -10.298649      -280.2405
  63   2.0000     -10.291491      -280.0457
  64   2.0000      -1.257880       -34.2287
  65   2.0000      -1.252693       -34.0875
  66   2.0000      -1.116037       -30.3689
  67   2.0000      -1.078281       -29.3415
  68   2.0000      -1.049778       -28.5659
  69   2.0000      -1.046271       -28.4705
  70   2.0000      -1.037082       -28.2204
  71   2.0000      -1.029545       -28.0153
  72   2.0000      -1.022056       -27.8116
  73   2.0000      -1.017098       -27.6766
  74   2.0000      -1.014743       -27.6126
  75   2.0000      -1.012273       -27.5453
  76   2.0000      -1.011090       -27.5132
  77   2.0000      -1.008498       -27.4426
  78   2.0000      -1.005544       -27.3623
  79   2.0000      -1.004763       -27.3410
  80   2.0000      -0.973208       -26.4823
  81   2.0000      -0.970987       -26.4219
  82   2.0000      -0.955169       -25.9915
  83   2.0000      -0.953337       -25.9416
  84   2.0000      -0.950587       -25.8668
  85   2.0000      -0.949458       -25.8361
  86   2.0000      -0.948191       -25.8016
  87   2.0000      -0.938724       -25.5440
  88   2.0000      -0.918149       -24.9841
  89   2.0000      -0.906910       -24.6783
  90   2.0000      -0.905025       -24.6270
  91   2.0000      -0.898807       -24.4578
  92   2.0000      -0.889864       -24.2144
  93   2.0000      -0.878346       -23.9010
  94   2.0000      -0.876460       -23.8497
  95   2.0000      -0.874861       -23.8062
  96   2.0000      -0.859883       -23.3986
  97   2.0000      -0.830144       -22.5894
  98   2.0000      -0.813601       -22.1392
  99   2.0000      -0.803818       -21.8730
 100   2.0000      -0.800581       -21.7849
 101   2.0000      -0.792778       -21.5726
 102   2.0000      -0.784060       -21.3354
 103   2.0000      -0.767574       -20.8868
 104   2.0000      -0.756973       -20.5983
 105   2.0000      -0.736325       -20.0364
 106   2.0000      -0.730510       -19.8782
 107   2.0000      -0.726674       -19.7738
 108   2.0000      -0.724467       -19.7137
 109   2.0000      -0.723765       -19.6947
 110   2.0000      -0.719797       -19.5867
 111   2.0000      -0.713126       -19.4052
 112   2.0000      -0.711946       -19.3730
 113   2.0000      -0.703936       -19.1551
 114   2.0000      -0.700955       -19.0740
 115   2.0000      -0.686971       -18.6934
 116   2.0000      -0.681649       -18.5486
 117   2.0000      -0.677195       -18.4274
 118   2.0000      -0.674411       -18.3516
 119   2.0000      -0.672468       -18.2988
 120   2.0000      -0.668305       -18.1855
 121   2.0000      -0.655638       -17.8408
 122   2.0000      -0.647954       -17.6317
 123   2.0000      -0.628252       -17.0956
 124   2.0000      -0.618110       -16.8196
 125   2.0000      -0.610015       -16.5993
 126   2.0000      -0.608642       -16.5620
 127   2.0000      -0.603415       -16.4198
 128   2.0000      -0.599791       -16.3211
 129   2.0000      -0.597787       -16.2666
 130   2.0000      -0.595941       -16.2164
 131   2.0000      -0.591543       -16.0967
 132   2.0000      -0.584930       -15.9168
 133   2.0000      -0.577791       -15.7225
 134   2.0000      -0.576529       -15.6881
 135   2.0000      -0.574752       -15.6398
 136   2.0000      -0.559990       -15.2381
 137   2.0000      -0.558573       -15.1995
 138   2.0000      -0.556406       -15.1406
 139   2.0000      -0.555139       -15.1061
 140   2.0000      -0.550690       -14.9850
 141   2.0000      -0.549392       -14.9497
 142   2.0000      -0.547387       -14.8952
 143   2.0000      -0.545507       -14.8440
 144   2.0000      -0.543107       -14.7787
 145   2.0000      -0.539869       -14.6906
 146   2.0000      -0.538006       -14.6399
 147   2.0000      -0.533961       -14.5298
 148   2.0000      -0.526390       -14.3238
 149   2.0000      -0.523692       -14.2504
 150   2.0000      -0.521940       -14.2027
 151   2.0000      -0.515760       -14.0345
 152   2.0000      -0.512306       -13.9406
 153   2.0000      -0.511310       -13.9135
 154   2.0000      -0.502519       -13.6742
 155   2.0000      -0.500553       -13.6207
 156   2.0000      -0.498661       -13.5692
 157   2.0000      -0.496314       -13.5054
 158   2.0000      -0.490054       -13.3350
 159   2.0000      -0.489986       -13.3332
 160   2.0000      -0.481337       -13.0979
 161   2.0000      -0.479503       -13.0479
 162   2.0000      -0.477308       -12.9882
 163   2.0000      -0.475322       -12.9342
 164   2.0000      -0.474009       -12.8984
 165   2.0000      -0.471125       -12.8200
 166   2.0000      -0.469570       -12.7777
 167   2.0000      -0.467347       -12.7172
 168   2.0000      -0.465685       -12.6719
 169   2.0000      -0.462510       -12.5855
 170   2.0000      -0.459164       -12.4945
 171   2.0000      -0.458978       -12.4894
 172   2.0000      -0.458198       -12.4682
 173   2.0000      -0.457467       -12.4483
 174   2.0000      -0.456660       -12.4263
 175   2.0000      -0.455193       -12.3864
 176   2.0000      -0.454214       -12.3598
 177   2.0000      -0.452113       -12.3026
 178   2.0000      -0.448511       -12.2046
 179   2.0000      -0.447794       -12.1851
 180   2.0000      -0.443862       -12.0781
 181   2.0000      -0.442113       -12.0305
 182   2.0000      -0.441193       -12.0055
 183   2.0000      -0.440802       -11.9948
 184   2.0000      -0.437680       -11.9099
 185   2.0000      -0.436469       -11.8769
 186   2.0000      -0.434041       -11.8109
 187   2.0000      -0.432604       -11.7717
 188   2.0000      -0.429975       -11.7002
 189   2.0000      -0.428514       -11.6605
 190   2.0000      -0.423890       -11.5346
 191   2.0000      -0.422941       -11.5088
 192   2.0000      -0.422651       -11.5009
 193   2.0000      -0.419746       -11.4219
 194   2.0000      -0.404006       -10.9936
 195   2.0000      -0.399580       -10.8731
 196   2.0000      -0.396848       -10.7988
 197   2.0000      -0.395452       -10.7608
 198   2.0000      -0.391046       -10.6409
 199   2.0000      -0.377671       -10.2769
 200   2.0000      -0.364759        -9.9256
 201   2.0000      -0.345482        -9.4010
 202   2.0000      -0.342628        -9.3234
 203   2.0000      -0.338762        -9.2182
 204   2.0000      -0.326036        -8.8719
 205   2.0000      -0.314770        -8.5653
 206   2.0000      -0.310526        -8.4498
 207   2.0000      -0.292567        -7.9612
 208   2.0000      -0.249159        -6.7800
 209   0.0000      -0.123857        -3.3703
 210   0.0000      -0.109071        -2.9680
 211   0.0000      -0.100443        -2.7332
 212   0.0000      -0.096218        -2.6182
 213   0.0000      -0.061104        -1.6627

MULLIKEN ATOMIC CHARGES
-----------------------
   0 C :   -0.030833
   1 C :    0.046677
   2 C :    0.049691
   3 C :   -0.039393
   4 C :    0.023297
   5 C :    0.011713
   6 C :    0.272466
   7 C :   -0.324742
   8 C :   -0.186647
   9 N :    0.163183
  10 C :   -0.195697
  11 N :    0.178435
  12 C :   -0.047200
  13 C :    0.221888
  14 C :   -0.334583
  15 C :   -0.215261
  16 N :    0.189421
  17 C :   -0.184409
  18 N :    0.142426
  19 C :   -0.012308
  20 C :    0.140452
  21 O :   -0.218007
  22 C :    0.214697
  23 C :   -0.051291
  24 C :   -0.032719
  25 C :   -0.190517
  26 N :    0.194491
  27 C :    0.061436
  28 N :   -0.028486
  29 C :    0.120242
  30 C :   -0.146828
  31 C :    0.108871
  32 N :   -0.022789
  33 C :    0.125018
  34 C :   -0.144799
  35 C :    0.040589
  36 C :   -0.066112
  37 C :    0.201476
  38 O :   -0.222288
  39 C :    0.135122
  40 C :    0.020065
  41 C :   -0.083600
  42 C :   -0.193911
  43 N :    0.164777
  44 C :    0.043168
  45 C :   -0.053438
  46 C :    0.284038
  47 C :   -0.340052
  48 C :   -0.183192
  49 N :    0.160744
  50 C :   -0.184379
  51 N :    0.163132
  52 C :    0.008912
  53 C :    0.025148
  54 C :   -0.044525
  55 C :    0.050738
  56 C :    0.049265
  57 C :   -0.030695
  58 C :    0.225276
  59 C :   -0.326954
  60 C :   -0.105718
  61 N :    0.076822
  62 C :   -0.213852
  63 N :    0.183008
  64 H :    0.008870
  65 H :    0.008344
  66 H :    0.007243
  67 H :    0.006079
  68 H :    0.034012
  69 H :    0.004386
  70 H :    0.133684
  71 H :   -0.009210
  72 H :    0.124291
  73 H :   -0.020758
  74 H :   -0.013779
  75 H :    0.018381
  76 H :    0.019935
  77 H :    0.015320
  78 H :    0.000438
  79 H :    0.005277
  80 H :    0.007318
  81 H :    0.008714
Sum of atomic charges:   -0.0000000

LOEWDIN ATOMIC CHARGES
----------------------
   0 C :    0.006305
   1 C :    0.004549
   2 C :    0.005347
   3 C :   -0.000477
   4 C :   -0.011016
   5 C :   -0.011272
   6 C :    0.075023
   7 C :   -0.125907
   8 C :   -0.019000
   9 N :   -0.040691
  10 C :   -0.027989
  11 N :   -0.028375
  12 C :   -0.051015
  13 C :    0.073111
  14 C :   -0.141998
  15 C :   -0.036969
  16 N :   -0.045154
  17 C :   -0.025405
  18 N :   -0.053779
  19 C :    0.037932
  20 C :    0.035060
  21 O :    0.029178
  22 C :    0.073170
  23 C :   -0.029360
  24 C :   -0.051932
  25 C :   -0.034094
  26 N :   -0.013770
  27 C :   -0.010807
  28 N :    0.081720
  29 C :   -0.001976
  30 C :   -0.061606
  31 C :   -0.000066
  32 N :    0.081701
  33 C :   -0.002683
  34 C :   -0.065848
  35 C :    0.027602
  36 C :   -0.060404
  37 C :    0.109457
  38 O :    0.026805
  39 C :    0.010796
  40 C :    0.038920
  41 C :   -0.114974
  42 C :   -0.036097
  43 N :   -0.041158
  44 C :    0.046573
  45 C :   -0.066171
  46 C :    0.077888
  47 C :   -0.131063
  48 C :   -0.022335
  49 N :   -0.041397
  50 C :   -0.019641
  51 N :   -0.042286
  52 C :   -0.011068
  53 C :   -0.011375
  54 C :   -0.003191
  55 C :    0.004546
  56 C :    0.004364
  57 C :    0.007093
  58 C :    0.079971
  59 C :   -0.147988
  60 C :    0.014157
  61 N :   -0.080587
  62 C :   -0.032776
  63 N :   -0.046079
  64 H :    0.042619
  65 H :    0.039181
  66 H :    0.038789
  67 H :    0.040493
  68 H :    0.060056
  69 H :    0.044450
  70 H :    0.092654
  71 H :    0.034626
  72 H :    0.076549
  73 H :    0.031821
  74 H :    0.035710
  75 H :    0.045358
  76 H :    0.051433
  77 H :    0.056698
  78 H :    0.038222
  79 H :    0.038123
  80 H :    0.039090
  81 H :    0.042637

  Mayer bond orders larger than 0.100000
B(  0-C ,  1-C ) :   1.3680 B(  0-C ,  5-C ) :   1.3873 B(  0-C , 64-H ) :   0.9850
B(  1-C ,  2-C ) :   1.3797 B(  1-C , 65-H ) :   0.9864 B(  2-C ,  3-C ) :   1.3644
B(  2-C , 66-H ) :   0.9862 B(  3-C ,  4-C ) :   1.3807 B(  3-C , 67-H ) :   0.9878
B(  4-C ,  5-C ) :   1.3067 B(  4-C , 13-C ) :   1.0295 B(  5-C ,  6-C ) :   1.0060
B(  6-C ,  7-C ) :   1.6580 B(  6-C , 12-C ) :   1.0428 B(  7-C ,  8-C ) :   1.1429
B(  7-C , 10-C ) :   1.1323 B(  8-C ,  9-N ) :   2.9804 B( 10-C , 11-N ) :   2.9950
B( 12-C , 13-C ) :   1.0278 B( 12-C , 19-C ) :   1.5416 B( 13-C , 14-C ) :   1.6396
B( 14-C , 15-C ) :   1.1500 B( 14-C , 17-C ) :   1.1470 B( 15-C , 16-N ) :   3.0140
B( 17-C , 18-N ) :   2.9447 B( 19-C , 20-C ) :   1.2619 B( 19-C , 68-H ) :   0.9229
B( 20-C , 21-O ) :   1.1008 B( 20-C , 24-C ) :   1.3677 B( 21-O , 22-C ) :   1.1470
B( 22-C , 23-C ) :   1.4219 B( 22-C , 27-C ) :   1.0381 B( 23-C , 24-C ) :   1.3094
B( 23-C , 69-H ) :   1.0137 B( 24-C , 25-C ) :   1.0986 B( 25-C , 26-N ) :   3.0290
B( 27-C , 28-N ) :   1.2067 B( 27-C , 34-C ) :   1.4091 B( 28-N , 29-C ) :   1.1680
B( 28-N , 70-H ) :   0.9266 B( 29-C , 30-C ) :   1.3012 B( 29-C , 33-C ) :   1.2638
B( 30-C , 31-C ) :   1.3516 B( 30-C , 71-H ) :   1.0316 B( 31-C , 32-N ) :   1.1833
B( 31-C , 35-C ) :   1.1434 B( 32-N , 33-C ) :   1.2042 B( 32-N , 72-H ) :   0.8951
B( 33-C , 34-C ) :   1.2796 B( 34-C , 73-H ) :   1.0238 B( 35-C , 36-C ) :   1.5619
B( 35-C , 74-H ) :   0.9664 B( 36-C , 37-C ) :   1.2513 B( 36-C , 75-H ) :   0.9586
B( 37-C , 38-O ) :   1.1652 B( 37-C , 41-C ) :   1.3121 B( 38-O , 39-C ) :   1.0678
B( 39-C , 40-C ) :   1.3618 B( 39-C , 44-C ) :   1.2342 B( 40-C , 41-C ) :   1.3020
B( 40-C , 76-H ) :   1.0216 B( 41-C , 42-C ) :   1.1102 B( 42-C , 43-N ) :   3.0390
B( 44-C , 45-C ) :   1.5082 B( 44-C , 77-H ) :   0.9281 B( 45-C , 46-C ) :   1.0535
B( 45-C , 58-C ) :   1.0460 B( 46-C , 47-C ) :   1.6459 B( 46-C , 52-C ) :   1.0039
B( 47-C , 48-C ) :   1.1357 B( 47-C , 50-C ) :   1.1433 B( 48-C , 49-N ) :   2.9793
B( 50-C , 51-N ) :   2.9784 B( 52-C , 53-C ) :   1.3052 B( 52-C , 57-C ) :   1.3887
B( 53-C , 54-C ) :   1.3800 B( 53-C , 58-C ) :   1.0353 B( 54-C , 55-C ) :   1.3673
B( 54-C , 78-H ) :   0.9860 B( 55-C , 56-C ) :   1.3797 B( 55-C , 79-H ) :   0.9859
B( 56-C , 57-C ) :   1.3680 B( 56-C , 80-H ) :   0.9859 B( 57-C , 81-H ) :   0.9839
B( 58-C , 59-C ) :   1.6073 B( 59-C , 60-C ) :   1.1538 B( 59-C , 62-C ) :   1.1500
B( 60-C , 61-N ) :   2.8590 B( 61-N , 72-H ) :   0.1021 B( 62-C , 63-N ) :   3.0142

-----------------------------------------------------------------------------
         ABSORPTION SPECTRUM VIA TRANSITION ELECTRIC DIPOLE MOMENTS
-----------------------------------------------------------------------------
State   Energy  Wavelength   fosc         T2         TX        TY        TZ
        (cm-1)    (nm)                  (au**2)     (au)      (au)      (au)
-----------------------------------------------------------------------------
   0   12025.5    831.6   1.165518553  31.90730   0.05535   1.94352   5.30349
   1   15742.4    635.2   0.050209694   1.05001   0.38108  -0.47670  -0.82313
   2   18620.9    537.0   0.287583648   5.08439  -0.05655  -1.29582  -1.84446
   3   19675.8    508.2   0.087056384   1.45661  -0.35189   0.85172   0.77933
   4   22450.4    445.4   0.029719488   0.43581   0.17860  -0.52908  -0.35210
   5   24192.3    413.4   0.118707114   1.61538   0.21918  -1.24553  -0.12645
   6   25368.5    394.2   0.083673007   1.08584   0.20654  -1.02106  -0.02512
   7   26641.0    375.4   0.017193595   0.21247  -0.14066   0.43803   0.02854
   8   26715.9    374.3   0.667503954   8.22546   0.45825   2.75652   0.64578
   9   27435.4    364.5   0.250317488   3.00370   0.50542   1.64393   0.21385
  10   28179.2    354.9   0.073521822   0.85894   0.06944  -0.48556  -0.78636
  11   28359.1    352.6   0.097165278   1.12796   0.07645   0.86947  -0.60509
  12   29070.8    344.0   0.329104029   3.72693  -0.70811  -0.14023   1.79049
  13   30850.4    324.1   0.025032763   0.26713   0.03714  -0.39752   0.32822
  14   30887.0    323.8   0.083344509   0.88834  -0.12116   0.54871   0.75669
  15   31176.4    320.8   0.253188643   2.67358  -0.46798  -1.47867   0.51779
  16   32242.0    310.2   0.532970147   5.44198  -0.67546   0.63258   2.14140
  17   32578.9    306.9   0.568790024   5.74767   0.91168  -1.56622  -1.56954
  18   33092.0    302.2   0.001932640   0.01923   0.01280  -0.08909   0.10548
  19   33396.9    299.4   0.019785466   0.19504   0.00662  -0.44073   0.02732
  20   33926.3    294.8   0.003519315   0.03415   0.06693  -0.16967  -0.02972
  21   34051.5    293.7   0.018436822   0.17825  -0.03782  -0.38800  -0.16208
  22   34671.5    288.4   0.873307846   8.29221  -1.79251  -2.18090   0.56815
  23   35073.5    285.1   0.041798245   0.39233   0.03259  -0.53881  -0.31773
  24   35536.1    281.4   0.018877086   0.17488  -0.16207  -0.25401   0.28999
  25   36467.3    274.2   0.086464392   0.78057  -0.55945  -0.60736   0.31414
  26   36738.5    272.2   0.027350922   0.24509  -0.33921  -0.20984   0.29324
  27   37098.8    269.6   0.001679080   0.01490  -0.01009   0.00318  -0.12161
  28   37282.6    268.2   0.027827035   0.24572   0.02292   0.48982  -0.07256
  29   38165.4    262.0   0.014670973   0.12655  -0.06723   0.24643  -0.24760
  30   39000.6    256.4   0.173398609   1.46369  -0.42996  -1.13016   0.03957
  31   39147.9    255.4   0.030052612   0.25273  -0.09103  -0.44432   0.21684
  32   39230.9    254.9   0.333391418   2.79771  -0.56894  -1.50300   0.46367
  33   40073.2    249.5   0.082204109   0.67533  -0.21643  -0.68881  -0.39247

FINAL SINGLE POINT ENERGY     -2719.928809223470

DIPOLE MOMENT
-------------
                                X             Y             Z
Electronic contribution:      0.92877       2.17852       5.31449
Nuclear contribution   :     -0.86270      -2.12612      -7.00057
                        -----------------------------------------
Total Dipole Moment    :      0.06607       0.05240      -1.68607
                        -----------------------------------------
Magnitude (a.u.)       :      1.68818
Magnitude (Debye)      :      4.29101

Rotational constants in cm-1:     0.002943     0.000406     0.000368
Rotational constants in MHz :    88.221956    12.160948    11.043718

                             ****ORCA TERMINATED NORMALLY****
TOTAL RUN TIME: 0 days 0 hours 8 minutes 36 seconds 957 msec
