                         Program Version 4.2.0 -  RELEASE  -
|  1> # ORCA input file
|  2> # SCF done       -199.792807582728          0.000953357331
|  3> ! CAM-B3LYP def2-SVP def2/J RIJCOSX Grid4 TightSCF
|  4> %maxcore 5000
|  5> %tddft
|  6>     Mode sTDDFT
|  7>     Ethresh 5.0
|  8>     maxcore 5000
|  9> end
| 10>
| 11> %pal
| 12>   nprocs 6
| 13>   end
| 14> * xyz 0 1
| 15>    C      -13.31946        -0.94039        -1.31755
| 16>    C      -14.05508        -1.81436        -2.10288
| 17>    C      -13.77683        -3.17466        -2.11439
| 18>    C      -12.75820        -3.70233        -1.33592
| 19>    C      -12.01456        -2.83967        -0.54646
| 20>    C      -12.29234        -1.45249        -0.53969
| 21>    C      -11.36096        -0.79063         0.35985
| 22>    C      -11.42919         0.49892         0.80466
| 23>    C      -12.41870         1.42190         0.40275
| 24>    N      -13.19235         2.21562         0.10621
| 25>    C      -10.56279         1.05237         1.77284
| 26>    N       -9.90639         1.53864         2.57923
| 27>    C      -10.36212        -1.79358         0.73744
| 28>    C      -10.92263        -3.09878         0.37817
| 29>    C      -10.62171        -4.29787         0.95862
| 30>    C       -9.73717        -4.44563         2.05012
| 31>    N       -9.08746        -4.61882         2.97949
| 32>    C      -11.21668        -5.52085         0.58439
| 33>    N      -11.65289        -6.54226         0.29589
| 34>    C       -9.11078        -1.50178         1.16311
| 35>    C       -7.98190        -2.40468         1.23524
| 36>    C       -7.78385        -3.32382         0.22034
| 37>    C       -6.67814        -4.17954         0.22788
| 38>    C       -5.78626        -4.10450         1.29056
| 39>    C       -5.93413        -3.18110         2.32663
| 40>    C       -7.04963        -2.30575         2.30274
| 41>    C       -7.25041        -1.39622         3.37405
| 42>    C       -6.36758        -1.32191         4.39897
| 43>    C       -5.21921        -2.15749         4.45040
| 44>    C       -4.99139        -3.09812         3.41865
| 45>    C       -3.84920        -3.90869         3.51034
| 46>    C       -2.97537        -3.79327         4.56412
| 47>    C       -3.20432        -2.86180         5.57741
| 48>    C       -4.31265        -2.05743         5.51862
| 49>    C       -6.47832        -5.16189        -0.81439
| 50>    S       -5.79296        -6.68739        -0.40950
| 51>    C       -5.92473        -7.30449        -2.02464
| 52>    C       -6.44879        -6.32285        -2.87469
| 53>    C       -6.77021        -5.10764        -2.17779
| 54>    C       -7.26661        -4.00583        -2.90570
| 55>    C       -7.46954        -4.11807        -4.24883
| 56>    S       -8.10029        -2.71405        -5.16467
| 57>    C       -7.11876        -5.30164        -4.95607
| 58>    O       -7.25599        -5.37656        -6.30032
| 59>    C       -6.61638        -6.37701        -4.27183
| 60>    C       -5.49837        -8.64812        -2.22012
| 61>    C       -5.71366        -9.44516        -3.28611
| 62>    C       -5.19183       -10.79255        -3.39866
| 63>    C       -4.02164       -11.12771        -2.74372
| 64>    C       -3.44803       -12.39845        -2.86970
| 65>    C       -4.08557       -13.35251        -3.65171
| 66>    C       -5.26041       -13.06276        -4.34679
| 67>    C       -5.84137       -11.77504        -4.20287
| 68>    C       -7.09151       -11.51865        -4.82637
| 69>    C       -7.70748       -12.45313        -5.59038
| 70>    C       -7.11977       -13.72535        -5.82269
| 71>    C       -5.88854       -14.04270        -5.20417
| 72>    C       -5.32236       -15.29673        -5.48222
| 73>    C       -5.94638       -16.19499        -6.31335
| 74>    C       -7.17005       -15.88155        -6.90543
| 75>    C       -7.74529       -14.66150        -6.66210
| 76>    C       -2.23749       -12.68922        -2.14109
| 77>    C       -1.24158       -13.53939        -2.49173
| 78>    C       -0.23682       -14.06331        -1.56446
| 79>    C        0.16379       -13.50475        -0.38327
| 80>    C       -0.29321       -12.26830         0.12256
| 81>    N       -0.61201       -11.26694         0.58457
| 82>    C        1.13893       -14.07031         0.46649
| 83>    N        1.92418       -14.47832         1.19695
| 84>    C        0.27143       -15.29214        -2.15561
| 85>    C       -0.23489       -15.41263        -3.47076
| 86>    C        0.08736       -16.50981        -4.25327
| 87>    C        0.91510       -17.48421        -3.71734
| 88>    C        1.41806       -17.36475        -2.42879
| 89>    C        1.10446       -16.27140        -1.63625
| 90>    C       -1.04549       -14.24150        -3.76207
| 91>    C       -1.34980       -13.76347        -5.00539
| 92>    C       -1.08378       -14.46420        -6.20020
| 93>    N       -0.91413       -15.01263        -7.19381
| 94>    C       -1.89228       -12.48192        -5.24746
| 95>    N       -2.25939       -11.42795        -5.51266
| 96>    H      -13.54284         0.11400        -1.32374
| 97>    H      -14.85436        -1.42801        -2.71656
| 98>    H      -14.36076        -3.83346        -2.73881
| 99>    H      -12.54758        -4.75945        -1.35745
|100>    H       -8.89093        -0.46819         1.39406
|101>    H       -8.49834        -3.38756        -0.58630
|102>    H       -4.95207        -4.78771         1.28886
|103>    H       -8.12202        -0.75991         3.37438
|104>    H       -6.52582        -0.62030         5.20492
|105>    H       -3.63642        -4.63936         2.74669
|106>    H       -2.10296        -4.42819         4.60908
|107>    H       -2.51011        -2.77985         6.40031
|108>    H       -4.50624        -1.33173         6.29536
|109>    H       -7.46128        -3.06591        -2.41532
|110>    H       -9.12057        -3.37185        -5.72821
|111>    H       -7.42183        -4.48817        -6.65479
|112>    H       -6.30955        -7.23578        -4.84184
|113>    H       -4.98525        -9.06377        -1.36133
|114>    H       -6.30518        -9.08390        -4.10990
|115>    H       -3.49561       -10.38428        -2.16537
|116>    H       -3.67654       -14.35005        -3.67954
|117>    H       -7.57277       -10.56643        -4.67079
|118>    H       -8.66269       -12.24163        -6.04928
|119>    H       -4.37167       -15.57548        -5.05476
|120>    H       -5.48408       -17.15011        -6.51409
|121>    H       -7.65230       -16.59641        -7.55505
|122>    H       -8.68746       -14.39748        -7.12058
|123>    H       -2.16323       -12.19985        -1.17865
|124>    H       -0.30291       -16.61603        -5.25266
|125>    H        1.16922       -18.34834        -4.31183
|126>    H        2.06122       -18.13602        -2.03354
|127>    H        1.49837       -16.19731        -0.63589
|128> *
|129>
|130>                          ****END OF INPUT****

CARTESIAN COORDINATES (ANGSTROEM)
---------------------------------
  C    -13.319460   -0.940390   -1.317550
  C    -14.055080   -1.814360   -2.102880
  C    -13.776830   -3.174660   -2.114390
  C    -12.758200   -3.702330   -1.335920
  C    -12.014560   -2.839670   -0.546460
  C    -12.292340   -1.452490   -0.539690
  C    -11.360960   -0.790630    0.359850
  C    -11.429190    0.498920    0.804660
  C    -12.418700    1.421900    0.402750
  N    -13.192350    2.215620    0.106210
  C    -10.562790    1.052370    1.772840
  N     -9.906390    1.538640    2.579230
  C    -10.362120   -1.793580    0.737440
  C    -10.922630   -3.098780    0.378170
  C    -10.621710   -4.297870    0.958620
  C     -9.737170   -4.445630    2.050120
  N     -9.087460   -4.618820    2.979490
  C    -11.216680   -5.520850    0.584390
  N    -11.652890   -6.542260    0.295890
  C     -9.110780   -1.501780    1.163110
  C     -7.981900   -2.404680    1.235240
  C     -7.783850   -3.323820    0.220340
  C     -6.678140   -4.179540    0.227880
  C     -5.786260   -4.104500    1.290560
  C     -5.934130   -3.181100    2.326630
  C     -7.049630   -2.305750    2.302740
  C     -7.250410   -1.396220    3.374050
  C     -6.367580   -1.321910    4.398970
  C     -5.219210   -2.157490    4.450400
  C     -4.991390   -3.098120    3.418650
  C     -3.849200   -3.908690    3.510340
  C     -2.975370   -3.793270    4.564120
  C     -3.204320   -2.861800    5.577410
  C     -4.312650   -2.057430    5.518620
  C     -6.478320   -5.161890   -0.814390
  S     -5.792960   -6.687390   -0.409500
  C     -5.924730   -7.304490   -2.024640
  C     -6.448790   -6.322850   -2.874690
  C     -6.770210   -5.107640   -2.177790
  C     -7.266610   -4.005830   -2.905700
  C     -7.469540   -4.118070   -4.248830
  S     -8.100290   -2.714050   -5.164670
  C     -7.118760   -5.301640   -4.956070
  O     -7.255990   -5.376560   -6.300320
  C     -6.616380   -6.377010   -4.271830
  C     -5.498370   -8.648120   -2.220120
  C     -5.713660   -9.445160   -3.286110
  C     -5.191830  -10.792550   -3.398660
  C     -4.021640  -11.127710   -2.743720
  C     -3.448030  -12.398450   -2.869700
  C     -4.085570  -13.352510   -3.651710
  C     -5.260410  -13.062760   -4.346790
  C     -5.841370  -11.775040   -4.202870
  C     -7.091510  -11.518650   -4.826370
  C     -7.707480  -12.453130   -5.590380
  C     -7.119770  -13.725350   -5.822690
  C     -5.888540  -14.042700   -5.204170
  C     -5.322360  -15.296730   -5.482220
  C     -5.946380  -16.194990   -6.313350
  C     -7.170050  -15.881550   -6.905430
  C     -7.745290  -14.661500   -6.662100
  C     -2.237490  -12.689220   -2.141090
  C     -1.241580  -13.539390   -2.491730
  C     -0.236820  -14.063310   -1.564460
  C      0.163790  -13.504750   -0.383270
  C     -0.293210  -12.268300    0.122560
  N     -0.612010  -11.266940    0.584570
  C      1.138930  -14.070310    0.466490
  N      1.924180  -14.478320    1.196950
  C      0.271430  -15.292140   -2.155610
  C     -0.234890  -15.412630   -3.470760
  C      0.087360  -16.509810   -4.253270
  C      0.915100  -17.484210   -3.717340
  C      1.418060  -17.364750   -2.428790
  C      1.104460  -16.271400   -1.636250
  C     -1.045490  -14.241500   -3.762070
  C     -1.349800  -13.763470   -5.005390
  C     -1.083780  -14.464200   -6.200200
  N     -0.914130  -15.012630   -7.193810
  C     -1.892280  -12.481920   -5.247460
  N     -2.259390  -11.427950   -5.512660
  H    -13.542840    0.114000   -1.323740
  H    -14.854360   -1.428010   -2.716560
  H    -14.360760   -3.833460   -2.738810
  H    -12.547580   -4.759450   -1.357450
  H     -8.890930   -0.468190    1.394060
  H     -8.498340   -3.387560   -0.586300
  H     -4.952070   -4.787710    1.288860
  H     -8.122020   -0.759910    3.374380
  H     -6.525820   -0.620300    5.204920
  H     -3.636420   -4.639360    2.746690
  H     -2.102960   -4.428190    4.609080
  H     -2.510110   -2.779850    6.400310
  H     -4.506240   -1.331730    6.295360
  H     -7.461280   -3.065910   -2.415320
  H     -9.120570   -3.371850   -5.728210
  H     -7.421830   -4.488170   -6.654790
  H     -6.309550   -7.235780   -4.841840
  H     -4.985250   -9.063770   -1.361330
  H     -6.305180   -9.083900   -4.109900
  H     -3.495610  -10.384280   -2.165370
  H     -3.676540  -14.350050   -3.679540
  H     -7.572770  -10.566430   -4.670790
  H     -8.662690  -12.241630   -6.049280
  H     -4.371670  -15.575480   -5.054760
  H     -5.484080  -17.150110   -6.514090
  H     -7.652300  -16.596410   -7.555050
  H     -8.687460  -14.397480   -7.120580
  H     -2.163230  -12.199850   -1.178650
  H     -0.302910  -16.616030   -5.252660
  H      1.169220  -18.348340   -4.311830
  H      2.061220  -18.136020   -2.033540
  H      1.498370  -16.197310   -0.635890

 Total Charge           Charge          ....    0
 Multiplicity           Mult            ....    1
 Number of Electrons    NEL             ....  548
 Basis Dimension        Dim             .... 1302

ORBITAL ENERGIES
----------------

  NO   OCC          E(Eh)            E(eV)
   0   2.0000     -88.967987     -2420.9420
   1   2.0000     -88.948919     -2420.4231
   2   2.0000     -19.248859      -523.7881
   3   2.0000     -14.429868      -392.6567
   4   2.0000     -14.427135      -392.5823
   5   2.0000     -14.426744      -392.5717
   6   2.0000     -14.425477      -392.5372
   7   2.0000     -14.424610      -392.5136
   8   2.0000     -14.423458      -392.4823
   9   2.0000     -14.421249      -392.4221
  10   2.0000     -14.418272      -392.3411
  11   2.0000     -10.358706      -281.8747
  12   2.0000     -10.357954      -281.8543
  13   2.0000     -10.355705      -281.7931
  14   2.0000     -10.354701      -281.7657
  15   2.0000     -10.354438      -281.7586
  16   2.0000     -10.353143      -281.7233
  17   2.0000     -10.352285      -281.7000
  18   2.0000     -10.350322      -281.6466
  19   2.0000     -10.343474      -281.4602
  20   2.0000     -10.331849      -281.1439
  21   2.0000     -10.329222      -281.0724
  22   2.0000     -10.328491      -281.0525
  23   2.0000     -10.328273      -281.0466
  24   2.0000     -10.327474      -281.0249
  25   2.0000     -10.326321      -280.9935
  26   2.0000     -10.325813      -280.9797
  27   2.0000     -10.325750      -280.9779
  28   2.0000     -10.324692      -280.9491
  29   2.0000     -10.322419      -280.8873
  30   2.0000     -10.321352      -280.8583
  31   2.0000     -10.321238      -280.8552
  32   2.0000     -10.320827      -280.8440
  33   2.0000     -10.319520      -280.8084
  34   2.0000     -10.318102      -280.7698
  35   2.0000     -10.317679      -280.7583
  36   2.0000     -10.313369      -280.6410
  37   2.0000     -10.310655      -280.5672
  38   2.0000     -10.308687      -280.5136
  39   2.0000     -10.308367      -280.5049
  40   2.0000     -10.307714      -280.4871
  41   2.0000     -10.306773      -280.4616
  42   2.0000     -10.305707      -280.4325
  43   2.0000     -10.305456      -280.4257
  44   2.0000     -10.304797      -280.4078
  45   2.0000     -10.303779      -280.3801
  46   2.0000     -10.301280      -280.3121
  47   2.0000     -10.300122      -280.2806
  48   2.0000     -10.299249      -280.2568
  49   2.0000     -10.293283      -280.0945
  50   2.0000     -10.292799      -280.0813
  51   2.0000     -10.292337      -280.0687
  52   2.0000     -10.292065      -280.0613
  53   2.0000     -10.290772      -280.0261
  54   2.0000     -10.289115      -279.9811
  55   2.0000     -10.288766      -279.9716
  56   2.0000     -10.288640      -279.9681
  57   2.0000     -10.288377      -279.9610
  58   2.0000     -10.287669      -279.9417
  59   2.0000     -10.286763      -279.9171
  60   2.0000     -10.285538      -279.8837
  61   2.0000     -10.285044      -279.8703
  62   2.0000     -10.284905      -279.8665
  63   2.0000     -10.283458      -279.8271
  64   2.0000     -10.280102      -279.7358
  65   2.0000     -10.279208      -279.7115
  66   2.0000     -10.279071      -279.7077
  67   2.0000     -10.277742      -279.6716
  68   2.0000     -10.276855      -279.6474
  69   2.0000     -10.275338      -279.6062
  70   2.0000     -10.274471      -279.5826
  71   2.0000     -10.274317      -279.5784
  72   2.0000     -10.273809      -279.5646
  73   2.0000     -10.273794      -279.5642
  74   2.0000     -10.273656      -279.5604
  75   2.0000     -10.272748      -279.5357
  76   2.0000     -10.272640      -279.5328
  77   2.0000     -10.271592      -279.5042
  78   2.0000     -10.271425      -279.4997
  79   2.0000     -10.270787      -279.4823
  80   2.0000     -10.270271      -279.4683
  81   2.0000      -8.063179      -219.4102
  82   2.0000      -8.043793      -218.8827
  83   2.0000      -6.031996      -164.1390
  84   2.0000      -6.027987      -164.0299
  85   2.0000      -6.026204      -163.9813
  86   2.0000      -6.013871      -163.6458
  87   2.0000      -6.010307      -163.5488
  88   2.0000      -6.003882      -163.3739
  89   2.0000      -1.147611       -31.2281
  90   2.0000      -1.043380       -28.3918
  91   2.0000      -1.039847       -28.2957
  92   2.0000      -1.023754       -27.8578
  93   2.0000      -1.020498       -27.7692
  94   2.0000      -1.013029       -27.5659
  95   2.0000      -1.010078       -27.4856
  96   2.0000      -1.006663       -27.3927
  97   2.0000      -1.004983       -27.3470
  98   2.0000      -1.002683       -27.2844
  99   2.0000      -1.001539       -27.2533
 100   2.0000      -0.999554       -27.1992
 101   2.0000      -0.987419       -26.8690
 102   2.0000      -0.986082       -26.8327
 103   2.0000      -0.967391       -26.3240
 104   2.0000      -0.965108       -26.2619
 105   2.0000      -0.954965       -25.9859
 106   2.0000      -0.953568       -25.9479
 107   2.0000      -0.947017       -25.7696
 108   2.0000      -0.944430       -25.6993
 109   2.0000      -0.943656       -25.6782
 110   2.0000      -0.921095       -25.0643
 111   2.0000      -0.917152       -24.9570
 112   2.0000      -0.908029       -24.7087
 113   2.0000      -0.901774       -24.5385
 114   2.0000      -0.899818       -24.4853
 115   2.0000      -0.898179       -24.4407
 116   2.0000      -0.884942       -24.0805
 117   2.0000      -0.883110       -24.0306
 118   2.0000      -0.875334       -23.8190
 119   2.0000      -0.873810       -23.7776
 120   2.0000      -0.870756       -23.6945
 121   2.0000      -0.863984       -23.5102
 122   2.0000      -0.854329       -23.2475
 123   2.0000      -0.849323       -23.1113
 124   2.0000      -0.838855       -22.8264
 125   2.0000      -0.824285       -22.4299
 126   2.0000      -0.819179       -22.2910
 127   2.0000      -0.818557       -22.2741
 128   2.0000      -0.813304       -22.1311
 129   2.0000      -0.806749       -21.9527
 130   2.0000      -0.797976       -21.7140
 131   2.0000      -0.794787       -21.6273
 132   2.0000      -0.791954       -21.5502
 133   2.0000      -0.785455       -21.3733
 134   2.0000      -0.776703       -21.1352
 135   2.0000      -0.742795       -20.2125
 136   2.0000      -0.736283       -20.0353
 137   2.0000      -0.727540       -19.7974
 138   2.0000      -0.725412       -19.7395
 139   2.0000      -0.722236       -19.6530
 140   2.0000      -0.719884       -19.5890
 141   2.0000      -0.718209       -19.5435
 142   2.0000      -0.714891       -19.4532
 143   2.0000      -0.709687       -19.3116
 144   2.0000      -0.707831       -19.2611
 145   2.0000      -0.706013       -19.2116
 146   2.0000      -0.700626       -19.0650
 147   2.0000      -0.698592       -19.0097
 148   2.0000      -0.684292       -18.6205
 149   2.0000      -0.677672       -18.4404
 150   2.0000      -0.674153       -18.3446
 151   2.0000      -0.672216       -18.2919
 152   2.0000      -0.670062       -18.2333
 153   2.0000      -0.667304       -18.1583
 154   2.0000      -0.664158       -18.0727
 155   2.0000      -0.660261       -17.9666
 156   2.0000      -0.652851       -17.7650
 157   2.0000      -0.635850       -17.3024
 158   2.0000      -0.628981       -17.1154
 159   2.0000      -0.624397       -16.9907
 160   2.0000      -0.621706       -16.9175
 161   2.0000      -0.616197       -16.7676
 162   2.0000      -0.613145       -16.6845
 163   2.0000      -0.612734       -16.6733
 164   2.0000      -0.602267       -16.3885
 165   2.0000      -0.594442       -16.1756
 166   2.0000      -0.592175       -16.1139
 167   2.0000      -0.591085       -16.0842
 168   2.0000      -0.583532       -15.8787
 169   2.0000      -0.579619       -15.7722
 170   2.0000      -0.577633       -15.7182
 171   2.0000      -0.577208       -15.7066
 172   2.0000      -0.573591       -15.6082
 173   2.0000      -0.564795       -15.3689
 174   2.0000      -0.562010       -15.2931
 175   2.0000      -0.560150       -15.2425
 176   2.0000      -0.552720       -15.0403
 177   2.0000      -0.549949       -14.9649
 178   2.0000      -0.548239       -14.9183
 179   2.0000      -0.547361       -14.8944
 180   2.0000      -0.546444       -14.8695
 181   2.0000      -0.544294       -14.8110
 182   2.0000      -0.543169       -14.7804
 183   2.0000      -0.537817       -14.6348
 184   2.0000      -0.532153       -14.4806
 185   2.0000      -0.529084       -14.3971
 186   2.0000      -0.524647       -14.2764
 187   2.0000      -0.523231       -14.2378
 188   2.0000      -0.518808       -14.1175
 189   2.0000      -0.518517       -14.1096
 190   2.0000      -0.518014       -14.0959
 191   2.0000      -0.515764       -14.0347
 192   2.0000      -0.514345       -13.9960
 193   2.0000      -0.511570       -13.9205
 194   2.0000      -0.510662       -13.8958
 195   2.0000      -0.510106       -13.8807
 196   2.0000      -0.507893       -13.8205
 197   2.0000      -0.505747       -13.7621
 198   2.0000      -0.503375       -13.6975
 199   2.0000      -0.501624       -13.6499
 200   2.0000      -0.498580       -13.5670
 201   2.0000      -0.495314       -13.4782
 202   2.0000      -0.493878       -13.4391
 203   2.0000      -0.489332       -13.3154
 204   2.0000      -0.488355       -13.2888
 205   2.0000      -0.485780       -13.2188
 206   2.0000      -0.485056       -13.1991
 207   2.0000      -0.483080       -13.1453
 208   2.0000      -0.474402       -12.9091
 209   2.0000      -0.472690       -12.8625
 210   2.0000      -0.471010       -12.8168
 211   2.0000      -0.467748       -12.7281
 212   2.0000      -0.466044       -12.6817
 213   2.0000      -0.462473       -12.5845
 214   2.0000      -0.461892       -12.5687
 215   2.0000      -0.461295       -12.5525
 216   2.0000      -0.460332       -12.5263
 217   2.0000      -0.457718       -12.4551
 218   2.0000      -0.456676       -12.4268
 219   2.0000      -0.456509       -12.4222
 220   2.0000      -0.454619       -12.3708
 221   2.0000      -0.454472       -12.3668
 222   2.0000      -0.453628       -12.3438
 223   2.0000      -0.451368       -12.2824
 224   2.0000      -0.450338       -12.2543
 225   2.0000      -0.449231       -12.2242
 226   2.0000      -0.446728       -12.1561
 227   2.0000      -0.445904       -12.1337
 228   2.0000      -0.445228       -12.1153
 229   2.0000      -0.442753       -12.0479
 230   2.0000      -0.441711       -12.0196
 231   2.0000      -0.439442       -11.9578
 232   2.0000      -0.439144       -11.9497
 233   2.0000      -0.435315       -11.8455
 234   2.0000      -0.434706       -11.8289
 235   2.0000      -0.433226       -11.7887
 236   2.0000      -0.431818       -11.7504
 237   2.0000      -0.430995       -11.7280
 238   2.0000      -0.429569       -11.6892
 239   2.0000      -0.425844       -11.5878
 240   2.0000      -0.424163       -11.5421
 241   2.0000      -0.421352       -11.4656
 242   2.0000      -0.419400       -11.4125
 243   2.0000      -0.418429       -11.3860
 244   2.0000      -0.418097       -11.3770
 245   2.0000      -0.416133       -11.3236
 246   2.0000      -0.415342       -11.3020
 247   2.0000      -0.413516       -11.2523
 248   2.0000      -0.408234       -11.1086
 249   2.0000      -0.405193       -11.0258
 250   2.0000      -0.404232       -10.9997
 251   2.0000      -0.400520       -10.8987
 252   2.0000      -0.395471       -10.7613
 253   2.0000      -0.391513       -10.6536
 254   2.0000      -0.388241       -10.5646
 255   2.0000      -0.385535       -10.4909
 256   2.0000      -0.377352       -10.2683
 257   2.0000      -0.369665       -10.0591
 258   2.0000      -0.366984        -9.9861
 259   2.0000      -0.354544        -9.6476
 260   2.0000      -0.349569        -9.5122
 261   2.0000      -0.341546        -9.2939
 262   2.0000      -0.338672        -9.2157
 263   2.0000      -0.335629        -9.1329
 264   2.0000      -0.331665        -9.0251
 265   2.0000      -0.323214        -8.7951
 266   2.0000      -0.314246        -8.5511
 267   2.0000      -0.308539        -8.3958
 268   2.0000      -0.300935        -8.1889
 269   2.0000      -0.294454        -8.0125
 270   2.0000      -0.292811        -7.9678
 271   2.0000      -0.283187        -7.7059
 272   2.0000      -0.274260        -7.4630
 273   2.0000      -0.233572        -6.3558
 274   0.0000      -0.095602        -2.6015
 275   0.0000      -0.093832        -2.5533
 276   0.0000      -0.093077        -2.5327
 277   0.0000      -0.090243        -2.4556
 278   0.0000      -0.060703        -1.6518

MULLIKEN ATOMIC CHARGES
-----------------------
   0 C :   -0.033186
   1 C :    0.047610
   2 C :    0.047235
   3 C :   -0.034904
   4 C :    0.015377
   5 C :    0.016796
   6 C :    0.270537
   7 C :   -0.329944
   8 C :   -0.187636
   9 N :    0.163801
  10 C :   -0.176624
  11 N :    0.155618
  12 C :   -0.050707
  13 C :    0.211657
  14 C :   -0.327347
  15 C :   -0.175095
  16 N :    0.196166
  17 C :   -0.192561
  18 N :    0.174750
  19 C :    0.001583
  20 C :    0.005549
  21 C :   -0.078939
  22 C :    0.130451
  23 C :   -0.107840
  24 C :    0.123957
  25 C :    0.096618
  26 C :   -0.036772
  27 C :    0.002368
  28 C :    0.061028
  29 C :    0.098849
  30 C :   -0.049473
  31 C :    0.031386
  32 C :    0.035779
  33 C :   -0.023619
  34 C :   -0.150132
  35 S :    0.172780
  36 C :   -0.147248
  37 C :    0.133549
  38 C :    0.132883
  39 C :   -0.051398
  40 C :   -0.138473
  41 S :    0.002649
  42 C :    0.160480
  43 O :   -0.178608
  44 C :   -0.121717
  45 C :    0.079778
  46 C :   -0.064935
  47 C :    0.129902
  48 C :   -0.094684
  49 C :    0.075447
  50 C :   -0.102721
  51 C :    0.121113
  52 C :    0.067965
  53 C :   -0.041449
  54 C :    0.002534
  55 C :    0.056234
  56 C :    0.108461
  57 C :   -0.052635
  58 C :    0.036965
  59 C :    0.031845
  60 C :   -0.020832
  61 C :    0.034428
  62 C :   -0.052922
  63 C :    0.284533
  64 C :   -0.336460
  65 C :   -0.184670
  66 N :    0.163859
  67 C :   -0.189569
  68 N :    0.159354
  69 C :    0.015662
  70 C :    0.010347
  71 C :   -0.033955
  72 C :    0.049098
  73 C :    0.046242
  74 C :   -0.030859
  75 C :    0.208669
  76 C :   -0.333778
  77 C :   -0.189242
  78 N :    0.167442
  79 C :   -0.177512
  80 N :    0.195548
  81 H :    0.009097
  82 H :    0.006698
  83 H :    0.007342
  84 H :    0.009286
  85 H :    0.045151
  86 H :   -0.003862
  87 H :   -0.024556
  88 H :   -0.019924
  89 H :   -0.019777
  90 H :   -0.027589
  91 H :   -0.011762
  92 H :   -0.010984
  93 H :   -0.023625
  94 H :   -0.026150
  95 H :    0.065574
  96 H :    0.161192
  97 H :   -0.024121
  98 H :   -0.015125
  99 H :   -0.001971
 100 H :   -0.016779
 101 H :   -0.020376
 102 H :   -0.024502
 103 H :   -0.026408
 104 H :   -0.038236
 105 H :   -0.015643
 106 H :   -0.012111
 107 H :   -0.027000
 108 H :    0.024618
 109 H :    0.005677
 110 H :    0.006178
 111 H :    0.006112
 112 H :    0.007141
Sum of atomic charges:   -0.0000000

LOEWDIN ATOMIC CHARGES
----------------------
   0 C :    0.006453
   1 C :    0.003273
   2 C :    0.006108
   3 C :    0.002533
   4 C :   -0.008977
   5 C :   -0.013496
   6 C :    0.080584
   7 C :   -0.128756
   8 C :   -0.019610
   9 N :   -0.041061
  10 C :   -0.019889
  11 N :   -0.042490
  12 C :   -0.047685
  13 C :    0.064626
  14 C :   -0.117424
  15 C :   -0.020028
  16 N :   -0.028319
  17 C :   -0.018737
  18 N :   -0.039358
  19 C :    0.075564
  20 C :   -0.036727
  21 C :   -0.002179
  22 C :   -0.042197
  23 C :    0.008052
  24 C :    0.003301
  25 C :    0.004971
  26 C :   -0.023032
  27 C :    0.006786
  28 C :   -0.015849
  29 C :   -0.005833
  30 C :   -0.013449
  31 C :   -0.017128
  32 C :   -0.019457
  33 C :   -0.011405
  34 C :   -0.171245
  35 S :    0.500816
  36 C :   -0.190085
  37 C :   -0.031382
  38 C :   -0.056415
  39 C :   -0.022188
  40 C :   -0.192586
  41 S :    0.217301
  42 C :    0.036909
  43 O :   -0.053074
  44 C :   -0.058264
  45 C :   -0.030718
  46 C :   -0.032332
  47 C :   -0.003112
  48 C :    0.004254
  49 C :   -0.046839
  50 C :    0.003980
  51 C :   -0.003239
  52 C :    0.004301
  53 C :   -0.021092
  54 C :    0.000230
  55 C :   -0.018024
  56 C :   -0.005722
  57 C :   -0.017375
  58 C :   -0.017290
  59 C :   -0.021096
  60 C :   -0.011370
  61 C :    0.079131
  62 C :   -0.052251
  63 C :    0.080488
  64 C :   -0.130456
  65 C :   -0.021553
  66 N :   -0.043204
  67 C :   -0.019032
  68 N :   -0.044034
  69 C :   -0.013281
  70 C :   -0.010042
  71 C :    0.001032
  72 C :    0.005969
  73 C :    0.003004
  74 C :    0.006513
  75 C :    0.064864
  76 C :   -0.121727
  77 C :   -0.019566
  78 N :   -0.042425
  79 C :   -0.020558
  80 N :   -0.029353
  81 H :    0.042380
  82 H :    0.038618
  83 H :    0.038589
  84 H :    0.042089
  85 H :    0.048192
  86 H :    0.028039
  87 H :    0.021285
  88 H :    0.031936
  89 H :    0.033451
  90 H :    0.027296
  91 H :    0.030774
  92 H :    0.030350
  93 H :    0.029099
  94 H :    0.029770
  95 H :   -0.023148
  96 H :    0.062112
  97 H :    0.034213
  98 H :    0.026898
  99 H :    0.025777
 100 H :    0.031075
 101 H :    0.024492
 102 H :    0.030330
 103 H :    0.030494
 104 H :    0.023189
 105 H :    0.029681
 106 H :    0.029937
 107 H :    0.028201
 108 H :    0.048028
 109 H :    0.040961
 110 H :    0.038337
 111 H :    0.038449
 112 H :    0.042079

  Mayer bond orders larger than 0.100000
B(  0-C ,  1-C ) :   1.3742 B(  0-C ,  5-C ) :   1.3773 B(  0-C , 81-H ) :   0.9852
B(  1-C ,  2-C ) :   1.3715 B(  1-C , 82-H ) :   0.9866 B(  2-C ,  3-C ) :   1.3687
B(  2-C , 83-H ) :   0.9868 B(  3-C ,  4-C ) :   1.3802 B(  3-C , 84-H ) :   0.9876
B(  4-C ,  5-C ) :   1.3081 B(  4-C , 13-C ) :   1.0161 B(  5-C ,  6-C ) :   1.0095
B(  6-C ,  7-C ) :   1.6685 B(  6-C , 12-C ) :   1.0100 B(  7-C ,  8-C ) :   1.1387
B(  7-C , 10-C ) :   1.1394 B(  8-C ,  9-N ) :   2.9852 B( 10-C , 11-N ) :   2.9620
B( 12-C , 13-C ) :   0.9880 B( 12-C , 19-C ) :   1.7282 B( 13-C , 14-C ) :   1.6944
B( 14-C , 15-C ) :   1.1447 B( 14-C , 17-C ) :   1.1449 B( 15-C , 16-N ) :   3.0103
B( 17-C , 18-N ) :   2.9941 B( 19-C , 20-C ) :   1.0180 B( 19-C , 85-H ) :   0.9234
B( 20-C , 21-C ) :   1.4086 B( 20-C , 25-C ) :   1.2574 B( 21-C , 22-C ) :   1.3039
B( 21-C , 86-H ) :   0.9808 B( 22-C , 23-C ) :   1.3729 B( 22-C , 34-C ) :   1.0091
B( 23-C , 24-C ) :   1.3121 B( 23-C , 87-H ) :   0.9845 B( 24-C , 25-C ) :   1.2749
B( 24-C , 29-C ) :   1.0923 B( 25-C , 26-C ) :   1.1709 B( 26-C , 27-C ) :   1.5695
B( 26-C , 88-H ) :   0.9765 B( 27-C , 28-C ) :   1.1451 B( 27-C , 89-H ) :   0.9932
B( 28-C , 29-C ) :   1.3045 B( 28-C , 33-C ) :   1.2793 B( 29-C , 30-C ) :   1.3063
B( 30-C , 31-C ) :   1.4661 B( 30-C , 90-H ) :   0.9868 B( 31-C , 32-C ) :   1.3002
B( 31-C , 91-H ) :   0.9840 B( 32-C , 33-C ) :   1.4541 B( 32-C , 92-H ) :   0.9899
B( 33-C , 93-H ) :   0.9971 B( 34-C , 35-S ) :   1.2016 B( 34-C , 36-C ) :   0.1235
B( 34-C , 38-C ) :   1.3771 B( 35-S , 36-C ) :   1.1442 B( 36-C , 37-C ) :   1.3608
B( 36-C , 45-C ) :   1.1365 B( 37-C , 38-C ) :   1.1952 B( 37-C , 44-C ) :   1.1692
B( 38-C , 39-C ) :   1.1837 B( 39-C , 40-C ) :   1.5605 B( 39-C , 94-H ) :   0.9856
B( 40-C , 41-S ) :   1.0040 B( 40-C , 42-C ) :   1.1768 B( 41-S , 95-H ) :   0.9467
B( 42-C , 43-O ) :   1.2689 B( 42-C , 44-C ) :   1.5132 B( 43-O , 96-H ) :   0.9301
B( 44-C , 97-H ) :   1.0007 B( 45-C , 46-C ) :   1.7142 B( 45-C , 98-H ) :   0.9426
B( 46-C , 47-C ) :   1.0555 B( 46-C , 99-H ) :   0.9601 B( 47-C , 48-C ) :   1.4066
B( 47-C , 52-C ) :   1.2297 B( 48-C , 49-C ) :   1.2598 B( 48-C ,100-H ) :   0.9962
B( 49-C , 50-C ) :   1.3592 B( 49-C , 61-C ) :   1.0378 B( 50-C , 51-C ) :   1.3199
B( 50-C ,101-H ) :   0.9855 B( 51-C , 52-C ) :   1.2878 B( 51-C , 56-C ) :   1.0909
B( 52-C , 53-C ) :   1.1723 B( 53-C , 54-C ) :   1.5671 B( 53-C ,102-H ) :   0.9868
B( 54-C , 55-C ) :   1.1473 B( 54-C ,103-H ) :   0.9929 B( 55-C , 56-C ) :   1.3086
B( 55-C , 60-C ) :   1.2762 B( 56-C , 57-C ) :   1.3026 B( 57-C , 58-C ) :   1.4654
B( 57-C ,104-H ) :   0.9851 B( 58-C , 59-C ) :   1.3003 B( 58-C ,105-H ) :   0.9840
B( 59-C , 60-C ) :   1.4538 B( 59-C ,106-H ) :   0.9905 B( 60-C ,107-H ) :   0.9973
B( 61-C , 62-C ) :   1.6881 B( 61-C ,108-H ) :   0.9366 B( 62-C , 63-C ) :   1.0256
B( 62-C , 75-C ) :   0.9896 B( 63-C , 64-C ) :   1.6610 B( 63-C , 69-C ) :   1.0056
B( 64-C , 65-C ) :   1.1335 B( 64-C , 67-C ) :   1.1419 B( 65-C , 66-N ) :   2.9914
B( 67-C , 68-N ) :   2.9820 B( 69-C , 70-C ) :   1.3122 B( 69-C , 74-C ) :   1.3762
B( 70-C , 71-C ) :   1.3781 B( 70-C , 75-C ) :   1.0143 B( 71-C , 72-C ) :   1.3699
B( 71-C ,109-H ) :   0.9876 B( 72-C , 73-C ) :   1.3724 B( 72-C ,110-H ) :   0.9865
B( 73-C , 74-C ) :   1.3743 B( 73-C ,111-H ) :   0.9866 B( 74-C ,112-H ) :   0.9847
B( 75-C , 76-C ) :   1.6883 B( 76-C , 77-C ) :   1.1442 B( 76-C , 79-C ) :   1.1423
B( 77-C , 78-N ) :   2.9937 B( 79-C , 80-N ) :   3.0140

-----------------------------------------------------------------------------
         ABSORPTION SPECTRUM VIA TRANSITION ELECTRIC DIPOLE MOMENTS
-----------------------------------------------------------------------------
State   Energy  Wavelength   fosc         T2         TX        TY        TZ
        (cm-1)    (nm)                  (au**2)     (au)      (au)      (au)
-----------------------------------------------------------------------------
   0   15129.0    661.0   0.031276496   0.68058   0.68911   0.10303   0.44170
   1   16562.8    603.8   0.050103896   0.99590  -0.66637  -0.60237  -0.43474
   2   17598.0    568.2   0.011303619   0.21146   0.28756   0.05119   0.35517
   3   19013.2    525.9   0.026355391   0.45634   0.47876  -0.28433   0.38248
   4   21152.2    472.8   1.193718623  18.57899   1.90434  -3.54717  -1.53950
   5   22629.3    441.9   0.026563706   0.38645   0.52454   0.06986   0.32624
   6   22987.3    435.0   0.415427796   5.94955  -1.82389  -1.19141  -1.09705
   7   25052.5    399.2   0.100728211   1.32366   0.51835  -1.02706  -0.01073
   8   25103.0    398.4   0.265897049   3.48710  -1.19588  -0.04980  -1.43335
   9   25799.6    387.6   0.018254915   0.23294   0.15316  -0.05507  -0.45437
  10   26152.1    382.4   0.022986848   0.28937  -0.44045   0.23426  -0.20123
  11   28238.1    354.1   0.054019279   0.62978   0.23446  -0.74031  -0.16356
  12   28368.3    352.5   0.026092081   0.30280   0.24674  -0.27465   0.40802
  13   29049.0    344.2   0.009402623   0.10656   0.15411  -0.28776  -0.00237
  14   29091.3    343.7   0.065200645   0.73784   0.44042  -0.65174   0.34512
  15   29269.9    341.6   0.006519548   0.07333   0.04304   0.12422   0.23674
  16   29715.4    336.5   0.197816566   2.19158  -0.49600   1.35066  -0.34825
  17   30049.3    332.8   0.015394842   0.16866   0.13752  -0.36859   0.11786
  18   30450.0    328.4   0.005567905   0.06020  -0.09024   0.00324   0.22813
  19   30739.2    325.3   0.286615372   3.06961   0.18108   0.36159   1.70472
  20   31104.7    321.5   0.099747827   1.05573   0.56226  -0.59255   0.62327
  21   31270.6    319.8   0.213170253   2.24422  -0.51067   1.20538  -0.72835
  22   31539.7    317.1   0.161279876   1.68344  -0.27870  -1.26714  -0.01098
  23   31686.5    315.6   0.072736383   0.75571  -0.13056  -0.19449  -0.83716
  24   31825.6    314.2   0.048538372   0.50209  -0.02035  -0.64640  -0.28957
  25   32059.0    311.9   0.049216952   0.50541   0.05664   0.07777   0.70438
  26   32392.1    308.7   0.018179446   0.18476   0.22401  -0.36640  -0.01824
  27   32907.4    303.9   0.031639993   0.31653  -0.53207   0.02592   0.18101
  28   33178.9    301.4   0.226499039   2.24740  -0.67284  -0.42637  -1.27000
  29   33722.3    296.5   0.129959854   1.26873   0.77093  -0.36080   0.73771
  30   33934.7    294.7   0.066050586   0.64078   0.78252  -0.11777   0.12073
  31   34010.3    294.0   0.008178727   0.07917   0.25726   0.04723   0.10371
  32   34071.9    293.5   0.013358323   0.12907   0.09677  -0.00847   0.34588
  33   34455.0    290.2   0.133863331   1.27904  -0.23879   0.59417   0.93219
  34   34505.8    289.8   0.061499388   0.58675   0.22786  -0.38153   0.62391
  35   34718.0    288.0   0.299007636   2.83533  -0.67227   0.04489  -1.54317
  36   34825.4    287.1   0.297158264   2.80910   0.58515  -1.42600   0.65819
  37   35098.7    284.9   0.038668332   0.36269   0.04688  -0.40905   0.43952
  38   35162.2    284.4   0.082979375   0.77691  -0.45383  -0.47184  -0.59018
  39   35390.9    282.6   0.014061291   0.13080   0.20107  -0.15441   0.25793
  40   35522.1    281.5   0.003965454   0.03675  -0.04031   0.18027   0.05128
  41   35858.3    278.9   0.425778609   3.90904   1.39216  -0.06912   1.40220
  42   35964.0    278.1   0.401443591   3.67479  -0.60596   1.80444   0.22715
  43   36110.3    276.9   0.035726764   0.32572  -0.17834   0.54022   0.04550
  44   36344.9    275.1   0.066410828   0.60155  -0.37548   0.66893  -0.11445
  45   36671.2    272.7   0.058054167   0.52118  -0.50090   0.35326   0.38142
  46   36846.4    271.4   0.066890762   0.59765   0.74240  -0.14948  -0.15539
  47   37268.3    268.3   0.192169330   1.69754   0.90568   0.23410   0.90691
  48   37422.1    267.2   0.122069534   1.07388  -0.62083   0.53666  -0.63281
  49   38022.4    263.0   0.025146387   0.21773   0.35035  -0.24501   0.18695
  50   38513.6    259.6   0.003452900   0.02952   0.12324  -0.11162   0.04323
  51   38716.4    258.3   0.043097752   0.36647  -0.37984   0.10092  -0.46044
  52   38987.5    256.5   0.009811627   0.08285   0.26683   0.02337   0.10538
  53   39127.6    255.6   0.003991096   0.03358   0.04207  -0.09895  -0.14839
  54   39391.8    253.9   0.150939075   1.26145  -0.91346  -0.17034  -0.63090
  55   39934.3    250.4   0.007227047   0.05958  -0.17654   0.15267   0.07144
  56   40195.7    248.8   0.001898950   0.01555  -0.03411  -0.00050  -0.11996
  57   40284.8    248.2   0.039603240   0.32364  -0.03972  -0.23784   0.51526

FINAL SINGLE POINT ENERGY     -3991.840543347278

DIPOLE MOMENT
-------------
                                X             Y             Z
Electronic contribution:      0.32117      15.14285       8.70581
Nuclear contribution   :     -1.41028     -16.66838     -10.38840
                        -----------------------------------------
Total Dipole Moment    :     -1.08911      -1.52552      -1.68259
                        -----------------------------------------
Magnitude (a.u.)       :      2.51882
Magnitude (Debye)      :      6.40234

Rotational constants in cm-1:     0.001231     0.000329     0.000280
Rotational constants in MHz :    36.896183     9.875322     8.384241

                             ****ORCA TERMINATED NORMALLY****
TOTAL RUN TIME: 0 days 0 hours 17 minutes 34 seconds 355 msec
