                         Program Version 4.2.0 -  RELEASE  -
|  1> # ORCA input file
|  2> # SCF done       -195.272877619480          0.000621297722
|  3> ! CAM-B3LYP def2-SVP def2/J RIJCOSX Grid4 TightSCF
|  4> %maxcore 5000
|  5> %tddft
|  6>     Mode sTDDFT
|  7>     Ethresh 5.0
|  8>     maxcore 5000
|  9> end
| 10>
| 11> %pal
| 12>   nprocs 6
| 13>   end
| 14> * xyz 0 1
| 15>    C       -5.11508         2.55260         4.57102
| 16>    C       -4.36463         2.58871         5.73785
| 17>    C       -3.31090         1.70989         5.94013
| 18>    C       -2.97088         0.77212         4.97592
| 19>    C       -3.71569         0.72466         3.81051
| 20>    C       -4.79531         1.61305         3.60475
| 21>    C       -5.40618         1.32173         2.31138
| 22>    C       -6.43297         2.02596         1.73318
| 23>    C       -7.03951         3.16069         2.30964
| 24>    N       -7.57776         4.08801         2.71998
| 25>    C       -7.00415         1.73771         0.47817
| 26>    N       -7.50767         1.54194        -0.53622
| 27>    C       -4.73897         0.14219         1.79118
| 28>    C       -3.57624        -0.10133         2.62143
| 29>    C       -2.42988        -0.74661         2.22587
| 30>    C       -2.22004        -1.18995         0.90475
| 31>    N       -2.00730        -1.50958        -0.17768
| 32>    C       -1.31821        -0.96457         3.05977
| 33>    N       -0.40131        -1.21197         3.70576
| 34>    C       -5.22794        -0.64568         0.77017
| 35>    C       -4.99740        -1.99758         0.51557
| 36>    S       -4.26303        -3.14487         1.63481
| 37>    C       -4.52299        -4.52937         0.60588
| 38>    C       -5.17374        -4.11570        -0.56677
| 39>    C       -5.43967        -2.71668        -0.59858
| 40>    N       -6.06075        -2.42673        -1.76257
| 41>    C       -6.19609        -3.60010        -2.46934
| 42>    N       -6.81795        -3.59206        -3.73184
| 43>    O       -7.20844        -2.51174        -4.14006
| 44>    O       -6.92273        -4.65041        -4.31866
| 45>    C       -5.66422        -4.66256        -1.76932
| 46>    C       -4.12446        -5.82220         0.96074
| 47>    C       -3.44038        -6.11847         2.10767
| 48>    C       -3.04622        -7.40268         2.51779
| 49>    N       -2.34188        -7.58705         3.69296
| 50>    C       -2.12444        -8.91308         3.86620
| 51>    C       -1.57302        -9.85922         4.71542
| 52>    C       -1.82899       -11.11037         4.12601
| 53>    N       -2.50979       -10.92723         2.94039
| 54>    C       -2.70994        -9.59582         2.75908
| 55>    C       -3.28061        -8.65696         1.91811
| 56>    C       -1.49185       -12.36852         4.66925
| 57>    C       -1.78264       -13.58033         4.11514
| 58>    C       -1.51958       -14.83262         4.70159
| 59>    S       -2.03459       -16.29186         3.88208
| 60>    C       -1.51184       -17.35879         5.15743
| 61>    C       -0.92911       -16.59354         6.18153
| 62>    C       -0.93718       -15.19212         5.91765
| 63>    N       -0.35836       -14.56588         6.97396
| 64>    C        0.00957       -15.52446         7.88506
| 65>    N        0.64497       -15.12835         9.07637
| 66>    O        0.82084       -13.92752         9.21749
| 67>    O        0.97250       -15.98756         9.86661
| 68>    C       -0.32507       -16.78659         7.43889
| 69>    C       -1.74700       -18.73428         5.15105
| 70>    C       -2.29085       -19.43100         4.10377
| 71>    C       -2.58728       -20.80490         4.10750
| 72>    C       -2.85301       -21.60984         5.19185
| 73>    C       -2.70618       -23.05823         5.19756
| 74>    C       -2.51982       -23.88387         4.11879
| 75>    C       -2.46641       -23.48449         2.76726
| 76>    N       -2.40787       -23.24588         1.64520
| 77>    C       -2.38482       -25.28565         4.21016
| 78>    N       -2.27120       -26.42790         4.20561
| 79>    C       -2.76722       -23.48614         6.59025
| 80>    C       -3.07362       -22.36754         7.39686
| 81>    C       -3.16173       -22.49149         8.77345
| 82>    C       -2.95121       -23.73931         9.34100
| 83>    C       -2.66386       -24.84201         8.54994
| 84>    C       -2.56739       -24.72853         7.17067
| 85>    C       -3.27177       -21.21551         6.52913
| 86>    C       -3.97817       -20.09178         6.87622
| 87>    C       -4.44572       -19.82594         8.17968
| 88>    N       -4.83802       -19.53355         9.21831
| 89>    C       -4.40177       -19.08538         5.98549
| 90>    N       -4.82011       -18.24054         5.32951
| 91>    H       -5.92913         3.24483         4.43313
| 92>    H       -4.60926         3.31350         6.49921
| 93>    H       -2.74584         1.75439         6.85864
| 94>    H       -2.15140         0.09136         5.14183
| 95>    H       -5.96969        -0.20245         0.11867
| 96>    H       -6.38430        -1.53405        -2.10660
| 97>    H       -5.64066        -5.68035        -2.10015
| 98>    H       -4.37911        -6.60723         0.26425
| 99>    H       -3.17813        -5.29862         2.76614
|100>    H       -2.04232        -6.84225         4.29897
|101>    H       -1.05729        -9.70429         5.64145
|102>    H       -2.81971       -11.66468         2.33265
|103>    H       -3.80536        -8.82188         0.99969
|104>    H       -0.98329       -12.32452         5.61990
|105>    H       -2.28242       -13.62623         3.15753
|106>    H       -0.19097       -13.58422         7.13092
|107>    H       -0.14594       -17.70291         7.96259
|108>    H       -1.45503       -19.26210         6.05058
|109>    H       -2.43070       -18.90583         3.16746
|110>    H       -2.55708       -21.28365         3.13789
|111>    H       -3.37644       -21.64091         9.39965
|112>    H       -3.01158       -23.84997        10.41277
|113>    H       -2.50785       -25.80479         9.01187
|114>    H       -2.33722       -25.59595         6.57479
|115> *
|116>
|117>                          ****END OF INPUT****

CARTESIAN COORDINATES (ANGSTROEM)
---------------------------------
  C     -5.115080    2.552600    4.571020
  C     -4.364630    2.588710    5.737850
  C     -3.310900    1.709890    5.940130
  C     -2.970880    0.772120    4.975920
  C     -3.715690    0.724660    3.810510
  C     -4.795310    1.613050    3.604750
  C     -5.406180    1.321730    2.311380
  C     -6.432970    2.025960    1.733180
  C     -7.039510    3.160690    2.309640
  N     -7.577760    4.088010    2.719980
  C     -7.004150    1.737710    0.478170
  N     -7.507670    1.541940   -0.536220
  C     -4.738970    0.142190    1.791180
  C     -3.576240   -0.101330    2.621430
  C     -2.429880   -0.746610    2.225870
  C     -2.220040   -1.189950    0.904750
  N     -2.007300   -1.509580   -0.177680
  C     -1.318210   -0.964570    3.059770
  N     -0.401310   -1.211970    3.705760
  C     -5.227940   -0.645680    0.770170
  C     -4.997400   -1.997580    0.515570
  S     -4.263030   -3.144870    1.634810
  C     -4.522990   -4.529370    0.605880
  C     -5.173740   -4.115700   -0.566770
  C     -5.439670   -2.716680   -0.598580
  N     -6.060750   -2.426730   -1.762570
  C     -6.196090   -3.600100   -2.469340
  N     -6.817950   -3.592060   -3.731840
  O     -7.208440   -2.511740   -4.140060
  O     -6.922730   -4.650410   -4.318660
  C     -5.664220   -4.662560   -1.769320
  C     -4.124460   -5.822200    0.960740
  C     -3.440380   -6.118470    2.107670
  C     -3.046220   -7.402680    2.517790
  N     -2.341880   -7.587050    3.692960
  C     -2.124440   -8.913080    3.866200
  C     -1.573020   -9.859220    4.715420
  C     -1.828990  -11.110370    4.126010
  N     -2.509790  -10.927230    2.940390
  C     -2.709940   -9.595820    2.759080
  C     -3.280610   -8.656960    1.918110
  C     -1.491850  -12.368520    4.669250
  C     -1.782640  -13.580330    4.115140
  C     -1.519580  -14.832620    4.701590
  S     -2.034590  -16.291860    3.882080
  C     -1.511840  -17.358790    5.157430
  C     -0.929110  -16.593540    6.181530
  C     -0.937180  -15.192120    5.917650
  N     -0.358360  -14.565880    6.973960
  C      0.009570  -15.524460    7.885060
  N      0.644970  -15.128350    9.076370
  O      0.820840  -13.927520    9.217490
  O      0.972500  -15.987560    9.866610
  C     -0.325070  -16.786590    7.438890
  C     -1.747000  -18.734280    5.151050
  C     -2.290850  -19.431000    4.103770
  C     -2.587280  -20.804900    4.107500
  C     -2.853010  -21.609840    5.191850
  C     -2.706180  -23.058230    5.197560
  C     -2.519820  -23.883870    4.118790
  C     -2.466410  -23.484490    2.767260
  N     -2.407870  -23.245880    1.645200
  C     -2.384820  -25.285650    4.210160
  N     -2.271200  -26.427900    4.205610
  C     -2.767220  -23.486140    6.590250
  C     -3.073620  -22.367540    7.396860
  C     -3.161730  -22.491490    8.773450
  C     -2.951210  -23.739310    9.341000
  C     -2.663860  -24.842010    8.549940
  C     -2.567390  -24.728530    7.170670
  C     -3.271770  -21.215510    6.529130
  C     -3.978170  -20.091780    6.876220
  C     -4.445720  -19.825940    8.179680
  N     -4.838020  -19.533550    9.218310
  C     -4.401770  -19.085380    5.985490
  N     -4.820110  -18.240540    5.329510
  H     -5.929130    3.244830    4.433130
  H     -4.609260    3.313500    6.499210
  H     -2.745840    1.754390    6.858640
  H     -2.151400    0.091360    5.141830
  H     -5.969690   -0.202450    0.118670
  H     -6.384300   -1.534050   -2.106600
  H     -5.640660   -5.680350   -2.100150
  H     -4.379110   -6.607230    0.264250
  H     -3.178130   -5.298620    2.766140
  H     -2.042320   -6.842250    4.298970
  H     -1.057290   -9.704290    5.641450
  H     -2.819710  -11.664680    2.332650
  H     -3.805360   -8.821880    0.999690
  H     -0.983290  -12.324520    5.619900
  H     -2.282420  -13.626230    3.157530
  H     -0.190970  -13.584220    7.130920
  H     -0.145940  -17.702910    7.962590
  H     -1.455030  -19.262100    6.050580
  H     -2.430700  -18.905830    3.167460
  H     -2.557080  -21.283650    3.137890
  H     -3.376440  -21.640910    9.399650
  H     -3.011580  -23.849970   10.412770
  H     -2.507850  -25.804790    9.011870
  H     -2.337220  -25.595950    6.574790

 Total Charge           Charge          ....    0
 Multiplicity           Mult            ....    1
 Number of Electrons    NEL             ....  522
 Basis Dimension        Dim             .... 1192

ORBITAL ENERGIES
----------------

  NO   OCC          E(Eh)            E(eV)
   0   2.0000     -88.994029     -2421.6506
   1   2.0000     -88.985649     -2421.4226
   2   2.0000     -19.267689      -524.3005
   3   2.0000     -19.267370      -524.2918
   4   2.0000     -19.252710      -523.8929
   5   2.0000     -19.251286      -523.8541
   6   2.0000     -14.677599      -399.3978
   7   2.0000     -14.662957      -398.9993
   8   2.0000     -14.507080      -394.7577
   9   2.0000     -14.499372      -394.5480
  10   2.0000     -14.492887      -394.3715
  11   2.0000     -14.491123      -394.3235
  12   2.0000     -14.423967      -392.4961
  13   2.0000     -14.423462      -392.4823
  14   2.0000     -14.422630      -392.4597
  15   2.0000     -14.419896      -392.3853
  16   2.0000     -14.419486      -392.3742
  17   2.0000     -14.418064      -392.3355
  18   2.0000     -14.413833      -392.2203
  19   2.0000     -14.412324      -392.1793
  20   2.0000     -10.386926      -282.6426
  21   2.0000     -10.373372      -282.2738
  22   2.0000     -10.353926      -281.7447
  23   2.0000     -10.353770      -281.7404
  24   2.0000     -10.353440      -281.7314
  25   2.0000     -10.351475      -281.6780
  26   2.0000     -10.350272      -281.6452
  27   2.0000     -10.350242      -281.6444
  28   2.0000     -10.349471      -281.6234
  29   2.0000     -10.348822      -281.6058
  30   2.0000     -10.345657      -281.5196
  31   2.0000     -10.342721      -281.4397
  32   2.0000     -10.342381      -281.4305
  33   2.0000     -10.341870      -281.4166
  34   2.0000     -10.340562      -281.3810
  35   2.0000     -10.340358      -281.3755
  36   2.0000     -10.337323      -281.2929
  37   2.0000     -10.332494      -281.1615
  38   2.0000     -10.332003      -281.1481
  39   2.0000     -10.329296      -281.0744
  40   2.0000     -10.327538      -281.0266
  41   2.0000     -10.327168      -281.0165
  42   2.0000     -10.326795      -281.0064
  43   2.0000     -10.326453      -280.9971
  44   2.0000     -10.325948      -280.9833
  45   2.0000     -10.325812      -280.9796
  46   2.0000     -10.325705      -280.9767
  47   2.0000     -10.323998      -280.9303
  48   2.0000     -10.323369      -280.9131
  49   2.0000     -10.322998      -280.9031
  50   2.0000     -10.322855      -280.8992
  51   2.0000     -10.321454      -280.8610
  52   2.0000     -10.321196      -280.8540
  53   2.0000     -10.320440      -280.8334
  54   2.0000     -10.318590      -280.7831
  55   2.0000     -10.316847      -280.7357
  56   2.0000     -10.315971      -280.7119
  57   2.0000     -10.315358      -280.6952
  58   2.0000     -10.314602      -280.6746
  59   2.0000     -10.314285      -280.6660
  60   2.0000     -10.313138      -280.6348
  61   2.0000     -10.309113      -280.5252
  62   2.0000     -10.307006      -280.4679
  63   2.0000     -10.306666      -280.4587
  64   2.0000     -10.305897      -280.4377
  65   2.0000     -10.304562      -280.4014
  66   2.0000     -10.303210      -280.3646
  67   2.0000     -10.303197      -280.3642
  68   2.0000     -10.302264      -280.3389
  69   2.0000     -10.301789      -280.3259
  70   2.0000     -10.301006      -280.3046
  71   2.0000     -10.300860      -280.3006
  72   2.0000     -10.296758      -280.1890
  73   2.0000     -10.295747      -280.1615
  74   2.0000     -10.295569      -280.1567
  75   2.0000     -10.294119      -280.1172
  76   2.0000      -8.088868      -220.1093
  77   2.0000      -8.079981      -219.8675
  78   2.0000      -6.058161      -164.8510
  79   2.0000      -6.054009      -164.7380
  80   2.0000      -6.051030      -164.6569
  81   2.0000      -6.049505      -164.6154
  82   2.0000      -6.045405      -164.5038
  83   2.0000      -6.041657      -164.4018
  84   2.0000      -1.348115       -36.6841
  85   2.0000      -1.333223       -36.2788
  86   2.0000      -1.168481       -31.7960
  87   2.0000      -1.153400       -31.3856
  88   2.0000      -1.130316       -30.7575
  89   2.0000      -1.125645       -30.6304
  90   2.0000      -1.122919       -30.5562
  91   2.0000      -1.088966       -29.6323
  92   2.0000      -1.037755       -28.2387
  93   2.0000      -1.031230       -28.0612
  94   2.0000      -1.020471       -27.7684
  95   2.0000      -1.014416       -27.6036
  96   2.0000      -1.014275       -27.5998
  97   2.0000      -1.009710       -27.4756
  98   2.0000      -1.007519       -27.4160
  99   2.0000      -1.003130       -27.2966
 100   2.0000      -1.001690       -27.2574
 101   2.0000      -0.999937       -27.2097
 102   2.0000      -0.994233       -27.0544
 103   2.0000      -0.993934       -27.0463
 104   2.0000      -0.963958       -26.2306
 105   2.0000      -0.956384       -26.0245
 106   2.0000      -0.953137       -25.9362
 107   2.0000      -0.942267       -25.6404
 108   2.0000      -0.941634       -25.6232
 109   2.0000      -0.934061       -25.4171
 110   2.0000      -0.931164       -25.3383
 111   2.0000      -0.929305       -25.2877
 112   2.0000      -0.926794       -25.2194
 113   2.0000      -0.910887       -24.7865
 114   2.0000      -0.907002       -24.6808
 115   2.0000      -0.900962       -24.5164
 116   2.0000      -0.897488       -24.4219
 117   2.0000      -0.894947       -24.3527
 118   2.0000      -0.889621       -24.2078
 119   2.0000      -0.883037       -24.0287
 120   2.0000      -0.875679       -23.8284
 121   2.0000      -0.868161       -23.6239
 122   2.0000      -0.861450       -23.4412
 123   2.0000      -0.851641       -23.1743
 124   2.0000      -0.835044       -22.7227
 125   2.0000      -0.817131       -22.2353
 126   2.0000      -0.811276       -22.0760
 127   2.0000      -0.804241       -21.8845
 128   2.0000      -0.796760       -21.6809
 129   2.0000      -0.793957       -21.6047
 130   2.0000      -0.785404       -21.3719
 131   2.0000      -0.777880       -21.1672
 132   2.0000      -0.761993       -20.7349
 133   2.0000      -0.737018       -20.0553
 134   2.0000      -0.729638       -19.8545
 135   2.0000      -0.728442       -19.8219
 136   2.0000      -0.726856       -19.7787
 137   2.0000      -0.724884       -19.7251
 138   2.0000      -0.717384       -19.5210
 139   2.0000      -0.715544       -19.4710
 140   2.0000      -0.711397       -19.3581
 141   2.0000      -0.711027       -19.3480
 142   2.0000      -0.709157       -19.2971
 143   2.0000      -0.696763       -18.9599
 144   2.0000      -0.691816       -18.8253
 145   2.0000      -0.688184       -18.7264
 146   2.0000      -0.678337       -18.4585
 147   2.0000      -0.675912       -18.3925
 148   2.0000      -0.669774       -18.2255
 149   2.0000      -0.667101       -18.1528
 150   2.0000      -0.664483       -18.0815
 151   2.0000      -0.662611       -18.0306
 152   2.0000      -0.660455       -17.9719
 153   2.0000      -0.660173       -17.9642
 154   2.0000      -0.657051       -17.8793
 155   2.0000      -0.646705       -17.5977
 156   2.0000      -0.645918       -17.5763
 157   2.0000      -0.645459       -17.5638
 158   2.0000      -0.638512       -17.3748
 159   2.0000      -0.628842       -17.1117
 160   2.0000      -0.621578       -16.9140
 161   2.0000      -0.618956       -16.8426
 162   2.0000      -0.612569       -16.6688
 163   2.0000      -0.605616       -16.4797
 164   2.0000      -0.601804       -16.3759
 165   2.0000      -0.596382       -16.2284
 166   2.0000      -0.595623       -16.2077
 167   2.0000      -0.591389       -16.0925
 168   2.0000      -0.587705       -15.9923
 169   2.0000      -0.583821       -15.8866
 170   2.0000      -0.580143       -15.7865
 171   2.0000      -0.580003       -15.7827
 172   2.0000      -0.570437       -15.5224
 173   2.0000      -0.566232       -15.4079
 174   2.0000      -0.564957       -15.3733
 175   2.0000      -0.564182       -15.3522
 176   2.0000      -0.563857       -15.3433
 177   2.0000      -0.557366       -15.1667
 178   2.0000      -0.556136       -15.1332
 179   2.0000      -0.550620       -14.9831
 180   2.0000      -0.548990       -14.9388
 181   2.0000      -0.546769       -14.8783
 182   2.0000      -0.543328       -14.7847
 183   2.0000      -0.539300       -14.6751
 184   2.0000      -0.539074       -14.6690
 185   2.0000      -0.535922       -14.5832
 186   2.0000      -0.535230       -14.5644
 187   2.0000      -0.531638       -14.4666
 188   2.0000      -0.525715       -14.3054
 189   2.0000      -0.521058       -14.1787
 190   2.0000      -0.520422       -14.1614
 191   2.0000      -0.513075       -13.9615
 192   2.0000      -0.511900       -13.9295
 193   2.0000      -0.510268       -13.8851
 194   2.0000      -0.508418       -13.8348
 195   2.0000      -0.504933       -13.7399
 196   2.0000      -0.499799       -13.6002
 197   2.0000      -0.497722       -13.5437
 198   2.0000      -0.492877       -13.4119
 199   2.0000      -0.489552       -13.3214
 200   2.0000      -0.486033       -13.2256
 201   2.0000      -0.484728       -13.1901
 202   2.0000      -0.483592       -13.1592
 203   2.0000      -0.481550       -13.1036
 204   2.0000      -0.480471       -13.0743
 205   2.0000      -0.475147       -12.9294
 206   2.0000      -0.474744       -12.9184
 207   2.0000      -0.470557       -12.8045
 208   2.0000      -0.463215       -12.6047
 209   2.0000      -0.461414       -12.5557
 210   2.0000      -0.459923       -12.5151
 211   2.0000      -0.456763       -12.4291
 212   2.0000      -0.456002       -12.4084
 213   2.0000      -0.454524       -12.3682
 214   2.0000      -0.452698       -12.3185
 215   2.0000      -0.450822       -12.2675
 216   2.0000      -0.450171       -12.2498
 217   2.0000      -0.449553       -12.2330
 218   2.0000      -0.448577       -12.2064
 219   2.0000      -0.446734       -12.1562
 220   2.0000      -0.444345       -12.0913
 221   2.0000      -0.442916       -12.0523
 222   2.0000      -0.442477       -12.0404
 223   2.0000      -0.440978       -11.9996
 224   2.0000      -0.435224       -11.8431
 225   2.0000      -0.432569       -11.7708
 226   2.0000      -0.431970       -11.7545
 227   2.0000      -0.431407       -11.7392
 228   2.0000      -0.428228       -11.6527
 229   2.0000      -0.427423       -11.6308
 230   2.0000      -0.425937       -11.5903
 231   2.0000      -0.421596       -11.4722
 232   2.0000      -0.416591       -11.3360
 233   2.0000      -0.413607       -11.2548
 234   2.0000      -0.412437       -11.2230
 235   2.0000      -0.412075       -11.2131
 236   2.0000      -0.409742       -11.1497
 237   2.0000      -0.407413       -11.0863
 238   2.0000      -0.405537       -11.0352
 239   2.0000      -0.401279       -10.9193
 240   2.0000      -0.399018       -10.8578
 241   2.0000      -0.397201       -10.8084
 242   2.0000      -0.394432       -10.7330
 243   2.0000      -0.389333       -10.5943
 244   2.0000      -0.387770       -10.5517
 245   2.0000      -0.385549       -10.4913
 246   2.0000      -0.382277       -10.4023
 247   2.0000      -0.379931       -10.3384
 248   2.0000      -0.363357        -9.8875
 249   2.0000      -0.352475        -9.5913
 250   2.0000      -0.342153        -9.3104
 251   2.0000      -0.338727        -9.2172
 252   2.0000      -0.336070        -9.1449
 253   2.0000      -0.330550        -8.9947
 254   2.0000      -0.328808        -8.9473
 255   2.0000      -0.325461        -8.8562
 256   2.0000      -0.316279        -8.6064
 257   2.0000      -0.308995        -8.4082
 258   2.0000      -0.291178        -7.9233
 259   2.0000      -0.264389        -7.1944
 260   2.0000      -0.236261        -6.4290
 261   0.0000      -0.131666        -3.5828
 262   0.0000      -0.109705        -2.9852
 263   0.0000      -0.090592        -2.4651
 264   0.0000      -0.084006        -2.2859
 265   0.0000      -0.075046        -2.0421

MULLIKEN ATOMIC CHARGES
-----------------------
   0 C :   -0.038069
   1 C :    0.044910
   2 C :    0.048091
   3 C :   -0.040229
   4 C :    0.009743
   5 C :    0.010660
   6 C :    0.308464
   7 C :   -0.359338
   8 C :   -0.184887
   9 N :    0.152974
  10 C :   -0.173838
  11 N :    0.129594
  12 C :   -0.090296
  13 C :    0.218952
  14 C :   -0.343510
  15 C :   -0.208602
  16 N :    0.170116
  17 C :   -0.174742
  18 N :    0.143789
  19 C :   -0.000778
  20 C :   -0.170298
  21 S :    0.132382
  22 C :   -0.042897
  23 C :    0.092071
  24 C :    0.175438
  25 N :   -0.020306
  26 C :    0.142519
  27 N :    0.284646
  28 O :   -0.257423
  29 O :   -0.240090
  30 C :   -0.078498
  31 C :   -0.027048
  32 C :    0.024384
  33 C :    0.104379
  34 N :   -0.027168
  35 C :    0.133049
  36 C :   -0.162537
  37 C :    0.075215
  38 N :   -0.035722
  39 C :    0.121685
  40 C :   -0.150542
  41 C :    0.049364
  42 C :    0.060376
  43 C :   -0.181457
  44 S :    0.181034
  45 C :   -0.112553
  46 C :    0.117643
  47 C :    0.130733
  48 N :   -0.040726
  49 C :    0.151275
  50 N :    0.284863
  51 O :   -0.260552
  52 O :   -0.224509
  53 C :   -0.096157
  54 C :    0.036178
  55 C :   -0.026019
  56 C :    0.038271
  57 C :   -0.068714
  58 C :    0.302920
  59 C :   -0.349999
  60 C :   -0.180919
  61 N :    0.153254
  62 C :   -0.191215
  63 N :    0.157728
  64 C :    0.016044
  65 C :   -0.003693
  66 C :   -0.032670
  67 C :    0.044059
  68 C :    0.048494
  69 C :   -0.034361
  70 C :    0.228751
  71 C :   -0.351627
  72 C :   -0.188140
  73 N :    0.162378
  74 C :   -0.191867
  75 N :    0.172197
  76 H :    0.004721
  77 H :    0.001436
  78 H :   -0.000184
  79 H :    0.000087
  80 H :   -0.006560
  81 H :    0.161193
  82 H :   -0.001107
  83 H :   -0.007257
  84 H :   -0.002757
  85 H :    0.133282
  86 H :   -0.022128
  87 H :    0.133303
  88 H :   -0.020211
  89 H :   -0.054186
  90 H :   -0.041110
  91 H :    0.147408
  92 H :    0.003175
  93 H :    0.018384
  94 H :    0.010546
  95 H :    0.024948
  96 H :    0.005269
  97 H :    0.005902
  98 H :    0.003619
  99 H :    0.005602
Sum of atomic charges:    0.0000000

LOEWDIN ATOMIC CHARGES
----------------------
   0 C :    0.003697
   1 C :   -0.002606
   2 C :   -0.000050
   3 C :   -0.003874
   4 C :   -0.010284
   5 C :   -0.013266
   6 C :    0.080702
   7 C :   -0.149136
   8 C :   -0.020508
   9 N :   -0.055462
  10 C :   -0.015527
  11 N :   -0.064821
  12 C :   -0.090379
  13 C :    0.059786
  14 C :   -0.157598
  15 C :   -0.038571
  16 N :   -0.056516
  17 C :   -0.020972
  18 N :   -0.062207
  19 C :    0.032708
  20 C :   -0.211723
  21 S :    0.469990
  22 C :   -0.103083
  23 C :   -0.082217
  24 C :    0.040249
  25 N :    0.090590
  26 C :   -0.004441
  27 N :    0.278464
  28 O :   -0.215828
  29 O :   -0.201517
  30 C :   -0.014664
  31 C :   -0.058469
  32 C :    0.006961
  33 C :   -0.002220
  34 N :    0.078965
  35 C :   -0.004793
  36 C :   -0.080600
  37 C :    0.013280
  38 N :    0.069062
  39 C :   -0.005048
  40 C :   -0.067836
  41 C :   -0.023686
  42 C :   -0.055652
  43 C :   -0.170285
  44 S :    0.487688
  45 C :   -0.177891
  46 C :   -0.046560
  47 C :   -0.007702
  48 N :    0.076732
  49 C :    0.005474
  50 N :    0.280596
  51 O :   -0.222146
  52 O :   -0.186597
  53 C :   -0.025594
  54 C :    0.019290
  55 C :   -0.049102
  56 C :    0.055315
  57 C :   -0.066531
  58 C :    0.075998
  59 C :   -0.136183
  60 C :   -0.022002
  61 N :   -0.047396
  62 C :   -0.019231
  63 N :   -0.049000
  64 C :   -0.012649
  65 C :   -0.012821
  66 C :    0.000003
  67 C :    0.002961
  68 C :    0.002105
  69 C :    0.004382
  70 C :    0.064096
  71 C :   -0.141456
  72 C :   -0.022680
  73 N :   -0.051399
  74 C :   -0.016613
  75 N :   -0.049275
  76 H :    0.041102
  77 H :    0.036369
  78 H :    0.035609
  79 H :    0.038661
  80 H :    0.044631
  81 H :    0.105914
  82 H :    0.042096
  83 H :    0.037005
  84 H :    0.029819
  85 H :    0.096528
  86 H :    0.030047
  87 H :    0.091823
  88 H :    0.029757
  89 H :    0.029634
  90 H :    0.024655
  91 H :    0.090181
  92 H :    0.043563
  93 H :    0.041385
  94 H :    0.032689
  95 H :    0.048564
  96 H :    0.040476
  97 H :    0.037864
  98 H :    0.037624
  99 H :    0.041574

  Mayer bond orders larger than 0.100000
B(  0-C ,  1-C ) :   1.3620 B(  0-C ,  5-C ) :   1.3903 B(  0-C , 76-H ) :   0.9846
B(  1-C ,  2-C ) :   1.3845 B(  1-C , 77-H ) :   0.9861 B(  2-C ,  3-C ) :   1.3573
B(  2-C , 78-H ) :   0.9864 B(  3-C ,  4-C ) :   1.3890 B(  3-C , 79-H ) :   0.9873
B(  4-C ,  5-C ) :   1.3161 B(  4-C , 13-C ) :   1.0151 B(  5-C ,  6-C ) :   0.9898
B(  6-C ,  7-C ) :   1.6028 B(  6-C , 12-C ) :   1.1042 B(  7-C ,  8-C ) :   1.1488
B(  7-C , 10-C ) :   1.1454 B(  8-C ,  9-N ) :   2.9725 B( 10-C , 11-N ) :   2.9529
B( 12-C , 13-C ) :   1.0630 B( 12-C , 19-C ) :   1.4475 B( 13-C , 14-C ) :   1.5988
B( 14-C , 15-C ) :   1.1546 B( 14-C , 17-C ) :   1.1443 B( 15-C , 16-N ) :   3.0247
B( 17-C , 18-N ) :   2.9878 B( 19-C , 20-C ) :   1.3409 B( 19-C , 80-H ) :   0.9271
B( 20-C , 21-S ) :   1.0394 B( 20-C , 24-C ) :   1.2878 B( 21-S , 22-C ) :   1.1487
B( 22-C , 23-C ) :   1.2544 B( 22-C , 31-C ) :   1.2701 B( 23-C , 24-C ) :   1.2441
B( 23-C , 30-C ) :   1.1579 B( 24-C , 25-N ) :   1.2586 B( 25-N , 26-C ) :   1.1540
B( 25-N , 81-H ) :   0.9005 B( 26-C , 27-N ) :   0.9275 B( 26-C , 30-C ) :   1.5282
B( 27-N , 28-O ) :   1.4801 B( 27-N , 29-O ) :   1.5395 B( 28-O , 29-O ) :   0.2702
B( 30-C , 82-H ) :   1.0209 B( 31-C , 32-C ) :   1.5332 B( 31-C , 83-H ) :   0.9745
B( 32-C , 33-C ) :   1.1831 B( 32-C , 84-H ) :   0.9627 B( 33-C , 34-N ) :   1.1605
B( 33-C , 40-C ) :   1.3392 B( 34-N , 35-C ) :   1.1893 B( 34-N , 85-H ) :   0.9334
B( 35-C , 36-C ) :   1.2633 B( 35-C , 39-C ) :   1.2707 B( 36-C , 37-C ) :   1.3315
B( 36-C , 86-H ) :   1.0397 B( 37-C , 38-N ) :   1.1966 B( 37-C , 41-C ) :   1.2154
B( 38-N , 39-C ) :   1.1627 B( 38-N , 87-H ) :   0.9303 B( 39-C , 40-C ) :   1.3140
B( 40-C , 88-H ) :   1.0297 B( 41-C , 42-C ) :   1.5553 B( 41-C , 89-H ) :   0.9459
B( 42-C , 43-C ) :   1.2132 B( 42-C , 90-H ) :   0.9399 B( 43-C , 44-S ) :   1.1382
B( 43-C , 47-C ) :   1.3294 B( 44-S , 45-C ) :   1.1116 B( 45-C , 46-C ) :   1.2592
B( 45-C , 54-C ) :   1.3078 B( 46-C , 47-C ) :   1.2607 B( 46-C , 53-C ) :   1.1699
B( 47-C , 48-N ) :   1.1894 B( 48-N , 49-C ) :   1.1819 B( 48-N , 91-H ) :   0.9002
B( 49-C , 50-N ) :   0.9213 B( 49-C , 53-C ) :   1.5092 B( 50-N , 51-O ) :   1.4829
B( 50-N , 52-O ) :   1.5506 B( 51-O , 52-O ) :   0.2734 B( 53-C , 92-H ) :   1.0212
B( 54-C , 55-C ) :   1.5202 B( 54-C , 93-H ) :   0.9624 B( 55-C , 56-C ) :   1.2544
B( 55-C , 94-H ) :   0.9545 B( 56-C , 57-C ) :   1.5296 B( 56-C , 95-H ) :   0.9257
B( 57-C , 58-C ) :   1.0783 B( 57-C , 70-C ) :   1.0409 B( 58-C , 59-C ) :   1.6199
B( 58-C , 64-C ) :   0.9912 B( 59-C , 60-C ) :   1.1372 B( 59-C , 62-C ) :   1.1517
B( 60-C , 61-N ) :   2.9642 B( 62-C , 63-N ) :   2.9729 B( 64-C , 65-C ) :   1.3151
B( 64-C , 69-C ) :   1.3827 B( 65-C , 66-C ) :   1.3816 B( 65-C , 70-C ) :   1.0023
B( 66-C , 67-C ) :   1.3646 B( 66-C , 96-H ) :   0.9865 B( 67-C , 68-C ) :   1.3782
B( 67-C , 97-H ) :   0.9871 B( 68-C , 69-C ) :   1.3691 B( 68-C , 98-H ) :   0.9863
B( 69-C , 99-H ) :   0.9829 B( 70-C , 71-C ) :   1.6284 B( 71-C , 72-C ) :   1.1427
B( 71-C , 74-C ) :   1.1597 B( 72-C , 73-N ) :   2.9917 B( 74-C , 75-N ) :   2.9934

-----------------------------------------------------------------------------
         ABSORPTION SPECTRUM VIA TRANSITION ELECTRIC DIPOLE MOMENTS
-----------------------------------------------------------------------------
State   Energy  Wavelength   fosc         T2         TX        TY        TZ
        (cm-1)    (nm)                  (au**2)     (au)      (au)      (au)
-----------------------------------------------------------------------------
   0    9599.6   1041.7   2.120198923  72.71045  -0.53831   8.36809  -1.54784
   1   14058.6    711.3   0.072713787   1.70274   1.14007  -0.63401   0.03183
   2   17593.0    568.4   0.029945011   0.56035  -0.32867  -0.65897   0.13451
   3   18960.3    527.4   0.246359848   4.27760   1.19108  -1.67962  -0.19449
   4   19138.8    522.5   0.098252174   1.69007   1.03435  -0.60326   0.50622
   5   20656.0    484.1   0.330127434   5.26152   1.46913  -0.39108   1.71762
   6   21436.0    466.5   0.071060250   1.09134  -0.08014  -0.98611   0.33541
   7   22701.0    440.5   0.279516325   4.05357  -0.78360  -0.79214  -1.67692
   8   23637.7    423.1   0.002338110   0.03256  -0.00953  -0.02897   0.17786
   9   24661.1    405.5   0.013791268   0.18411  -0.28006  -0.32477   0.01403
  10   26074.2    383.5   0.077457123   0.97797   0.03920   0.93685   0.31423
  11   26859.9    372.3   0.133067596   1.63096  -0.53185   0.94400  -0.67598
  12   27215.6    367.4   0.094671340   1.14519  -0.00527  -0.54836  -0.91895
  13   27555.8    362.9   0.209900217   2.50770  -0.81047   1.30411   0.38745
  14   27913.3    358.3   0.083734021   0.98757   0.42959   0.47095   0.76238
  15   28495.3    350.9   0.145320949   1.67892  -0.71437  -0.32643  -1.03056
  16   28728.6    348.1   0.082941121   0.95045   0.25806  -0.02974   0.93967
  17   29269.0    341.7   0.047163308   0.53048   0.19025   0.44051   0.54794
  18   29510.9    338.9   0.134963683   1.50560   0.54620   0.16721   1.08596
  19   29725.4    336.4   0.008172719   0.09051   0.25910   0.15190   0.01753
  20   30007.9    333.2   0.001308129   0.01435   0.00108  -0.05365  -0.10711
  21   30649.8    326.3   0.014786733   0.15883   0.16100   0.25965  -0.25590
  22   31070.0    321.9   0.086068803   0.91197   0.43151  -0.39130  -0.75674
  23   31861.8    313.9   0.134306314   1.38772  -0.26996  -0.33171  -1.09764
  24   31982.3    312.7   0.404905032   4.16792   0.88967  -1.66829  -0.77019
  25   32002.5    312.5   0.195959012   2.01585   0.48515  -1.15918  -0.66089
  26   32180.3    310.7   0.451677287   4.62076   1.88507  -0.98829   0.30091
  27   32873.8    304.2   0.065845888   0.65941  -0.51606   0.62269   0.07316
  28   33604.7    297.6   0.125244233   1.22697  -0.22711   0.83817  -0.68765
  29   34127.9    293.0   0.006929560   0.06685  -0.05177   0.23105   0.10384
  30   34366.7    291.0   0.067326795   0.64495   0.06710   0.35125   0.71907
  31   34472.7    290.1   0.021742648   0.20764   0.31712   0.31580  -0.08572
  32   34799.0    287.4   0.358915084   3.39547  -0.55982  -0.23561  -1.73970
  33   35174.6    284.3   0.059244791   0.55449   0.04678  -0.64384  -0.37118
  34   35784.5    279.5   0.083402542   0.76729  -0.12366  -0.71841   0.48568
  35   35862.1    278.8   0.033682526   0.30920   0.29492   0.06003   0.46757
  36   36130.3    276.8   0.044742402   0.40768   0.38576   0.11262   0.49618
  37   36532.2    273.7   0.025569590   0.23042   0.00190   0.07997   0.47331
  38   36903.3    271.0   0.138259730   1.23341  -0.22092  -0.07231  -1.08599
  39   37145.9    269.2   0.055688913   0.49355   0.03677   0.15490   0.68426
  40   37511.9    266.6   0.036959100   0.32436   0.01358  -0.34957  -0.44942
  41   37986.5    263.3   0.081502831   0.70635   0.26493   0.00517   0.79758
  42   38248.2    261.5   0.128593528   1.10684  -0.28036   0.14940  -1.00295
  43   38398.4    260.4   0.283268940   2.42863  -0.56991  -0.12338  -1.44520
  44   38536.5    259.5   0.056490056   0.48259   0.02397  -0.26560  -0.64146
  45   38704.5    258.4   0.139933563   1.19024  -0.35412   0.05635  -1.03037
  46   39077.8    255.9   0.046004601   0.38757   0.27367   0.07281   0.55441
  47   39134.6    255.5   0.107597036   0.90514   0.45377   0.40274   0.73283
  48   39403.2    253.8   0.176996655   1.47880  -0.53192  -0.07675  -1.09086
  49   39597.3    252.5   0.077423088   0.64370  -0.04527  -0.17974  -0.78060
  50   40053.7    249.7   0.002291271   0.01883   0.09416  -0.08609   0.05055
  51   40142.8    249.1   0.020157363   0.16531  -0.23448   0.04982  -0.32840
  52   40191.3    248.8   0.063388869   0.51923  -0.11581   0.47505   0.52929

FINAL SINGLE POINT ENERGY     -4007.493960237750

DIPOLE MOMENT
-------------
                                X             Y             Z
Electronic contribution:     -5.30253      10.58132     -15.07568
Nuclear contribution   :      7.10673     -12.25386      17.96486
                        -----------------------------------------
Total Dipole Moment    :      1.80420      -1.67254       2.88918
                        -----------------------------------------
Magnitude (a.u.)       :      3.79472
Magnitude (Debye)      :      9.64541

Rotational constants in cm-1:     0.001708     0.000179     0.000168
Rotational constants in MHz :    51.211803     5.362137     5.049987

                             ****ORCA TERMINATED NORMALLY****
TOTAL RUN TIME: 0 days 0 hours 12 minutes 13 seconds 773 msec
