                         Program Version 4.2.0 -  RELEASE  -
|  1> # ORCA input file
|  2> # SCF done       -173.851641799587          0.000815716203
|  3> ! CAM-B3LYP def2-SVP def2/J RIJCOSX Grid4 TightSCF
|  4> %maxcore 5000
|  5> %tddft
|  6>     Mode sTDDFT
|  7>     Ethresh 5.0
|  8>     maxcore 5000
|  9> end
| 10>
| 11> %pal
| 12>   nprocs 6
| 13>   end
| 14> * xyz 0 1
| 15>    C      -11.86409        -9.98459        -7.75794
| 16>    C      -11.62116       -11.02063        -8.64647
| 17>    C      -10.47237       -11.79282        -8.54516
| 18>    C       -9.53597       -11.55002        -7.55247
| 19>    C       -9.76987       -10.52146        -6.65071
| 20>    C      -10.93762        -9.73228        -6.75779
| 21>    C      -10.91335        -8.71824        -5.71730
| 22>    C      -11.82049        -7.70962        -5.54706
| 23>    C      -12.99409        -7.56148        -6.31569
| 24>    N      -13.97544        -7.39481        -6.88777
| 25>    C      -11.70766        -6.66436        -4.60464
| 26>    N      -11.66784        -5.76406        -3.89327
| 27>    C       -9.73522        -8.98036        -4.89713
| 28>    C       -8.96441       -10.02495        -5.54416
| 29>    C       -7.70514       -10.46108        -5.22012
| 30>    C       -6.77186        -9.80216        -4.39989
| 31>    N       -5.88231        -9.32359        -3.85162
| 32>    C       -7.11700       -11.62856        -5.74815
| 33>    N       -6.58775       -12.59424        -6.07621
| 34>    C       -9.60869        -8.51527        -3.61852
| 35>    C       -8.66057        -8.85450        -2.68227
| 36>    C       -7.93422        -9.05112        -1.72191
| 37>    C       -7.00804        -9.29394        -0.73201
| 38>    S       -5.35033        -9.67110        -1.12351
| 39>    C       -4.97014        -9.79683         0.56763
| 40>    C       -6.07247        -9.55662         1.36770
| 41>    C       -7.21760        -9.26648         0.63589
| 42>    C       -3.69210       -10.12450         0.99389
| 43>    C       -2.57366       -10.42424         1.35341
| 44>    C       -1.34484       -10.86771         1.84453
| 45>    C       -0.40910       -11.44286         1.07979
| 46>    C        0.75907       -12.12911         1.65693
| 47>    S        2.36835       -12.02206         0.70638
| 48>    C        1.91236       -13.70036         0.67389
| 49>    C        0.76404       -13.61619         1.37562
| 50>    C       -0.31208       -14.55052         1.65341
| 51>    O       -0.35771       -15.70673         1.31051
| 52>    O       -1.29321       -13.92248         2.34246
| 53>    C       -2.53420       -14.60961         2.49442
| 54>    C       -3.49116       -14.12979         1.51790
| 55>    C       -4.19102       -13.67897         0.64456
| 56>    C       -5.06010       -13.27466        -0.36875
| 57>    S       -6.76339       -13.10836        -0.07997
| 58>    C       -7.03749       -12.75645        -1.77426
| 59>    C       -5.84902       -12.74431        -2.47982
| 60>    C       -4.73984       -13.03356        -1.68803
| 61>    C       -8.32183       -12.63321        -2.26220
| 62>    C       -9.47643       -12.63354        -2.65317
| 63>    C      -10.77130       -12.73189        -3.12438
| 64>    C      -11.06381       -12.72978        -4.45659
| 65>    C      -12.29500       -13.02104        -5.08621
| 66>    C      -13.57133       -13.15501        -4.60001
| 67>    C      -14.60242       -13.92808        -5.29095
| 68>    C      -14.63467       -14.29025        -6.61054
| 69>    C      -13.68388       -13.94287        -7.59254
| 70>    N      -12.96810       -13.70164        -8.45790
| 71>    C      -15.67693       -15.04075        -7.19808
| 72>    N      -16.48493       -15.64596        -7.74359
| 73>    C      -15.62399       -14.24831        -4.30180
| 74>    C      -15.33198       -13.55452        -3.10643
| 75>    C      -16.14053       -13.69258        -1.99065
| 76>    C      -17.24436       -14.52785        -2.07442
| 77>    C      -17.53773       -15.20545        -3.24924
| 78>    C      -16.73479       -15.07402        -4.37273
| 79>    C      -14.14485       -12.74428        -3.32747
| 80>    C      -13.80167       -11.63382        -2.60095
| 81>    C      -14.43661       -11.23774        -1.40582
| 82>    N      -14.89708       -10.88292        -0.41650
| 83>    C      -12.82860       -10.71305        -3.02331
| 84>    N      -12.06374        -9.92397        -3.35488
| 85>    H      -12.75835        -9.39068        -7.85227
| 86>    H      -12.33557       -11.23327        -9.42561
| 87>    H      -10.31000       -12.59631        -9.24582
| 88>    H       -8.64681       -12.15695        -7.49109
| 89>    H      -10.38035        -7.85409        -3.24369
| 90>    H       -6.02824        -9.59083         2.44145
| 91>    H       -8.17916        -9.05096         1.06644
| 92>    H       -1.20586       -10.78430         2.91554
| 93>    H       -0.54748       -11.53711         0.01212
| 94>    H        0.93094       -11.86995         2.70120
| 95>    H        2.44282       -14.50811         0.20903
| 96>    H       -2.88867       -14.40950         3.51041
| 97>    H       -2.36907       -15.68748         2.35463
| 98>    H       -5.80109       -12.55665        -3.53692
| 99>    H       -3.73176       -13.08388        -2.05691
|100>    H      -11.53146       -12.90911        -2.37408
|101>    H      -10.22717       -12.61908        -5.13378
|102>    H      -12.17248       -13.29155        -6.12796
|103>    H      -15.91780       -13.17637        -1.07085
|104>    H      -17.88129       -14.65146        -1.21214
|105>    H      -18.40290       -15.84901        -3.29240
|106>    H      -16.97742       -15.61284        -5.27348
|107> *
|108>
|109>                          ****END OF INPUT****

CARTESIAN COORDINATES (ANGSTROEM)
---------------------------------
  C    -11.864090   -9.984590   -7.757940
  C    -11.621160  -11.020630   -8.646470
  C    -10.472370  -11.792820   -8.545160
  C     -9.535970  -11.550020   -7.552470
  C     -9.769870  -10.521460   -6.650710
  C    -10.937620   -9.732280   -6.757790
  C    -10.913350   -8.718240   -5.717300
  C    -11.820490   -7.709620   -5.547060
  C    -12.994090   -7.561480   -6.315690
  N    -13.975440   -7.394810   -6.887770
  C    -11.707660   -6.664360   -4.604640
  N    -11.667840   -5.764060   -3.893270
  C     -9.735220   -8.980360   -4.897130
  C     -8.964410  -10.024950   -5.544160
  C     -7.705140  -10.461080   -5.220120
  C     -6.771860   -9.802160   -4.399890
  N     -5.882310   -9.323590   -3.851620
  C     -7.117000  -11.628560   -5.748150
  N     -6.587750  -12.594240   -6.076210
  C     -9.608690   -8.515270   -3.618520
  C     -8.660570   -8.854500   -2.682270
  C     -7.934220   -9.051120   -1.721910
  C     -7.008040   -9.293940   -0.732010
  S     -5.350330   -9.671100   -1.123510
  C     -4.970140   -9.796830    0.567630
  C     -6.072470   -9.556620    1.367700
  C     -7.217600   -9.266480    0.635890
  C     -3.692100  -10.124500    0.993890
  C     -2.573660  -10.424240    1.353410
  C     -1.344840  -10.867710    1.844530
  C     -0.409100  -11.442860    1.079790
  C      0.759070  -12.129110    1.656930
  S      2.368350  -12.022060    0.706380
  C      1.912360  -13.700360    0.673890
  C      0.764040  -13.616190    1.375620
  C     -0.312080  -14.550520    1.653410
  O     -0.357710  -15.706730    1.310510
  O     -1.293210  -13.922480    2.342460
  C     -2.534200  -14.609610    2.494420
  C     -3.491160  -14.129790    1.517900
  C     -4.191020  -13.678970    0.644560
  C     -5.060100  -13.274660   -0.368750
  S     -6.763390  -13.108360   -0.079970
  C     -7.037490  -12.756450   -1.774260
  C     -5.849020  -12.744310   -2.479820
  C     -4.739840  -13.033560   -1.688030
  C     -8.321830  -12.633210   -2.262200
  C     -9.476430  -12.633540   -2.653170
  C    -10.771300  -12.731890   -3.124380
  C    -11.063810  -12.729780   -4.456590
  C    -12.295000  -13.021040   -5.086210
  C    -13.571330  -13.155010   -4.600010
  C    -14.602420  -13.928080   -5.290950
  C    -14.634670  -14.290250   -6.610540
  C    -13.683880  -13.942870   -7.592540
  N    -12.968100  -13.701640   -8.457900
  C    -15.676930  -15.040750   -7.198080
  N    -16.484930  -15.645960   -7.743590
  C    -15.623990  -14.248310   -4.301800
  C    -15.331980  -13.554520   -3.106430
  C    -16.140530  -13.692580   -1.990650
  C    -17.244360  -14.527850   -2.074420
  C    -17.537730  -15.205450   -3.249240
  C    -16.734790  -15.074020   -4.372730
  C    -14.144850  -12.744280   -3.327470
  C    -13.801670  -11.633820   -2.600950
  C    -14.436610  -11.237740   -1.405820
  N    -14.897080  -10.882920   -0.416500
  C    -12.828600  -10.713050   -3.023310
  N    -12.063740   -9.923970   -3.354880
  H    -12.758350   -9.390680   -7.852270
  H    -12.335570  -11.233270   -9.425610
  H    -10.310000  -12.596310   -9.245820
  H     -8.646810  -12.156950   -7.491090
  H    -10.380350   -7.854090   -3.243690
  H     -6.028240   -9.590830    2.441450
  H     -8.179160   -9.050960    1.066440
  H     -1.205860  -10.784300    2.915540
  H     -0.547480  -11.537110    0.012120
  H      0.930940  -11.869950    2.701200
  H      2.442820  -14.508110    0.209030
  H     -2.888670  -14.409500    3.510410
  H     -2.369070  -15.687480    2.354630
  H     -5.801090  -12.556650   -3.536920
  H     -3.731760  -13.083880   -2.056910
  H    -11.531460  -12.909110   -2.374080
  H    -10.227170  -12.619080   -5.133780
  H    -12.172480  -13.291550   -6.127960
  H    -15.917800  -13.176370   -1.070850
  H    -17.881290  -14.651460   -1.212140
  H    -18.402900  -15.849010   -3.292400
  H    -16.977420  -15.612840   -5.273480

 Total Charge           Charge          ....    0
 Multiplicity           Mult            ....    1
 Number of Electrons    NEL             ....  484
 Basis Dimension        Dim             .... 1102

ORBITAL ENERGIES
----------------

  NO   OCC          E(Eh)            E(eV)
   0   2.0000     -88.978295     -2421.2225
   1   2.0000     -88.969435     -2420.9814
   2   2.0000     -88.949022     -2420.4259
   3   2.0000     -19.269879      -524.3601
   4   2.0000     -19.209703      -522.7226
   5   2.0000     -14.437265      -392.8580
   6   2.0000     -14.433715      -392.7614
   7   2.0000     -14.430820      -392.6826
   8   2.0000     -14.426472      -392.5643
   9   2.0000     -14.425715      -392.5437
  10   2.0000     -14.418608      -392.3503
  11   2.0000     -14.416522      -392.2935
  12   2.0000     -14.415885      -392.2762
  13   2.0000     -10.409796      -283.2650
  14   2.0000     -10.361672      -281.9554
  15   2.0000     -10.359483      -281.8959
  16   2.0000     -10.358519      -281.8696
  17   2.0000     -10.358304      -281.8638
  18   2.0000     -10.357252      -281.8352
  19   2.0000     -10.348842      -281.6063
  20   2.0000     -10.345835      -281.5245
  21   2.0000     -10.345106      -281.5046
  22   2.0000     -10.340078      -281.3678
  23   2.0000     -10.339918      -281.3635
  24   2.0000     -10.336670      -281.2751
  25   2.0000     -10.335529      -281.2440
  26   2.0000     -10.335384      -281.2401
  27   2.0000     -10.333149      -281.1793
  28   2.0000     -10.333000      -281.1752
  29   2.0000     -10.330844      -281.1165
  30   2.0000     -10.330624      -281.1106
  31   2.0000     -10.329110      -281.0694
  32   2.0000     -10.328908      -281.0639
  33   2.0000     -10.328848      -281.0622
  34   2.0000     -10.327352      -281.0215
  35   2.0000     -10.327194      -281.0172
  36   2.0000     -10.325365      -280.9675
  37   2.0000     -10.325152      -280.9617
  38   2.0000     -10.323051      -280.9045
  39   2.0000     -10.320856      -280.8448
  40   2.0000     -10.320538      -280.8361
  41   2.0000     -10.318855      -280.7903
  42   2.0000     -10.317791      -280.7614
  43   2.0000     -10.313454      -280.6433
  44   2.0000     -10.310196      -280.5547
  45   2.0000     -10.309751      -280.5426
  46   2.0000     -10.308970      -280.5213
  47   2.0000     -10.308424      -280.5065
  48   2.0000     -10.308155      -280.4992
  49   2.0000     -10.307937      -280.4932
  50   2.0000     -10.307227      -280.4739
  51   2.0000     -10.306365      -280.4505
  52   2.0000     -10.305841      -280.4362
  53   2.0000     -10.299837      -280.2728
  54   2.0000     -10.299222      -280.2561
  55   2.0000     -10.298054      -280.2243
  56   2.0000     -10.297034      -280.1965
  57   2.0000     -10.296703      -280.1875
  58   2.0000     -10.296317      -280.1770
  59   2.0000     -10.295964      -280.1674
  60   2.0000     -10.294283      -280.1217
  61   2.0000     -10.294047      -280.1153
  62   2.0000     -10.292891      -280.0838
  63   2.0000     -10.292036      -280.0605
  64   2.0000     -10.291723      -280.0520
  65   2.0000     -10.291647      -280.0500
  66   2.0000     -10.289006      -279.9781
  67   2.0000     -10.286870      -279.9200
  68   2.0000     -10.284953      -279.8678
  69   2.0000     -10.282125      -279.7908
  70   2.0000      -8.073369      -219.6875
  71   2.0000      -8.063160      -219.4097
  72   2.0000      -8.045374      -218.9258
  73   2.0000      -6.042757      -164.4318
  74   2.0000      -6.038507      -164.3161
  75   2.0000      -6.035379      -164.2310
  76   2.0000      -6.032598      -164.1553
  77   2.0000      -6.028127      -164.0337
  78   2.0000      -6.025300      -163.9567
  79   2.0000      -6.014964      -163.6755
  80   2.0000      -6.011966      -163.5939
  81   2.0000      -6.005417      -163.4157
  82   2.0000      -1.198217       -32.6051
  83   2.0000      -1.105002       -30.0686
  84   2.0000      -1.045983       -28.4626
  85   2.0000      -1.033480       -28.1224
  86   2.0000      -1.030010       -28.0280
  87   2.0000      -1.019626       -27.7454
  88   2.0000      -1.017973       -27.7004
  89   2.0000      -1.011906       -27.5354
  90   2.0000      -1.007756       -27.4224
  91   2.0000      -1.005440       -27.3594
  92   2.0000      -1.004345       -27.3296
  93   2.0000      -1.002004       -27.2659
  94   2.0000      -0.998453       -27.1693
  95   2.0000      -0.995418       -27.0867
  96   2.0000      -0.994355       -27.0578
  97   2.0000      -0.969239       -26.3743
  98   2.0000      -0.956322       -26.0228
  99   2.0000      -0.950622       -25.8677
 100   2.0000      -0.941836       -25.6286
 101   2.0000      -0.937300       -25.5052
 102   2.0000      -0.915462       -24.9110
 103   2.0000      -0.910137       -24.7661
 104   2.0000      -0.908413       -24.7192
 105   2.0000      -0.904092       -24.6016
 106   2.0000      -0.892049       -24.2739
 107   2.0000      -0.891681       -24.2639
 108   2.0000      -0.883382       -24.0381
 109   2.0000      -0.875428       -23.8216
 110   2.0000      -0.874342       -23.7921
 111   2.0000      -0.862889       -23.4804
 112   2.0000      -0.854085       -23.2408
 113   2.0000      -0.852416       -23.1954
 114   2.0000      -0.840436       -22.8694
 115   2.0000      -0.838505       -22.8169
 116   2.0000      -0.822938       -22.3933
 117   2.0000      -0.820726       -22.3331
 118   2.0000      -0.802339       -21.8328
 119   2.0000      -0.799897       -21.7663
 120   2.0000      -0.793052       -21.5800
 121   2.0000      -0.789448       -21.4820
 122   2.0000      -0.782914       -21.3042
 123   2.0000      -0.772527       -21.0215
 124   2.0000      -0.746395       -20.3104
 125   2.0000      -0.726378       -19.7657
 126   2.0000      -0.725274       -19.7357
 127   2.0000      -0.724036       -19.7020
 128   2.0000      -0.717459       -19.5230
 129   2.0000      -0.714333       -19.4380
 130   2.0000      -0.710092       -19.3226
 131   2.0000      -0.701591       -19.0913
 132   2.0000      -0.693614       -18.8742
 133   2.0000      -0.685492       -18.6532
 134   2.0000      -0.682667       -18.5763
 135   2.0000      -0.675549       -18.3826
 136   2.0000      -0.674745       -18.3607
 137   2.0000      -0.670710       -18.2510
 138   2.0000      -0.668422       -18.1887
 139   2.0000      -0.662672       -18.0322
 140   2.0000      -0.662236       -18.0203
 141   2.0000      -0.639440       -17.4000
 142   2.0000      -0.638166       -17.3654
 143   2.0000      -0.637318       -17.3423
 144   2.0000      -0.632078       -17.1997
 145   2.0000      -0.629982       -17.1427
 146   2.0000      -0.623840       -16.9755
 147   2.0000      -0.622191       -16.9307
 148   2.0000      -0.601423       -16.3656
 149   2.0000      -0.597322       -16.2540
 150   2.0000      -0.595032       -16.1916
 151   2.0000      -0.594617       -16.1804
 152   2.0000      -0.583173       -15.8689
 153   2.0000      -0.580631       -15.7998
 154   2.0000      -0.579761       -15.7761
 155   2.0000      -0.573145       -15.5961
 156   2.0000      -0.567750       -15.4493
 157   2.0000      -0.564302       -15.3555
 158   2.0000      -0.556594       -15.1457
 159   2.0000      -0.551106       -14.9964
 160   2.0000      -0.548384       -14.9223
 161   2.0000      -0.547160       -14.8890
 162   2.0000      -0.544034       -14.8039
 163   2.0000      -0.542489       -14.7619
 164   2.0000      -0.539764       -14.6877
 165   2.0000      -0.536580       -14.6011
 166   2.0000      -0.535578       -14.5738
 167   2.0000      -0.527949       -14.3662
 168   2.0000      -0.522530       -14.2188
 169   2.0000      -0.519598       -14.1390
 170   2.0000      -0.518144       -14.0994
 171   2.0000      -0.516188       -14.0462
 172   2.0000      -0.515098       -14.0165
 173   2.0000      -0.512793       -13.9538
 174   2.0000      -0.512083       -13.9345
 175   2.0000      -0.507537       -13.8108
 176   2.0000      -0.506152       -13.7731
 177   2.0000      -0.505250       -13.7486
 178   2.0000      -0.497265       -13.5313
 179   2.0000      -0.496344       -13.5062
 180   2.0000      -0.493892       -13.4395
 181   2.0000      -0.488274       -13.2866
 182   2.0000      -0.485379       -13.2078
 183   2.0000      -0.482201       -13.1213
 184   2.0000      -0.478561       -13.0223
 185   2.0000      -0.477018       -12.9803
 186   2.0000      -0.474228       -12.9044
 187   2.0000      -0.470441       -12.8013
 188   2.0000      -0.468853       -12.7581
 189   2.0000      -0.467543       -12.7225
 190   2.0000      -0.464603       -12.6425
 191   2.0000      -0.462898       -12.5961
 192   2.0000      -0.459678       -12.5085
 193   2.0000      -0.458373       -12.4730
 194   2.0000      -0.457953       -12.4615
 195   2.0000      -0.455620       -12.3981
 196   2.0000      -0.452057       -12.3011
 197   2.0000      -0.451915       -12.2972
 198   2.0000      -0.448737       -12.2107
 199   2.0000      -0.446922       -12.1614
 200   2.0000      -0.445124       -12.1124
 201   2.0000      -0.444732       -12.1018
 202   2.0000      -0.443029       -12.0554
 203   2.0000      -0.441961       -12.0264
 204   2.0000      -0.441701       -12.0193
 205   2.0000      -0.439355       -11.9555
 206   2.0000      -0.437536       -11.9059
 207   2.0000      -0.436285       -11.8719
 208   2.0000      -0.433734       -11.8025
 209   2.0000      -0.431100       -11.7308
 210   2.0000      -0.427495       -11.6327
 211   2.0000      -0.426786       -11.6134
 212   2.0000      -0.426247       -11.5988
 213   2.0000      -0.423518       -11.5245
 214   2.0000      -0.419575       -11.4172
 215   2.0000      -0.419126       -11.4050
 216   2.0000      -0.412960       -11.2372
 217   2.0000      -0.408878       -11.1261
 218   2.0000      -0.407061       -11.0767
 219   2.0000      -0.403789       -10.9877
 220   2.0000      -0.401916       -10.9367
 221   2.0000      -0.394619       -10.7381
 222   2.0000      -0.391295       -10.6477
 223   2.0000      -0.382096       -10.3974
 224   2.0000      -0.375314       -10.2128
 225   2.0000      -0.371802       -10.1173
 226   2.0000      -0.368147       -10.0178
 227   2.0000      -0.362575        -9.8662
 228   2.0000      -0.356946        -9.7130
 229   2.0000      -0.354960        -9.6590
 230   2.0000      -0.346554        -9.4302
 231   2.0000      -0.343474        -9.3464
 232   2.0000      -0.339742        -9.2448
 233   2.0000      -0.333947        -9.0872
 234   2.0000      -0.329901        -8.9771
 235   2.0000      -0.327059        -8.8997
 236   2.0000      -0.322126        -8.7655
 237   2.0000      -0.314696        -8.5633
 238   2.0000      -0.304136        -8.2760
 239   2.0000      -0.297092        -8.0843
 240   2.0000      -0.272436        -7.4133
 241   2.0000      -0.261726        -7.1219
 242   0.0000      -0.116511        -3.1704
 243   0.0000      -0.098697        -2.6857
 244   0.0000      -0.097103        -2.6423
 245   0.0000      -0.087039        -2.3684
 246   0.0000      -0.047868        -1.3026

MULLIKEN ATOMIC CHARGES
-----------------------
   0 C :   -0.050350
   1 C :    0.060819
   2 C :    0.056252
   3 C :   -0.049671
   4 C :   -0.016617
   5 C :    0.012001
   6 C :    0.319963
   7 C :   -0.340622
   8 C :   -0.198487
   9 N :    0.159323
  10 C :   -0.195759
  11 N :    0.175857
  12 C :   -0.046182
  13 C :    0.272900
  14 C :   -0.332781
  15 C :   -0.184976
  16 N :    0.150831
  17 C :   -0.191229
  18 N :    0.137389
  19 C :   -0.003833
  20 C :   -0.043959
  21 C :    0.123123
  22 C :   -0.186210
  23 S :    0.233814
  24 C :   -0.137927
  25 C :    0.047101
  26 C :    0.074031
  27 C :    0.103079
  28 C :   -0.050885
  29 C :   -0.074839
  30 C :    0.094576
  31 C :   -0.074677
  32 S :    0.050244
  33 C :   -0.011977
  34 C :   -0.069908
  35 C :    0.206860
  36 O :   -0.191418
  37 O :   -0.312314
  38 C :    0.307967
  39 C :   -0.196746
  40 C :    0.074999
  41 C :   -0.146775
  42 S :    0.202767
  43 C :   -0.198626
  44 C :    0.094783
  45 C :    0.049196
  46 C :    0.139509
  47 C :   -0.034226
  48 C :   -0.042288
  49 C :   -0.008693
  50 C :    0.037962
  51 C :   -0.054374
  52 C :    0.298648
  53 C :   -0.347923
  54 C :   -0.169899
  55 N :    0.145330
  56 C :   -0.189583
  57 N :    0.163298
  58 C :    0.009727
  59 C :    0.004140
  60 C :   -0.031595
  61 C :    0.048089
  62 C :    0.046954
  63 C :   -0.029908
  64 C :    0.235074
  65 C :   -0.346294
  66 C :   -0.175948
  67 N :    0.175876
  68 C :   -0.185265
  69 N :    0.173555
  70 H :    0.001099
  71 H :    0.012255
  72 H :    0.009738
  73 H :    0.003415
  74 H :    0.062036
  75 H :   -0.006867
  76 H :   -0.000870
  77 H :    0.025381
  78 H :    0.014752
  79 H :    0.059685
  80 H :    0.035829
  81 H :    0.045953
  82 H :    0.062509
  83 H :   -0.003751
  84 H :   -0.000528
  85 H :    0.049086
  86 H :    0.017127
  87 H :    0.018355
  88 H :    0.007414
  89 H :    0.008007
  90 H :    0.007881
  91 H :    0.008221
Sum of atomic charges:   -0.0000000

LOEWDIN ATOMIC CHARGES
----------------------
   0 C :   -0.000740
   1 C :    0.012844
   2 C :    0.009073
   3 C :   -0.011077
   4 C :   -0.019350
   5 C :   -0.012427
   6 C :    0.081138
   7 C :   -0.121874
   8 C :   -0.016657
   9 N :   -0.048105
  10 C :   -0.022527
  11 N :   -0.041408
  12 C :   -0.046600
  13 C :    0.076535
  14 C :   -0.136898
  15 C :   -0.007545
  16 N :   -0.069568
  17 C :   -0.016203
  18 N :   -0.059581
  19 C :    0.063916
  20 C :   -0.043866
  21 C :    0.018201
  22 C :   -0.201395
  23 S :    0.535555
  24 C :   -0.175242
  25 C :   -0.044664
  26 C :   -0.014935
  27 C :   -0.057550
  28 C :   -0.012355
  29 C :   -0.039668
  30 C :   -0.000990
  31 C :   -0.069348
  32 S :    0.292946
  33 C :   -0.067003
  34 C :   -0.135511
  35 C :    0.081752
  36 O :   -0.174210
  37 O :   -0.092030
  38 C :    0.084529
  39 C :   -0.033708
  40 C :   -0.049673
  41 C :   -0.168669
  42 S :    0.478982
  43 C :   -0.198505
  44 C :   -0.007986
  45 C :   -0.037388
  46 C :   -0.007399
  47 C :   -0.035386
  48 C :    0.031219
  49 C :   -0.036785
  50 C :    0.056229
  51 C :   -0.059003
  52 C :    0.082143
  53 C :   -0.134193
  54 C :   -0.013028
  55 N :   -0.044900
  56 C :   -0.019477
  57 N :   -0.043383
  58 C :   -0.012813
  59 C :   -0.011570
  60 C :    0.002461
  61 C :    0.006281
  62 C :    0.004543
  63 C :    0.007002
  64 C :    0.069983
  65 C :   -0.139193
  66 C :   -0.022772
  67 N :   -0.038895
  68 C :    0.002083
  69 N :   -0.038310
  70 H :    0.040740
  71 H :    0.038918
  72 H :    0.039823
  73 H :    0.039111
  74 H :    0.064525
  75 H :    0.035513
  76 H :    0.038705
  77 H :    0.043027
  78 H :    0.034734
  79 H :    0.038438
  80 H :    0.028843
  81 H :    0.045828
  82 H :    0.046461
  83 H :    0.039696
  84 H :    0.039791
  85 H :    0.048355
  86 H :    0.040055
  87 H :    0.050585
  88 H :    0.041389
  89 H :    0.038992
  90 H :    0.039100
  91 H :    0.042319

  Mayer bond orders larger than 0.100000
B(  0-C ,  1-C ) :   1.3623 B(  0-C ,  5-C ) :   1.3703 B(  0-C , 70-H ) :   0.9882
B(  1-C ,  2-C ) :   1.3677 B(  1-C , 71-H ) :   0.9852 B(  2-C ,  3-C ) :   1.3727
B(  2-C , 72-H ) :   0.9888 B(  3-C ,  4-C ) :   1.3532 B(  3-C , 73-H ) :   0.9861
B(  4-C ,  5-C ) :   1.3079 B(  4-C , 13-C ) :   1.0155 B(  5-C ,  6-C ) :   1.0056
B(  6-C ,  7-C ) :   1.6464 B(  6-C , 12-C ) :   1.0267 B(  7-C ,  8-C ) :   1.1530
B(  7-C , 10-C ) :   1.1353 B(  8-C ,  9-N ) :   2.9760 B( 10-C , 11-N ) :   2.9992
B( 12-C , 13-C ) :   1.0612 B( 12-C , 19-C ) :   1.5965 B( 13-C , 14-C ) :   1.5853
B( 14-C , 15-C ) :   1.1711 B( 14-C , 17-C ) :   1.1577 B( 15-C , 16-N ) :   2.9212
B( 17-C , 18-N ) :   2.9016 B( 19-C , 20-C ) :   1.0295 B( 19-C , 74-H ) :   0.9193
B( 20-C , 21-C ) :   2.0590 B( 21-C , 22-C ) :   1.0192 B( 22-C , 23-S ) :   1.1104
B( 22-C , 24-C ) :   0.1043 B( 22-C , 26-C ) :   1.4309 B( 23-S , 24-C ) :   1.1331
B( 24-C , 25-C ) :   1.4628 B( 24-C , 27-C ) :   0.9435 B( 25-C , 26-C ) :   1.3000
B( 25-C , 75-H ) :   1.0024 B( 26-C , 76-H ) :   1.0001 B( 27-C , 28-C ) :   2.2797
B( 28-C , 29-C ) :   0.9876 B( 29-C , 30-C ) :   1.7891 B( 29-C , 77-H ) :   0.9610
B( 30-C , 31-C ) :   0.9866 B( 30-C , 78-H ) :   0.9711 B( 31-C , 32-S ) :   0.9919
B( 31-C , 34-C ) :   0.9581 B( 31-C , 79-H ) :   0.9146 B( 32-S , 33-C ) :   1.1016
B( 33-C , 34-C ) :   1.6752 B( 33-C , 80-H ) :   1.0074 B( 34-C , 35-C ) :   0.9892
B( 35-C , 36-O ) :   2.1581 B( 35-C , 37-O ) :   1.1661 B( 37-O , 38-C ) :   0.9432
B( 38-C , 39-C ) :   1.0195 B( 38-C , 81-H ) :   0.9261 B( 38-C , 82-H ) :   0.9038
B( 39-C , 40-C ) :   2.5459 B( 40-C , 41-C ) :   0.9355 B( 41-C , 42-S ) :   1.1365
B( 41-C , 43-C ) :   0.1047 B( 41-C , 45-C ) :   1.4945 B( 42-S , 43-C ) :   1.0923
B( 43-C , 44-C ) :   1.4617 B( 43-C , 46-C ) :   1.0003 B( 44-C , 45-C ) :   1.2839
B( 44-C , 83-H ) :   0.9914 B( 45-C , 84-H ) :   1.0039 B( 46-C , 47-C ) :   2.1313
B( 47-C , 48-C ) :   1.1127 B( 48-C , 49-C ) :   1.5971 B( 48-C , 85-H ) :   0.9339
B( 49-C , 50-C ) :   1.2537 B( 49-C , 86-H ) :   0.9442 B( 50-C , 51-C ) :   1.5618
B( 50-C , 87-H ) :   0.9239 B( 51-C , 52-C ) :   1.0644 B( 51-C , 64-C ) :   1.0263
B( 52-C , 53-C ) :   1.6298 B( 52-C , 58-C ) :   0.9961 B( 53-C , 54-C ) :   1.1435
B( 53-C , 56-C ) :   1.1452 B( 54-C , 55-N ) :   2.9502 B( 56-C , 57-N ) :   2.9787
B( 58-C , 59-C ) :   1.3111 B( 58-C , 63-C ) :   1.3837 B( 59-C , 60-C ) :   1.3828
B( 59-C , 64-C ) :   1.0139 B( 60-C , 61-C ) :   1.3649 B( 60-C , 88-H ) :   0.9872
B( 61-C , 62-C ) :   1.3784 B( 61-C , 89-H ) :   0.9861 B( 62-C , 63-C ) :   1.3702
B( 62-C , 90-H ) :   0.9862 B( 63-C , 91-H ) :   0.9835 B( 64-C , 65-C ) :   1.6309
B( 65-C , 66-C ) :   1.1292 B( 65-C , 68-C ) :   1.1699 B( 66-C , 67-N ) :   2.9980
B( 68-C , 69-N ) :   2.9644

-----------------------------------------------------------------------------
         ABSORPTION SPECTRUM VIA TRANSITION ELECTRIC DIPOLE MOMENTS
-----------------------------------------------------------------------------
State   Energy  Wavelength   fosc         T2         TX        TY        TZ
        (cm-1)    (nm)                  (au**2)     (au)      (au)      (au)
-----------------------------------------------------------------------------
   0   16656.9    600.4   0.274935378   5.43390  -2.26238  -0.03382  -0.56073
   1   18461.6    541.7   0.149721641   2.66987   1.63181  -0.02642  -0.07977
   2   18877.0    529.7   0.716865595  12.50201   2.72769  -0.16875   2.24349
   3   21342.0    468.6   0.328698020   5.07035   1.61575  -0.07190   1.56669
   4   21849.3    457.7   0.226740362   3.41638   0.91662   0.71626   1.43637
   5   22814.4    438.3   0.387179583   5.58700  -2.01896   0.68297  -1.02193
   6   24061.1    415.6   0.034744630   0.47539   0.66389   0.14614   0.11525
   7   24784.1    403.5   0.035753162   0.47492  -0.61151   0.17528  -0.26504
   8   25272.9    395.7   0.008212811   0.10698   0.11613  -0.16568  -0.25700
   9   26319.6    379.9   0.074537247   0.93233   0.86740   0.36872   0.20974
  10   26808.1    373.0   0.129838485   1.59446  -1.21031   0.04336  -0.35738
  11   28561.0    350.1   0.014735927   0.16986  -0.34198  -0.15342   0.17138
  12   29516.8    338.8   0.010049279   0.11208   0.06961   0.13534  -0.29820
  13   29814.6    335.4   0.124584971   1.37566  -0.86770   0.77755   0.13477
  14   30008.4    333.2   0.107948269   1.18427   0.06288   0.62278   0.89020
  15   30433.3    328.6   0.264602466   2.86234   1.54021  -0.60365   0.35452
  16   30620.7    326.6   0.119089436   1.28037  -0.56029   0.46543  -0.86591
  17   30958.0    323.0   0.041976226   0.44638  -0.38722   0.42669  -0.33820
  18   31037.6    322.2   0.008788454   0.09322   0.19120  -0.12220   0.20427
  19   31255.9    319.9   0.010623529   0.11190  -0.29979   0.04918  -0.14000
  20   31471.5    317.7   0.014523770   0.15193   0.20641  -0.12689   0.30532
  21   31632.0    316.1   0.035590163   0.37041   0.42550   0.21358   0.37913
  22   31963.7    312.9   0.076861602   0.79164   0.59935   0.34960   0.55696
  23   32404.3    308.6   0.215055460   2.18486  -0.04691   0.79037   1.24819
  24   32452.2    308.1   0.096098937   0.97488  -0.88995  -0.03425  -0.42625
  25   32735.4    305.5   0.046162596   0.46425  -0.64992   0.18548   0.08633
  26   32932.7    303.7   0.103484897   1.03449  -0.56383   0.55567   0.63860
  27   33081.1    302.3   0.250548401   2.49337   1.26522  -0.19744   0.92390
  28   33267.4    300.6   0.295148471   2.92077   1.46493  -0.87624   0.08333
  29   33839.5    295.5   0.424650108   4.13127  -1.90538   0.48685  -0.51361
  30   34014.3    294.0   0.069609555   0.67373   0.35707   0.72868   0.12353
  31   34191.8    292.5   0.129663661   1.24845  -0.47456  -0.99281  -0.19386
  32   34334.5    291.3   0.204625022   1.96202   0.52488   0.62870   1.13633
  33   34764.0    287.7   0.338186445   3.20259   1.53862  -0.05310   0.91237
  34   34895.5    286.6   0.210353831   1.98452  -0.90133  -0.55377   0.93030
  35   35242.2    283.8   0.123435151   1.15306  -0.11059   0.80848   0.69799
  36   35423.8    282.3   0.026747074   0.24857   0.18384  -0.19279  -0.42144
  37   35616.3    280.8   0.159728708   1.47642  -0.28593   0.50224   1.06884
  38   35787.6    279.4   0.109151524   1.00409   0.65843   0.66438   0.35939
  39   35829.5    279.1   0.093554072   0.85960   0.02120  -0.52618  -0.76308
  40   36340.5    275.2   0.036375155   0.32953   0.28441  -0.42689   0.25769
  41   36648.5    272.9   0.012008559   0.10787  -0.25496  -0.10923   0.17588
  42   37057.3    269.9   0.016978994   0.15084   0.24961  -0.05265  -0.29285
  43   37199.6    268.8   0.002154377   0.01907  -0.01794  -0.13359  -0.02995
  44   37748.6    264.9   0.030234272   0.26368   0.19156  -0.24372  -0.40937
  45   38002.5    263.1   0.004360098   0.03777   0.13681  -0.08183  -0.11116
  46   38541.3    259.5   0.000663693   0.00567  -0.02395  -0.03463   0.06242
  47   38585.7    259.2   0.000201815   0.00172  -0.02775   0.02903  -0.01044
  48   39126.3    255.6   0.003035221   0.02554  -0.06833   0.11861   0.08247
  49   39198.9    255.1   0.000524140   0.00440  -0.02746  -0.05281   0.02930
  50   39268.2    254.7   0.000348178   0.00292  -0.00604   0.02905   0.04515
  51   39416.1    253.7   0.013117258   0.10956  -0.10666   0.06589  -0.30633
  52   39597.0    252.5   0.000697842   0.00580  -0.07222   0.00624  -0.02339
  53   39722.7    251.7   0.008220556   0.06813   0.25278  -0.04046   0.05094
  54   40298.9    248.1   0.061111689   0.49924  -0.16999   0.55356   0.40486

FINAL SINGLE POINT ENERGY     -3963.915758930735

DIPOLE MOMENT
-------------
                                X             Y             Z
Electronic contribution:     -1.17672      13.42410      -5.22635
Nuclear contribution   :      2.33221     -15.87081       7.89582
                        -----------------------------------------
Total Dipole Moment    :      1.15549      -2.44671       2.66946
                        -----------------------------------------
Magnitude (a.u.)       :      3.80099
Magnitude (Debye)      :      9.66136

Rotational constants in cm-1:     0.001855     0.000469     0.000444
Rotational constants in MHz :    55.606310    14.049224    13.314104

                             ****ORCA TERMINATED NORMALLY****
TOTAL RUN TIME: 0 days 0 hours 10 minutes 46 seconds 79 msec
