                         Program Version 4.2.0 -  RELEASE  -
|  1> # ORCA input file
|  2> # SCF done       -182.812687714102          0.000987001767
|  3> ! CAM-B3LYP def2-SVP def2/J RIJCOSX Grid4 TightSCF
|  4> %maxcore 5000
|  5> %tddft
|  6>     Mode sTDDFT
|  7>     Ethresh 5.0
|  8>     maxcore 5000
|  9> end
| 10>
| 11> %pal
| 12>   nprocs 6
| 13>   end
| 14> * xyz 0 1
| 15>    C      -11.25252        -7.94570        10.93381
| 16>    C      -11.07421        -9.08728        11.70100
| 17>    C      -10.48879       -10.22548        11.16516
| 18>    C      -10.06982       -10.25761         9.84351
| 19>    C      -10.23976        -9.12293         9.06742
| 20>    C      -10.82935        -7.95967         9.61410
| 21>    C      -10.86441        -6.92228         8.59186
| 22>    C      -11.45590        -5.69258         8.70233
| 23>    C      -12.12007        -5.23314         9.85911
| 24>    N      -12.67055        -4.79891        10.76782
| 25>    C      -11.51663        -4.73544         7.66736
| 26>    N      -11.60455        -3.92144         6.86259
| 27>    C      -10.15579        -7.45277         7.43593
| 28>    C       -9.94371        -8.87446         7.66455
| 29>    C       -9.68594        -9.82506         6.71326
| 30>    C       -9.78956        -9.61321         5.32273
| 31>    N       -9.96058        -9.54307         4.18974
| 32>    C       -9.41947       -11.17892         7.00602
| 33>    N       -9.16298       -12.28335         7.18463
| 34>    C       -9.58389        -6.69613         6.44721
| 35>    C       -8.65019        -7.17051         5.55589
| 36>    C       -7.76074        -7.52514         4.79878
| 37>    C       -6.78277        -8.08768         4.01266
| 38>    S       -6.33676        -9.75956         4.26662
| 39>    C       -5.15838        -9.65795         2.98886
| 40>    C       -5.13957        -8.39951         2.41114
| 41>    C       -6.04717        -7.51902         2.98639
| 42>    C       -4.38390       -10.76376         2.68997
| 43>    C       -3.73580       -11.77748         2.51318
| 44>    C       -3.02847       -12.96238         2.37983
| 45>    C       -2.03321       -13.16699         1.48620
| 46>    C       -1.26552       -14.36089         1.37331
| 47>    S       -0.33709       -14.61303        -0.08237
| 48>    C        0.24686       -16.16255         0.46313
| 49>    C       -0.23641       -16.43086         1.73164
| 50>    C       -1.08398       -15.42416         2.24042
| 51>    S       -1.82977       -15.54980         3.83888
| 52>    C       -0.36675       -15.36375         4.92518
| 53>    C        0.37393       -16.66267         5.19742
| 54>    C        1.17864       -17.16214         4.00856
| 55>    S        0.16534       -17.87949         2.66188
| 56>    C        1.09925       -16.91458        -0.39539
| 57>    C        1.31118       -18.24693        -0.29548
| 58>    C        2.18565       -18.96530        -1.09774
| 59>    C        2.93252       -19.68238        -1.73501
| 60>    C        3.79103       -20.52663        -2.41561
| 61>    S        4.96991       -19.94154        -3.55509
| 62>    C        5.55305       -21.56647        -3.81717
| 63>    C        4.84732       -22.48477        -3.05759
| 64>    C        3.86149       -21.90239        -2.27250
| 65>    C        6.60239       -21.84211        -4.66754
| 66>    C        7.53472       -22.11196        -5.40321
| 67>    C        8.58620       -22.46805        -6.22440
| 68>    C        9.09432       -23.73182        -6.24177
| 69>    C       10.22010       -24.16922        -6.97869
| 70>    C       10.76913       -23.65701        -8.12440
| 71>    C       12.14750       -23.89411        -8.54184
| 72>    C       13.00443       -24.86080        -8.08656
| 73>    C       12.70045       -25.86072        -7.13846
| 74>    N       12.53861       -26.70855        -6.38056
| 75>    C       14.33000       -25.02140        -8.54414
| 76>    N       15.41609       -25.21025        -8.86413
| 77>    C       12.46163       -22.88899        -9.54939
| 78>    C       11.28574       -22.16917        -9.85819
| 79>    C       11.31192       -21.13304       -10.77692
| 80>    C       12.51643       -20.82196       -11.38956
| 81>    C       13.67040       -21.53422       -11.09585
| 82>    C       13.65680       -22.57167       -10.17563
| 83>    C       10.18592       -22.73491        -9.09105
| 84>    C        8.85951       -22.62030        -9.41379
| 85>    C        8.36791       -21.77653       -10.43101
| 86>    N        7.90891       -21.09496       -11.23253
| 87>    C        7.83032       -23.39067        -8.83449
| 88>    N        6.95592       -24.01654        -8.43369
| 89>    H      -11.70715        -7.06983        11.36677
| 90>    H      -11.39491        -9.08613        12.73153
| 91>    H      -10.35639       -11.10026        11.78334
| 92>    H       -9.61395       -11.14679         9.43938
| 93>    H       -9.79313        -5.63546         6.39934
| 94>    H       -4.48005        -8.14814         1.59978
| 95>    H       -6.18420        -6.49790         2.67803
| 96>    H       -3.32315       -13.74769         3.06240
| 97>    H       -1.79191       -12.38906         0.77288
| 98>    H        0.28198       -14.61190         4.47513
| 99>    H       -0.78315       -14.96746         5.85091
|100>    H       -0.34115       -17.43094         5.49969
|101>    H        1.06336       -16.49500         6.03061
|102>    H        1.79128       -16.37314         3.57168
|103>    H        1.82311       -17.98709         4.31127
|104>    H        1.57447       -16.35708        -1.19232
|105>    H        0.78480       -18.82990         0.44800
|106>    H        5.05980       -23.53829        -3.08860
|107>    H        3.20883       -22.44404        -1.61165
|108>    H        9.02637       -21.67831        -6.82157
|109>    H        8.67568       -24.44926        -5.54836
|110>    H       10.75387       -24.98952        -6.51594
|111>    H       10.42352       -20.56786       -11.00778
|112>    H       12.55385       -20.01344       -12.10346
|113>    H       14.59648       -21.27701       -11.58680
|114>    H       14.56456       -23.10896        -9.95655
|115> *
|116>
|117>                          ****END OF INPUT****

CARTESIAN COORDINATES (ANGSTROEM)
---------------------------------
  C    -11.252520   -7.945700   10.933810
  C    -11.074210   -9.087280   11.701000
  C    -10.488790  -10.225480   11.165160
  C    -10.069820  -10.257610    9.843510
  C    -10.239760   -9.122930    9.067420
  C    -10.829350   -7.959670    9.614100
  C    -10.864410   -6.922280    8.591860
  C    -11.455900   -5.692580    8.702330
  C    -12.120070   -5.233140    9.859110
  N    -12.670550   -4.798910   10.767820
  C    -11.516630   -4.735440    7.667360
  N    -11.604550   -3.921440    6.862590
  C    -10.155790   -7.452770    7.435930
  C     -9.943710   -8.874460    7.664550
  C     -9.685940   -9.825060    6.713260
  C     -9.789560   -9.613210    5.322730
  N     -9.960580   -9.543070    4.189740
  C     -9.419470  -11.178920    7.006020
  N     -9.162980  -12.283350    7.184630
  C     -9.583890   -6.696130    6.447210
  C     -8.650190   -7.170510    5.555890
  C     -7.760740   -7.525140    4.798780
  C     -6.782770   -8.087680    4.012660
  S     -6.336760   -9.759560    4.266620
  C     -5.158380   -9.657950    2.988860
  C     -5.139570   -8.399510    2.411140
  C     -6.047170   -7.519020    2.986390
  C     -4.383900  -10.763760    2.689970
  C     -3.735800  -11.777480    2.513180
  C     -3.028470  -12.962380    2.379830
  C     -2.033210  -13.166990    1.486200
  C     -1.265520  -14.360890    1.373310
  S     -0.337090  -14.613030   -0.082370
  C      0.246860  -16.162550    0.463130
  C     -0.236410  -16.430860    1.731640
  C     -1.083980  -15.424160    2.240420
  S     -1.829770  -15.549800    3.838880
  C     -0.366750  -15.363750    4.925180
  C      0.373930  -16.662670    5.197420
  C      1.178640  -17.162140    4.008560
  S      0.165340  -17.879490    2.661880
  C      1.099250  -16.914580   -0.395390
  C      1.311180  -18.246930   -0.295480
  C      2.185650  -18.965300   -1.097740
  C      2.932520  -19.682380   -1.735010
  C      3.791030  -20.526630   -2.415610
  S      4.969910  -19.941540   -3.555090
  C      5.553050  -21.566470   -3.817170
  C      4.847320  -22.484770   -3.057590
  C      3.861490  -21.902390   -2.272500
  C      6.602390  -21.842110   -4.667540
  C      7.534720  -22.111960   -5.403210
  C      8.586200  -22.468050   -6.224400
  C      9.094320  -23.731820   -6.241770
  C     10.220100  -24.169220   -6.978690
  C     10.769130  -23.657010   -8.124400
  C     12.147500  -23.894110   -8.541840
  C     13.004430  -24.860800   -8.086560
  C     12.700450  -25.860720   -7.138460
  N     12.538610  -26.708550   -6.380560
  C     14.330000  -25.021400   -8.544140
  N     15.416090  -25.210250   -8.864130
  C     12.461630  -22.888990   -9.549390
  C     11.285740  -22.169170   -9.858190
  C     11.311920  -21.133040  -10.776920
  C     12.516430  -20.821960  -11.389560
  C     13.670400  -21.534220  -11.095850
  C     13.656800  -22.571670  -10.175630
  C     10.185920  -22.734910   -9.091050
  C      8.859510  -22.620300   -9.413790
  C      8.367910  -21.776530  -10.431010
  N      7.908910  -21.094960  -11.232530
  C      7.830320  -23.390670   -8.834490
  N      6.955920  -24.016540   -8.433690
  H    -11.707150   -7.069830   11.366770
  H    -11.394910   -9.086130   12.731530
  H    -10.356390  -11.100260   11.783340
  H     -9.613950  -11.146790    9.439380
  H     -9.793130   -5.635460    6.399340
  H     -4.480050   -8.148140    1.599780
  H     -6.184200   -6.497900    2.678030
  H     -3.323150  -13.747690    3.062400
  H     -1.791910  -12.389060    0.772880
  H      0.281980  -14.611900    4.475130
  H     -0.783150  -14.967460    5.850910
  H     -0.341150  -17.430940    5.499690
  H      1.063360  -16.495000    6.030610
  H      1.791280  -16.373140    3.571680
  H      1.823110  -17.987090    4.311270
  H      1.574470  -16.357080   -1.192320
  H      0.784800  -18.829900    0.448000
  H      5.059800  -23.538290   -3.088600
  H      3.208830  -22.444040   -1.611650
  H      9.026370  -21.678310   -6.821570
  H      8.675680  -24.449260   -5.548360
  H     10.753870  -24.989520   -6.515940
  H     10.423520  -20.567860  -11.007780
  H     12.553850  -20.013440  -12.103460
  H     14.596480  -21.277010  -11.586800
  H     14.564560  -23.108960   -9.956550

 Total Charge           Charge          ....    0
 Multiplicity           Mult            ....    1
 Number of Electrons    NEL             ....  528
 Basis Dimension        Dim             .... 1186

ORBITAL ENERGIES
----------------

  NO   OCC          E(Eh)            E(eV)
   0   2.0000     -88.976840     -2421.1829
   1   2.0000     -88.975798     -2421.1546
   2   2.0000     -88.970480     -2421.0098
   3   2.0000     -88.930609     -2419.9249
   4   2.0000     -88.930276     -2419.9158
   5   2.0000     -14.425230      -392.5305
   6   2.0000     -14.424420      -392.5084
   7   2.0000     -14.423740      -392.4899
   8   2.0000     -14.423660      -392.4877
   9   2.0000     -14.423452      -392.4821
  10   2.0000     -14.422471      -392.4554
  11   2.0000     -14.421581      -392.4312
  12   2.0000     -14.417620      -392.3234
  13   2.0000     -10.354788      -281.7681
  14   2.0000     -10.354062      -281.7484
  15   2.0000     -10.353947      -281.7452
  16   2.0000     -10.352663      -281.7103
  17   2.0000     -10.351390      -281.6756
  18   2.0000     -10.350773      -281.6589
  19   2.0000     -10.350395      -281.6486
  20   2.0000     -10.347782      -281.5775
  21   2.0000     -10.339624      -281.3555
  22   2.0000     -10.337287      -281.2919
  23   2.0000     -10.332588      -281.1640
  24   2.0000     -10.330819      -281.1159
  25   2.0000     -10.329313      -281.0749
  26   2.0000     -10.326792      -281.0063
  27   2.0000     -10.326640      -281.0021
  28   2.0000     -10.326480      -280.9978
  29   2.0000     -10.326464      -280.9974
  30   2.0000     -10.325863      -280.9810
  31   2.0000     -10.325637      -280.9749
  32   2.0000     -10.325552      -280.9726
  33   2.0000     -10.324968      -280.9567
  34   2.0000     -10.324249      -280.9371
  35   2.0000     -10.323018      -280.9036
  36   2.0000     -10.321843      -280.8716
  37   2.0000     -10.320965      -280.8477
  38   2.0000     -10.320836      -280.8442
  39   2.0000     -10.319942      -280.8199
  40   2.0000     -10.315664      -280.7035
  41   2.0000     -10.315339      -280.6946
  42   2.0000     -10.315316      -280.6940
  43   2.0000     -10.315002      -280.6855
  44   2.0000     -10.313000      -280.6310
  45   2.0000     -10.310720      -280.5690
  46   2.0000     -10.310133      -280.5530
  47   2.0000     -10.306267      -280.4478
  48   2.0000     -10.305962      -280.4395
  49   2.0000     -10.304430      -280.3978
  50   2.0000     -10.303648      -280.3765
  51   2.0000     -10.303293      -280.3669
  52   2.0000     -10.303152      -280.3630
  53   2.0000     -10.302963      -280.3579
  54   2.0000     -10.302767      -280.3525
  55   2.0000     -10.302623      -280.3486
  56   2.0000     -10.302504      -280.3454
  57   2.0000     -10.302248      -280.3384
  58   2.0000     -10.302164      -280.3361
  59   2.0000     -10.301641      -280.3219
  60   2.0000     -10.301086      -280.3068
  61   2.0000     -10.300886      -280.3014
  62   2.0000     -10.300410      -280.2884
  63   2.0000     -10.299069      -280.2519
  64   2.0000     -10.298312      -280.2313
  65   2.0000     -10.296869      -280.1921
  66   2.0000     -10.295185      -280.1462
  67   2.0000     -10.293654      -280.1046
  68   2.0000     -10.292320      -280.0683
  69   2.0000     -10.291003      -280.0324
  70   2.0000     -10.288343      -279.9601
  71   2.0000     -10.286973      -279.9228
  72   2.0000     -10.285818      -279.8913
  73   2.0000     -10.283989      -279.8416
  74   2.0000      -8.072047      -219.6516
  75   2.0000      -8.071297      -219.6312
  76   2.0000      -8.066428      -219.4987
  77   2.0000      -8.025580      -218.3871
  78   2.0000      -8.025282      -218.3790
  79   2.0000      -6.041400      -164.3948
  80   2.0000      -6.040627      -164.3738
  81   2.0000      -6.037123      -164.2785
  82   2.0000      -6.036412      -164.2591
  83   2.0000      -6.035572      -164.2363
  84   2.0000      -6.034095      -164.1961
  85   2.0000      -6.033320      -164.1750
  86   2.0000      -6.031699      -164.1309
  87   2.0000      -6.028465      -164.0429
  88   2.0000      -5.996227      -163.1656
  89   2.0000      -5.995916      -163.1572
  90   2.0000      -5.992173      -163.0553
  91   2.0000      -5.991881      -163.0474
  92   2.0000      -5.984839      -162.8557
  93   2.0000      -5.984551      -162.8479
  94   2.0000      -1.038974       -28.2719
  95   2.0000      -1.038653       -28.2632
  96   2.0000      -1.020345       -27.7650
  97   2.0000      -1.020164       -27.7601
  98   2.0000      -1.009822       -27.4787
  99   2.0000      -1.009642       -27.4737
 100   2.0000      -1.008005       -27.4292
 101   2.0000      -1.004677       -27.3386
 102   2.0000      -1.002409       -27.2769
 103   2.0000      -1.001764       -27.2594
 104   2.0000      -1.001195       -27.2439
 105   2.0000      -1.000880       -27.2353
 106   2.0000      -0.998394       -27.1677
 107   2.0000      -0.963932       -26.2299
 108   2.0000      -0.963491       -26.2179
 109   2.0000      -0.942955       -25.6591
 110   2.0000      -0.942745       -25.6534
 111   2.0000      -0.936105       -25.4727
 112   2.0000      -0.933935       -25.4137
 113   2.0000      -0.931070       -25.3357
 114   2.0000      -0.920725       -25.0542
 115   2.0000      -0.910529       -24.7767
 116   2.0000      -0.900906       -24.5149
 117   2.0000      -0.897700       -24.4276
 118   2.0000      -0.896156       -24.3856
 119   2.0000      -0.891126       -24.2488
 120   2.0000      -0.882276       -24.0080
 121   2.0000      -0.875381       -23.8203
 122   2.0000      -0.869000       -23.6467
 123   2.0000      -0.868824       -23.6419
 124   2.0000      -0.868470       -23.6323
 125   2.0000      -0.861324       -23.4378
 126   2.0000      -0.853420       -23.2227
 127   2.0000      -0.847181       -23.0530
 128   2.0000      -0.841483       -22.8979
 129   2.0000      -0.831944       -22.6383
 130   2.0000      -0.819268       -22.2934
 131   2.0000      -0.805141       -21.9090
 132   2.0000      -0.794830       -21.6284
 133   2.0000      -0.794141       -21.6097
 134   2.0000      -0.793010       -21.5789
 135   2.0000      -0.784510       -21.3476
 136   2.0000      -0.775091       -21.0913
 137   2.0000      -0.753413       -20.5014
 138   2.0000      -0.751056       -20.4373
 139   2.0000      -0.737660       -20.0728
 140   2.0000      -0.727053       -19.7841
 141   2.0000      -0.719376       -19.5752
 142   2.0000      -0.718728       -19.5576
 143   2.0000      -0.716463       -19.4959
 144   2.0000      -0.714925       -19.4541
 145   2.0000      -0.708859       -19.2890
 146   2.0000      -0.701359       -19.0849
 147   2.0000      -0.685043       -18.6410
 148   2.0000      -0.678228       -18.4555
 149   2.0000      -0.675753       -18.3882
 150   2.0000      -0.674792       -18.3620
 151   2.0000      -0.671284       -18.2666
 152   2.0000      -0.669541       -18.2191
 153   2.0000      -0.668580       -18.1930
 154   2.0000      -0.668141       -18.1810
 155   2.0000      -0.664206       -18.0740
 156   2.0000      -0.644511       -17.5380
 157   2.0000      -0.643104       -17.4997
 158   2.0000      -0.632149       -17.2016
 159   2.0000      -0.630587       -17.1591
 160   2.0000      -0.627523       -17.0758
 161   2.0000      -0.619211       -16.8496
 162   2.0000      -0.616371       -16.7723
 163   2.0000      -0.604957       -16.4617
 164   2.0000      -0.591692       -16.1008
 165   2.0000      -0.590961       -16.0809
 166   2.0000      -0.590487       -16.0680
 167   2.0000      -0.588988       -16.0272
 168   2.0000      -0.588943       -16.0259
 169   2.0000      -0.588515       -16.0143
 170   2.0000      -0.579587       -15.7714
 171   2.0000      -0.562455       -15.3052
 172   2.0000      -0.554989       -15.1020
 173   2.0000      -0.550536       -14.9808
 174   2.0000      -0.549883       -14.9631
 175   2.0000      -0.547796       -14.9063
 176   2.0000      -0.547307       -14.8930
 177   2.0000      -0.545462       -14.8428
 178   2.0000      -0.544644       -14.8205
 179   2.0000      -0.542357       -14.7583
 180   2.0000      -0.540988       -14.7210
 181   2.0000      -0.538933       -14.6651
 182   2.0000      -0.526900       -14.3377
 183   2.0000      -0.523938       -14.2571
 184   2.0000      -0.522601       -14.2207
 185   2.0000      -0.520617       -14.1667
 186   2.0000      -0.518793       -14.1171
 187   2.0000      -0.512498       -13.9458
 188   2.0000      -0.511652       -13.9228
 189   2.0000      -0.511469       -13.9178
 190   2.0000      -0.508476       -13.8363
 191   2.0000      -0.507530       -13.8106
 192   2.0000      -0.505530       -13.7562
 193   2.0000      -0.505187       -13.7468
 194   2.0000      -0.502692       -13.6789
 195   2.0000      -0.499624       -13.5955
 196   2.0000      -0.496927       -13.5221
 197   2.0000      -0.494943       -13.4681
 198   2.0000      -0.488355       -13.2888
 199   2.0000      -0.485702       -13.2166
 200   2.0000      -0.484250       -13.1771
 201   2.0000      -0.479662       -13.0523
 202   2.0000      -0.473227       -12.8772
 203   2.0000      -0.472839       -12.8666
 204   2.0000      -0.471355       -12.8262
 205   2.0000      -0.465956       -12.6793
 206   2.0000      -0.464453       -12.6384
 207   2.0000      -0.463128       -12.6023
 208   2.0000      -0.461064       -12.5462
 209   2.0000      -0.460939       -12.5428
 210   2.0000      -0.456100       -12.4111
 211   2.0000      -0.455351       -12.3907
 212   2.0000      -0.454778       -12.3751
 213   2.0000      -0.454508       -12.3678
 214   2.0000      -0.452918       -12.3245
 215   2.0000      -0.450819       -12.2674
 216   2.0000      -0.450001       -12.2451
 217   2.0000      -0.448638       -12.2081
 218   2.0000      -0.448484       -12.2039
 219   2.0000      -0.446834       -12.1590
 220   2.0000      -0.445566       -12.1245
 221   2.0000      -0.444790       -12.1034
 222   2.0000      -0.443618       -12.0715
 223   2.0000      -0.441158       -12.0045
 224   2.0000      -0.438086       -11.9209
 225   2.0000      -0.435068       -11.8388
 226   2.0000      -0.434205       -11.8153
 227   2.0000      -0.433757       -11.8031
 228   2.0000      -0.432381       -11.7657
 229   2.0000      -0.432155       -11.7595
 230   2.0000      -0.429301       -11.6819
 231   2.0000      -0.428886       -11.6706
 232   2.0000      -0.421784       -11.4773
 233   2.0000      -0.420663       -11.4468
 234   2.0000      -0.418356       -11.3841
 235   2.0000      -0.416694       -11.3388
 236   2.0000      -0.415104       -11.2955
 237   2.0000      -0.413445       -11.2504
 238   2.0000      -0.409728       -11.1493
 239   2.0000      -0.400211       -10.8903
 240   2.0000      -0.399168       -10.8619
 241   2.0000      -0.392954       -10.6928
 242   2.0000      -0.388027       -10.5588
 243   2.0000      -0.387647       -10.5484
 244   2.0000      -0.379679       -10.3316
 245   2.0000      -0.365488        -9.9454
 246   2.0000      -0.364884        -9.9290
 247   2.0000      -0.363677        -9.8962
 248   2.0000      -0.354705        -9.6520
 249   2.0000      -0.351914        -9.5761
 250   2.0000      -0.345450        -9.4002
 251   2.0000      -0.341930        -9.3044
 252   2.0000      -0.341586        -9.2950
 253   2.0000      -0.336853        -9.1662
 254   2.0000      -0.336587        -9.1590
 255   2.0000      -0.335639        -9.1332
 256   2.0000      -0.326925        -8.8961
 257   2.0000      -0.316480        -8.6119
 258   2.0000      -0.308068        -8.3830
 259   2.0000      -0.306433        -8.3385
 260   2.0000      -0.295001        -8.0274
 261   2.0000      -0.288066        -7.8387
 262   2.0000      -0.267310        -7.2739
 263   2.0000      -0.246252        -6.7008
 264   0.0000      -0.111218        -3.0264
 265   0.0000      -0.106774        -2.9055
 266   0.0000      -0.090169        -2.4536
 267   0.0000      -0.090105        -2.4519
 268   0.0000      -0.070028        -1.9055

MULLIKEN ATOMIC CHARGES
-----------------------
   0 C :   -0.033971
   1 C :    0.047755
   2 C :    0.048960
   3 C :   -0.036582
   4 C :    0.018663
   5 C :    0.009560
   6 C :    0.289995
   7 C :   -0.343897
   8 C :   -0.186664
   9 N :    0.163040
  10 C :   -0.188576
  11 N :    0.171332
  12 C :   -0.088489
  13 C :    0.255536
  14 C :   -0.316519
  15 C :   -0.230387
  16 N :    0.191904
  17 C :   -0.179314
  18 N :    0.156175
  19 C :   -0.017975
  20 C :   -0.015241
  21 C :    0.102391
  22 C :   -0.168330
  23 S :    0.212729
  24 C :   -0.132870
  25 C :    0.051227
  26 C :    0.073264
  27 C :    0.054452
  28 C :   -0.008283
  29 C :   -0.085483
  30 C :    0.054513
  31 C :   -0.116676
  32 S :    0.146852
  33 C :   -0.116851
  34 C :   -0.048642
  35 C :   -0.050057
  36 S :   -0.001347
  37 C :   -0.087449
  38 C :    0.094524
  39 C :   -0.085337
  40 S :   -0.006391
  41 C :    0.046754
  42 C :   -0.074704
  43 C :   -0.033652
  44 C :    0.064926
  45 C :   -0.134973
  46 S :    0.204088
  47 C :   -0.167817
  48 C :    0.062668
  49 C :    0.046128
  50 C :    0.090188
  51 C :   -0.011535
  52 C :   -0.038722
  53 C :   -0.004865
  54 C :    0.030144
  55 C :   -0.060239
  56 C :    0.296078
  57 C :   -0.343084
  58 C :   -0.182292
  59 N :    0.156752
  60 C :   -0.188601
  61 N :    0.160868
  62 C :    0.015017
  63 C :    0.000656
  64 C :   -0.030747
  65 C :    0.044790
  66 C :    0.047540
  67 C :   -0.033040
  68 C :    0.228797
  69 C :   -0.330352
  70 C :   -0.180875
  71 N :    0.163402
  72 C :   -0.198455
  73 N :    0.186380
  74 H :    0.005917
  75 H :    0.004517
  76 H :    0.005164
  77 H :    0.005484
  78 H :    0.054523
  79 H :   -0.000890
  80 H :    0.004578
  81 H :    0.050415
  82 H :    0.000407
  83 H :    0.050170
  84 H :    0.057015
  85 H :    0.024824
  86 H :    0.019013
  87 H :    0.050457
  88 H :    0.056426
  89 H :    0.002415
  90 H :    0.048899
  91 H :    0.004105
  92 H :    0.000919
  93 H :    0.049950
  94 H :    0.023629
  95 H :    0.028129
  96 H :    0.006678
  97 H :    0.006932
  98 H :    0.004672
  99 H :    0.006887
Sum of atomic charges:   -0.0000000

LOEWDIN ATOMIC CHARGES
----------------------
   0 C :    0.005480
   1 C :    0.001337
   2 C :    0.005101
   3 C :    0.000922
   4 C :   -0.008786
   5 C :   -0.014521
   6 C :    0.076197
   7 C :   -0.128597
   8 C :   -0.018784
   9 N :   -0.043153
  10 C :   -0.023172
  11 N :   -0.039374
  12 C :   -0.043541
  13 C :    0.068413
  14 C :   -0.123147
  15 C :   -0.025527
  16 N :   -0.036196
  17 C :   -0.018690
  18 N :   -0.044748
  19 C :    0.043801
  20 C :   -0.037177
  21 C :    0.009959
  22 C :   -0.193912
  23 S :    0.489466
  24 C :   -0.159145
  25 C :   -0.039777
  26 C :   -0.007265
  27 C :   -0.067828
  28 C :   -0.002427
  29 C :   -0.040049
  30 C :   -0.020522
  31 C :   -0.178478
  32 S :    0.446538
  33 C :   -0.177568
  34 C :   -0.212381
  35 C :   -0.211000
  36 S :    0.301277
  37 C :   -0.126307
  38 C :   -0.065074
  39 C :   -0.126593
  40 S :    0.296924
  41 C :   -0.025527
  42 C :   -0.035840
  43 C :   -0.011909
  44 C :   -0.060972
  45 C :   -0.171994
  46 S :    0.473621
  47 C :   -0.194038
  48 C :   -0.016297
  49 C :   -0.035109
  50 C :   -0.017319
  51 C :   -0.028728
  52 C :    0.019832
  53 C :   -0.019112
  54 C :    0.056331
  55 C :   -0.055351
  56 C :    0.077755
  57 C :   -0.131825
  58 C :   -0.022674
  59 N :   -0.042566
  60 C :   -0.018684
  61 N :   -0.045957
  62 C :   -0.013284
  63 C :   -0.011256
  64 C :    0.001154
  65 C :    0.004662
  66 C :    0.002374
  67 C :    0.005237
  68 C :    0.063194
  69 C :   -0.130364
  70 C :   -0.020647
  71 N :   -0.044194
  72 C :   -0.020525
  73 N :   -0.031275
  74 H :    0.041549
  75 H :    0.037866
  76 H :    0.037874
  77 H :    0.041024
  78 H :    0.063064
  79 H :    0.038902
  80 H :    0.041363
  81 H :    0.032348
  82 H :    0.034572
  83 H :    0.025769
  84 H :    0.030692
  85 H :    0.026913
  86 H :    0.030151
  87 H :    0.025919
  88 H :    0.030528
  89 H :    0.034693
  90 H :    0.033558
  91 H :    0.040467
  92 H :    0.039014
  93 H :    0.048036
  94 H :    0.045635
  95 H :    0.050545
  96 H :    0.041090
  97 H :    0.038214
  98 H :    0.037998
  99 H :    0.041826

  Mayer bond orders larger than 0.100000
B(  0-C ,  1-C ) :   1.3697 B(  0-C ,  5-C ) :   1.3845 B(  0-C , 74-H ) :   0.9839
B(  1-C ,  2-C ) :   1.3782 B(  1-C , 75-H ) :   0.9857 B(  2-C ,  3-C ) :   1.3643
B(  2-C , 76-H ) :   0.9861 B(  3-C ,  4-C ) :   1.3857 B(  3-C , 77-H ) :   0.9845
B(  4-C ,  5-C ) :   1.3090 B(  4-C , 13-C ) :   1.0179 B(  5-C ,  6-C ) :   1.0051
B(  6-C ,  7-C ) :   1.6500 B(  6-C , 12-C ) :   1.0397 B(  7-C ,  8-C ) :   1.1468
B(  7-C , 10-C ) :   1.1362 B(  8-C ,  9-N ) :   2.9786 B( 10-C , 11-N ) :   2.9908
B( 12-C , 13-C ) :   1.0324 B( 12-C , 19-C ) :   1.6125 B( 13-C , 14-C ) :   1.6388
B( 14-C , 15-C ) :   1.1556 B( 14-C , 17-C ) :   1.1325 B( 15-C , 16-N ) :   3.0030
B( 17-C , 18-N ) :   2.9841 B( 19-C , 20-C ) :   1.0312 B( 19-C , 78-H ) :   0.9339
B( 20-C , 21-C ) :   2.1179 B( 21-C , 22-C ) :   1.0563 B( 22-C , 23-S ) :   1.0951
B( 22-C , 24-C ) :   0.1075 B( 22-C , 26-C ) :   1.4384 B( 23-S , 24-C ) :   1.1463
B( 24-C , 25-C ) :   1.4557 B( 24-C , 27-C ) :   0.9838 B( 25-C , 26-C ) :   1.2985
B( 25-C , 79-H ) :   1.0028 B( 26-C , 80-H ) :   1.0010 B( 27-C , 28-C ) :   2.2617
B( 28-C , 29-C ) :   1.0452 B( 29-C , 30-C ) :   1.7019 B( 29-C , 81-H ) :   0.9338
B( 30-C , 31-C ) :   1.1297 B( 30-C , 82-H ) :   0.9579 B( 31-C , 32-S ) :   1.1212
B( 31-C , 35-C ) :   1.5291 B( 32-S , 33-C ) :   1.1233 B( 33-C , 34-C ) :   1.5323
B( 33-C , 41-C ) :   1.1207 B( 34-C , 35-C ) :   1.2593 B( 34-C , 40-S ) :   1.0530
B( 35-C , 36-S ) :   1.0526 B( 36-S , 37-C ) :   1.0120 B( 37-C , 38-C ) :   1.0417
B( 37-C , 83-H ) :   0.9490 B( 37-C , 84-H ) :   0.9526 B( 38-C , 39-C ) :   1.0416
B( 38-C , 85-H ) :   0.9396 B( 38-C , 86-H ) :   0.9304 B( 39-C , 40-S ) :   1.0112
B( 39-C , 87-H ) :   0.9487 B( 39-C , 88-H ) :   0.9527 B( 41-C , 42-C ) :   1.7049
B( 41-C , 89-H ) :   0.9597 B( 42-C , 43-C ) :   1.0475 B( 42-C , 90-H ) :   0.9387
B( 43-C , 44-C ) :   2.2716 B( 44-C , 45-C ) :   0.9796 B( 45-C , 46-S ) :   1.1235
B( 45-C , 47-C ) :   0.1011 B( 45-C , 49-C ) :   1.4738 B( 46-S , 47-C ) :   1.0987
B( 47-C , 48-C ) :   1.4632 B( 47-C , 50-C ) :   1.0073 B( 48-C , 49-C ) :   1.2978
B( 48-C , 91-H ) :   1.0002 B( 49-C , 92-H ) :   1.0003 B( 50-C , 51-C ) :   2.2106
B( 51-C , 52-C ) :   1.0918 B( 52-C , 53-C ) :   1.6400 B( 52-C , 93-H ) :   0.9384
B( 53-C , 54-C ) :   1.1959 B( 53-C , 94-H ) :   0.9551 B( 54-C , 55-C ) :   1.6032
B( 54-C , 95-H ) :   0.9209 B( 55-C , 56-C ) :   1.0594 B( 55-C , 68-C ) :   1.0184
B( 56-C , 57-C ) :   1.6348 B( 56-C , 62-C ) :   0.9966 B( 57-C , 58-C ) :   1.1355
B( 57-C , 60-C ) :   1.1486 B( 58-C , 59-N ) :   2.9695 B( 60-C , 61-N ) :   2.9754
B( 62-C , 63-C ) :   1.3129 B( 62-C , 67-C ) :   1.3808 B( 63-C , 64-C ) :   1.3815
B( 63-C , 68-C ) :   1.0065 B( 64-C , 65-C ) :   1.3659 B( 64-C , 96-H ) :   0.9871
B( 65-C , 66-C ) :   1.3759 B( 65-C , 97-H ) :   0.9874 B( 66-C , 67-C ) :   1.3719
B( 66-C , 98-H ) :   0.9863 B( 67-C , 99-H ) :   0.9832 B( 68-C , 69-C ) :   1.6532
B( 69-C , 70-C ) :   1.1374 B( 69-C , 72-C ) :   1.1533 B( 70-C , 71-N ) :   2.9917
B( 72-C , 73-N ) :   3.0057

-----------------------------------------------------------------------------
         ABSORPTION SPECTRUM VIA TRANSITION ELECTRIC DIPOLE MOMENTS
-----------------------------------------------------------------------------
State   Energy  Wavelength   fosc         T2         TX        TY        TZ
        (cm-1)    (nm)                  (au**2)     (au)      (au)      (au)
-----------------------------------------------------------------------------
   0   16275.6    614.4   2.745566047  55.53542  -5.08525   3.29488   4.33813
   1   17911.7    558.3   0.331515419   6.09315  -1.86892   1.23558   1.03616
   2   21939.4    455.8   0.400931180   6.01617  -1.72346   1.73783   0.16062
   3   22123.6    452.0   0.081270334   1.20935   0.13680  -0.97483  -0.49025
   4   23527.7    425.0   0.079263734   1.10910   0.16577  -1.02475   0.17749
   5   24124.5    414.5   0.126330596   1.72395  -0.01855   1.29070  -0.24020
   6   25937.3    385.5   0.516580107   6.55675   1.31346  -2.03322  -0.83521
   7   26679.2    374.8   0.170351215   2.10208  -1.24406   0.28276   0.68879
   8   27315.2    366.1   0.027986908   0.33731   0.41053  -0.04920  -0.40786
   9   27344.3    365.7   0.150629349   1.81350  -0.78910   0.24479   1.06344
  10   28644.7    349.1   0.125364657   1.44081  -0.35732   1.07688   0.39175
  11   28906.5    345.9   0.140137870   1.59601   1.02913  -0.70771   0.18987
  12   29576.0    338.1   0.117254806   1.30517  -0.13280   0.72163  -0.87566
  13   30148.6    331.7   0.055497448   0.60601  -0.33106  -0.53800   0.45494
  14   30413.3    328.8   0.005900953   0.06388   0.10385  -0.11402  -0.20023
  15   30740.8    325.3   0.036422773   0.39006  -0.30102   0.23244   0.49540
  16   31160.1    320.9   0.006713536   0.07093   0.24501  -0.10439  -0.00195
  17   31420.6    318.3   0.114158449   1.19610   0.44734  -0.73523  -0.67485
  18   31690.8    315.5   0.011098317   0.11529  -0.10516  -0.05528   0.31808
  19   32355.3    309.1   0.022245522   0.22635  -0.20402  -0.10400   0.41702
  20   33038.4    302.7   0.389892498   3.88510   1.66700  -0.23804   1.02447
  21   33140.0    301.8   0.694523894   6.89939   1.51075  -2.09897  -0.45972
  22   33855.2    295.4   0.005882611   0.05720  -0.01071  -0.23420   0.04730
  23   34105.7    293.2   0.157864412   1.52382  -0.14717   1.09571  -0.54917
  24   34287.9    291.6   0.090428434   0.86824  -0.32762  -0.85620   0.16682
  25   34342.8    291.2   0.114501416   1.09762   0.35746  -0.08188  -0.98139
  26   34585.1    289.1   0.061890932   0.58913  -0.68341   0.19297  -0.29128
  27   34830.0    287.1   0.115345236   1.09024   0.63611   0.07998  -0.82414
  28   34942.1    286.2   0.102467207   0.96541  -0.78154   0.35398   0.47885
  29   34990.0    285.8   0.066493584   0.62562  -0.11695  -0.17975  -0.76134
  30   35233.4    283.8   0.027584153   0.25774  -0.28060   0.41979  -0.05272
  31   35338.2    283.0   0.005220501   0.04863   0.21563   0.02577   0.03840
  32   35606.2    280.9   0.013215802   0.12219  -0.26303  -0.04192   0.22639
  33   35915.3    278.4   0.027368596   0.25087  -0.39766  -0.02043  -0.30384
  34   36224.9    276.1   0.112712638   1.02433  -0.32168  -0.62905   0.72468
  35   36267.7    275.7   0.367653408   3.33729   0.63707   1.07669  -1.33123
  36   36828.5    271.5   0.043425767   0.38818  -0.04969  -0.28910   0.54967
  37   36878.7    271.2   0.003023231   0.02699   0.14182   0.03334  -0.07592
  38   38140.4    262.2   0.000388256   0.00335   0.03290   0.01425   0.04545
  39   38298.5    261.1   0.016635700   0.14300   0.10019   0.30916  -0.19334
  40   38567.4    259.3   0.084130011   0.71814   0.11155  -0.10652   0.83327
  41   39102.2    255.7   0.107046045   0.90125  -0.07680   0.88142  -0.34415
  42   39254.6    254.7   0.047992020   0.40249   0.37226  -0.50776  -0.07809
  43   39396.2    253.8   0.014506506   0.12122   0.01160  -0.33642   0.08893
  44   39475.2    253.3   0.003678562   0.03068   0.13972  -0.01019  -0.10513
  45   39655.2    252.2   0.077812940   0.64599   0.41098   0.32606  -0.60891
  46   39874.3    250.8   0.006080129   0.05020   0.08707  -0.19475   0.06850
  47   39933.0    250.4   0.036115058   0.29774  -0.10915   0.43877  -0.30546
  48   40137.6    249.1   0.011020372   0.09039   0.12134  -0.20336   0.18524

FINAL SINGLE POINT ENERGY     -4764.431742629154

DIPOLE MOMENT
-------------
                                X             Y             Z
Electronic contribution:    -19.46060      11.49682     -12.00756
Nuclear contribution   :     21.78899     -10.32886      14.06353
                        -----------------------------------------
Total Dipole Moment    :      2.32840       1.16796       2.05597
                        -----------------------------------------
Magnitude (a.u.)       :      3.31852
Magnitude (Debye)      :      8.43500

Rotational constants in cm-1:     0.002746     0.000107     0.000104
Rotational constants in MHz :    82.309511     3.199559     3.124732

                             ****ORCA TERMINATED NORMALLY****
TOTAL RUN TIME: 0 days 0 hours 9 minutes 38 seconds 708 msec
