                         Program Version 4.2.0 -  RELEASE  -
|  1> # ORCA input file
|  2> # SCF done       -199.624689018798          0.000979383018
|  3> ! CAM-B3LYP def2-SVP def2/J RIJCOSX Grid4 TightSCF
|  4> %maxcore 5000
|  5> %tddft
|  6>     Mode sTDDFT
|  7>     Ethresh 5.0
|  8>     maxcore 5000
|  9> end
| 10>
| 11> %pal
| 12>   nprocs 6
| 13>   end
| 14> * xyz 0 1
| 15>    C      -12.42643        -4.33863         1.08043
| 16>    C      -12.85059        -5.30409         1.98118
| 17>    C      -12.22222        -6.53890         2.05436
| 18>    C      -11.15423        -6.84673         1.22477
| 19>    C      -10.71893        -5.89012         0.32252
| 20>    C      -11.35438        -4.62901         0.25166
| 21>    C      -10.68825        -3.82147        -0.76091
| 22>    C      -11.08026        -2.58419        -1.19812
| 23>    C      -12.20135        -1.88603        -0.70225
| 24>    N      -13.09534        -1.26310        -0.34130
| 25>    C      -10.44904        -1.85401        -2.22728
| 26>    N       -9.98829        -1.21356        -3.06165
| 27>    C       -9.54160        -4.59111        -1.22079
| 28>    C       -9.67035        -5.93715        -0.68633
| 29>    C       -9.04809        -7.06625        -1.14950
| 30>    C       -8.33371        -7.15119        -2.36196
| 31>    N       -7.83567        -7.32549        -3.38175
| 32>    C       -9.16009        -8.33283        -0.53908
| 33>    N       -9.18723        -9.38196        -0.07344
| 34>    C       -8.44399        -4.05464        -1.84141
| 35>    C       -7.23767        -4.68438        -2.02757
| 36>    C       -6.11556        -5.14001        -2.18328
| 37>    C       -4.89028        -5.73409        -2.36368
| 38>    S       -4.60017        -7.38184        -1.85603
| 39>    C       -2.97230        -7.29990        -2.46059
| 40>    C       -2.69424        -6.06132        -3.01815
| 41>    C       -3.76658        -5.18351        -2.96050
| 42>    C       -2.10963        -8.37859        -2.38011
| 43>    C       -1.35191        -9.32687        -2.32365
| 44>    C       -0.43945       -10.37599        -2.31456
| 45>    C       -0.65177       -11.54480        -1.67507
| 46>    C        0.25389       -12.66862        -1.64916
| 47>    C        0.00281       -13.71742        -0.74860
| 48>    C        0.85461       -14.79324        -0.69892
| 49>    C        1.96649       -14.86066        -1.55607
| 50>    C        2.22007       -13.83830        -2.45908
| 51>    C        1.36808       -12.75453        -2.49583
| 52>    C        2.67671       -16.09267        -1.29549
| 53>    C        2.01327       -16.78450        -0.26759
| 54>    C        0.79450       -16.01536         0.18895
| 55>    C        0.89292       -15.63321         1.67742
| 56>    C        2.14887       -14.83323         2.00157
| 57>    C       -0.49616       -16.82093        -0.05196
| 58>    C       -0.67083       -17.23945        -1.50688
| 59>    C        2.49676       -17.98745         0.18536
| 60>    C        3.64917       -18.53989        -0.39691
| 61>    C        4.29460       -17.83684        -1.42340
| 62>    C        3.82229       -16.62131        -1.87237
| 63>    C        4.14141       -19.80624         0.09435
| 64>    C        5.04559       -20.58823        -0.52868
| 65>    C        5.52546       -21.78811        -0.01361
| 66>    C        5.98817       -22.82378         0.42098
| 67>    C        6.57158       -23.99758         0.86663
| 68>    S        7.50668       -24.98060        -0.22565
| 69>    C        7.87314       -26.10257         1.06354
| 70>    C        7.28326       -25.71156         2.25240
| 71>    C        6.54972       -24.53534         2.14057
| 72>    C        8.66887       -27.20251         0.82580
| 73>    C        9.39304       -28.14617         0.56297
| 74>    C       10.23310       -29.20192         0.27319
| 75>    C       10.72103       -30.05355         1.21757
| 76>    C       11.53312       -31.18645         0.97713
| 77>    C       12.32480       -31.48810        -0.10026
| 78>    C       12.74986       -32.84405        -0.43479
| 79>    C       12.78598       -33.93628         0.39045
| 80>    C       12.45615       -33.94644         1.76241
| 81>    N       12.21413       -34.03988         2.88127
| 82>    C       13.21951       -35.21664        -0.01506
| 83>    N       13.56089       -36.28141        -0.27483
| 84>    C       13.15187       -32.82531        -1.83586
| 85>    C       13.15857       -31.48724        -2.28887
| 86>    C       13.48335       -31.18618        -3.60099
| 87>    C       13.80359       -32.22804        -4.45848
| 88>    C       13.80659       -33.54230        -4.01366
| 89>    C       13.48244       -33.85549        -2.70192
| 90>    C       12.80284       -30.62356        -1.17237
| 91>    C       13.12143       -29.29502        -1.07190
| 92>    C       13.68009       -28.53953        -2.12304
| 93>    N       14.11563       -27.87244        -2.94955
| 94>    C       13.00733       -28.54277         0.11527
| 95>    N       12.97053       -27.89356         1.06077
| 96>    H      -12.92437        -3.38390         1.03774
| 97>    H      -13.68132        -5.08733         2.63522
| 98>    H      -12.56748        -7.27301         2.76626
| 99>    H      -10.67342        -7.80888         1.29372
|100>    H       -8.47451        -3.01791        -2.15274
|101>    H       -1.73681        -5.82663        -3.44773
|102>    H       -3.75366        -4.17774        -3.34096
|103>    H        0.47646       -10.19073        -2.86089
|104>    H       -1.57024       -11.66270        -1.11331
|105>    H       -0.85672       -13.65945        -0.09567
|106>    H        3.06914       -13.88896        -3.12424
|107>    H        1.55954       -11.96591        -3.20714
|108>    H        0.88152       -16.54759         2.27447
|109>    H        0.01100       -15.04840         1.94722
|110>    H        3.04229       -15.40485         1.75976
|111>    H        2.17321       -14.58836         3.06092
|112>    H        2.17149       -13.90575         1.43352
|113>    H       -1.34981       -16.21301         0.25503
|114>    H       -0.47571       -17.71074         0.58094
|115>    H       -0.71503       -16.36737        -2.15561
|116>    H       -1.59332       -17.80304        -1.62527
|117>    H        0.15846       -17.86513        -1.82978
|118>    H        1.99573       -18.52369         0.97913
|119>    H        5.19514       -18.24026        -1.86044
|120>    H        4.33939       -16.09024        -2.65753
|121>    H        3.72469       -20.14635         1.03445
|122>    H        5.45088       -20.31627        -1.49514
|123>    H        7.39286       -26.27571         3.16138
|124>    H        6.02038       -24.07023         2.95294
|125>    H       10.46091       -29.34603        -0.77670
|126>    H       10.38737       -29.91853         2.23781
|127>    H       11.44975       -31.95401         1.73605
|128>    H       13.47630       -30.16962        -3.95982
|129>    H       14.05119       -32.01058        -5.48624
|130>    H       14.06042       -34.33716        -4.69824
|131>    H       13.48346       -34.88276        -2.37692
|132> *
|133>
|134>                          ****END OF INPUT****

CARTESIAN COORDINATES (ANGSTROEM)
---------------------------------
  C    -12.426430   -4.338630    1.080430
  C    -12.850590   -5.304090    1.981180
  C    -12.222220   -6.538900    2.054360
  C    -11.154230   -6.846730    1.224770
  C    -10.718930   -5.890120    0.322520
  C    -11.354380   -4.629010    0.251660
  C    -10.688250   -3.821470   -0.760910
  C    -11.080260   -2.584190   -1.198120
  C    -12.201350   -1.886030   -0.702250
  N    -13.095340   -1.263100   -0.341300
  C    -10.449040   -1.854010   -2.227280
  N     -9.988290   -1.213560   -3.061650
  C     -9.541600   -4.591110   -1.220790
  C     -9.670350   -5.937150   -0.686330
  C     -9.048090   -7.066250   -1.149500
  C     -8.333710   -7.151190   -2.361960
  N     -7.835670   -7.325490   -3.381750
  C     -9.160090   -8.332830   -0.539080
  N     -9.187230   -9.381960   -0.073440
  C     -8.443990   -4.054640   -1.841410
  C     -7.237670   -4.684380   -2.027570
  C     -6.115560   -5.140010   -2.183280
  C     -4.890280   -5.734090   -2.363680
  S     -4.600170   -7.381840   -1.856030
  C     -2.972300   -7.299900   -2.460590
  C     -2.694240   -6.061320   -3.018150
  C     -3.766580   -5.183510   -2.960500
  C     -2.109630   -8.378590   -2.380110
  C     -1.351910   -9.326870   -2.323650
  C     -0.439450  -10.375990   -2.314560
  C     -0.651770  -11.544800   -1.675070
  C      0.253890  -12.668620   -1.649160
  C      0.002810  -13.717420   -0.748600
  C      0.854610  -14.793240   -0.698920
  C      1.966490  -14.860660   -1.556070
  C      2.220070  -13.838300   -2.459080
  C      1.368080  -12.754530   -2.495830
  C      2.676710  -16.092670   -1.295490
  C      2.013270  -16.784500   -0.267590
  C      0.794500  -16.015360    0.188950
  C      0.892920  -15.633210    1.677420
  C      2.148870  -14.833230    2.001570
  C     -0.496160  -16.820930   -0.051960
  C     -0.670830  -17.239450   -1.506880
  C      2.496760  -17.987450    0.185360
  C      3.649170  -18.539890   -0.396910
  C      4.294600  -17.836840   -1.423400
  C      3.822290  -16.621310   -1.872370
  C      4.141410  -19.806240    0.094350
  C      5.045590  -20.588230   -0.528680
  C      5.525460  -21.788110   -0.013610
  C      5.988170  -22.823780    0.420980
  C      6.571580  -23.997580    0.866630
  S      7.506680  -24.980600   -0.225650
  C      7.873140  -26.102570    1.063540
  C      7.283260  -25.711560    2.252400
  C      6.549720  -24.535340    2.140570
  C      8.668870  -27.202510    0.825800
  C      9.393040  -28.146170    0.562970
  C     10.233100  -29.201920    0.273190
  C     10.721030  -30.053550    1.217570
  C     11.533120  -31.186450    0.977130
  C     12.324800  -31.488100   -0.100260
  C     12.749860  -32.844050   -0.434790
  C     12.785980  -33.936280    0.390450
  C     12.456150  -33.946440    1.762410
  N     12.214130  -34.039880    2.881270
  C     13.219510  -35.216640   -0.015060
  N     13.560890  -36.281410   -0.274830
  C     13.151870  -32.825310   -1.835860
  C     13.158570  -31.487240   -2.288870
  C     13.483350  -31.186180   -3.600990
  C     13.803590  -32.228040   -4.458480
  C     13.806590  -33.542300   -4.013660
  C     13.482440  -33.855490   -2.701920
  C     12.802840  -30.623560   -1.172370
  C     13.121430  -29.295020   -1.071900
  C     13.680090  -28.539530   -2.123040
  N     14.115630  -27.872440   -2.949550
  C     13.007330  -28.542770    0.115270
  N     12.970530  -27.893560    1.060770
  H    -12.924370   -3.383900    1.037740
  H    -13.681320   -5.087330    2.635220
  H    -12.567480   -7.273010    2.766260
  H    -10.673420   -7.808880    1.293720
  H     -8.474510   -3.017910   -2.152740
  H     -1.736810   -5.826630   -3.447730
  H     -3.753660   -4.177740   -3.340960
  H      0.476460  -10.190730   -2.860890
  H     -1.570240  -11.662700   -1.113310
  H     -0.856720  -13.659450   -0.095670
  H      3.069140  -13.888960   -3.124240
  H      1.559540  -11.965910   -3.207140
  H      0.881520  -16.547590    2.274470
  H      0.011000  -15.048400    1.947220
  H      3.042290  -15.404850    1.759760
  H      2.173210  -14.588360    3.060920
  H      2.171490  -13.905750    1.433520
  H     -1.349810  -16.213010    0.255030
  H     -0.475710  -17.710740    0.580940
  H     -0.715030  -16.367370   -2.155610
  H     -1.593320  -17.803040   -1.625270
  H      0.158460  -17.865130   -1.829780
  H      1.995730  -18.523690    0.979130
  H      5.195140  -18.240260   -1.860440
  H      4.339390  -16.090240   -2.657530
  H      3.724690  -20.146350    1.034450
  H      5.450880  -20.316270   -1.495140
  H      7.392860  -26.275710    3.161380
  H      6.020380  -24.070230    2.952940
  H     10.460910  -29.346030   -0.776700
  H     10.387370  -29.918530    2.237810
  H     11.449750  -31.954010    1.736050
  H     13.476300  -30.169620   -3.959820
  H     14.051190  -32.010580   -5.486240
  H     14.060420  -34.337160   -4.698240
  H     13.483460  -34.882760   -2.376920

 Total Charge           Charge          ....    0
 Multiplicity           Mult            ....    1
 Number of Electrons    NEL             ....  550
 Basis Dimension        Dim             .... 1322

ORBITAL ENERGIES
----------------

  NO   OCC          E(Eh)            E(eV)
   0   2.0000     -88.976289     -2421.1679
   1   2.0000     -88.972635     -2421.0685
   2   2.0000     -14.424249      -392.5038
   3   2.0000     -14.423294      -392.4778
   4   2.0000     -14.423028      -392.4705
   5   2.0000     -14.422906      -392.4672
   6   2.0000     -14.422225      -392.4487
   7   2.0000     -14.421916      -392.4403
   8   2.0000     -14.420479      -392.4012
   9   2.0000     -14.416988      -392.3062
  10   2.0000     -10.353394      -281.7302
  11   2.0000     -10.353295      -281.7275
  12   2.0000     -10.352768      -281.7131
  13   2.0000     -10.351351      -281.6746
  14   2.0000     -10.349853      -281.6338
  15   2.0000     -10.349852      -281.6338
  16   2.0000     -10.349763      -281.6314
  17   2.0000     -10.346959      -281.5551
  18   2.0000     -10.338100      -281.3140
  19   2.0000     -10.336298      -281.2650
  20   2.0000     -10.331200      -281.1262
  21   2.0000     -10.328918      -281.0641
  22   2.0000     -10.327088      -281.0144
  23   2.0000     -10.325956      -280.9835
  24   2.0000     -10.325534      -280.9721
  25   2.0000     -10.325470      -280.9703
  26   2.0000     -10.325398      -280.9684
  27   2.0000     -10.325035      -280.9585
  28   2.0000     -10.324884      -280.9544
  29   2.0000     -10.324522      -280.9445
  30   2.0000     -10.323081      -280.9053
  31   2.0000     -10.322997      -280.9030
  32   2.0000     -10.322112      -280.8789
  33   2.0000     -10.320779      -280.8427
  34   2.0000     -10.319583      -280.8101
  35   2.0000     -10.314948      -280.6840
  36   2.0000     -10.314595      -280.6744
  37   2.0000     -10.314165      -280.6627
  38   2.0000     -10.313753      -280.6515
  39   2.0000     -10.312063      -280.6055
  40   2.0000     -10.303121      -280.3622
  41   2.0000     -10.302488      -280.3450
  42   2.0000     -10.302482      -280.3448
  43   2.0000     -10.302078      -280.3338
  44   2.0000     -10.301928      -280.3297
  45   2.0000     -10.301650      -280.3221
  46   2.0000     -10.301399      -280.3153
  47   2.0000     -10.301215      -280.3103
  48   2.0000     -10.301014      -280.3048
  49   2.0000     -10.300888      -280.3014
  50   2.0000     -10.300176      -280.2820
  51   2.0000     -10.298522      -280.2370
  52   2.0000     -10.297474      -280.2085
  53   2.0000     -10.296375      -280.1786
  54   2.0000     -10.295980      -280.1679
  55   2.0000     -10.295138      -280.1449
  56   2.0000     -10.292952      -280.0855
  57   2.0000     -10.292754      -280.0801
  58   2.0000     -10.292383      -280.0700
  59   2.0000     -10.290739      -280.0252
  60   2.0000     -10.289900      -280.0024
  61   2.0000     -10.288767      -279.9716
  62   2.0000     -10.288237      -279.9572
  63   2.0000     -10.286564      -279.9116
  64   2.0000     -10.285456      -279.8815
  65   2.0000     -10.284539      -279.8565
  66   2.0000     -10.282600      -279.8038
  67   2.0000     -10.281398      -279.7711
  68   2.0000     -10.280853      -279.7562
  69   2.0000     -10.280694      -279.7519
  70   2.0000     -10.280670      -279.7513
  71   2.0000     -10.280537      -279.7476
  72   2.0000     -10.279945      -279.7315
  73   2.0000     -10.279882      -279.7298
  74   2.0000     -10.279602      -279.7222
  75   2.0000     -10.277105      -279.6543
  76   2.0000     -10.276956      -279.6502
  77   2.0000     -10.269724      -279.4534
  78   2.0000     -10.269394      -279.4444
  79   2.0000     -10.252166      -278.9756
  80   2.0000     -10.251578      -278.9596
  81   2.0000      -8.071570      -219.6386
  82   2.0000      -8.068133      -219.5451
  83   2.0000      -6.040894      -164.3811
  84   2.0000      -6.037509      -164.2890
  85   2.0000      -6.036647      -164.2655
  86   2.0000      -6.033615      -164.1830
  87   2.0000      -6.033243      -164.1729
  88   2.0000      -6.030121      -164.0879
  89   2.0000      -1.037890       -28.2424
  90   2.0000      -1.037655       -28.2360
  91   2.0000      -1.019294       -27.7364
  92   2.0000      -1.019205       -27.7340
  93   2.0000      -1.008887       -27.4532
  94   2.0000      -1.008703       -27.4482
  95   2.0000      -1.003471       -27.3058
  96   2.0000      -1.001245       -27.2453
  97   2.0000      -1.000572       -27.2269
  98   2.0000      -0.999730       -27.2040
  99   2.0000      -0.999635       -27.2014
 100   2.0000      -0.997647       -27.1474
 101   2.0000      -0.996712       -27.1219
 102   2.0000      -0.963010       -26.2048
 103   2.0000      -0.962129       -26.1809
 104   2.0000      -0.957913       -26.0661
 105   2.0000      -0.942058       -25.6347
 106   2.0000      -0.941442       -25.6179
 107   2.0000      -0.934832       -25.4381
 108   2.0000      -0.934345       -25.4248
 109   2.0000      -0.919478       -25.0203
 110   2.0000      -0.909496       -24.7486
 111   2.0000      -0.908163       -24.7124
 112   2.0000      -0.898765       -24.4566
 113   2.0000      -0.896403       -24.3924
 114   2.0000      -0.894686       -24.3457
 115   2.0000      -0.890063       -24.2198
 116   2.0000      -0.878984       -23.9184
 117   2.0000      -0.870184       -23.6789
 118   2.0000      -0.868119       -23.6227
 119   2.0000      -0.867365       -23.6022
 120   2.0000      -0.856887       -23.3171
 121   2.0000      -0.851110       -23.1599
 122   2.0000      -0.845384       -23.0041
 123   2.0000      -0.843112       -22.9422
 124   2.0000      -0.842119       -22.9152
 125   2.0000      -0.840200       -22.8630
 126   2.0000      -0.836532       -22.7632
 127   2.0000      -0.827145       -22.5078
 128   2.0000      -0.814698       -22.1691
 129   2.0000      -0.802684       -21.8422
 130   2.0000      -0.793525       -21.5929
 131   2.0000      -0.793276       -21.5861
 132   2.0000      -0.790316       -21.5056
 133   2.0000      -0.782914       -21.3042
 134   2.0000      -0.768878       -20.9222
 135   2.0000      -0.752336       -20.4721
 136   2.0000      -0.739409       -20.1203
 137   2.0000      -0.730918       -19.8893
 138   2.0000      -0.728052       -19.8113
 139   2.0000      -0.720574       -19.6078
 140   2.0000      -0.717958       -19.5366
 141   2.0000      -0.716961       -19.5095
 142   2.0000      -0.715510       -19.4700
 143   2.0000      -0.712632       -19.3917
 144   2.0000      -0.704452       -19.1691
 145   2.0000      -0.700594       -19.0641
 146   2.0000      -0.681709       -18.5502
 147   2.0000      -0.680622       -18.5207
 148   2.0000      -0.680154       -18.5079
 149   2.0000      -0.675440       -18.3797
 150   2.0000      -0.671962       -18.2850
 151   2.0000      -0.670850       -18.2548
 152   2.0000      -0.668337       -18.1864
 153   2.0000      -0.667891       -18.1742
 154   2.0000      -0.666915       -18.1477
 155   2.0000      -0.663570       -18.0567
 156   2.0000      -0.659176       -17.9371
 157   2.0000      -0.642395       -17.4805
 158   2.0000      -0.631577       -17.1861
 159   2.0000      -0.631264       -17.1776
 160   2.0000      -0.627651       -17.0793
 161   2.0000      -0.625908       -17.0318
 162   2.0000      -0.617340       -16.7987
 163   2.0000      -0.607514       -16.5313
 164   2.0000      -0.603348       -16.4179
 165   2.0000      -0.599938       -16.3251
 166   2.0000      -0.599200       -16.3051
 167   2.0000      -0.588696       -16.0192
 168   2.0000      -0.587951       -15.9990
 169   2.0000      -0.587940       -15.9986
 170   2.0000      -0.587524       -15.9873
 171   2.0000      -0.569667       -15.5014
 172   2.0000      -0.561148       -15.2696
 173   2.0000      -0.559898       -15.2356
 174   2.0000      -0.550270       -14.9736
 175   2.0000      -0.550034       -14.9672
 176   2.0000      -0.549496       -14.9526
 177   2.0000      -0.549290       -14.9469
 178   2.0000      -0.546280       -14.8650
 179   2.0000      -0.544626       -14.8200
 180   2.0000      -0.544512       -14.8169
 181   2.0000      -0.541163       -14.7258
 182   2.0000      -0.539901       -14.6914
 183   2.0000      -0.537775       -14.6336
 184   2.0000      -0.530584       -14.4379
 185   2.0000      -0.525994       -14.3130
 186   2.0000      -0.524716       -14.2782
 187   2.0000      -0.523280       -14.2392
 188   2.0000      -0.522071       -14.2063
 189   2.0000      -0.520287       -14.1577
 190   2.0000      -0.519818       -14.1450
 191   2.0000      -0.519464       -14.1353
 192   2.0000      -0.515990       -14.0408
 193   2.0000      -0.511224       -13.9111
 194   2.0000      -0.510191       -13.8830
 195   2.0000      -0.509454       -13.8629
 196   2.0000      -0.505818       -13.7640
 197   2.0000      -0.504457       -13.7270
 198   2.0000      -0.501011       -13.6332
 199   2.0000      -0.497863       -13.5475
 200   2.0000      -0.496051       -13.4982
 201   2.0000      -0.495013       -13.4700
 202   2.0000      -0.487688       -13.2707
 203   2.0000      -0.487219       -13.2579
 204   2.0000      -0.484671       -13.1886
 205   2.0000      -0.478369       -13.0171
 206   2.0000      -0.477496       -12.9933
 207   2.0000      -0.476471       -12.9654
 208   2.0000      -0.472183       -12.8487
 209   2.0000      -0.471949       -12.8424
 210   2.0000      -0.471582       -12.8324
 211   2.0000      -0.469212       -12.7679
 212   2.0000      -0.464780       -12.6473
 213   2.0000      -0.462640       -12.5891
 214   2.0000      -0.461712       -12.5638
 215   2.0000      -0.460006       -12.5174
 216   2.0000      -0.459682       -12.5086
 217   2.0000      -0.455103       -12.3840
 218   2.0000      -0.454540       -12.3687
 219   2.0000      -0.453953       -12.3527
 220   2.0000      -0.453681       -12.3453
 221   2.0000      -0.450279       -12.2527
 222   2.0000      -0.449839       -12.2407
 223   2.0000      -0.449037       -12.2189
 224   2.0000      -0.447669       -12.1817
 225   2.0000      -0.447069       -12.1654
 226   2.0000      -0.446674       -12.1546
 227   2.0000      -0.444469       -12.0946
 228   2.0000      -0.443133       -12.0582
 229   2.0000      -0.440880       -11.9970
 230   2.0000      -0.439692       -11.9646
 231   2.0000      -0.436527       -11.8785
 232   2.0000      -0.433938       -11.8081
 233   2.0000      -0.433306       -11.7909
 234   2.0000      -0.432511       -11.7692
 235   2.0000      -0.431254       -11.7350
 236   2.0000      -0.431104       -11.7309
 237   2.0000      -0.430956       -11.7269
 238   2.0000      -0.430590       -11.7169
 239   2.0000      -0.428492       -11.6599
 240   2.0000      -0.427860       -11.6427
 241   2.0000      -0.426665       -11.6101
 242   2.0000      -0.419892       -11.4259
 243   2.0000      -0.417207       -11.3528
 244   2.0000      -0.416140       -11.3237
 245   2.0000      -0.413947       -11.2641
 246   2.0000      -0.412889       -11.2353
 247   2.0000      -0.412718       -11.2306
 248   2.0000      -0.408840       -11.1251
 249   2.0000      -0.400692       -10.9034
 250   2.0000      -0.396240       -10.7822
 251   2.0000      -0.392529       -10.6813
 252   2.0000      -0.390156       -10.6167
 253   2.0000      -0.386980       -10.5302
 254   2.0000      -0.386741       -10.5237
 255   2.0000      -0.382268       -10.4020
 256   2.0000      -0.368564       -10.0291
 257   2.0000      -0.365059        -9.9338
 258   2.0000      -0.361287        -9.8311
 259   2.0000      -0.353058        -9.6072
 260   2.0000      -0.351416        -9.5625
 261   2.0000      -0.347685        -9.4610
 262   2.0000      -0.341931        -9.3044
 263   2.0000      -0.339255        -9.2316
 264   2.0000      -0.336381        -9.1534
 265   2.0000      -0.335217        -9.1217
 266   2.0000      -0.333534        -9.0759
 267   2.0000      -0.329076        -8.9546
 268   2.0000      -0.323744        -8.8095
 269   2.0000      -0.320189        -8.7128
 270   2.0000      -0.311193        -8.4680
 271   2.0000      -0.299762        -8.1569
 272   2.0000      -0.282767        -7.6945
 273   2.0000      -0.261353        -7.1118
 274   2.0000      -0.247080        -6.7234
 275   0.0000      -0.109016        -2.9665
 276   0.0000      -0.105768        -2.8781
 277   0.0000      -0.089335        -2.4309
 278   0.0000      -0.088709        -2.4139
 279   0.0000      -0.063095        -1.7169

MULLIKEN ATOMIC CHARGES
-----------------------
   0 C :   -0.031137
   1 C :    0.046338
   2 C :    0.048056
   3 C :   -0.033256
   4 C :    0.014678
   5 C :    0.007725
   6 C :    0.292169
   7 C :   -0.344003
   8 C :   -0.187468
   9 N :    0.161833
  10 C :   -0.188144
  11 N :    0.168258
  12 C :   -0.074474
  13 C :    0.253942
  14 C :   -0.317441
  15 C :   -0.224479
  16 N :    0.192130
  17 C :   -0.184913
  18 N :    0.152457
  19 C :   -0.030645
  20 C :   -0.027294
  21 C :    0.115262
  22 C :   -0.176575
  23 S :    0.222727
  24 C :   -0.122731
  25 C :    0.043713
  26 C :    0.077572
  27 C :    0.055111
  28 C :   -0.017451
  29 C :   -0.079737
  30 C :    0.019805
  31 C :    0.103634
  32 C :   -0.096369
  33 C :    0.011637
  34 C :    0.112881
  35 C :   -0.042991
  36 C :   -0.006537
  37 C :    0.109041
  38 C :    0.015232
  39 C :   -0.139873
  40 C :    0.065955
  41 C :    0.026408
  42 C :    0.067662
  43 C :    0.025032
  44 C :   -0.096950
  45 C :    0.100141
  46 C :   -0.005228
  47 C :   -0.044418
  48 C :    0.019677
  49 C :   -0.079759
  50 C :   -0.017358
  51 C :    0.058872
  52 C :   -0.142222
  53 S :    0.199873
  54 C :   -0.171456
  55 C :    0.062396
  56 C :    0.051485
  57 C :    0.085112
  58 C :   -0.002210
  59 C :   -0.049955
  60 C :    0.006353
  61 C :    0.034179
  62 C :   -0.061980
  63 C :    0.291907
  64 C :   -0.343429
  65 C :   -0.183672
  66 N :    0.158613
  67 C :   -0.188523
  68 N :    0.161550
  69 C :    0.016949
  70 C :    0.004205
  71 C :   -0.033733
  72 C :    0.048925
  73 C :    0.047175
  74 C :   -0.037105
  75 C :    0.219665
  76 C :   -0.333205
  77 C :   -0.176774
  78 N :    0.165170
  79 C :   -0.199438
  80 N :    0.188069
  81 H :    0.005325
  82 H :    0.004364
  83 H :    0.004639
  84 H :    0.004632
  85 H :    0.053519
  86 H :   -0.001511
  87 H :    0.004729
  88 H :    0.028513
  89 H :   -0.001594
  90 H :   -0.035013
  91 H :   -0.032844
  92 H :   -0.026409
  93 H :   -0.001157
  94 H :   -0.001081
  95 H :    0.020712
  96 H :    0.011028
  97 H :    0.020848
  98 H :   -0.000818
  99 H :   -0.001131
 100 H :    0.022099
 101 H :    0.011430
 102 H :    0.021758
 103 H :   -0.038193
 104 H :   -0.025933
 105 H :   -0.032503
 106 H :   -0.003992
 107 H :    0.029091
 108 H :    0.000649
 109 H :   -0.003382
 110 H :    0.053102
 111 H :    0.020734
 112 H :    0.027062
 113 H :    0.006444
 114 H :    0.005078
 115 H :    0.005452
 116 H :    0.007709
Sum of atomic charges:   -0.0000000

LOEWDIN ATOMIC CHARGES
----------------------
   0 C :    0.005309
   1 C :    0.001243
   2 C :    0.004624
   3 C :    0.001176
   4 C :   -0.009108
   5 C :   -0.014413
   6 C :    0.076543
   7 C :   -0.129738
   8 C :   -0.018854
   9 N :   -0.044102
  10 C :   -0.023378
  11 N :   -0.040615
  12 C :   -0.046723
  13 C :    0.068820
  14 C :   -0.123851
  15 C :   -0.023353
  16 N :   -0.039218
  17 C :   -0.018004
  18 N :   -0.046537
  19 C :    0.043506
  20 C :   -0.041342
  21 C :    0.014718
  22 C :   -0.198521
  23 S :    0.491010
  24 C :   -0.159226
  25 C :   -0.041313
  26 C :   -0.004550
  27 C :   -0.070255
  28 C :   -0.000709
  29 C :   -0.051894
  30 C :    0.022818
  31 C :   -0.030598
  32 C :   -0.014355
  33 C :    0.003909
  34 C :   -0.012373
  35 C :   -0.015616
  36 C :   -0.009280
  37 C :   -0.014740
  38 C :    0.004749
  39 C :   -0.035296
  40 C :   -0.011587
  41 C :   -0.057530
  42 C :   -0.011180
  43 C :   -0.057555
  44 C :   -0.016364
  45 C :   -0.028837
  46 C :   -0.010380
  47 C :   -0.015199
  48 C :    0.017340
  49 C :   -0.049485
  50 C :   -0.008144
  51 C :   -0.069736
  52 C :   -0.167775
  53 S :    0.474190
  54 C :   -0.194370
  55 C :   -0.017595
  56 C :   -0.040033
  57 C :   -0.017115
  58 C :   -0.029812
  59 C :    0.020914
  60 C :   -0.022570
  61 C :    0.056285
  62 C :   -0.055307
  63 C :    0.078409
  64 C :   -0.132732
  65 C :   -0.023102
  66 N :   -0.042488
  67 C :   -0.018803
  68 N :   -0.046406
  69 C :   -0.012996
  70 C :   -0.011035
  71 C :    0.000903
  72 C :    0.004562
  73 C :    0.002078
  74 C :    0.005239
  75 C :    0.063514
  76 C :   -0.131491
  77 C :   -0.020766
  78 N :   -0.044456
  79 C :   -0.021072
  80 N :   -0.029601
  81 H :    0.041490
  82 H :    0.037711
  83 H :    0.037776
  84 H :    0.040911
  85 H :    0.063684
  86 H :    0.038490
  87 H :    0.041352
  88 H :    0.042598
  89 H :    0.035860
  90 H :    0.026025
  91 H :    0.028238
  92 H :    0.026722
  93 H :    0.020253
  94 H :    0.020475
  95 H :    0.025300
  96 H :    0.024941
  97 H :    0.025303
  98 H :    0.020495
  99 H :    0.020391
 100 H :    0.025549
 101 H :    0.025263
 102 H :    0.025495
 103 H :    0.025220
 104 H :    0.026796
 105 H :    0.028232
 106 H :    0.034355
 107 H :    0.042783
 108 H :    0.039388
 109 H :    0.037739
 110 H :    0.048750
 111 H :    0.044962
 112 H :    0.050306
 113 H :    0.040903
 114 H :    0.037864
 115 H :    0.038125
 116 H :    0.041880

  Mayer bond orders larger than 0.100000
B(  0-C ,  1-C ) :   1.3696 B(  0-C ,  5-C ) :   1.3822 B(  0-C , 81-H ) :   0.9841
B(  1-C ,  2-C ) :   1.3764 B(  1-C , 82-H ) :   0.9869 B(  2-C ,  3-C ) :   1.3630
B(  2-C , 83-H ) :   0.9867 B(  3-C ,  4-C ) :   1.3874 B(  3-C , 84-H ) :   0.9841
B(  4-C ,  5-C ) :   1.3065 B(  4-C , 13-C ) :   1.0169 B(  5-C ,  6-C ) :   1.0056
B(  6-C ,  7-C ) :   1.6446 B(  6-C , 12-C ) :   1.0394 B(  7-C ,  8-C ) :   1.1468
B(  7-C , 10-C ) :   1.1373 B(  8-C ,  9-N ) :   2.9773 B( 10-C , 11-N ) :   2.9866
B( 12-C , 13-C ) :   1.0322 B( 12-C , 19-C ) :   1.6013 B( 13-C , 14-C ) :   1.6347
B( 14-C , 15-C ) :   1.1601 B( 14-C , 17-C ) :   1.1352 B( 15-C , 16-N ) :   2.9984
B( 17-C , 18-N ) :   2.9820 B( 19-C , 20-C ) :   1.0371 B( 19-C , 85-H ) :   0.9333
B( 20-C , 21-C ) :   2.1009 B( 21-C , 22-C ) :   1.0547 B( 22-C , 23-S ) :   1.0905
B( 22-C , 24-C ) :   0.1006 B( 22-C , 26-C ) :   1.4344 B( 23-S , 24-C ) :   1.1430
B( 24-C , 25-C ) :   1.4605 B( 24-C , 27-C ) :   0.9785 B( 25-C , 26-C ) :   1.3088
B( 25-C , 86-H ) :   1.0002 B( 26-C , 87-H ) :   0.9992 B( 27-C , 28-C ) :   2.2890
B( 28-C , 29-C ) :   1.0155 B( 29-C , 30-C ) :   1.7139 B( 29-C , 88-H ) :   0.9478
B( 30-C , 31-C ) :   1.0706 B( 30-C , 89-H ) :   0.9854 B( 31-C , 32-C ) :   1.2899
B( 31-C , 36-C ) :   1.3420 B( 32-C , 33-C ) :   1.3835 B( 32-C , 90-H ) :   1.0119
B( 33-C , 34-C ) :   1.3699 B( 33-C , 39-C ) :   0.9149 B( 34-C , 35-C ) :   1.3284
B( 34-C , 37-C ) :   1.0021 B( 35-C , 36-C ) :   1.4036 B( 35-C , 91-H ) :   0.9908
B( 36-C , 92-H ) :   0.9818 B( 37-C , 38-C ) :   1.3707 B( 37-C , 47-C ) :   1.3301
B( 38-C , 39-C ) :   0.9154 B( 38-C , 44-C ) :   1.3827 B( 39-C , 40-C ) :   1.0376
B( 39-C , 42-C ) :   1.0365 B( 40-C , 41-C ) :   1.1019 B( 40-C , 93-H ) :   0.9392
B( 40-C , 94-H ) :   0.9397 B( 41-C , 95-H ) :   0.9643 B( 41-C , 96-H ) :   0.9640
B( 41-C , 97-H ) :   0.9643 B( 42-C , 43-C ) :   1.1009 B( 42-C , 98-H ) :   0.9396
B( 42-C , 99-H ) :   0.9396 B( 43-C ,100-H ) :   0.9644 B( 43-C ,101-H ) :   0.9640
B( 43-C ,102-H ) :   0.9643 B( 44-C , 45-C ) :   1.2923 B( 44-C ,103-H ) :   1.0118
B( 45-C , 46-C ) :   1.3468 B( 45-C , 48-C ) :   1.0650 B( 46-C , 47-C ) :   1.4000
B( 46-C ,104-H ) :   0.9822 B( 47-C ,105-H ) :   0.9907 B( 48-C , 49-C ) :   1.7236
B( 48-C ,106-H ) :   0.9840 B( 49-C , 50-C ) :   1.0107 B( 49-C ,107-H ) :   0.9472
B( 50-C , 51-C ) :   2.2926 B( 51-C , 52-C ) :   0.9692 B( 52-C , 53-S ) :   1.1334
B( 52-C , 54-C ) :   0.1069 B( 52-C , 56-C ) :   1.4777 B( 53-S , 54-C ) :   1.0983
B( 54-C , 55-C ) :   1.4672 B( 54-C , 57-C ) :   1.0086 B( 55-C , 56-C ) :   1.2882
B( 55-C ,108-H ) :   1.0008 B( 56-C ,109-H ) :   1.0014 B( 57-C , 58-C ) :   2.2076
B( 58-C , 59-C ) :   1.0918 B( 59-C , 60-C ) :   1.6280 B( 59-C ,110-H ) :   0.9359
B( 60-C , 61-C ) :   1.2055 B( 60-C ,111-H ) :   0.9576 B( 61-C , 62-C ) :   1.6017
B( 61-C ,112-H ) :   0.9224 B( 62-C , 63-C ) :   1.0585 B( 62-C , 75-C ) :   1.0154
B( 63-C , 64-C ) :   1.6383 B( 63-C , 69-C ) :   0.9957 B( 64-C , 65-C ) :   1.1355
B( 64-C , 67-C ) :   1.1482 B( 65-C , 66-N ) :   2.9769 B( 67-C , 68-N ) :   2.9785
B( 69-C , 70-C ) :   1.3157 B( 69-C , 74-C ) :   1.3804 B( 70-C , 71-C ) :   1.3804
B( 70-C , 75-C ) :   1.0065 B( 71-C , 72-C ) :   1.3672 B( 71-C ,113-H ) :   0.9882
B( 72-C , 73-C ) :   1.3777 B( 72-C ,114-H ) :   0.9861 B( 73-C , 74-C ) :   1.3706
B( 73-C ,115-H ) :   0.9858 B( 74-C ,116-H ) :   0.9850 B( 75-C , 76-C ) :   1.6564
B( 76-C , 77-C ) :   1.1366 B( 76-C , 79-C ) :   1.1524 B( 77-C , 78-N ) :   2.9942
B( 79-C , 80-N ) :   3.0084

-----------------------------------------------------------------------------
         ABSORPTION SPECTRUM VIA TRANSITION ELECTRIC DIPOLE MOMENTS
-----------------------------------------------------------------------------
State   Energy  Wavelength   fosc         T2         TX        TY        TZ
        (cm-1)    (nm)                  (au**2)     (au)      (au)      (au)
-----------------------------------------------------------------------------
   0   16785.3    595.8   2.156166993  42.28920  -4.36702   4.79318   0.49370
   1   18080.7    553.1   0.839748109  15.29010  -3.46142   1.80223   0.24630
   2   22057.3    453.4   0.431082155   6.43403   0.50966  -2.41925   0.56700
   3   22309.6    448.2   0.152643623   2.25249   0.75521  -1.29588   0.05325
   4   24126.0    414.5   0.194031838   2.64766  -0.09551  -1.52353   0.56337
   5   24850.1    402.4   0.144709214   1.91710  -0.01695   1.33278  -0.37485
   6   26622.4    375.6   0.084060243   1.03949  -0.32238   0.50595  -0.82436
   7   27119.2    368.7   0.330878579   4.01668  -0.48360   1.79130  -0.75766
   8   27609.8    362.2   1.080632462  12.88516   1.92983  -3.02094   0.18669
   9   29079.4    343.9   0.038192827   0.43239  -0.27824   0.53052   0.27115
  10   29116.0    343.5   0.172191063   1.94695   0.04829   1.26356  -0.58995
  11   29623.4    337.6   0.143455290   1.59425  -0.31662   1.22207   0.02339
  12   29802.6    335.5   0.055394019   0.61191   0.66219   0.08795  -0.40703
  13   30617.0    326.6   0.005612219   0.06035   0.24283   0.00204  -0.03711
  14   31230.9    320.2   0.004036631   0.04255  -0.06840   0.18843  -0.04865
  15   31379.6    318.7   0.151373361   1.58810   0.75881  -0.98246  -0.21700
  16   31704.9    315.4   0.006020014   0.06251   0.23984  -0.06803  -0.01888
  17   32763.0    305.2   0.211904010   2.12927   0.31140   1.34549  -0.47112
  18   33060.1    302.5   0.343967248   3.42522   0.61695  -1.73908   0.14213
  19   33264.4    300.6   0.116193596   1.14995   0.25595   0.95008  -0.42635
  20   33393.2    299.5   0.109088607   1.07547  -0.19262   1.00728  -0.15413
  21   33865.9    295.3   0.068621543   0.66707  -0.06006  -0.64149   0.50195
  22   33938.3    294.7   0.195579663   1.89718   0.69964  -1.17588  -0.15809
  23   34118.1    293.1   0.008401323   0.08107  -0.18076  -0.21525  -0.04538
  24   34352.2    291.1   0.181058484   1.73516  -0.06462  -1.31561   0.01270
  25   34384.0    290.8   0.106199172   1.01681  -0.03256   0.76000  -0.66193
  26   34786.5    287.5   0.120237441   1.13790   0.16245  -1.01095  -0.29913
  27   35068.2    285.2   0.022903043   0.21501  -0.18167   0.36923   0.21371
  28   35233.4    283.8   0.070321450   0.65707  -0.53074  -0.47112  -0.39170
  29   35456.4    282.0   0.625480613   5.80758  -1.17881  -0.03368   2.10163
  30   36452.7    274.3   0.116602676   1.05306  -0.57429  -0.39959   0.75072
  31   36678.7    272.6   0.022668025   0.20346   0.17040  -0.20463  -0.36407
  32   36943.9    270.7   0.058214236   0.51875   0.41768   0.17636  -0.55964
  33   37375.0    267.6   0.005759140   0.05073  -0.17111  -0.09307  -0.11309
  34   37753.9    264.9   0.016716864   0.14577   0.24463   0.12746  -0.26397
  35   38195.9    261.8   0.022653149   0.19525   0.20910   0.26872   0.28163
  36   38312.4    261.0   0.009886108   0.08495   0.06231  -0.13893  -0.24853
  37   38468.8    260.0   0.001537695   0.01316  -0.10838   0.02407   0.02886
  38   38822.3    257.6   0.083431676   0.70750  -0.34701  -0.12920   0.75524
  39   38922.9    256.9   0.015188290   0.12846   0.23511   0.26911  -0.02768
  40   39328.5    254.3   0.002428849   0.02033   0.07392   0.11665   0.03551
  41   39455.7    253.4   0.138128372   1.15252  -0.23394   0.98182  -0.36583
  42   39773.6    251.4   0.039455473   0.32658  -0.00128   0.46015  -0.33888
  43   40059.6    249.6   0.016607913   0.13648  -0.05337  -0.35209   0.09832

FINAL SINGLE POINT ENERGY     -3956.834862997507

DIPOLE MOMENT
-------------
                                X             Y             Z
Electronic contribution:     -3.31303       0.69397      -9.51517
Nuclear contribution   :      3.04015      -0.41415       9.62311
                        -----------------------------------------
Total Dipole Moment    :     -0.27288       0.27981       0.10794
                        -----------------------------------------
Magnitude (a.u.)       :      0.40547
Magnitude (Debye)      :      1.03063

Rotational constants in cm-1:     0.002673     0.000082     0.000081
Rotational constants in MHz :    80.130722     2.461797     2.421816

                             ****ORCA TERMINATED NORMALLY****
TOTAL RUN TIME: 0 days 0 hours 17 minutes 41 seconds 894 msec
