                         Program Version 4.2.0 -  RELEASE  -
|  1> # ORCA input file
|  2> # SCF done       -164.506181740241          0.000442651575
|  3> ! CAM-B3LYP def2-SVP def2/J RIJCOSX Grid4 TightSCF
|  4> %maxcore 5000
|  5> %tddft
|  6>     Mode sTDDFT
|  7>     Ethresh 5.0
|  8>     maxcore 5000
|  9> end
| 10>
| 11> %pal
| 12>   nprocs 6
| 13>   end
| 14> * xyz 0 1
| 15>    C       -2.64443        -0.56971        -4.81058
| 16>    C       -2.38638        -1.39007        -5.89894
| 17>    C       -3.03260        -2.60920        -6.04832
| 18>    C       -3.96532        -3.04116        -5.11652
| 19>    C       -4.22949        -2.23088        -4.02650
| 20>    C       -3.56570        -0.99287        -3.86501
| 21>    C       -4.01575        -0.37187        -2.62537
| 22>    C       -3.69727         0.88498        -2.18464
| 23>    C       -2.87039         1.78466        -2.89079
| 24>    N       -2.21047         2.56442        -3.41365
| 25>    C       -4.18201         1.46904        -0.99566
| 26>    N       -4.54633         2.00250        -0.04639
| 27>    C       -4.85006        -1.35648        -1.94932
| 28>    C       -5.15427        -2.39881        -2.91799
| 29>    C       -6.28698        -3.16267        -2.90672
| 30>    C       -7.27796        -3.03482        -1.90840
| 31>    N       -8.11687        -2.90033        -1.13779
| 32>    C       -6.61703        -4.08745        -3.91856
| 33>    N       -6.91829        -4.84137        -4.72865
| 34>    C       -5.16084        -1.36036        -0.61576
| 35>    C       -5.45052        -2.49538         0.15491
| 36>    C       -5.78554        -2.54033         1.47749
| 37>    C       -5.68102        -3.78562         2.14198
| 38>    C       -5.16029        -4.80362         1.40388
| 39>    S       -4.88441        -4.17081        -0.26701
| 40>    O       -5.69284        -4.96210        -1.16240
| 41>    O       -3.48802        -4.10013        -0.60306
| 42>    C       -4.91031        -6.15604         1.66249
| 43>    N       -4.55491        -7.00224         0.63307
| 44>    C       -4.37861        -8.24379         1.14268
| 45>    C       -4.06557        -9.55290         0.81637
| 46>    C       -4.08659       -10.27264         2.02717
| 47>    N       -4.40797        -9.41653         3.06209
| 48>    C       -4.59729        -8.17407         2.55531
| 49>    C       -4.93552        -6.87056         2.87850
| 50>    C       -3.83858       -11.63703         2.27218
| 51>    C       -3.55032       -12.57545         1.32191
| 52>    C       -3.30787       -13.90614         1.67240
| 53>    C       -3.06872       -15.01248         0.91515
| 54>    C       -2.79806       -16.21324         1.61626
| 55>    C       -2.77879       -16.13704         2.97657
| 56>    S       -3.27646       -14.44566         3.40472
| 57>    O       -2.28262       -13.75040         4.16896
| 58>    O       -4.61290       -14.46664         3.93839
| 59>    C       -2.61811       -17.04613         4.02600
| 60>    C       -2.05187       -18.29501         4.04286
| 61>    C       -2.29032       -19.26922         5.10478
| 62>    C       -2.70448       -19.01781         6.38346
| 63>    C       -2.92257       -17.74068         6.94773
| 64>    N       -3.09971       -16.75042         7.49972
| 65>    C       -2.91060       -20.02297         7.35397
| 66>    N       -3.09678       -20.78938         8.18747
| 67>    C       -1.97057       -20.57885         4.55073
| 68>    C       -1.38027       -20.40172         3.27906
| 69>    C       -0.99476       -21.49556         2.52167
| 70>    C       -1.19881       -22.76543         3.04070
| 71>    C       -1.77058       -22.94089         4.29267
| 72>    C       -2.16156       -21.85345         5.06003
| 73>    C       -1.27859       -18.97354         3.01253
| 74>    C       -0.42514       -18.39760         2.10966
| 75>    C        0.34794       -19.12973         1.18311
| 76>    N        0.98323       -19.66737         0.39301
| 77>    C       -0.14658       -17.01849         2.03045
| 78>    N        0.14270       -15.91364         1.91727
| 79>    H       -2.12812         0.37077        -4.70899
| 80>    H       -1.66619        -1.07388        -6.63799
| 81>    H       -2.80629        -3.23235        -6.90000
| 82>    H       -4.45928        -3.99226        -5.23332
| 83>    H       -5.04992        -0.43784        -0.05855
| 84>    H       -6.13024        -1.66496         2.00573
| 85>    H       -5.98916        -3.89156         3.16905
| 86>    H       -4.55069        -6.71998        -0.33477
| 87>    H       -3.84385        -9.95686        -0.14958
| 88>    H       -4.47786        -9.69907         4.02549
| 89>    H       -5.16290        -6.45320         3.83775
| 90>    H       -3.88272       -11.96580         3.30204
| 91>    H       -3.49972       -12.30358         0.27582
| 92>    H       -3.08126       -15.00263        -0.16336
| 93>    H       -2.66603       -17.13446         1.06861
| 94>    H       -3.06757       -16.69559         4.94834
| 95>    H       -0.55701       -21.37350         1.54438
| 96>    H       -0.90965       -23.62718         2.45902
| 97>    H       -1.91904       -23.93831         4.67697
| 98>    H       -2.61054       -22.00921         6.02692
| 99> *
|100>
|101>                          ****END OF INPUT****

CARTESIAN COORDINATES (ANGSTROEM)
---------------------------------
  C     -2.644430   -0.569710   -4.810580
  C     -2.386380   -1.390070   -5.898940
  C     -3.032600   -2.609200   -6.048320
  C     -3.965320   -3.041160   -5.116520
  C     -4.229490   -2.230880   -4.026500
  C     -3.565700   -0.992870   -3.865010
  C     -4.015750   -0.371870   -2.625370
  C     -3.697270    0.884980   -2.184640
  C     -2.870390    1.784660   -2.890790
  N     -2.210470    2.564420   -3.413650
  C     -4.182010    1.469040   -0.995660
  N     -4.546330    2.002500   -0.046390
  C     -4.850060   -1.356480   -1.949320
  C     -5.154270   -2.398810   -2.917990
  C     -6.286980   -3.162670   -2.906720
  C     -7.277960   -3.034820   -1.908400
  N     -8.116870   -2.900330   -1.137790
  C     -6.617030   -4.087450   -3.918560
  N     -6.918290   -4.841370   -4.728650
  C     -5.160840   -1.360360   -0.615760
  C     -5.450520   -2.495380    0.154910
  C     -5.785540   -2.540330    1.477490
  C     -5.681020   -3.785620    2.141980
  C     -5.160290   -4.803620    1.403880
  S     -4.884410   -4.170810   -0.267010
  O     -5.692840   -4.962100   -1.162400
  O     -3.488020   -4.100130   -0.603060
  C     -4.910310   -6.156040    1.662490
  N     -4.554910   -7.002240    0.633070
  C     -4.378610   -8.243790    1.142680
  C     -4.065570   -9.552900    0.816370
  C     -4.086590  -10.272640    2.027170
  N     -4.407970   -9.416530    3.062090
  C     -4.597290   -8.174070    2.555310
  C     -4.935520   -6.870560    2.878500
  C     -3.838580  -11.637030    2.272180
  C     -3.550320  -12.575450    1.321910
  C     -3.307870  -13.906140    1.672400
  C     -3.068720  -15.012480    0.915150
  C     -2.798060  -16.213240    1.616260
  C     -2.778790  -16.137040    2.976570
  S     -3.276460  -14.445660    3.404720
  O     -2.282620  -13.750400    4.168960
  O     -4.612900  -14.466640    3.938390
  C     -2.618110  -17.046130    4.026000
  C     -2.051870  -18.295010    4.042860
  C     -2.290320  -19.269220    5.104780
  C     -2.704480  -19.017810    6.383460
  C     -2.922570  -17.740680    6.947730
  N     -3.099710  -16.750420    7.499720
  C     -2.910600  -20.022970    7.353970
  N     -3.096780  -20.789380    8.187470
  C     -1.970570  -20.578850    4.550730
  C     -1.380270  -20.401720    3.279060
  C     -0.994760  -21.495560    2.521670
  C     -1.198810  -22.765430    3.040700
  C     -1.770580  -22.940890    4.292670
  C     -2.161560  -21.853450    5.060030
  C     -1.278590  -18.973540    3.012530
  C     -0.425140  -18.397600    2.109660
  C      0.347940  -19.129730    1.183110
  N      0.983230  -19.667370    0.393010
  C     -0.146580  -17.018490    2.030450
  N      0.142700  -15.913640    1.917270
  H     -2.128120    0.370770   -4.708990
  H     -1.666190   -1.073880   -6.637990
  H     -2.806290   -3.232350   -6.900000
  H     -4.459280   -3.992260   -5.233320
  H     -5.049920   -0.437840   -0.058550
  H     -6.130240   -1.664960    2.005730
  H     -5.989160   -3.891560    3.169050
  H     -4.550690   -6.719980   -0.334770
  H     -3.843850   -9.956860   -0.149580
  H     -4.477860   -9.699070    4.025490
  H     -5.162900   -6.453200    3.837750
  H     -3.882720  -11.965800    3.302040
  H     -3.499720  -12.303580    0.275820
  H     -3.081260  -15.002630   -0.163360
  H     -2.666030  -17.134460    1.068610
  H     -3.067570  -16.695590    4.948340
  H     -0.557010  -21.373500    1.544380
  H     -0.909650  -23.627180    2.459020
  H     -1.919040  -23.938310    4.676970
  H     -2.610540  -22.009210    6.026920

 Total Charge           Charge          ....    0
 Multiplicity           Mult            ....    1
 Number of Electrons    NEL             ....  442
 Basis Dimension        Dim             .... 1004

ORBITAL ENERGIES
----------------

  NO   OCC          E(Eh)            E(eV)
   0   2.0000     -89.173711     -2426.5400
   1   2.0000     -89.155501     -2426.0445
   2   2.0000     -19.234745      -523.4040
   3   2.0000     -19.227439      -523.2052
   4   2.0000     -19.214164      -522.8440
   5   2.0000     -19.213043      -522.8135
   6   2.0000     -14.490161      -394.2973
   7   2.0000     -14.487436      -394.2232
   8   2.0000     -14.431520      -392.7016
   9   2.0000     -14.429999      -392.6602
  10   2.0000     -14.426853      -392.5746
  11   2.0000     -14.424967      -392.5233
  12   2.0000     -14.424723      -392.5167
  13   2.0000     -14.422222      -392.4486
  14   2.0000     -14.421659      -392.4333
  15   2.0000     -14.419860      -392.3843
  16   2.0000     -10.361278      -281.9447
  17   2.0000     -10.357369      -281.8383
  18   2.0000     -10.357168      -281.8329
  19   2.0000     -10.355896      -281.7982
  20   2.0000     -10.353921      -281.7445
  21   2.0000     -10.353722      -281.7391
  22   2.0000     -10.351492      -281.6784
  23   2.0000     -10.350258      -281.6449
  24   2.0000     -10.345888      -281.5259
  25   2.0000     -10.343168      -281.4519
  26   2.0000     -10.342244      -281.4268
  27   2.0000     -10.339214      -281.3443
  28   2.0000     -10.338159      -281.3156
  29   2.0000     -10.337845      -281.3071
  30   2.0000     -10.335413      -281.2409
  31   2.0000     -10.335345      -281.2390
  32   2.0000     -10.334635      -281.2197
  33   2.0000     -10.332837      -281.1708
  34   2.0000     -10.332328      -281.1569
  35   2.0000     -10.332131      -281.1516
  36   2.0000     -10.331702      -281.1399
  37   2.0000     -10.330556      -281.1087
  38   2.0000     -10.328749      -281.0595
  39   2.0000     -10.326896      -281.0091
  40   2.0000     -10.325798      -280.9792
  41   2.0000     -10.325700      -280.9766
  42   2.0000     -10.325514      -280.9715
  43   2.0000     -10.324534      -280.9448
  44   2.0000     -10.323429      -280.9148
  45   2.0000     -10.323392      -280.9138
  46   2.0000     -10.322925      -280.9011
  47   2.0000     -10.321917      -280.8737
  48   2.0000     -10.319884      -280.8183
  49   2.0000     -10.319442      -280.8063
  50   2.0000     -10.316751      -280.7331
  51   2.0000     -10.314658      -280.6761
  52   2.0000     -10.312514      -280.6178
  53   2.0000     -10.312176      -280.6086
  54   2.0000     -10.307700      -280.4868
  55   2.0000     -10.306647      -280.4581
  56   2.0000     -10.306172      -280.4452
  57   2.0000     -10.305856      -280.4366
  58   2.0000     -10.305281      -280.4209
  59   2.0000     -10.300826      -280.2997
  60   2.0000     -10.299940      -280.2756
  61   2.0000     -10.299643      -280.2675
  62   2.0000     -10.299508      -280.2639
  63   2.0000     -10.297840      -280.2185
  64   2.0000      -8.239706      -224.2138
  65   2.0000      -8.221682      -223.7233
  66   2.0000      -6.208680      -168.9468
  67   2.0000      -6.208172      -168.9329
  68   2.0000      -6.207793      -168.9226
  69   2.0000      -6.190481      -168.4516
  70   2.0000      -6.190334      -168.4476
  71   2.0000      -6.189734      -168.4312
  72   2.0000      -1.237126       -33.6639
  73   2.0000      -1.218620       -33.1603
  74   2.0000      -1.124941       -30.6112
  75   2.0000      -1.112515       -30.2731
  76   2.0000      -1.095501       -29.8101
  77   2.0000      -1.088307       -29.6143
  78   2.0000      -1.044120       -28.4120
  79   2.0000      -1.038744       -28.2657
  80   2.0000      -1.025466       -27.9043
  81   2.0000      -1.020012       -27.7559
  82   2.0000      -1.014157       -27.5966
  83   2.0000      -1.009555       -27.4714
  84   2.0000      -1.008401       -27.4400
  85   2.0000      -1.004180       -27.3251
  86   2.0000      -1.002786       -27.2872
  87   2.0000      -1.002077       -27.2679
  88   2.0000      -0.998251       -27.1638
  89   2.0000      -0.996093       -27.1051
  90   2.0000      -0.966596       -26.3024
  91   2.0000      -0.961364       -26.1601
  92   2.0000      -0.947810       -25.7912
  93   2.0000      -0.943849       -25.6834
  94   2.0000      -0.942504       -25.6469
  95   2.0000      -0.927661       -25.2429
  96   2.0000      -0.914777       -24.8923
  97   2.0000      -0.902616       -24.5614
  98   2.0000      -0.900619       -24.5071
  99   2.0000      -0.896683       -24.4000
 100   2.0000      -0.894634       -24.3442
 101   2.0000      -0.873026       -23.7562
 102   2.0000      -0.872486       -23.7416
 103   2.0000      -0.866050       -23.5664
 104   2.0000      -0.853265       -23.2185
 105   2.0000      -0.832443       -22.6519
 106   2.0000      -0.825879       -22.4733
 107   2.0000      -0.804070       -21.8799
 108   2.0000      -0.799195       -21.7472
 109   2.0000      -0.792889       -21.5756
 110   2.0000      -0.791509       -21.5381
 111   2.0000      -0.785517       -21.3750
 112   2.0000      -0.765491       -20.8301
 113   2.0000      -0.731103       -19.8943
 114   2.0000      -0.726469       -19.7682
 115   2.0000      -0.723844       -19.6968
 116   2.0000      -0.722464       -19.6592
 117   2.0000      -0.720739       -19.6123
 118   2.0000      -0.718854       -19.5610
 119   2.0000      -0.714741       -19.4491
 120   2.0000      -0.709414       -19.3041
 121   2.0000      -0.696181       -18.9440
 122   2.0000      -0.685095       -18.6424
 123   2.0000      -0.680486       -18.5170
 124   2.0000      -0.676645       -18.4124
 125   2.0000      -0.672260       -18.2931
 126   2.0000      -0.670255       -18.2386
 127   2.0000      -0.667233       -18.1563
 128   2.0000      -0.664244       -18.0750
 129   2.0000      -0.652141       -17.7457
 130   2.0000      -0.646644       -17.5961
 131   2.0000      -0.640694       -17.4342
 132   2.0000      -0.635427       -17.2908
 133   2.0000      -0.616524       -16.7765
 134   2.0000      -0.610936       -16.6244
 135   2.0000      -0.602259       -16.3883
 136   2.0000      -0.595029       -16.1916
 137   2.0000      -0.593586       -16.1523
 138   2.0000      -0.588889       -16.0245
 139   2.0000      -0.586754       -15.9664
 140   2.0000      -0.581375       -15.8200
 141   2.0000      -0.576077       -15.6758
 142   2.0000      -0.571767       -15.5586
 143   2.0000      -0.570231       -15.5168
 144   2.0000      -0.562201       -15.2983
 145   2.0000      -0.560050       -15.2397
 146   2.0000      -0.556833       -15.1522
 147   2.0000      -0.551609       -15.0100
 148   2.0000      -0.550751       -14.9867
 149   2.0000      -0.549476       -14.9520
 150   2.0000      -0.547658       -14.9025
 151   2.0000      -0.546158       -14.8617
 152   2.0000      -0.544546       -14.8178
 153   2.0000      -0.542226       -14.7547
 154   2.0000      -0.539967       -14.6932
 155   2.0000      -0.538491       -14.6531
 156   2.0000      -0.538110       -14.6427
 157   2.0000      -0.533081       -14.5059
 158   2.0000      -0.529413       -14.4061
 159   2.0000      -0.519408       -14.1338
 160   2.0000      -0.518743       -14.1157
 161   2.0000      -0.515125       -14.0173
 162   2.0000      -0.512849       -13.9553
 163   2.0000      -0.511391       -13.9157
 164   2.0000      -0.509763       -13.8714
 165   2.0000      -0.506173       -13.7737
 166   2.0000      -0.504507       -13.7283
 167   2.0000      -0.494223       -13.4485
 168   2.0000      -0.492326       -13.3969
 169   2.0000      -0.489919       -13.3314
 170   2.0000      -0.483882       -13.1671
 171   2.0000      -0.477579       -12.9956
 172   2.0000      -0.476517       -12.9667
 173   2.0000      -0.471879       -12.8405
 174   2.0000      -0.465477       -12.6663
 175   2.0000      -0.464514       -12.6401
 176   2.0000      -0.463164       -12.6033
 177   2.0000      -0.461336       -12.5536
 178   2.0000      -0.459884       -12.5141
 179   2.0000      -0.457389       -12.4462
 180   2.0000      -0.456135       -12.4121
 181   2.0000      -0.455934       -12.4066
 182   2.0000      -0.454222       -12.3600
 183   2.0000      -0.451107       -12.2752
 184   2.0000      -0.450346       -12.2545
 185   2.0000      -0.449656       -12.2358
 186   2.0000      -0.447905       -12.1881
 187   2.0000      -0.444231       -12.0881
 188   2.0000      -0.440452       -11.9853
 189   2.0000      -0.440229       -11.9792
 190   2.0000      -0.436222       -11.8702
 191   2.0000      -0.434959       -11.8358
 192   2.0000      -0.434339       -11.8190
 193   2.0000      -0.433488       -11.7958
 194   2.0000      -0.431102       -11.7309
 195   2.0000      -0.427318       -11.6279
 196   2.0000      -0.423159       -11.5147
 197   2.0000      -0.421964       -11.4822
 198   2.0000      -0.418435       -11.3862
 199   2.0000      -0.417371       -11.3572
 200   2.0000      -0.416760       -11.3406
 201   2.0000      -0.414283       -11.2732
 202   2.0000      -0.413845       -11.2613
 203   2.0000      -0.407372       -11.0852
 204   2.0000      -0.396582       -10.7915
 205   2.0000      -0.393921       -10.7191
 206   2.0000      -0.392498       -10.6804
 207   2.0000      -0.390589       -10.6285
 208   2.0000      -0.384602       -10.4656
 209   2.0000      -0.381675       -10.3859
 210   2.0000      -0.380114       -10.3434
 211   2.0000      -0.371339       -10.1047
 212   2.0000      -0.362616        -9.8673
 213   2.0000      -0.341525        -9.2934
 214   2.0000      -0.337579        -9.1860
 215   2.0000      -0.333071        -9.0633
 216   2.0000      -0.322559        -8.7773
 217   2.0000      -0.321966        -8.7611
 218   2.0000      -0.308365        -8.3910
 219   2.0000      -0.293221        -7.9790
 220   2.0000      -0.251255        -6.8370
 221   0.0000      -0.133298        -3.6272
 222   0.0000      -0.110204        -2.9988
 223   0.0000      -0.093979        -2.5573
 224   0.0000      -0.084847        -2.3088
 225   0.0000      -0.068252        -1.8572

MULLIKEN ATOMIC CHARGES
-----------------------
   0 C :   -0.031668
   1 C :    0.043158
   2 C :    0.049660
   3 C :   -0.032589
   4 C :    0.027770
   5 C :    0.011081
   6 C :    0.298210
   7 C :   -0.335685
   8 C :   -0.188462
   9 N :    0.163587
  10 C :   -0.183026
  11 N :    0.152046
  12 C :   -0.061164
  13 C :    0.188195
  14 C :   -0.293364
  15 C :   -0.199599
  16 N :    0.170822
  17 C :   -0.168027
  18 N :    0.168417
  19 C :    0.067866
  20 C :   -0.089243
  21 C :    0.070864
  22 C :    0.020026
  23 C :   -0.050500
  24 S :    0.754185
  25 O :   -0.436223
  26 O :   -0.432205
  27 C :    0.132294
  28 N :   -0.033866
  29 C :    0.133838
  30 C :   -0.145274
  31 C :    0.103923
  32 N :   -0.026747
  33 C :    0.124821
  34 C :   -0.145218
  35 C :    0.034363
  36 C :    0.002712
  37 C :    0.041280
  38 C :   -0.010182
  39 C :    0.059238
  40 C :   -0.100525
  41 S :    0.744134
  42 O :   -0.432495
  43 O :   -0.452043
  44 C :    0.108729
  45 C :   -0.061913
  46 C :    0.286367
  47 C :   -0.331594
  48 C :   -0.189202
  49 N :    0.177400
  50 C :   -0.191686
  51 N :    0.164857
  52 C :    0.011412
  53 C :    0.006685
  54 C :   -0.032573
  55 C :    0.047944
  56 C :    0.046688
  57 C :   -0.029287
  58 C :    0.234462
  59 C :   -0.341994
  60 C :   -0.183256
  61 N :    0.168649
  62 C :   -0.205827
  63 N :    0.192716
  64 H :    0.005117
  65 H :    0.003557
  66 H :    0.003933
  67 H :    0.004688
  68 H :    0.021672
  69 H :    0.027320
  70 H :    0.002819
  71 H :    0.143694
  72 H :   -0.015326
  73 H :    0.138996
  74 H :   -0.018361
  75 H :    0.012021
  76 H :   -0.003028
  77 H :    0.004705
  78 H :    0.021424
  79 H :    0.027171
  80 H :    0.006340
  81 H :    0.006219
  82 H :    0.006362
  83 H :    0.007713
Sum of atomic charges:   -0.0000000

LOEWDIN ATOMIC CHARGES
----------------------
   0 C :    0.006675
   1 C :   -0.001369
   2 C :    0.006748
   3 C :    0.001417
   4 C :   -0.002580
   5 C :   -0.015114
   6 C :    0.080564
   7 C :   -0.130057
   8 C :   -0.019054
   9 N :   -0.043353
  10 C :   -0.019288
  11 N :   -0.046119
  12 C :   -0.041611
  13 C :    0.041477
  14 C :   -0.112170
  15 C :   -0.029495
  16 N :   -0.045863
  17 C :   -0.012033
  18 N :   -0.039784
  19 C :    0.033199
  20 C :   -0.179461
  21 C :    0.038434
  22 C :   -0.044653
  23 C :   -0.124576
  24 S :    1.177998
  25 O :   -0.467182
  26 O :   -0.485819
  27 C :   -0.007245
  28 N :    0.081957
  29 C :    0.006790
  30 C :   -0.066304
  31 C :    0.011200
  32 N :    0.080299
  33 C :   -0.001803
  34 C :   -0.060648
  35 C :    0.015024
  36 C :   -0.037544
  37 C :   -0.110620
  38 C :   -0.045253
  39 C :    0.035961
  40 C :   -0.183440
  41 S :    1.171342
  42 O :   -0.477713
  43 O :   -0.493093
  44 C :    0.041701
  45 C :   -0.047910
  46 C :    0.074442
  47 C :   -0.123930
  48 C :   -0.028089
  49 N :   -0.027799
  50 C :   -0.018133
  51 N :   -0.041890
  52 C :   -0.011699
  53 C :   -0.012588
  54 C :    0.001684
  55 C :    0.004677
  56 C :    0.004463
  57 C :    0.005948
  58 C :    0.067098
  59 C :   -0.134080
  60 C :   -0.021389
  61 N :   -0.041795
  62 C :   -0.021114
  63 N :   -0.029088
  64 H :    0.041289
  65 H :    0.037344
  66 H :    0.037346
  67 H :    0.040888
  68 H :    0.052523
  69 H :    0.050986
  70 H :    0.040864
  71 H :    0.083405
  72 H :    0.031942
  73 H :    0.100081
  74 H :    0.032437
  75 H :    0.031306
  76 H :    0.039603
  77 H :    0.040424
  78 H :    0.043000
  79 H :    0.050106
  80 H :    0.040846
  81 H :    0.038439
  82 H :    0.038629
  83 H :    0.042189

  Mayer bond orders larger than 0.100000
B(  0-C ,  1-C ) :   1.3724 B(  0-C ,  5-C ) :   1.3785 B(  0-C , 64-H ) :   0.9844
B(  1-C ,  2-C ) :   1.3778 B(  1-C , 65-H ) :   0.9864 B(  2-C ,  3-C ) :   1.3610
B(  2-C , 66-H ) :   0.9865 B(  3-C ,  4-C ) :   1.3913 B(  3-C , 67-H ) :   0.9888
B(  4-C ,  5-C ) :   1.3106 B(  4-C , 13-C ) :   1.0093 B(  5-C ,  6-C ) :   1.0082
B(  6-C ,  7-C ) :   1.6390 B(  6-C , 12-C ) :   1.0555 B(  7-C ,  8-C ) :   1.1450
B(  7-C , 10-C ) :   1.1393 B(  8-C ,  9-N ) :   2.9799 B( 10-C , 11-N ) :   2.9650
B( 12-C , 13-C ) :   1.0274 B( 12-C , 19-C ) :   1.5894 B( 13-C , 14-C ) :   1.6840
B( 14-C , 15-C ) :   1.1138 B( 14-C , 17-C ) :   1.1487 B( 15-C , 16-N ) :   3.0235
B( 17-C , 18-N ) :   3.0070 B( 19-C , 20-C ) :   1.1965 B( 19-C , 68-H ) :   0.9370
B( 20-C , 21-C ) :   1.5437 B( 20-C , 24-S ) :   0.7917 B( 21-C , 22-C ) :   1.1767
B( 21-C , 69-H ) :   0.9912 B( 22-C , 23-C ) :   1.5762 B( 22-C , 70-H ) :   0.9902
B( 23-C , 24-S ) :   0.7860 B( 23-C , 27-C ) :   1.1732 B( 24-S , 25-O ) :   1.6354
B( 24-S , 26-O ) :   1.7291 B( 27-C , 28-N ) :   1.1964 B( 27-C , 34-C ) :   1.3540
B( 28-N , 29-C ) :   1.1969 B( 28-N , 71-H ) :   0.9019 B( 29-C , 30-C ) :   1.2957
B( 29-C , 33-C ) :   1.2490 B( 30-C , 31-C ) :   1.3588 B( 30-C , 72-H ) :   1.0317
B( 31-C , 32-N ) :   1.1749 B( 31-C , 35-C ) :   1.1558 B( 32-N , 33-C ) :   1.1775
B( 32-N , 73-H ) :   0.9311 B( 33-C , 34-C ) :   1.3112 B( 34-C , 74-H ) :   1.0303
B( 35-C , 36-C ) :   1.5519 B( 35-C , 75-H ) :   0.9446 B( 36-C , 37-C ) :   1.2652
B( 36-C , 76-H ) :   0.9846 B( 37-C , 38-C ) :   1.5401 B( 37-C , 41-S ) :   0.7747
B( 38-C , 39-C ) :   1.1777 B( 38-C , 77-H ) :   0.9992 B( 39-C , 40-C ) :   1.5351
B( 39-C , 78-H ) :   0.9898 B( 40-C , 41-S ) :   0.8044 B( 40-C , 44-C ) :   1.2251
B( 41-S , 42-O ) :   1.7244 B( 41-S , 43-O ) :   1.6754 B( 44-C , 45-C ) :   1.6133
B( 44-C , 79-H ) :   0.8997 B( 45-C , 46-C ) :   1.0503 B( 45-C , 58-C ) :   1.0268
B( 46-C , 47-C ) :   1.6512 B( 46-C , 52-C ) :   0.9963 B( 47-C , 48-C ) :   1.1283
B( 47-C , 50-C ) :   1.1485 B( 48-C , 49-N ) :   2.9894 B( 50-C , 51-N ) :   2.9800
B( 52-C , 53-C ) :   1.3103 B( 52-C , 57-C ) :   1.3848 B( 53-C , 54-C ) :   1.3824
B( 53-C , 58-C ) :   1.0087 B( 54-C , 55-C ) :   1.3667 B( 54-C , 80-H ) :   0.9858
B( 55-C , 56-C ) :   1.3767 B( 55-C , 81-H ) :   0.9870 B( 56-C , 57-C ) :   1.3692
B( 56-C , 82-H ) :   0.9866 B( 57-C , 83-H ) :   0.9837 B( 58-C , 59-C ) :   1.6463
B( 59-C , 60-C ) :   1.1322 B( 59-C , 62-C ) :   1.1672 B( 60-C , 61-N ) :   2.9951
B( 62-C , 63-N ) :   3.0004

-----------------------------------------------------------------------------
         ABSORPTION SPECTRUM VIA TRANSITION ELECTRIC DIPOLE MOMENTS
-----------------------------------------------------------------------------
State   Energy  Wavelength   fosc         T2         TX        TY        TZ
        (cm-1)    (nm)                  (au**2)     (au)      (au)      (au)
-----------------------------------------------------------------------------
   0   11577.7    863.7   1.988638885  56.54715   1.29492  -7.03100   2.33139
   1   17276.3    578.8   0.063640962   1.21272  -0.68065   0.17062   0.84872
   2   21430.8    466.6   0.062384283   0.95833  -0.50853  -0.41384   0.72695
   3   21713.7    460.5   0.014351536   0.21759   0.07648  -0.22203   0.40305
   4   22513.3    444.2   0.060984971   0.89178   0.44288   0.80014   0.23542
   5   23316.9    428.9   0.028413379   0.40117  -0.56738  -0.23493  -0.15512
   6   25406.6    393.6   0.017419225   0.22571   0.02658  -0.44974  -0.15082
   7   25837.6    387.0   0.033729653   0.42977  -0.08800   0.59939   0.25051
   8   26690.3    374.7   0.225133216   2.77691   0.28695  -1.28875  -1.01671
   9   28199.4    354.6   0.023216926   0.27104   0.16336  -0.22897   0.43810
  10   28642.1    349.1   0.005308044   0.06101   0.05283  -0.01034  -0.24106
  11   29238.9    342.0   0.047529783   0.53516  -0.24544  -0.14480   0.67376
  12   29440.2    339.7   0.036443833   0.40753   0.07892   0.61651   0.14564
  13   29987.3    333.5   0.159298232   1.74884   0.22141   0.08542  -1.30097
  14   30416.2    328.8   0.043692274   0.47291  -0.21063   0.06707   0.65119
  15   30513.5    327.7   0.102565102   1.10658   0.23862  -0.16378  -1.01134
  16   30907.4    323.5   0.146723495   1.56283  -0.72826  -0.21012   0.99415
  17   31470.0    317.8   0.539010782   5.63867   1.16051   1.94642   0.70947
  18   32488.1    307.8   0.032391171   0.32823   0.08752  -0.24470  -0.51058
  19   32830.0    304.6   0.420048518   4.21215  -0.98895  -0.23927   1.78238
  20   33336.3    300.0   0.162092231   1.60074   0.70957   1.02007  -0.23813
  21   33832.1    295.6   0.099710584   0.97026   0.39486   0.64039  -0.63580
  22   33943.1    294.6   0.028376909   0.27523  -0.35090  -0.31586   0.22875
  23   34141.4    292.9   0.092338690   0.89039  -0.09937   0.61500   0.70872
  24   34799.7    287.4   0.025165820   0.23807  -0.01701   0.45197   0.18305
  25   35351.9    282.9   0.175935468   1.63839   0.33473  -1.06877  -0.61973
  26   35858.6    278.9   0.189550783   1.74023  -0.88712   0.02053   0.97613
  27   36486.0    274.1   0.032810630   0.29605  -0.16734  -0.50188   0.12712
  28   37106.5    269.5   0.078579468   0.69716  -0.37616  -0.65698   0.35221
  29   37374.3    267.6   0.074394100   0.65530  -0.18526  -0.03551   0.78722
  30   38079.8    262.6   0.177434559   1.53398   0.58784  -1.00874  -0.41335
  31   38171.6    262.0   0.047229927   0.40734  -0.40751   0.34363   0.35099
  32   38513.0    259.7   0.021300011   0.18207  -0.11627   0.27785   0.30225
  33   38765.1    258.0   0.003500741   0.02973   0.01544   0.16500   0.04762
  34   38894.2    257.1   0.065619934   0.55543   0.27297  -0.52691  -0.45087
  35   39169.1    255.3   0.097749714   0.82157  -0.22526   0.82862   0.29021
  36   39618.3    252.4   0.330494942   2.74628  -0.49655  -1.49970  -0.50063
  37   40200.0    248.8   0.036497374   0.29889  -0.38906  -0.38319  -0.02626

FINAL SINGLE POINT ENERGY     -3481.869008985826

DIPOLE MOMENT
-------------
                                X             Y             Z
Electronic contribution:     -2.55967      10.36600       5.29858
Nuclear contribution   :      2.36093     -12.47590      -6.31347
                        -----------------------------------------
Total Dipole Moment    :     -0.19874      -2.10990      -1.01489
                        -----------------------------------------
Magnitude (a.u.)       :      2.34972
Magnitude (Debye)      :      5.97250

Rotational constants in cm-1:     0.003350     0.000280     0.000268
Rotational constants in MHz :   100.428701     8.393834     8.047330

                             ****ORCA TERMINATED NORMALLY****
TOTAL RUN TIME: 0 days 0 hours 8 minutes 11 seconds 615 msec
