                         Program Version 4.2.0 -  RELEASE  -
|  1> # ORCA input file
|  2> # SCF done       -184.500615927743          0.003180514034
|  3> ! CAM-B3LYP def2-SVP def2/J RIJCOSX Grid4 TightSCF
|  4> %maxcore 5000
|  5> %tddft
|  6>     Mode sTDDFT
|  7>     Ethresh 5.0
|  8>     maxcore 5000
|  9> end
| 10>
| 11> %pal
| 12>   nprocs 6
| 13>   end
| 14> * xyz 0 1
| 15>    C        1.71410         1.12331         5.81838
| 16>    C        3.08196         0.90507         5.74820
| 17>    C        3.59473        -0.37298         5.57782
| 18>    C        2.75423        -1.47195         5.48056
| 19>    C        1.38573        -1.26742         5.54868
| 20>    C        0.86155         0.03563         5.71251
| 21>    C       -0.59303        -0.03902         5.73272
| 22>    C       -1.45530         0.99588         5.97629
| 23>    C       -1.04926         2.32254         6.23402
| 24>    N       -0.78852         3.42005         6.44584
| 25>    C       -2.85976         0.87614         6.04307
| 26>    N       -4.00482         0.84221         6.11906
| 27>    C       -0.94379        -1.42554         5.45683
| 28>    C        0.27842        -2.21168         5.53157
| 29>    C        0.36958        -3.56505         5.72223
| 30>    C       -0.70746        -4.39085         6.10588
| 31>    N       -1.50614        -5.10069         6.52571
| 32>    C        1.58300        -4.28353         5.69911
| 33>    N        2.53170        -4.92832         5.65278
| 34>    C       -2.15818        -1.84618         4.98319
| 35>    C       -2.41016        -3.08721         4.44729
| 36>    C       -2.69810        -4.13919         3.89908
| 37>    C       -2.88818        -5.38116         3.34005
| 38>    S       -1.55695        -6.51026         3.25035
| 39>    C       -2.59026        -7.69647         2.50148
| 40>    C       -3.88195        -7.22158         2.34473
| 41>    C       -4.04801        -5.92379         2.81025
| 42>    C       -2.06960        -8.92636         2.14279
| 43>    C       -1.54394        -9.98459         1.85482
| 44>    C       -0.88336       -11.16361         1.54544
| 45>    C       -1.48217       -12.27128         1.05300
| 46>    C       -0.77177       -13.47731         0.74724
| 47>    C       -1.42964       -14.61037         0.27308
| 48>    F       -2.76344       -14.55918         0.09681
| 49>    C       -0.78987       -15.81785        -0.03307
| 50>    F       -1.54309       -16.83929        -0.47600
| 51>    C        0.58120       -15.99547         0.10324
| 52>    C        1.28674       -14.86401         0.57429
| 53>    C        0.62962       -13.63922         0.89324
| 54>    N        1.57840       -12.78752         1.30972
| 55>    N        2.68928       -13.46934         1.23568
| 56>    N        2.59379       -14.69680         0.81130
| 57>    C        3.94435       -12.90314         1.62081
| 58>    C        1.23970       -17.19037        -0.18351
| 59>    C        1.81779       -18.23039        -0.42026
| 60>    C        2.55144       -19.37904        -0.65964
| 61>    S        4.28860       -19.33254        -0.56525
| 62>    C        4.37307       -21.03484        -0.94436
| 63>    C        3.11210       -21.57451        -1.12921
| 64>    C        2.08996       -20.64474        -0.97122
| 65>    C        5.59786       -21.66625        -1.01325
| 66>    C        6.70541       -22.16966        -1.04706
| 67>    C        7.96189       -22.74528        -1.06383
| 68>    C        9.09981       -22.00180        -1.00546
| 69>    C       10.42010       -22.51366        -1.07483
| 70>    C       10.87613       -23.74816        -0.70210
| 71>    C       12.10583       -24.35639        -1.20062
| 72>    C       13.15265       -23.73005        -1.82193
| 73>    C       13.26386       -22.34242        -2.05578
| 74>    N       13.43826       -21.22925        -2.27876
| 75>    C       14.30928       -24.39395        -2.28392
| 76>    N       15.27635       -24.86738        -2.68174
| 77>    C       12.01276       -25.78320        -0.91898
| 78>    C       10.86485       -26.01859        -0.12911
| 79>    C       10.52545       -27.30385         0.26029
| 80>    C       11.33939       -28.35261        -0.14002
| 81>    C       12.47257       -28.12299        -0.90786
| 82>    C       12.82166       -26.84074        -1.30452
| 83>    C       10.22788       -24.74074         0.14931
| 84>    C        9.38713       -24.49008         1.20066
| 85>    C        8.88877       -25.48988         2.06092
| 86>    N        8.44219       -26.26102         2.78350
| 87>    C        8.98606       -23.20079         1.60958
| 88>    N        8.66131       -22.17752         2.01523
| 89>    H        1.33288         2.12271         5.94907
| 90>    H        3.75543         1.74495         5.82584
| 91>    H        4.66293        -0.51720         5.52113
| 92>    H        3.16490        -2.45952         5.34678
| 93>    H       -2.97981        -1.14266         4.94008
| 94>    H       -4.66360        -7.81304         1.90232
| 95>    H       -4.97483        -5.37897         2.77858
| 96>    H        0.18396       -11.16839         1.72646
| 97>    H       -2.54925       -12.28063         0.87674
| 98>    H        3.99730       -11.87249         1.27095
| 99>    H        4.73841       -13.50299         1.18090
|100>    H        4.04249       -12.91218         2.70911
|101>    H        2.95844       -22.61148        -1.36969
|102>    H        1.04282       -20.86794        -1.07159
|103>    H        8.00495       -23.82344        -1.16105
|104>    H        9.00170       -20.92430        -1.01733
|105>    H       11.13181       -21.84927        -1.54802
|106>    H        9.64332       -27.49466         0.84985
|107>    H       11.08434       -29.36069         0.14917
|108>    H       13.09242       -28.95448        -1.20657
|109>    H       13.70171       -26.68305        -1.90595
|110> *
|111>
|112>                          ****END OF INPUT****

CARTESIAN COORDINATES (ANGSTROEM)
---------------------------------
  C      1.714100    1.123310    5.818380
  C      3.081960    0.905070    5.748200
  C      3.594730   -0.372980    5.577820
  C      2.754230   -1.471950    5.480560
  C      1.385730   -1.267420    5.548680
  C      0.861550    0.035630    5.712510
  C     -0.593030   -0.039020    5.732720
  C     -1.455300    0.995880    5.976290
  C     -1.049260    2.322540    6.234020
  N     -0.788520    3.420050    6.445840
  C     -2.859760    0.876140    6.043070
  N     -4.004820    0.842210    6.119060
  C     -0.943790   -1.425540    5.456830
  C      0.278420   -2.211680    5.531570
  C      0.369580   -3.565050    5.722230
  C     -0.707460   -4.390850    6.105880
  N     -1.506140   -5.100690    6.525710
  C      1.583000   -4.283530    5.699110
  N      2.531700   -4.928320    5.652780
  C     -2.158180   -1.846180    4.983190
  C     -2.410160   -3.087210    4.447290
  C     -2.698100   -4.139190    3.899080
  C     -2.888180   -5.381160    3.340050
  S     -1.556950   -6.510260    3.250350
  C     -2.590260   -7.696470    2.501480
  C     -3.881950   -7.221580    2.344730
  C     -4.048010   -5.923790    2.810250
  C     -2.069600   -8.926360    2.142790
  C     -1.543940   -9.984590    1.854820
  C     -0.883360  -11.163610    1.545440
  C     -1.482170  -12.271280    1.053000
  C     -0.771770  -13.477310    0.747240
  C     -1.429640  -14.610370    0.273080
  F     -2.763440  -14.559180    0.096810
  C     -0.789870  -15.817850   -0.033070
  F     -1.543090  -16.839290   -0.476000
  C      0.581200  -15.995470    0.103240
  C      1.286740  -14.864010    0.574290
  C      0.629620  -13.639220    0.893240
  N      1.578400  -12.787520    1.309720
  N      2.689280  -13.469340    1.235680
  N      2.593790  -14.696800    0.811300
  C      3.944350  -12.903140    1.620810
  C      1.239700  -17.190370   -0.183510
  C      1.817790  -18.230390   -0.420260
  C      2.551440  -19.379040   -0.659640
  S      4.288600  -19.332540   -0.565250
  C      4.373070  -21.034840   -0.944360
  C      3.112100  -21.574510   -1.129210
  C      2.089960  -20.644740   -0.971220
  C      5.597860  -21.666250   -1.013250
  C      6.705410  -22.169660   -1.047060
  C      7.961890  -22.745280   -1.063830
  C      9.099810  -22.001800   -1.005460
  C     10.420100  -22.513660   -1.074830
  C     10.876130  -23.748160   -0.702100
  C     12.105830  -24.356390   -1.200620
  C     13.152650  -23.730050   -1.821930
  C     13.263860  -22.342420   -2.055780
  N     13.438260  -21.229250   -2.278760
  C     14.309280  -24.393950   -2.283920
  N     15.276350  -24.867380   -2.681740
  C     12.012760  -25.783200   -0.918980
  C     10.864850  -26.018590   -0.129110
  C     10.525450  -27.303850    0.260290
  C     11.339390  -28.352610   -0.140020
  C     12.472570  -28.122990   -0.907860
  C     12.821660  -26.840740   -1.304520
  C     10.227880  -24.740740    0.149310
  C      9.387130  -24.490080    1.200660
  C      8.888770  -25.489880    2.060920
  N      8.442190  -26.261020    2.783500
  C      8.986060  -23.200790    1.609580
  N      8.661310  -22.177520    2.015230
  H      1.332880    2.122710    5.949070
  H      3.755430    1.744950    5.825840
  H      4.662930   -0.517200    5.521130
  H      3.164900   -2.459520    5.346780
  H     -2.979810   -1.142660    4.940080
  H     -4.663600   -7.813040    1.902320
  H     -4.974830   -5.378970    2.778580
  H      0.183960  -11.168390    1.726460
  H     -2.549250  -12.280630    0.876740
  H      3.997300  -11.872490    1.270950
  H      4.738410  -13.502990    1.180900
  H      4.042490  -12.912180    2.709110
  H      2.958440  -22.611480   -1.369690
  H      1.042820  -20.867940   -1.071590
  H      8.004950  -23.823440   -1.161050
  H      9.001700  -20.924300   -1.017330
  H     11.131810  -21.849270   -1.548020
  H      9.643320  -27.494660    0.849850
  H     11.084340  -29.360690    0.149170
  H     13.092420  -28.954480   -1.206570
  H     13.701710  -26.683050   -1.905950

 Total Charge           Charge          ....    0
 Multiplicity           Mult            ....    1
 Number of Electrons    NEL             ....  502
 Basis Dimension        Dim             .... 1149

ORBITAL ENERGIES
----------------

  NO   OCC          E(Eh)            E(eV)
   0   2.0000     -88.977147     -2421.1913
   1   2.0000     -88.976717     -2421.1796
   2   2.0000     -24.801271      -674.8769
   3   2.0000     -24.800219      -674.8483
   4   2.0000     -14.555935      -396.0871
   5   2.0000     -14.457310      -393.4034
   6   2.0000     -14.457032      -393.3958
   7   2.0000     -14.426647      -392.5690
   8   2.0000     -14.425664      -392.5423
   9   2.0000     -14.425375      -392.5344
  10   2.0000     -14.424501      -392.5106
  11   2.0000     -14.423989      -392.4967
  12   2.0000     -14.423857      -392.4931
  13   2.0000     -14.423716      -392.4893
  14   2.0000     -14.418240      -392.3403
  15   2.0000     -10.385986      -282.6170
  16   2.0000     -10.383333      -282.5449
  17   2.0000     -10.356192      -281.8063
  18   2.0000     -10.355277      -281.7814
  19   2.0000     -10.355217      -281.7798
  20   2.0000     -10.354511      -281.7606
  21   2.0000     -10.353288      -281.7273
  22   2.0000     -10.352781      -281.7135
  23   2.0000     -10.351524      -281.6793
  24   2.0000     -10.348517      -281.5975
  25   2.0000     -10.339888      -281.3627
  26   2.0000     -10.337388      -281.2946
  27   2.0000     -10.334202      -281.2079
  28   2.0000     -10.332329      -281.1570
  29   2.0000     -10.331683      -281.1394
  30   2.0000     -10.331311      -281.1293
  31   2.0000     -10.329146      -281.0704
  32   2.0000     -10.328513      -281.0531
  33   2.0000     -10.327492      -281.0253
  34   2.0000     -10.327412      -281.0232
  35   2.0000     -10.327277      -281.0195
  36   2.0000     -10.326557      -280.9999
  37   2.0000     -10.326429      -280.9964
  38   2.0000     -10.326333      -280.9938
  39   2.0000     -10.325893      -280.9818
  40   2.0000     -10.325329      -280.9665
  41   2.0000     -10.325034      -280.9585
  42   2.0000     -10.324814      -280.9525
  43   2.0000     -10.323258      -280.9101
  44   2.0000     -10.322581      -280.8917
  45   2.0000     -10.320672      -280.8398
  46   2.0000     -10.318149      -280.7711
  47   2.0000     -10.317833      -280.7625
  48   2.0000     -10.315684      -280.7040
  49   2.0000     -10.315303      -280.6937
  50   2.0000     -10.314920      -280.6832
  51   2.0000     -10.313437      -280.6429
  52   2.0000     -10.307416      -280.4791
  53   2.0000     -10.306012      -280.4408
  54   2.0000     -10.305548      -280.4282
  55   2.0000     -10.304912      -280.4109
  56   2.0000     -10.303867      -280.3825
  57   2.0000     -10.303456      -280.3713
  58   2.0000     -10.303265      -280.3661
  59   2.0000     -10.303059      -280.3605
  60   2.0000     -10.302666      -280.3498
  61   2.0000     -10.302390      -280.3423
  62   2.0000     -10.301476      -280.3174
  63   2.0000     -10.300695      -280.2962
  64   2.0000     -10.299300      -280.2582
  65   2.0000     -10.298885      -280.2469
  66   2.0000     -10.298193      -280.2281
  67   2.0000     -10.296461      -280.1810
  68   2.0000     -10.295650      -280.1589
  69   2.0000     -10.295561      -280.1565
  70   2.0000     -10.295487      -280.1544
  71   2.0000     -10.294132      -280.1176
  72   2.0000     -10.291233      -280.0387
  73   2.0000     -10.287870      -279.9472
  74   2.0000      -8.072356      -219.6600
  75   2.0000      -8.072094      -219.6529
  76   2.0000      -6.041707      -164.4032
  77   2.0000      -6.041431      -164.3957
  78   2.0000      -6.037426      -164.2867
  79   2.0000      -6.037173      -164.2798
  80   2.0000      -6.034406      -164.2045
  81   2.0000      -6.034142      -164.1973
  82   2.0000      -1.322765       -35.9943
  83   2.0000      -1.305917       -35.5358
  84   2.0000      -1.234293       -33.5868
  85   2.0000      -1.041175       -28.3318
  86   2.0000      -1.039221       -28.2786
  87   2.0000      -1.022284       -27.8178
  88   2.0000      -1.020644       -27.7731
  89   2.0000      -1.011878       -27.5346
  90   2.0000      -1.010121       -27.4868
  91   2.0000      -1.007675       -27.4202
  92   2.0000      -1.004802       -27.3421
  93   2.0000      -1.004147       -27.3242
  94   2.0000      -1.003223       -27.2991
  95   2.0000      -1.002786       -27.2872
  96   2.0000      -1.002711       -27.2852
  97   2.0000      -1.002100       -27.2685
  98   2.0000      -0.999027       -27.1849
  99   2.0000      -0.966467       -26.2989
 100   2.0000      -0.963684       -26.2232
 101   2.0000      -0.945349       -25.7242
 102   2.0000      -0.943092       -25.6629
 103   2.0000      -0.941540       -25.6206
 104   2.0000      -0.938206       -25.5299
 105   2.0000      -0.927410       -25.2361
 106   2.0000      -0.920560       -25.0497
 107   2.0000      -0.905500       -24.6399
 108   2.0000      -0.900286       -24.4980
 109   2.0000      -0.898275       -24.4433
 110   2.0000      -0.895343       -24.3635
 111   2.0000      -0.885834       -24.1048
 112   2.0000      -0.876164       -23.8416
 113   2.0000      -0.871197       -23.7065
 114   2.0000      -0.868747       -23.6398
 115   2.0000      -0.860324       -23.4106
 116   2.0000      -0.854581       -23.2543
 117   2.0000      -0.845483       -23.0068
 118   2.0000      -0.839185       -22.8354
 119   2.0000      -0.831247       -22.6194
 120   2.0000      -0.820665       -22.3314
 121   2.0000      -0.813594       -22.1390
 122   2.0000      -0.797515       -21.7015
 123   2.0000      -0.796001       -21.6603
 124   2.0000      -0.794576       -21.6215
 125   2.0000      -0.790005       -21.4971
 126   2.0000      -0.768763       -20.9191
 127   2.0000      -0.748576       -20.3698
 128   2.0000      -0.742405       -20.2019
 129   2.0000      -0.734260       -19.9802
 130   2.0000      -0.723055       -19.6753
 131   2.0000      -0.721085       -19.6217
 132   2.0000      -0.718957       -19.5638
 133   2.0000      -0.718620       -19.5546
 134   2.0000      -0.717229       -19.5168
 135   2.0000      -0.712193       -19.3798
 136   2.0000      -0.701467       -19.0879
 137   2.0000      -0.689973       -18.7751
 138   2.0000      -0.680837       -18.5265
 139   2.0000      -0.677605       -18.4386
 140   2.0000      -0.672770       -18.3070
 141   2.0000      -0.670944       -18.2573
 142   2.0000      -0.669811       -18.2265
 143   2.0000      -0.668671       -18.1955
 144   2.0000      -0.665899       -18.1200
 145   2.0000      -0.658367       -17.9151
 146   2.0000      -0.654249       -17.8030
 147   2.0000      -0.643670       -17.5151
 148   2.0000      -0.634448       -17.2642
 149   2.0000      -0.632633       -17.2148
 150   2.0000      -0.629901       -17.1405
 151   2.0000      -0.628691       -17.1076
 152   2.0000      -0.621989       -16.9252
 153   2.0000      -0.618486       -16.8299
 154   2.0000      -0.606552       -16.5051
 155   2.0000      -0.605323       -16.4717
 156   2.0000      -0.596677       -16.2364
 157   2.0000      -0.591384       -16.0924
 158   2.0000      -0.590555       -16.0698
 159   2.0000      -0.590528       -16.0691
 160   2.0000      -0.589411       -16.0387
 161   2.0000      -0.587489       -15.9864
 162   2.0000      -0.573962       -15.6183
 163   2.0000      -0.564712       -15.3666
 164   2.0000      -0.556738       -15.1496
 165   2.0000      -0.553155       -15.0521
 166   2.0000      -0.549822       -14.9614
 167   2.0000      -0.548641       -14.9293
 168   2.0000      -0.547748       -14.9050
 169   2.0000      -0.546011       -14.8577
 170   2.0000      -0.545435       -14.8420
 171   2.0000      -0.544266       -14.8102
 172   2.0000      -0.541785       -14.7427
 173   2.0000      -0.540875       -14.7179
 174   2.0000      -0.540590       -14.7102
 175   2.0000      -0.524201       -14.2642
 176   2.0000      -0.523881       -14.2555
 177   2.0000      -0.521629       -14.1942
 178   2.0000      -0.521001       -14.1772
 179   2.0000      -0.517223       -14.0743
 180   2.0000      -0.516346       -14.0505
 181   2.0000      -0.513493       -13.9728
 182   2.0000      -0.512908       -13.9569
 183   2.0000      -0.511472       -13.9179
 184   2.0000      -0.509963       -13.8768
 185   2.0000      -0.505710       -13.7611
 186   2.0000      -0.504621       -13.7314
 187   2.0000      -0.499626       -13.5955
 188   2.0000      -0.499155       -13.5827
 189   2.0000      -0.497328       -13.5330
 190   2.0000      -0.490490       -13.3469
 191   2.0000      -0.486028       -13.2255
 192   2.0000      -0.483366       -13.1531
 193   2.0000      -0.481713       -13.1081
 194   2.0000      -0.474285       -12.9060
 195   2.0000      -0.473657       -12.8889
 196   2.0000      -0.473357       -12.8807
 197   2.0000      -0.465125       -12.6567
 198   2.0000      -0.465029       -12.6541
 199   2.0000      -0.463207       -12.6045
 200   2.0000      -0.461684       -12.5631
 201   2.0000      -0.457996       -12.4627
 202   2.0000      -0.457076       -12.4377
 203   2.0000      -0.456497       -12.4219
 204   2.0000      -0.456288       -12.4162
 205   2.0000      -0.455235       -12.3876
 206   2.0000      -0.452500       -12.3131
 207   2.0000      -0.451540       -12.2870
 208   2.0000      -0.451119       -12.2756
 209   2.0000      -0.450410       -12.2563
 210   2.0000      -0.447468       -12.1762
 211   2.0000      -0.445754       -12.1296
 212   2.0000      -0.444643       -12.0993
 213   2.0000      -0.442573       -12.0430
 214   2.0000      -0.438680       -11.9371
 215   2.0000      -0.436183       -11.8692
 216   2.0000      -0.435312       -11.8455
 217   2.0000      -0.434325       -11.8186
 218   2.0000      -0.433210       -11.7883
 219   2.0000      -0.431517       -11.7422
 220   2.0000      -0.429729       -11.6935
 221   2.0000      -0.429118       -11.6769
 222   2.0000      -0.424350       -11.5471
 223   2.0000      -0.419127       -11.4050
 224   2.0000      -0.417937       -11.3726
 225   2.0000      -0.415980       -11.3194
 226   2.0000      -0.415492       -11.3061
 227   2.0000      -0.409440       -11.1414
 228   2.0000      -0.405048       -11.0219
 229   2.0000      -0.398271       -10.8375
 230   2.0000      -0.391151       -10.6438
 231   2.0000      -0.390209       -10.6181
 232   2.0000      -0.388174       -10.5628
 233   2.0000      -0.375109       -10.2072
 234   2.0000      -0.372780       -10.1439
 235   2.0000      -0.369522       -10.0552
 236   2.0000      -0.363516        -9.8918
 237   2.0000      -0.358138        -9.7454
 238   2.0000      -0.350440        -9.5360
 239   2.0000      -0.347371        -9.4525
 240   2.0000      -0.342867        -9.3299
 241   2.0000      -0.342436        -9.3181
 242   2.0000      -0.339208        -9.2303
 243   2.0000      -0.336449        -9.1552
 244   2.0000      -0.334475        -9.1015
 245   2.0000      -0.330087        -8.9821
 246   2.0000      -0.319090        -8.6829
 247   2.0000      -0.310411        -8.4467
 248   2.0000      -0.295041        -8.0285
 249   2.0000      -0.272762        -7.4222
 250   2.0000      -0.252289        -6.8651
 251   0.0000      -0.113063        -3.0766
 252   0.0000      -0.107293        -2.9196
 253   0.0000      -0.092107        -2.5064
 254   0.0000      -0.090777        -2.4702
 255   0.0000      -0.077098        -2.0979

MULLIKEN ATOMIC CHARGES
-----------------------
   0 C :   -0.030284
   1 C :    0.045859
   2 C :    0.046233
   3 C :   -0.032013
   4 C :    0.015531
   5 C :    0.009008
   6 C :    0.287758
   7 C :   -0.338729
   8 C :   -0.184278
   9 N :    0.162602
  10 C :   -0.190089
  11 N :    0.166512
  12 C :   -0.073716
  13 C :    0.253079
  14 C :   -0.314303
  15 C :   -0.228390
  16 N :    0.191276
  17 C :   -0.180808
  18 N :    0.153330
  19 C :   -0.030735
  20 C :   -0.015499
  21 C :    0.103529
  22 C :   -0.169334
  23 S :    0.216798
  24 C :   -0.134982
  25 C :    0.052381
  26 C :    0.073690
  27 C :    0.045774
  28 C :    0.024131
  29 C :   -0.071011
  30 C :   -0.029522
  31 C :   -0.004718
  32 C :    0.168318
  33 F :   -0.175549
  34 C :    0.172315
  35 F :   -0.160290
  36 C :   -0.090465
  37 C :    0.000183
  38 C :   -0.007398
  39 N :   -0.074794
  40 N :   -0.068664
  41 N :   -0.028545
  42 C :    0.142095
  43 C :    0.014138
  44 C :    0.027951
  45 C :   -0.179334
  46 S :    0.215677
  47 C :   -0.162226
  48 C :    0.063517
  49 C :    0.054128
  50 C :    0.087166
  51 C :   -0.008668
  52 C :   -0.045929
  53 C :   -0.006064
  54 C :    0.032807
  55 C :   -0.063598
  56 C :    0.296382
  57 C :   -0.342825
  58 C :   -0.183513
  59 N :    0.160464
  60 C :   -0.191772
  61 N :    0.164911
  62 C :    0.017216
  63 C :    0.002331
  64 C :   -0.031279
  65 C :    0.048419
  66 C :    0.046586
  67 C :   -0.034798
  68 C :    0.218243
  69 C :   -0.327840
  70 C :   -0.185066
  71 N :    0.167949
  72 C :   -0.192554
  73 N :    0.187386
  74 H :    0.005458
  75 H :    0.005863
  76 H :    0.006372
  77 H :    0.004737
  78 H :    0.055358
  79 H :    0.000888
  80 H :    0.005380
  81 H :    0.048931
  82 H :    0.000619
  83 H :    0.056719
  84 H :    0.057855
  85 H :    0.062651
  86 H :    0.000479
  87 H :    0.002678
  88 H :    0.051594
  89 H :    0.028602
  90 H :    0.032203
  91 H :    0.007476
  92 H :    0.005988
  93 H :    0.006150
  94 H :    0.007912
Sum of atomic charges:   -0.0000000

LOEWDIN ATOMIC CHARGES
----------------------
   0 C :    0.005662
   1 C :    0.001561
   2 C :    0.004969
   3 C :    0.001249
   4 C :   -0.009068
   5 C :   -0.014395
   6 C :    0.076089
   7 C :   -0.127901
   8 C :   -0.018785
   9 N :   -0.042671
  10 C :   -0.023108
  11 N :   -0.039306
  12 C :   -0.043865
  13 C :    0.068918
  14 C :   -0.123277
  15 C :   -0.024966
  16 N :   -0.037492
  17 C :   -0.018118
  18 N :   -0.045924
  19 C :    0.043353
  20 C :   -0.037923
  21 C :    0.011853
  22 C :   -0.194054
  23 S :    0.491316
  24 C :   -0.159577
  25 C :   -0.037615
  26 C :   -0.006765
  27 C :   -0.063652
  28 C :   -0.000647
  29 C :   -0.029110
  30 C :    0.006175
  31 C :   -0.050984
  32 C :    0.068925
  33 F :   -0.051864
  34 C :    0.076453
  35 F :   -0.046397
  36 C :   -0.069639
  37 C :   -0.043805
  38 C :   -0.042378
  39 N :   -0.090274
  40 N :    0.158751
  41 N :   -0.075857
  42 C :    0.034196
  43 C :   -0.005182
  44 C :   -0.034668
  45 C :   -0.174673
  46 S :    0.486608
  47 C :   -0.189587
  48 C :   -0.020625
  49 C :   -0.032580
  50 C :   -0.021494
  51 C :   -0.027016
  52 C :    0.014618
  53 C :   -0.015012
  54 C :    0.056869
  55 C :   -0.052305
  56 C :    0.077393
  57 C :   -0.130463
  58 C :   -0.022545
  59 N :   -0.041234
  60 C :   -0.019031
  61 N :   -0.044189
  62 C :   -0.013071
  63 C :   -0.011308
  64 C :    0.001645
  65 C :    0.005621
  66 C :    0.003028
  67 C :    0.005613
  68 C :    0.063055
  69 C :   -0.128230
  70 C :   -0.021070
  71 N :   -0.042747
  72 C :   -0.019976
  73 N :   -0.032047
  74 H :    0.041564
  75 H :    0.038115
  76 H :    0.038164
  77 H :    0.040951
  78 H :    0.063671
  79 H :    0.039714
  80 H :    0.041594
  81 H :    0.045241
  82 H :    0.037529
  83 H :    0.043450
  84 H :    0.044920
  85 H :    0.044242
  86 H :    0.039367
  87 H :    0.040321
  88 H :    0.048118
  89 H :    0.046728
  90 H :    0.050729
  91 H :    0.041286
  92 H :    0.038269
  93 H :    0.038492
  94 H :    0.042085

  Mayer bond orders larger than 0.100000
B(  0-C ,  1-C ) :   1.3708 B(  0-C ,  5-C ) :   1.3805 B(  0-C , 74-H ) :   0.9848
B(  1-C ,  2-C ) :   1.3766 B(  1-C , 75-H ) :   0.9863 B(  2-C ,  3-C ) :   1.3632
B(  2-C , 76-H ) :   0.9870 B(  3-C ,  4-C ) :   1.3859 B(  3-C , 77-H ) :   0.9854
B(  4-C ,  5-C ) :   1.3071 B(  4-C , 13-C ) :   1.0190 B(  5-C ,  6-C ) :   1.0081
B(  6-C ,  7-C ) :   1.6488 B(  6-C , 12-C ) :   1.0373 B(  7-C ,  8-C ) :   1.1442
B(  7-C , 10-C ) :   1.1371 B(  8-C ,  9-N ) :   2.9774 B( 10-C , 11-N ) :   2.9872
B( 12-C , 13-C ) :   1.0309 B( 12-C , 19-C ) :   1.6092 B( 13-C , 14-C ) :   1.6357
B( 14-C , 15-C ) :   1.1577 B( 14-C , 17-C ) :   1.1338 B( 15-C , 16-N ) :   2.9992
B( 17-C , 18-N ) :   2.9828 B( 19-C , 20-C ) :   1.0284 B( 19-C , 78-H ) :   0.9347
B( 20-C , 21-C ) :   2.1154 B( 21-C , 22-C ) :   1.0511 B( 22-C , 23-S ) :   1.0976
B( 22-C , 24-C ) :   0.1060 B( 22-C , 26-C ) :   1.4372 B( 23-S , 24-C ) :   1.1449
B( 24-C , 25-C ) :   1.4591 B( 24-C , 27-C ) :   0.9807 B( 25-C , 26-C ) :   1.3008
B( 25-C , 79-H ) :   1.0018 B( 26-C , 80-H ) :   1.0007 B( 27-C , 28-C ) :   2.2737
B( 28-C , 29-C ) :   0.9822 B( 29-C , 30-C ) :   1.6770 B( 29-C , 81-H ) :   0.9264
B( 30-C , 31-C ) :   1.1375 B( 30-C , 82-H ) :   0.9825 B( 31-C , 32-C ) :   1.3621
B( 31-C , 36-C ) :   0.1264 B( 31-C , 38-C ) :   1.1504 B( 32-C , 33-F ) :   1.1532
B( 32-C , 34-C ) :   1.1571 B( 34-C , 35-F ) :   1.2183 B( 34-C , 36-C ) :   1.3747
B( 36-C , 37-C ) :   1.2037 B( 36-C , 43-C ) :   0.9372 B( 37-C , 38-C ) :   1.2219
B( 37-C , 41-N ) :   1.5199 B( 38-C , 39-N ) :   1.4618 B( 39-N , 40-N ) :   1.2158
B( 39-N , 41-N ) :   0.1597 B( 40-N , 41-N ) :   1.2357 B( 40-N , 42-C ) :   0.9504
B( 42-C , 83-H ) :   0.9688 B( 42-C , 84-H ) :   0.9666 B( 42-C , 85-H ) :   0.9693
B( 43-C , 44-C ) :   2.3398 B( 44-C , 45-C ) :   0.9895 B( 45-C , 46-S ) :   1.1280
B( 45-C , 47-C ) :   0.1080 B( 45-C , 49-C ) :   1.4734 B( 46-S , 47-C ) :   1.1040
B( 47-C , 48-C ) :   1.4677 B( 47-C , 50-C ) :   1.0001 B( 48-C , 49-C ) :   1.2869
B( 48-C , 86-H ) :   1.0004 B( 49-C , 87-H ) :   1.0021 B( 50-C , 51-C ) :   2.2215
B( 51-C , 52-C ) :   1.0767 B( 52-C , 53-C ) :   1.6549 B( 52-C , 88-H ) :   0.9439
B( 53-C , 54-C ) :   1.1731 B( 53-C , 89-H ) :   0.9557 B( 54-C , 55-C ) :   1.6282
B( 54-C , 90-H ) :   0.9204 B( 55-C , 56-C ) :   1.0533 B( 55-C , 68-C ) :   1.0116
B( 56-C , 57-C ) :   1.6406 B( 56-C , 62-C ) :   0.9973 B( 57-C , 58-C ) :   1.1351
B( 57-C , 60-C ) :   1.1493 B( 58-C , 59-N ) :   2.9747 B( 60-C , 61-N ) :   2.9788
B( 62-C , 63-C ) :   1.3130 B( 62-C , 67-C ) :   1.3807 B( 63-C , 64-C ) :   1.3786
B( 63-C , 68-C ) :   1.0069 B( 64-C , 65-C ) :   1.3679 B( 64-C , 91-H ) :   0.9879
B( 65-C , 66-C ) :   1.3757 B( 65-C , 92-H ) :   0.9868 B( 66-C , 67-C ) :   1.3717
B( 66-C , 93-H ) :   0.9862 B( 67-C , 94-H ) :   0.9838 B( 68-C , 69-C ) :   1.6638
B( 69-C , 70-C ) :   1.1414 B( 69-C , 72-C ) :   1.1483 B( 70-C , 71-N ) :   2.9947
B( 72-C , 73-N ) :   3.0075

-----------------------------------------------------------------------------
         ABSORPTION SPECTRUM VIA TRANSITION ELECTRIC DIPOLE MOMENTS
-----------------------------------------------------------------------------
State   Energy  Wavelength   fosc         T2         TX        TY        TZ
        (cm-1)    (nm)                  (au**2)     (au)      (au)      (au)
-----------------------------------------------------------------------------
   0   16671.0    599.8   2.134189685  42.14496   3.29230  -5.46919  -1.18057
   1   18418.6    542.9   0.837573916  14.97073  -2.42779  -2.35595  -1.87778
   2   22309.6    448.2   0.384762339   5.67776   1.88987  -1.17374  -0.85350
   3   22515.0    444.1   0.132747169   1.94102   0.29080   1.35866  -0.10240
   4   23915.8    418.1   0.180510310   2.48481   0.43306  -1.46542  -0.38704
   5   24488.5    408.4   0.138301639   1.85927  -1.08320   0.79638  -0.22746
   6   26004.6    384.5   0.116658171   1.47686  -0.48453   1.07456   0.29568
   7   26866.4    372.2   0.126468249   1.54970   1.10193  -0.52663  -0.24106
   8   27658.8    361.5   0.140874610   1.67678   0.11027   1.26483   0.25462
   9   29308.4    341.2   0.112767113   1.26668  -0.44750  -0.74423   0.71592
  10   29501.7    339.0   0.209268734   2.33525  -0.99175   1.08746   0.41122
  11   30112.4    332.1   0.030731344   0.33598   0.37734   0.43898   0.02988
  12   30513.9    327.7   0.000389979   0.00421   0.01703  -0.04258  -0.04587
  13   31313.4    319.4   0.010921200   0.11482  -0.15319  -0.23311   0.19239
  14   31491.6    317.5   0.057053063   0.59643  -0.20619   0.74352   0.03294
  15   31712.3    315.3   0.019145278   0.19875  -0.24327   0.36516   0.07894
  16   32078.8    311.7   0.045958446   0.47165   0.53268   0.38069   0.20731
  17   32969.2    303.3   0.517133754   5.16381   1.57640   0.61943  -1.51496
  18   33032.7    302.7   0.493571882   4.91905  -1.08052   1.89603   0.39572
  19   33210.3    301.1   0.063621137   0.63067  -0.06822  -0.79032  -0.03770
  20   33550.8    298.1   0.068648958   0.67361  -0.57210  -0.38107   0.44844
  21   34150.4    292.8   0.167982355   1.61936   1.25271  -0.19923  -0.10191
  22   34421.5    290.5   0.160660350   1.53658   0.42350  -1.14478  -0.21609
  23   34574.4    289.2   0.221336282   2.10753  -1.35730  -0.42962  -0.28407
  24   34740.8    287.8   0.163616167   1.55046   0.61111   1.06423  -0.21074
  25   35100.8    284.9   0.148035206   1.38843  -0.00675  -1.13959  -0.29955
  26   35275.3    283.5   0.021286400   0.19866  -0.09731  -0.42378   0.09798
  27   35323.1    283.1   0.014625390   0.13631   0.07512   0.30404   0.19552
  28   35384.5    282.6   0.024010833   0.22339   0.36465   0.28665  -0.09085
  29   35664.3    280.4   0.063688691   0.58790   0.73970  -0.06829   0.18993
  30   35961.2    278.1   0.136158581   1.24648  -0.17289  -1.10210  -0.04429
  31   36051.9    277.4   0.228408210   2.08574  -1.39767   0.34522  -0.11443
  32   37330.5    267.9   0.073988853   0.65250   0.72082   0.34963  -0.10332
  33   38187.8    261.9   0.044248319   0.38146   0.53684   0.29485  -0.07956
  34   38638.7    258.8   0.045708829   0.38945   0.46275   0.40780  -0.09489
  35   38970.3    256.6   0.037364830   0.31565   0.09548  -0.54870   0.07393
  36   39011.7    256.3   0.006341231   0.05351  -0.15712   0.16670   0.03216
  37   39557.5    252.8   0.017442491   0.14516   0.27207  -0.26427   0.03608
  38   39667.4    252.1   0.002332184   0.01936   0.01922   0.00900   0.13750
  39   39939.9    250.4   0.048013058   0.39576   0.22054  -0.58726  -0.04734
  40   40179.6    248.9   0.004766516   0.03905  -0.13403  -0.14470   0.01226
  41   40259.5    248.4   0.033124489   0.27087  -0.42978  -0.28270  -0.07897

FINAL SINGLE POINT ENERGY     -3854.644309886103

DIPOLE MOMENT
-------------
                                X             Y             Z
Electronic contribution:    -28.72569       7.54770      -0.35677
Nuclear contribution   :     28.92236      -9.30897      -1.88579
                        -----------------------------------------
Total Dipole Moment    :      0.19668      -1.76127      -2.24256
                        -----------------------------------------
Magnitude (a.u.)       :      2.85829
Magnitude (Debye)      :      7.26521

Rotational constants in cm-1:     0.001487     0.000145     0.000135
Rotational constants in MHz :    44.589012     4.338043     4.033864

                             ****ORCA TERMINATED NORMALLY****
TOTAL RUN TIME: 0 days 0 hours 9 minutes 21 seconds 770 msec
