                         Program Version 4.2.0 -  RELEASE  -
|  1> # ORCA input file
|  2> # SCF done       -171.939308050736          0.000680669723
|  3> ! CAM-B3LYP def2-SVP def2/J RIJCOSX Grid4 TightSCF
|  4> %maxcore 5000
|  5> %tddft
|  6>     Mode sTDDFT
|  7>     Ethresh 5.0
|  8>     maxcore 5000
|  9> end
| 10>
| 11> %pal
| 12>   nprocs 6
| 13>   end
| 14> * xyz 0 1
| 15>    C        1.40944         0.64132         2.00238
| 16>    F        2.60292         1.16955         1.71340
| 17>    C        0.32375         1.47687         2.24639
| 18>    F        0.46239         2.80332         2.18692
| 19>    C       -0.90832         0.90871         2.55239
| 20>    F       -1.96515         1.69439         2.78276
| 21>    C       -1.04337        -0.47171         2.61303
| 22>    F       -2.25948        -0.96104         2.88203
| 23>    C        0.02839        -1.34303         2.37171
| 24>    C        1.25575        -0.73639         2.06427
| 25>    F        2.33916        -1.49032         1.84934
| 26>    C       -0.11666        -2.78288         2.43191
| 27>    C        0.59959        -3.70911         1.71999
| 28>    C        0.13293        -5.02044         2.06570
| 29>    C       -0.90795        -4.80288         3.05688
| 30>    C       -1.07563        -3.48580         3.27843
| 31>    F       -1.58540        -5.79530         3.65329
| 32>    C        0.56421        -6.23062         1.56848
| 33>    C        0.12252        -7.53328         1.90711
| 34>    C        0.83510        -8.46696         1.17603
| 35>    C        1.77944        -7.74123         0.31543
| 36>    C        1.60985        -6.43467         0.55453
| 37>    F        2.27531        -5.43613        -0.03539
| 38>    C        0.68270        -9.86332         1.25322
| 39>    C        1.41755       -10.76949         0.54207
| 40>    C        1.28512       -12.16832         0.62409
| 41>    N        2.10454       -13.00169        -0.11551
| 42>    C        1.78172       -14.28976         0.16088
| 43>    C        2.10127       -15.60886        -0.11705
| 44>    C        1.22639       -16.39374         0.65522
| 45>    N        0.39310       -15.56417         1.38002
| 46>    C        0.71336       -14.27284         1.10389
| 47>    C        0.40453       -12.95474         1.39290
| 48>    C        1.12983       -17.79850         0.76242
| 49>    C        1.94969       -18.68146         0.12574
| 50>    C        1.88205       -20.08631         0.23466
| 51>    C        2.74924       -20.97519        -0.37158
| 52>    C        2.38046       -22.30352        -0.02856
| 53>    C        1.20714       -22.15790         0.83665
| 54>    C        0.90581       -20.86119         1.00419
| 55>    F        0.55437       -23.19294         1.38040
| 56>    C        2.98357       -23.48415        -0.40432
| 57>    C        2.60689       -24.81654        -0.07693
| 58>    C        3.49572       -25.69286        -0.65720
| 59>    C        4.49907       -24.91082        -1.38721
| 60>    C        4.18364       -23.61685        -1.23788
| 61>    F        4.85027       -22.57260        -1.75196
| 62>    C        3.53101       -27.11486        -0.60490
| 63>    C        2.56637       -27.87726        -0.04402
| 64>    C        2.50665       -29.31511         0.04285
| 65>    C        3.58326       -30.15220         0.12213
| 66>    O        3.47832       -31.49164         0.19237
| 67>    C        2.26061       -32.08522         0.16647
| 68>    C        2.21712       -33.47941         0.19397
| 69>    C        0.99705       -34.11916         0.18362
| 70>    C       -0.18684       -33.38640         0.14827
| 71>    C       -0.14421       -32.01126         0.12428
| 72>    C        1.08095       -31.33996         0.13099
| 73>    C        1.13836       -29.87161         0.10817
| 74>    O        0.13903       -29.17532         0.13499
| 75>    C        5.01425       -29.73008         0.21361
| 76>    H        1.36372        -3.51084         0.99613
| 77>    H       -1.76230        -3.03017         3.96269
| 78>    H       -0.64130        -7.75479         2.62592
| 79>    H        2.47047        -8.18075        -0.37594
| 80>    H       -0.07161       -10.22294         1.93891
| 81>    H        2.17580       -10.40685        -0.13881
| 82>    H        2.82185       -12.68292        -0.74387
| 83>    H        2.85368       -15.98007        -0.78187
| 84>    H       -0.31713       -15.88494         2.01541
| 85>    H       -0.34462       -12.58089         2.06021
| 86>    H        0.35138       -18.17494         1.41214
| 87>    H        2.73423       -18.29801        -0.51182
| 88>    H        3.57452       -20.70863        -1.00205
| 89>    H        0.09962       -20.46091         1.58637
| 90>    H        1.76110       -25.07571         0.52742
| 91>    H        5.32112       -25.32484        -1.93866
| 92>    H        4.37983       -27.57502        -1.08921
| 93>    H        1.66918       -27.39496         0.32115
| 94>    H        3.14419       -34.02946         0.22364
| 95>    H        0.96101       -35.19781         0.20390
| 96>    H       -1.13557       -33.90045         0.14035
| 97>    H       -1.04268       -31.41374         0.09829
| 98>    H        5.10327       -28.78104         0.73505
| 99>    H        5.44990       -29.62945        -0.78006
|100>    H        5.57259       -30.49899         0.74441
|101> *
|102>
|103>                          ****END OF INPUT****

CARTESIAN COORDINATES (ANGSTROEM)
---------------------------------
  C      1.409440    0.641320    2.002380
  F      2.602920    1.169550    1.713400
  C      0.323750    1.476870    2.246390
  F      0.462390    2.803320    2.186920
  C     -0.908320    0.908710    2.552390
  F     -1.965150    1.694390    2.782760
  C     -1.043370   -0.471710    2.613030
  F     -2.259480   -0.961040    2.882030
  C      0.028390   -1.343030    2.371710
  C      1.255750   -0.736390    2.064270
  F      2.339160   -1.490320    1.849340
  C     -0.116660   -2.782880    2.431910
  C      0.599590   -3.709110    1.719990
  C      0.132930   -5.020440    2.065700
  C     -0.907950   -4.802880    3.056880
  C     -1.075630   -3.485800    3.278430
  F     -1.585400   -5.795300    3.653290
  C      0.564210   -6.230620    1.568480
  C      0.122520   -7.533280    1.907110
  C      0.835100   -8.466960    1.176030
  C      1.779440   -7.741230    0.315430
  C      1.609850   -6.434670    0.554530
  F      2.275310   -5.436130   -0.035390
  C      0.682700   -9.863320    1.253220
  C      1.417550  -10.769490    0.542070
  C      1.285120  -12.168320    0.624090
  N      2.104540  -13.001690   -0.115510
  C      1.781720  -14.289760    0.160880
  C      2.101270  -15.608860   -0.117050
  C      1.226390  -16.393740    0.655220
  N      0.393100  -15.564170    1.380020
  C      0.713360  -14.272840    1.103890
  C      0.404530  -12.954740    1.392900
  C      1.129830  -17.798500    0.762420
  C      1.949690  -18.681460    0.125740
  C      1.882050  -20.086310    0.234660
  C      2.749240  -20.975190   -0.371580
  C      2.380460  -22.303520   -0.028560
  C      1.207140  -22.157900    0.836650
  C      0.905810  -20.861190    1.004190
  F      0.554370  -23.192940    1.380400
  C      2.983570  -23.484150   -0.404320
  C      2.606890  -24.816540   -0.076930
  C      3.495720  -25.692860   -0.657200
  C      4.499070  -24.910820   -1.387210
  C      4.183640  -23.616850   -1.237880
  F      4.850270  -22.572600   -1.751960
  C      3.531010  -27.114860   -0.604900
  C      2.566370  -27.877260   -0.044020
  C      2.506650  -29.315110    0.042850
  C      3.583260  -30.152200    0.122130
  O      3.478320  -31.491640    0.192370
  C      2.260610  -32.085220    0.166470
  C      2.217120  -33.479410    0.193970
  C      0.997050  -34.119160    0.183620
  C     -0.186840  -33.386400    0.148270
  C     -0.144210  -32.011260    0.124280
  C      1.080950  -31.339960    0.130990
  C      1.138360  -29.871610    0.108170
  O      0.139030  -29.175320    0.134990
  C      5.014250  -29.730080    0.213610
  H      1.363720   -3.510840    0.996130
  H     -1.762300   -3.030170    3.962690
  H     -0.641300   -7.754790    2.625920
  H      2.470470   -8.180750   -0.375940
  H     -0.071610  -10.222940    1.938910
  H      2.175800  -10.406850   -0.138810
  H      2.821850  -12.682920   -0.743870
  H      2.853680  -15.980070   -0.781870
  H     -0.317130  -15.884940    2.015410
  H     -0.344620  -12.580890    2.060210
  H      0.351380  -18.174940    1.412140
  H      2.734230  -18.298010   -0.511820
  H      3.574520  -20.708630   -1.002050
  H      0.099620  -20.460910    1.586370
  H      1.761100  -25.075710    0.527420
  H      5.321120  -25.324840   -1.938660
  H      4.379830  -27.575020   -1.089210
  H      1.669180  -27.394960    0.321150
  H      3.144190  -34.029460    0.223640
  H      0.961010  -35.197810    0.203900
  H     -1.135570  -33.900450    0.140350
  H     -1.042680  -31.413740    0.098290
  H      5.103270  -28.781040    0.735050
  H      5.449900  -29.629450   -0.780060
  H      5.572590  -30.498990    0.744410

 Total Charge           Charge          ....    0
 Multiplicity           Mult            ....    1
 Number of Electrons    NEL             ....  424
 Basis Dimension        Dim             ....  979

ORBITAL ENERGIES
----------------

  NO   OCC          E(Eh)            E(eV)
   0   2.0000     -24.802176      -674.9015
   1   2.0000     -24.798439      -674.7998
   2   2.0000     -24.797086      -674.7630
   3   2.0000     -24.796793      -674.7550
   4   2.0000     -24.796528      -674.7478
   5   2.0000     -24.787518      -674.5026
   6   2.0000     -24.781493      -674.3387
   7   2.0000     -24.779609      -674.2874
   8   2.0000     -24.775828      -674.1845
   9   2.0000     -19.297617      -525.1149
  10   2.0000     -19.185271      -522.0578
  11   2.0000     -14.465692      -393.6315
  12   2.0000     -14.465062      -393.6144
  13   2.0000     -10.382887      -282.5327
  14   2.0000     -10.378614      -282.4164
  15   2.0000     -10.378147      -282.4037
  16   2.0000     -10.377240      -282.3791
  17   2.0000     -10.377074      -282.3745
  18   2.0000     -10.364910      -282.0436
  19   2.0000     -10.354349      -281.7562
  20   2.0000     -10.350991      -281.6648
  21   2.0000     -10.347985      -281.5830
  22   2.0000     -10.347816      -281.5784
  23   2.0000     -10.343383      -281.4578
  24   2.0000     -10.338928      -281.3365
  25   2.0000     -10.314698      -280.6772
  26   2.0000     -10.313372      -280.6411
  27   2.0000     -10.310393      -280.5601
  28   2.0000     -10.303179      -280.3637
  29   2.0000     -10.302097      -280.3343
  30   2.0000     -10.300750      -280.2977
  31   2.0000     -10.293802      -280.1086
  32   2.0000     -10.293402      -280.0977
  33   2.0000     -10.292022      -280.0602
  34   2.0000     -10.289376      -279.9882
  35   2.0000     -10.288193      -279.9560
  36   2.0000     -10.288113      -279.9538
  37   2.0000     -10.286044      -279.8975
  38   2.0000     -10.284726      -279.8616
  39   2.0000     -10.282520      -279.8016
  40   2.0000     -10.282338      -279.7966
  41   2.0000     -10.281212      -279.7660
  42   2.0000     -10.279976      -279.7324
  43   2.0000     -10.279312      -279.7143
  44   2.0000     -10.278922      -279.7037
  45   2.0000     -10.278817      -279.7008
  46   2.0000     -10.277853      -279.6746
  47   2.0000     -10.276125      -279.6276
  48   2.0000     -10.275650      -279.6146
  49   2.0000     -10.274863      -279.5932
  50   2.0000     -10.273735      -279.5625
  51   2.0000     -10.271641      -279.5056
  52   2.0000     -10.271442      -279.5002
  53   2.0000     -10.270170      -279.4655
  54   2.0000     -10.266208      -279.3577
  55   2.0000     -10.261886      -279.2401
  56   2.0000     -10.261155      -279.2202
  57   2.0000     -10.258536      -279.1490
  58   2.0000     -10.253762      -279.0190
  59   2.0000     -10.253560      -279.0136
  60   2.0000     -10.248167      -278.8668
  61   2.0000      -1.327851       -36.1327
  62   2.0000      -1.320953       -35.9450
  63   2.0000      -1.315198       -35.7883
  64   2.0000      -1.304908       -35.5083
  65   2.0000      -1.300944       -35.4005
  66   2.0000      -1.300433       -35.3866
  67   2.0000      -1.293743       -35.2045
  68   2.0000      -1.291026       -35.1306
  69   2.0000      -1.287336       -35.0302
  70   2.0000      -1.211242       -32.9596
  71   2.0000      -1.104563       -30.0567
  72   2.0000      -1.097308       -29.8593
  73   2.0000      -1.060793       -28.8656
  74   2.0000      -0.989403       -26.9230
  75   2.0000      -0.979303       -26.6482
  76   2.0000      -0.977720       -26.6051
  77   2.0000      -0.962838       -26.2002
  78   2.0000      -0.959894       -26.1200
  79   2.0000      -0.959231       -26.1020
  80   2.0000      -0.923499       -25.1297
  81   2.0000      -0.906385       -24.6640
  82   2.0000      -0.902043       -24.5458
  83   2.0000      -0.882848       -24.0235
  84   2.0000      -0.877725       -23.8841
  85   2.0000      -0.871881       -23.7251
  86   2.0000      -0.869126       -23.6501
  87   2.0000      -0.865330       -23.5468
  88   2.0000      -0.854196       -23.2438
  89   2.0000      -0.846729       -23.0407
  90   2.0000      -0.839200       -22.8358
  91   2.0000      -0.830267       -22.5927
  92   2.0000      -0.816970       -22.2309
  93   2.0000      -0.812561       -22.1109
  94   2.0000      -0.801843       -21.8193
  95   2.0000      -0.792991       -21.5784
  96   2.0000      -0.784239       -21.3402
  97   2.0000      -0.777666       -21.1614
  98   2.0000      -0.768497       -20.9119
  99   2.0000      -0.751409       -20.4469
 100   2.0000      -0.739525       -20.1235
 101   2.0000      -0.736804       -20.0495
 102   2.0000      -0.729110       -19.8401
 103   2.0000      -0.722381       -19.6570
 104   2.0000      -0.715281       -19.4638
 105   2.0000      -0.701772       -19.0962
 106   2.0000      -0.691684       -18.8217
 107   2.0000      -0.689549       -18.7636
 108   2.0000      -0.684858       -18.6359
 109   2.0000      -0.680008       -18.5040
 110   2.0000      -0.678947       -18.4751
 111   2.0000      -0.674681       -18.3590
 112   2.0000      -0.662795       -18.0356
 113   2.0000      -0.660485       -17.9727
 114   2.0000      -0.658937       -17.9306
 115   2.0000      -0.656184       -17.8557
 116   2.0000      -0.650987       -17.7143
 117   2.0000      -0.648483       -17.6461
 118   2.0000      -0.646835       -17.6013
 119   2.0000      -0.631399       -17.1812
 120   2.0000      -0.626677       -17.0528
 121   2.0000      -0.622944       -16.9512
 122   2.0000      -0.618615       -16.8334
 123   2.0000      -0.616589       -16.7782
 124   2.0000      -0.616016       -16.7626
 125   2.0000      -0.612199       -16.6588
 126   2.0000      -0.611490       -16.6395
 127   2.0000      -0.605649       -16.4806
 128   2.0000      -0.604553       -16.4507
 129   2.0000      -0.594821       -16.1859
 130   2.0000      -0.591576       -16.0976
 131   2.0000      -0.588911       -16.0251
 132   2.0000      -0.574045       -15.6205
 133   2.0000      -0.573451       -15.6044
 134   2.0000      -0.571363       -15.5476
 135   2.0000      -0.568772       -15.4771
 136   2.0000      -0.564607       -15.3637
 137   2.0000      -0.560835       -15.2611
 138   2.0000      -0.555612       -15.1190
 139   2.0000      -0.551703       -15.0126
 140   2.0000      -0.551138       -14.9972
 141   2.0000      -0.546659       -14.8754
 142   2.0000      -0.546097       -14.8600
 143   2.0000      -0.543918       -14.8007
 144   2.0000      -0.542629       -14.7657
 145   2.0000      -0.542231       -14.7549
 146   2.0000      -0.541955       -14.7473
 147   2.0000      -0.540338       -14.7033
 148   2.0000      -0.538581       -14.6555
 149   2.0000      -0.537033       -14.6134
 150   2.0000      -0.535331       -14.5671
 151   2.0000      -0.532471       -14.4893
 152   2.0000      -0.528865       -14.3911
 153   2.0000      -0.522483       -14.2175
 154   2.0000      -0.519034       -14.1236
 155   2.0000      -0.517608       -14.0848
 156   2.0000      -0.515583       -14.0297
 157   2.0000      -0.512827       -13.9547
 158   2.0000      -0.511316       -13.9136
 159   2.0000      -0.508507       -13.8372
 160   2.0000      -0.503953       -13.7132
 161   2.0000      -0.502114       -13.6632
 162   2.0000      -0.501250       -13.6397
 163   2.0000      -0.499660       -13.5964
 164   2.0000      -0.497407       -13.5351
 165   2.0000      -0.490841       -13.3565
 166   2.0000      -0.485051       -13.1989
 167   2.0000      -0.483216       -13.1490
 168   2.0000      -0.482048       -13.1172
 169   2.0000      -0.479271       -13.0416
 170   2.0000      -0.476089       -12.9551
 171   2.0000      -0.474397       -12.9090
 172   2.0000      -0.469985       -12.7889
 173   2.0000      -0.467758       -12.7284
 174   2.0000      -0.465141       -12.6571
 175   2.0000      -0.462846       -12.5947
 176   2.0000      -0.460559       -12.5324
 177   2.0000      -0.458278       -12.4704
 178   2.0000      -0.455641       -12.3986
 179   2.0000      -0.453248       -12.3335
 180   2.0000      -0.451685       -12.2910
 181   2.0000      -0.450738       -12.2652
 182   2.0000      -0.450457       -12.2576
 183   2.0000      -0.445185       -12.1141
 184   2.0000      -0.442709       -12.0467
 185   2.0000      -0.439919       -11.9708
 186   2.0000      -0.438358       -11.9283
 187   2.0000      -0.435078       -11.8391
 188   2.0000      -0.431927       -11.7533
 189   2.0000      -0.428544       -11.6613
 190   2.0000      -0.421595       -11.4722
 191   2.0000      -0.418314       -11.3829
 192   2.0000      -0.406325       -11.0567
 193   2.0000      -0.404854       -11.0166
 194   2.0000      -0.393950       -10.7199
 195   2.0000      -0.389485       -10.5984
 196   2.0000      -0.375470       -10.2171
 197   2.0000      -0.352376        -9.5886
 198   2.0000      -0.339868        -9.2483
 199   2.0000      -0.332661        -9.0522
 200   2.0000      -0.328103        -8.9281
 201   2.0000      -0.319514        -8.6944
 202   2.0000      -0.317547        -8.6409
 203   2.0000      -0.311463        -8.4754
 204   2.0000      -0.303673        -8.2634
 205   2.0000      -0.299161        -8.1406
 206   2.0000      -0.294976        -8.0267
 207   2.0000      -0.289206        -7.8697
 208   2.0000      -0.272429        -7.4132
 209   2.0000      -0.264846        -7.2068
 210   2.0000      -0.248331        -6.7574
 211   2.0000      -0.212303        -5.7771
 212   0.0000      -0.103112        -2.8058
 213   0.0000      -0.085891        -2.3372
 214   0.0000      -0.021202        -0.5769
 215   0.0000      -0.017828        -0.4851
 216   0.0000      -0.000837        -0.0228

MULLIKEN ATOMIC CHARGES
-----------------------
   0 C :    0.167035
   1 F :   -0.162655
   2 C :    0.133244
   3 F :   -0.156731
   4 C :    0.166782
   5 F :   -0.162735
   6 C :    0.156039
   7 F :   -0.165292
   8 C :   -0.003468
   9 C :    0.156220
  10 F :   -0.160883
  11 C :    0.047651
  12 C :   -0.076302
  13 C :   -0.003709
  14 C :    0.239851
  15 C :   -0.078946
  16 F :   -0.184634
  17 C :    0.024019
  18 C :   -0.104630
  19 C :    0.128951
  20 C :   -0.082254
  21 C :    0.257576
  22 F :   -0.172291
  23 C :   -0.021618
  24 C :    0.015136
  25 C :    0.101090
  26 N :   -0.032295
  27 C :    0.125131
  28 C :   -0.172391
  29 C :    0.105866
  30 N :   -0.033449
  31 C :    0.122999
  32 C :   -0.164226
  33 C :    0.009257
  34 C :   -0.012610
  35 C :    0.123022
  36 C :   -0.098231
  37 C :    0.012690
  38 C :    0.257245
  39 C :   -0.085210
  40 F :   -0.174873
  41 C :    0.007540
  42 C :   -0.093007
  43 C :    0.098098
  44 C :   -0.087036
  45 C :    0.254675
  46 F :   -0.182776
  47 C :   -0.007809
  48 C :    0.024266
  49 C :   -0.058354
  50 C :   -0.029859
  51 O :   -0.205079
  52 C :    0.175331
  53 C :   -0.029283
  54 C :    0.034126
  55 C :    0.037277
  56 C :   -0.003530
  57 C :   -0.051757
  58 C :    0.156626
  59 O :   -0.188247
  60 C :    0.089345
  61 H :   -0.009772
  62 H :   -0.015112
  63 H :   -0.019484
  64 H :   -0.023526
  65 H :   -0.019870
  66 H :   -0.029903
  67 H :    0.123522
  68 H :   -0.030353
  69 H :    0.123760
  70 H :   -0.028453
  71 H :   -0.031086
  72 H :   -0.020872
  73 H :   -0.021226
  74 H :   -0.026378
  75 H :   -0.014861
  76 H :   -0.025711
  77 H :   -0.037288
  78 H :    0.017182
  79 H :   -0.015882
  80 H :   -0.001303
  81 H :   -0.009238
  82 H :   -0.000455
  83 H :    0.050872
  84 H :    0.052877
  85 H :    0.031641
Sum of atomic charges:   -0.0000000

LOEWDIN ATOMIC CHARGES
----------------------
   0 C :    0.026040
   1 F :   -0.041396
   2 C :    0.037639
   3 F :   -0.035361
   4 C :    0.025788
   5 F :   -0.041614
   6 C :    0.063447
   7 F :   -0.037989
   8 C :   -0.066069
   9 C :    0.067933
  10 F :   -0.034907
  11 C :   -0.021706
  12 C :   -0.039749
  13 C :   -0.019910
  14 C :    0.068932
  15 C :   -0.060828
  16 F :   -0.059974
  17 C :    0.014450
  18 C :   -0.075299
  19 C :    0.010764
  20 C :   -0.061830
  21 C :    0.087020
  22 F :   -0.048651
  23 C :   -0.027024
  24 C :   -0.013990
  25 C :   -0.004308
  26 N :    0.071370
  27 C :   -0.010008
  28 C :   -0.090394
  29 C :    0.007473
  30 N :    0.070012
  31 C :   -0.015625
  32 C :   -0.079063
  33 C :   -0.028688
  34 C :   -0.014229
  35 C :   -0.004113
  36 C :   -0.063075
  37 C :   -0.004023
  38 C :    0.084673
  39 C :   -0.064799
  40 F :   -0.052205
  41 C :   -0.001103
  42 C :   -0.063906
  43 C :   -0.002326
  44 C :   -0.063394
  45 C :    0.076868
  46 F :   -0.058199
  47 C :   -0.035324
  48 C :    0.020371
  49 C :   -0.123488
  50 C :    0.092175
  51 O :   -0.002324
  52 C :    0.062297
  53 C :   -0.039823
  54 C :   -0.000564
  55 C :   -0.030143
  56 C :    0.023077
  57 C :   -0.086833
  58 C :    0.073051
  59 O :   -0.179760
  60 C :   -0.052358
  61 H :    0.020506
  62 H :    0.027189
  63 H :    0.022352
  64 H :    0.026052
  65 H :    0.032044
  66 H :    0.027470
  67 H :    0.090441
  68 H :    0.025305
  69 H :    0.090616
  70 H :    0.026286
  71 H :    0.026635
  72 H :    0.031799
  73 H :    0.021065
  74 H :    0.025173
  75 H :    0.021736
  76 H :    0.026473
  77 H :    0.022704
  78 H :    0.037556
  79 H :    0.035365
  80 H :    0.033675
  81 H :    0.031024
  82 H :    0.038863
  83 H :    0.046127
  84 H :    0.045535
  85 H :    0.041002

  Mayer bond orders larger than 0.100000
B(  0-C ,  1-F ) :   1.1648 B(  0-C ,  2-C ) :   1.2712 B(  0-C ,  9-C ) :   1.2921
B(  2-C ,  3-F ) :   1.1787 B(  2-C ,  4-C ) :   1.2748 B(  2-C ,  8-C ) :   0.1114
B(  4-C ,  5-F ) :   1.1655 B(  4-C ,  6-C ) :   1.2900 B(  6-C ,  7-F ) :   1.1507
B(  6-C ,  8-C ) :   1.3022 B(  8-C ,  9-C ) :   1.3041 B(  8-C , 11-C ) :   1.0208
B(  9-C , 10-F ) :   1.1580 B( 11-C , 12-C ) :   1.5978 B( 11-C , 15-C ) :   1.0523
B( 12-C , 13-C ) :   1.1048 B( 12-C , 61-H ) :   1.0157 B( 13-C , 14-C ) :   1.0488
B( 13-C , 17-C ) :   1.4436 B( 14-C , 15-C ) :   1.6342 B( 14-C , 16-F ) :   1.1170
B( 15-C , 62-H ) :   1.0167 B( 17-C , 18-C ) :   1.1546 B( 17-C , 21-C ) :   1.0063
B( 18-C , 19-C ) :   1.4631 B( 18-C , 63-H ) :   1.0259 B( 19-C , 20-C ) :   1.0013
B( 19-C , 23-C ) :   1.1857 B( 20-C , 21-C ) :   1.6851 B( 20-C , 64-H ) :   1.0110
B( 21-C , 22-F ) :   1.1289 B( 23-C , 24-C ) :   1.5636 B( 23-C , 65-H ) :   0.9829
B( 24-C , 25-C ) :   1.1467 B( 24-C , 66-H ) :   0.9647 B( 25-C , 26-N ) :   1.1594
B( 25-C , 32-C ) :   1.3633 B( 26-N , 27-C ) :   1.1772 B( 26-N , 67-H ) :   0.9359
B( 27-C , 28-C ) :   1.2725 B( 27-C , 31-C ) :   1.2811 B( 28-C , 29-C ) :   1.3803
B( 28-C , 68-H ) :   1.0337 B( 29-C , 30-N ) :   1.1711 B( 29-C , 33-C ) :   1.1254
B( 30-N , 31-C ) :   1.1645 B( 30-N , 69-H ) :   0.9360 B( 31-C , 32-C ) :   1.2880
B( 32-C , 70-H ) :   1.0332 B( 33-C , 34-C ) :   1.5958 B( 33-C , 71-H ) :   0.9663
B( 34-C , 35-C ) :   1.1629 B( 34-C , 72-H ) :   0.9818 B( 35-C , 36-C ) :   1.4823
B( 35-C , 39-C ) :   1.0147 B( 36-C , 37-C ) :   1.1355 B( 36-C , 73-H ) :   1.0241
B( 37-C , 38-C ) :   1.0210 B( 37-C , 41-C ) :   1.4433 B( 38-C , 39-C ) :   1.6684
B( 38-C , 40-F ) :   1.1268 B( 39-C , 74-H ) :   1.0120 B( 41-C , 42-C ) :   1.1359
B( 41-C , 45-C ) :   1.0175 B( 42-C , 43-C ) :   1.5527 B( 42-C , 75-H ) :   1.0106
B( 43-C , 44-C ) :   1.0118 B( 43-C , 47-C ) :   1.1137 B( 44-C , 45-C ) :   1.6546
B( 44-C , 76-H ) :   1.0200 B( 45-C , 46-F ) :   1.1167 B( 47-C , 48-C ) :   1.6691
B( 47-C , 77-H ) :   0.9724 B( 48-C , 49-C ) :   1.0830 B( 48-C , 78-H ) :   0.9532
B( 49-C , 50-C ) :   1.5504 B( 49-C , 58-C ) :   0.9858 B( 50-C , 51-O ) :   1.1419
B( 50-C , 60-C ) :   1.1099 B( 51-O , 52-C ) :   1.0833 B( 52-C , 53-C ) :   1.3519
B( 52-C , 57-C ) :   1.3343 B( 53-C , 54-C ) :   1.4138 B( 53-C , 79-H ) :   0.9950
B( 54-C , 55-C ) :   1.3262 B( 54-C , 80-H ) :   0.9910 B( 55-C , 56-C ) :   1.3992
B( 55-C , 81-H ) :   0.9953 B( 56-C , 57-C ) :   1.3411 B( 56-C , 82-H ) :   0.9986
B( 57-C , 58-C ) :   0.9816 B( 58-C , 59-O ) :   2.1815 B( 60-C , 83-H ) :   0.9463
B( 60-C , 84-H ) :   0.9346 B( 60-C , 85-H ) :   0.9374

-----------------------------------------------------------------------------
         ABSORPTION SPECTRUM VIA TRANSITION ELECTRIC DIPOLE MOMENTS
-----------------------------------------------------------------------------
State   Energy  Wavelength   fosc         T2         TX        TY        TZ
        (cm-1)    (nm)                  (au**2)     (au)      (au)      (au)
-----------------------------------------------------------------------------
   0   11004.0    908.8   2.327806794  69.64200  -1.25277   8.17795   1.09258
   1   14682.0    681.1   0.002493819   0.05592  -0.15015   0.06004  -0.17254
   2   16627.1    601.4   0.003194394   0.06325   0.00044   0.25141  -0.00649
   3   18058.7    553.8   0.002433219   0.04436  -0.12799   0.08413   0.14457
   4   20444.7    489.1   0.006401899   0.10309  -0.00112   0.32083  -0.01228
   5   21541.6    464.2   0.535645133   8.18604   0.09061  -2.85867  -0.07658
   6   25946.4    385.4   0.125114193   1.58747  -0.11673   1.25249  -0.07155
   7   26793.3    373.2   0.301390695   3.70321   0.22252  -1.90038  -0.20555
   8   27910.6    358.3   0.575052294   6.78287   0.56727  -2.45643  -0.65345
   9   28600.9    349.6   0.052969986   0.60971  -0.25387  -0.71795   0.17265
  10   29508.4    338.9   0.004763225   0.05314  -0.13410  -0.17089  -0.07715
  11   29846.2    335.1   0.030287998   0.33408  -0.37071   0.38845   0.21394
  12   31535.7    317.1   0.022399759   0.23384  -0.01054   0.47731   0.07682
  13   31592.4    316.5   0.138121087   1.43931  -0.61712   1.02531   0.08493
  14   32166.1    310.9   0.000143577   0.00147  -0.00122   0.02600   0.02815
  15   32323.8    309.4   0.008488170   0.08645   0.27432   0.10369  -0.02110
  16   32470.1    308.0   0.150196730   1.52283   0.29774  -1.13129  -0.39289
  17   32694.8    305.9   0.000580243   0.00584   0.01059  -0.06939  -0.03025
  18   34511.9    289.8   0.040287193   0.38430  -0.35022   0.46743   0.20774
  19   34519.1    289.7   0.217660353   2.07585  -0.65731  -1.25570   0.25887
  20   35188.3    284.2   0.108277058   1.01301  -0.08198   1.00250   0.03593
  21   35587.0    281.0   0.009782014   0.09049  -0.04546  -0.29732  -0.00487
  22   36647.5    272.9   0.010016539   0.08998   0.00225  -0.29302   0.06415
  23   36847.1    271.4   0.098113540   0.87660   0.27367  -0.88193  -0.15463
  24   37233.6    268.6   0.064709308   0.57215   0.01084   0.74418   0.13499
  25   37423.1    267.2   0.024634184   0.21671  -0.45029  -0.08598   0.08094
  26   37768.0    264.8   0.019199386   0.16736  -0.09279   0.39209   0.07080
  27   38331.2    260.9   0.069472149   0.59667  -0.36546  -0.55131   0.39896
  28   38717.7    258.3   0.013852727   0.11779  -0.16912  -0.26030   0.14638
  29   39483.1    253.3   0.003943829   0.03288  -0.14717  -0.06176  -0.08609
  30   39867.7    250.8   0.028691019   0.23692   0.23018   0.41904  -0.09134

FINAL SINGLE POINT ENERGY     -2998.911487579308

DIPOLE MOMENT
-------------
                                X             Y             Z
Electronic contribution:    -15.64029     195.44747      15.60743
Nuclear contribution   :     16.85536    -199.32359     -15.92570
                        -----------------------------------------
Total Dipole Moment    :      1.21507      -3.87611      -0.31827
                        -----------------------------------------
Magnitude (a.u.)       :      4.07455
Magnitude (Debye)      :     10.35668

Rotational constants in cm-1:     0.007318     0.000147     0.000145
Rotational constants in MHz :   219.384294     4.404483     4.332781

                             ****ORCA TERMINATED NORMALLY****
TOTAL RUN TIME: 0 days 0 hours 6 minutes 49 seconds 135 msec
