                         Program Version 4.2.0 -  RELEASE  -
|  1> # ORCA input file
|  2> # SCF done       -189.101486082667          0.000544706788
|  3> ! CAM-B3LYP def2-SVP def2/J RIJCOSX Grid4 TightSCF
|  4> %maxcore 5000
|  5> %tddft
|  6>     Mode sTDDFT
|  7>     Ethresh 5.0
|  8>     maxcore 5000
|  9> end
| 10>
| 11> %pal
| 12>   nprocs 6
| 13>   end
| 14> * xyz 0 1
| 15>    C        1.01158        -1.51854         4.83448
| 16>    F        1.26611        -1.61947         6.14009
| 17>    C        0.84767        -0.26554         4.25180
| 18>    F        0.93913         0.84100         4.98853
| 19>    C        0.58185        -0.18725         2.88779
| 20>    F        0.40635         1.00292         2.31198
| 21>    C        0.48944        -1.34369         2.12583
| 22>    F        0.19912        -1.20770         0.82810
| 23>    C        0.66044        -2.62334         2.67882
| 24>    C        0.91537        -2.66448         4.05841
| 25>    F        1.09479        -3.84493         4.66496
| 26>    C        0.57630        -3.82071         1.87565
| 27>    C        0.78609        -3.93689         0.51494
| 28>    C        0.61298        -5.24703         0.06962
| 29>    C        0.25149        -6.13296         1.10261
| 30>    S        0.15676        -5.36216         2.61466
| 31>    C        0.08807        -7.43195         0.55766
| 32>    C        0.35516        -7.36222        -0.82335
| 33>    C        0.69443        -5.99130        -1.17482
| 34>    C        1.02265        -5.51674        -2.41073
| 35>    C        1.06194        -6.34872        -3.54993
| 36>    N        1.09766        -7.01353        -4.48362
| 37>    C        1.35330        -4.16397        -2.63874
| 38>    N        1.63469        -3.06936        -2.83145
| 39>    C        0.22877        -8.59074        -1.45804
| 40>    C       -0.14019        -9.59696        -0.57385
| 41>    S       -0.33346        -9.01002         1.06616
| 42>    C       -0.35593       -10.96495        -0.89654
| 43>    C       -0.78935       -11.89965         0.06829
| 44>    C       -1.04016       -13.28367        -0.22504
| 45>    N       -1.44323       -14.09714         0.77218
| 46>    C       -1.60333       -13.62323         1.96487
| 47>    C       -1.36764       -12.25330         2.25275
| 48>    N       -0.97510       -11.44340         1.32512
| 49>    F       -1.53895       -11.76386         3.47589
| 50>    F       -1.99217       -14.46018         2.91917
| 51>    C       -0.86179       -13.80680        -1.53023
| 52>    C       -0.40006       -12.87562        -2.49002
| 53>    C       -0.15557       -11.48655        -2.19451
| 54>    N        0.26727       -10.82701        -3.27445
| 55>    S        0.34988       -11.82924        -4.52024
| 56>    N       -0.14484       -13.15911        -3.76755
| 57>    C       -1.11506       -15.15235        -1.90529
| 58>    C       -1.64562       -16.18815        -1.14294
| 59>    C       -1.76114       -17.36599        -1.86724
| 60>    C       -1.30583       -17.23658        -3.19662
| 61>    S       -0.75460       -15.66347        -3.55268
| 62>    C       -1.47016       -18.48374        -3.84441
| 63>    C       -2.02758       -19.40104        -2.93909
| 64>    C       -2.22189       -18.73316        -1.66267
| 65>    C       -2.72126       -19.27353        -0.51539
| 66>    C       -3.09466       -20.63141        -0.41449
| 67>    N       -3.37987       -21.73624        -0.30359
| 68>    C       -2.89007       -18.51938         0.66627
| 69>    N       -3.04163       -17.92297         1.63329
| 70>    C       -2.24895       -20.65943        -3.50828
| 71>    C       -1.84711       -20.71417        -4.82380
| 72>    S       -1.19853       -19.17688        -5.38007
| 73>    C       -2.03033       -21.83607        -5.72108
| 74>    C       -1.14085       -22.16697        -6.69965
| 75>    O       -1.32341       -23.18456        -7.55407
| 76>    C       -2.44756       -23.93985        -7.48336
| 77>    C       -2.59525       -24.97137        -8.41054
| 78>    C       -3.72335       -25.76124        -8.37010
| 79>    C       -4.71104       -25.53766        -7.41352
| 80>    C       -4.56503       -24.52125        -6.49786
| 81>    C       -3.42986       -23.70608        -6.51968
| 82>    C       -3.27374       -22.61642        -5.54647
| 83>    O       -4.10816       -22.37400        -4.69436
| 84>    C        0.16233       -21.47793        -6.95078
| 85>    H        1.06995        -3.11752        -0.11870
| 86>    H        0.38848        -8.77972        -2.50325
| 87>    H       -1.92575       -16.05393        -0.11526
| 88>    H       -2.68406       -21.49890        -2.99888
| 89>    H       -1.81957       -25.12872        -9.14314
| 90>    H       -3.84059       -26.55924        -9.08726
| 91>    H       -5.58984       -26.16320        -7.39364
| 92>    H       -5.31085       -24.32167        -5.74372
| 93>    H        0.64247       -21.19420        -6.01819
| 94>    H        0.00920       -20.57887        -7.54665
| 95>    H        0.81158       -22.14916        -7.50779
| 96> *
| 97>
| 98>                          ****END OF INPUT****

CARTESIAN COORDINATES (ANGSTROEM)
---------------------------------
  C      1.011580   -1.518540    4.834480
  F      1.266110   -1.619470    6.140090
  C      0.847670   -0.265540    4.251800
  F      0.939130    0.841000    4.988530
  C      0.581850   -0.187250    2.887790
  F      0.406350    1.002920    2.311980
  C      0.489440   -1.343690    2.125830
  F      0.199120   -1.207700    0.828100
  C      0.660440   -2.623340    2.678820
  C      0.915370   -2.664480    4.058410
  F      1.094790   -3.844930    4.664960
  C      0.576300   -3.820710    1.875650
  C      0.786090   -3.936890    0.514940
  C      0.612980   -5.247030    0.069620
  C      0.251490   -6.132960    1.102610
  S      0.156760   -5.362160    2.614660
  C      0.088070   -7.431950    0.557660
  C      0.355160   -7.362220   -0.823350
  C      0.694430   -5.991300   -1.174820
  C      1.022650   -5.516740   -2.410730
  C      1.061940   -6.348720   -3.549930
  N      1.097660   -7.013530   -4.483620
  C      1.353300   -4.163970   -2.638740
  N      1.634690   -3.069360   -2.831450
  C      0.228770   -8.590740   -1.458040
  C     -0.140190   -9.596960   -0.573850
  S     -0.333460   -9.010020    1.066160
  C     -0.355930  -10.964950   -0.896540
  C     -0.789350  -11.899650    0.068290
  C     -1.040160  -13.283670   -0.225040
  N     -1.443230  -14.097140    0.772180
  C     -1.603330  -13.623230    1.964870
  C     -1.367640  -12.253300    2.252750
  N     -0.975100  -11.443400    1.325120
  F     -1.538950  -11.763860    3.475890
  F     -1.992170  -14.460180    2.919170
  C     -0.861790  -13.806800   -1.530230
  C     -0.400060  -12.875620   -2.490020
  C     -0.155570  -11.486550   -2.194510
  N      0.267270  -10.827010   -3.274450
  S      0.349880  -11.829240   -4.520240
  N     -0.144840  -13.159110   -3.767550
  C     -1.115060  -15.152350   -1.905290
  C     -1.645620  -16.188150   -1.142940
  C     -1.761140  -17.365990   -1.867240
  C     -1.305830  -17.236580   -3.196620
  S     -0.754600  -15.663470   -3.552680
  C     -1.470160  -18.483740   -3.844410
  C     -2.027580  -19.401040   -2.939090
  C     -2.221890  -18.733160   -1.662670
  C     -2.721260  -19.273530   -0.515390
  C     -3.094660  -20.631410   -0.414490
  N     -3.379870  -21.736240   -0.303590
  C     -2.890070  -18.519380    0.666270
  N     -3.041630  -17.922970    1.633290
  C     -2.248950  -20.659430   -3.508280
  C     -1.847110  -20.714170   -4.823800
  S     -1.198530  -19.176880   -5.380070
  C     -2.030330  -21.836070   -5.721080
  C     -1.140850  -22.166970   -6.699650
  O     -1.323410  -23.184560   -7.554070
  C     -2.447560  -23.939850   -7.483360
  C     -2.595250  -24.971370   -8.410540
  C     -3.723350  -25.761240   -8.370100
  C     -4.711040  -25.537660   -7.413520
  C     -4.565030  -24.521250   -6.497860
  C     -3.429860  -23.706080   -6.519680
  C     -3.273740  -22.616420   -5.546470
  O     -4.108160  -22.374000   -4.694360
  C      0.162330  -21.477930   -6.950780
  H      1.069950   -3.117520   -0.118700
  H      0.388480   -8.779720   -2.503250
  H     -1.925750  -16.053930   -0.115260
  H     -2.684060  -21.498900   -2.998880
  H     -1.819570  -25.128720   -9.143140
  H     -3.840590  -26.559240   -9.087260
  H     -5.589840  -26.163200   -7.393640
  H     -5.310850  -24.321670   -5.743720
  H      0.642470  -21.194200   -6.018190
  H      0.009200  -20.578870   -7.546650
  H      0.811580  -22.149160   -7.507790

 Total Charge           Charge          ....    0
 Multiplicity           Mult            ....    1
 Number of Electrons    NEL             ....  514
 Basis Dimension        Dim             .... 1055

ORBITAL ENERGIES
----------------

  NO   OCC          E(Eh)            E(eV)
   0   2.0000     -89.047995     -2423.1191
   1   2.0000     -88.988069     -2421.4885
   2   2.0000     -88.981818     -2421.3184
   3   2.0000     -88.980093     -2421.2714
   4   2.0000     -88.978112     -2421.2175
   5   2.0000     -24.822778      -675.4621
   6   2.0000     -24.817343      -675.3142
   7   2.0000     -24.815143      -675.2544
   8   2.0000     -24.813084      -675.1984
   9   2.0000     -24.811921      -675.1667
  10   2.0000     -24.809760      -675.1079
  11   2.0000     -24.808453      -675.0723
  12   2.0000     -19.306211      -525.3487
  13   2.0000     -19.193030      -522.2689
  14   2.0000     -14.462797      -393.5527
  15   2.0000     -14.457882      -393.4190
  16   2.0000     -14.457595      -393.4112
  17   2.0000     -14.455851      -393.3637
  18   2.0000     -14.424846      -392.5200
  19   2.0000     -14.424701      -392.5161
  20   2.0000     -14.419756      -392.3815
  21   2.0000     -14.418371      -392.3438
  22   2.0000     -10.438690      -284.0512
  23   2.0000     -10.433815      -283.9185
  24   2.0000     -10.395143      -282.8662
  25   2.0000     -10.393896      -282.8323
  26   2.0000     -10.393280      -282.8155
  27   2.0000     -10.391460      -282.7660
  28   2.0000     -10.390721      -282.7459
  29   2.0000     -10.374800      -282.3127
  30   2.0000     -10.358174      -281.8602
  31   2.0000     -10.358138      -281.8593
  32   2.0000     -10.357529      -281.8427
  33   2.0000     -10.353736      -281.7395
  34   2.0000     -10.350182      -281.6428
  35   2.0000     -10.349399      -281.6215
  36   2.0000     -10.346261      -281.5361
  37   2.0000     -10.344854      -281.4978
  38   2.0000     -10.343913      -281.4722
  39   2.0000     -10.341195      -281.3982
  40   2.0000     -10.332476      -281.1610
  41   2.0000     -10.329041      -281.0675
  42   2.0000     -10.328938      -281.0647
  43   2.0000     -10.325410      -280.9687
  44   2.0000     -10.325315      -280.9661
  45   2.0000     -10.321654      -280.8665
  46   2.0000     -10.321360      -280.8585
  47   2.0000     -10.320266      -280.8287
  48   2.0000     -10.320091      -280.8239
  49   2.0000     -10.319442      -280.8063
  50   2.0000     -10.318568      -280.7825
  51   2.0000     -10.318510      -280.7809
  52   2.0000     -10.318263      -280.7742
  53   2.0000     -10.318016      -280.7675
  54   2.0000     -10.315785      -280.7068
  55   2.0000     -10.300396      -280.2880
  56   2.0000     -10.298142      -280.2267
  57   2.0000     -10.294065      -280.1157
  58   2.0000     -10.293847      -280.1098
  59   2.0000     -10.293306      -280.0951
  60   2.0000     -10.291624      -280.0493
  61   2.0000     -10.291344      -280.0417
  62   2.0000     -10.291142      -280.0362
  63   2.0000     -10.290328      -280.0141
  64   2.0000     -10.290003      -280.0052
  65   2.0000     -10.288036      -279.9517
  66   2.0000     -10.286936      -279.9218
  67   2.0000     -10.285898      -279.8935
  68   2.0000     -10.284541      -279.8566
  69   2.0000     -10.280763      -279.7538
  70   2.0000      -8.138949      -221.4721
  71   2.0000      -8.082463      -219.9350
  72   2.0000      -8.076228      -219.7653
  73   2.0000      -8.072738      -219.6704
  74   2.0000      -8.071290      -219.6310
  75   2.0000      -6.110102      -166.2643
  76   2.0000      -6.102240      -166.0504
  77   2.0000      -6.101709      -166.0359
  78   2.0000      -6.051704      -164.6752
  79   2.0000      -6.047365      -164.5572
  80   2.0000      -6.045468      -164.5055
  81   2.0000      -6.044936      -164.4911
  82   2.0000      -6.042216      -164.4171
  83   2.0000      -6.041273      -164.3914
  84   2.0000      -6.040704      -164.3759
  85   2.0000      -6.038709      -164.3216
  86   2.0000      -6.037506      -164.2889
  87   2.0000      -6.036132      -164.2515
  88   2.0000      -6.035272      -164.2281
  89   2.0000      -6.033747      -164.1866
  90   2.0000      -1.348686       -36.6996
  91   2.0000      -1.341750       -36.5109
  92   2.0000      -1.336621       -36.3713
  93   2.0000      -1.332950       -36.2714
  94   2.0000      -1.330247       -36.1979
  95   2.0000      -1.319824       -35.9142
  96   2.0000      -1.314347       -35.7652
  97   2.0000      -1.220591       -33.2140
  98   2.0000      -1.145771       -31.1780
  99   2.0000      -1.119514       -30.4635
 100   2.0000      -1.113916       -30.3112
 101   2.0000      -1.046097       -28.4657
 102   2.0000      -1.038149       -28.2495
 103   2.0000      -1.033661       -28.1273
 104   2.0000      -1.016895       -27.6711
 105   2.0000      -1.011477       -27.5237
 106   2.0000      -1.005968       -27.3738
 107   2.0000      -1.003121       -27.2963
 108   2.0000      -1.002286       -27.2736
 109   2.0000      -0.996530       -27.1169
 110   2.0000      -0.993199       -27.0263
 111   2.0000      -0.984363       -26.7859
 112   2.0000      -0.973286       -26.4844
 113   2.0000      -0.968422       -26.3521
 114   2.0000      -0.952399       -25.9161
 115   2.0000      -0.947114       -25.7723
 116   2.0000      -0.925353       -25.1801
 117   2.0000      -0.915925       -24.9236
 118   2.0000      -0.902344       -24.5540
 119   2.0000      -0.890658       -24.2360
 120   2.0000      -0.888631       -24.1809
 121   2.0000      -0.878805       -23.9135
 122   2.0000      -0.875452       -23.8223
 123   2.0000      -0.868524       -23.6337
 124   2.0000      -0.860598       -23.4181
 125   2.0000      -0.858690       -23.3661
 126   2.0000      -0.848323       -23.0840
 127   2.0000      -0.847752       -23.0685
 128   2.0000      -0.843522       -22.9534
 129   2.0000      -0.825159       -22.4537
 130   2.0000      -0.819130       -22.2897
 131   2.0000      -0.807239       -21.9661
 132   2.0000      -0.792561       -21.5667
 133   2.0000      -0.777547       -21.1581
 134   2.0000      -0.775582       -21.1047
 135   2.0000      -0.770113       -20.9558
 136   2.0000      -0.761154       -20.7121
 137   2.0000      -0.751914       -20.4606
 138   2.0000      -0.750636       -20.4259
 139   2.0000      -0.746875       -20.3235
 140   2.0000      -0.728073       -19.8119
 141   2.0000      -0.721807       -19.6414
 142   2.0000      -0.701542       -19.0899
 143   2.0000      -0.700370       -19.0580
 144   2.0000      -0.693044       -18.8587
 145   2.0000      -0.691495       -18.8165
 146   2.0000      -0.688232       -18.7277
 147   2.0000      -0.686407       -18.6781
 148   2.0000      -0.683178       -18.5902
 149   2.0000      -0.679719       -18.4961
 150   2.0000      -0.676197       -18.4003
 151   2.0000      -0.670991       -18.2586
 152   2.0000      -0.664999       -18.0955
 153   2.0000      -0.661796       -18.0084
 154   2.0000      -0.651622       -17.7315
 155   2.0000      -0.650645       -17.7050
 156   2.0000      -0.643264       -17.5041
 157   2.0000      -0.633136       -17.2285
 158   2.0000      -0.632206       -17.2032
 159   2.0000      -0.628252       -17.0956
 160   2.0000      -0.627309       -17.0699
 161   2.0000      -0.624072       -16.9819
 162   2.0000      -0.623271       -16.9601
 163   2.0000      -0.618403       -16.8276
 164   2.0000      -0.613818       -16.7028
 165   2.0000      -0.609869       -16.5954
 166   2.0000      -0.608657       -16.5624
 167   2.0000      -0.602622       -16.3982
 168   2.0000      -0.600133       -16.3304
 169   2.0000      -0.594585       -16.1795
 170   2.0000      -0.590322       -16.0635
 171   2.0000      -0.588179       -16.0052
 172   2.0000      -0.581618       -15.8266
 173   2.0000      -0.578344       -15.7375
 174   2.0000      -0.574507       -15.6331
 175   2.0000      -0.571743       -15.5579
 176   2.0000      -0.569520       -15.4974
 177   2.0000      -0.567354       -15.4385
 178   2.0000      -0.556454       -15.1419
 179   2.0000      -0.553489       -15.0612
 180   2.0000      -0.549560       -14.9543
 181   2.0000      -0.548678       -14.9303
 182   2.0000      -0.547524       -14.8989
 183   2.0000      -0.540822       -14.7165
 184   2.0000      -0.536486       -14.5985
 185   2.0000      -0.534504       -14.5446
 186   2.0000      -0.532933       -14.5018
 187   2.0000      -0.527228       -14.3466
 188   2.0000      -0.525229       -14.2922
 189   2.0000      -0.524654       -14.2766
 190   2.0000      -0.523924       -14.2567
 191   2.0000      -0.521255       -14.1841
 192   2.0000      -0.517142       -14.0721
 193   2.0000      -0.515265       -14.0211
 194   2.0000      -0.515045       -14.0151
 195   2.0000      -0.511090       -13.9075
 196   2.0000      -0.508755       -13.8439
 197   2.0000      -0.506350       -13.7785
 198   2.0000      -0.500023       -13.6063
 199   2.0000      -0.499060       -13.5801
 200   2.0000      -0.496940       -13.5224
 201   2.0000      -0.494907       -13.4671
 202   2.0000      -0.491260       -13.3679
 203   2.0000      -0.489683       -13.3250
 204   2.0000      -0.488557       -13.2943
 205   2.0000      -0.486699       -13.2438
 206   2.0000      -0.483421       -13.1545
 207   2.0000      -0.483076       -13.1452
 208   2.0000      -0.480062       -13.0632
 209   2.0000      -0.474237       -12.9047
 210   2.0000      -0.473718       -12.8905
 211   2.0000      -0.469501       -12.7758
 212   2.0000      -0.465777       -12.6744
 213   2.0000      -0.464698       -12.6451
 214   2.0000      -0.462062       -12.5733
 215   2.0000      -0.456720       -12.4280
 216   2.0000      -0.456496       -12.4219
 217   2.0000      -0.453764       -12.3475
 218   2.0000      -0.451794       -12.2939
 219   2.0000      -0.450776       -12.2662
 220   2.0000      -0.449749       -12.2383
 221   2.0000      -0.448412       -12.2019
 222   2.0000      -0.444617       -12.0986
 223   2.0000      -0.444206       -12.0875
 224   2.0000      -0.437581       -11.9072
 225   2.0000      -0.435595       -11.8532
 226   2.0000      -0.435473       -11.8498
 227   2.0000      -0.433601       -11.7989
 228   2.0000      -0.431760       -11.7488
 229   2.0000      -0.429839       -11.6965
 230   2.0000      -0.429261       -11.6808
 231   2.0000      -0.428178       -11.6513
 232   2.0000      -0.425105       -11.5677
 233   2.0000      -0.421970       -11.4824
 234   2.0000      -0.416561       -11.3352
 235   2.0000      -0.406440       -11.0598
 236   2.0000      -0.404197       -10.9987
 237   2.0000      -0.398660       -10.8481
 238   2.0000      -0.398223       -10.8362
 239   2.0000      -0.381068       -10.3694
 240   2.0000      -0.374444       -10.1891
 241   2.0000      -0.372589       -10.1387
 242   2.0000      -0.367568       -10.0020
 243   2.0000      -0.353764        -9.6264
 244   2.0000      -0.347842        -9.4653
 245   2.0000      -0.341573        -9.2947
 246   2.0000      -0.340491        -9.2652
 247   2.0000      -0.338965        -9.2237
 248   2.0000      -0.335721        -9.1354
 249   2.0000      -0.331494        -9.0204
 250   2.0000      -0.325903        -8.8683
 251   2.0000      -0.320312        -8.7161
 252   2.0000      -0.315440        -8.5835
 253   2.0000      -0.310759        -8.4562
 254   2.0000      -0.300670        -8.1816
 255   2.0000      -0.270785        -7.3684
 256   2.0000      -0.234578        -6.3832
 257   0.0000      -0.120589        -3.2814
 258   0.0000      -0.095351        -2.5946
 259   0.0000      -0.089284        -2.4295
 260   0.0000      -0.036325        -0.9884
 261   0.0000      -0.029411        -0.8003

MULLIKEN ATOMIC CHARGES
-----------------------
   0 C :    0.174532
   1 F :   -0.157067
   2 C :    0.132758
   3 F :   -0.150859
   4 C :    0.175400
   5 F :   -0.155820
   6 C :    0.151874
   7 F :   -0.158550
   8 C :    0.013016
   9 C :    0.139470
  10 F :   -0.167162
  11 C :   -0.108078
  12 C :   -0.023900
  13 C :   -0.001951
  14 C :   -0.105239
  15 S :    0.213160
  16 C :   -0.072747
  17 C :    0.037713
  18 C :    0.310444
  19 C :   -0.307511
  20 C :   -0.187485
  21 N :    0.168975
  22 C :   -0.195569
  23 N :    0.176962
  24 C :   -0.069370
  25 C :   -0.172678
  26 S :    0.205172
  27 C :    0.173408
  28 C :   -0.059533
  29 C :   -0.074690
  30 N :    0.006264
  31 C :    0.145010
  32 C :    0.153660
  33 N :   -0.058252
  34 F :   -0.133746
  35 F :   -0.128865
  36 C :    0.212832
  37 C :   -0.029472
  38 C :   -0.002565
  39 N :   -0.283151
  40 S :    0.565300
  41 N :   -0.342095
  42 C :   -0.188736
  43 C :   -0.064822
  44 C :    0.037642
  45 C :   -0.062162
  46 S :    0.196177
  47 C :   -0.109035
  48 C :    0.006058
  49 C :    0.311016
  50 C :   -0.308976
  51 C :   -0.192710
  52 N :    0.181760
  53 C :   -0.193245
  54 N :    0.174167
  55 C :    0.012884
  56 C :   -0.149831
  57 S :    0.155965
  58 C :   -0.006070
  59 C :   -0.054899
  60 O :   -0.198721
  61 C :    0.177148
  62 C :   -0.029668
  63 C :    0.038045
  64 C :    0.038183
  65 C :   -0.004297
  66 C :   -0.061403
  67 C :    0.164509
  68 O :   -0.179529
  69 C :    0.091872
  70 H :    0.015721
  71 H :    0.018844
  72 H :    0.021908
  73 H :    0.019188
  74 H :   -0.013690
  75 H :    0.000030
  76 H :   -0.005261
  77 H :    0.005133
  78 H :    0.054030
  79 H :    0.054769
  80 H :    0.038411
Sum of atomic charges:   -0.0000000

LOEWDIN ATOMIC CHARGES
----------------------
   0 C :    0.029027
   1 F :   -0.035898
   2 C :    0.038097
   3 F :   -0.030240
   4 C :    0.030239
   5 F :   -0.034581
   6 C :    0.065561
   7 F :   -0.031532
   8 C :   -0.086024
   9 C :    0.053780
  10 F :   -0.044522
  11 C :   -0.176037
  12 C :   -0.017568
  13 C :   -0.074875
  14 C :   -0.175826
  15 S :    0.495093
  16 C :   -0.188540
  17 C :   -0.072515
  18 C :    0.082980
  19 C :   -0.106313
  20 C :   -0.015646
  21 N :   -0.037501
  22 C :   -0.018591
  23 N :   -0.034069
  24 C :   -0.016576
  25 C :   -0.166127
  26 S :    0.509977
  27 C :   -0.049615
  28 C :   -0.014392
  29 C :   -0.011373
  30 N :   -0.026372
  31 C :    0.059235
  32 C :    0.065622
  33 N :   -0.061028
  34 F :   -0.023496
  35 F :   -0.018683
  36 C :   -0.040413
  37 C :   -0.048820
  38 C :   -0.037557
  39 N :   -0.271507
  40 S :    0.683805
  41 N :   -0.305754
  42 C :   -0.170404
  43 C :   -0.009211
  44 C :   -0.077057
  45 C :   -0.176909
  46 S :    0.506646
  47 C :   -0.188125
  48 C :   -0.065542
  49 C :    0.080779
  50 C :   -0.102222
  51 C :   -0.018547
  52 N :   -0.029892
  53 C :   -0.017816
  54 N :   -0.033673
  55 C :   -0.011653
  56 C :   -0.157018
  57 S :    0.472472
  58 C :   -0.138262
  59 C :    0.083472
  60 O :    0.001923
  61 C :    0.062466
  62 C :   -0.038943
  63 C :    0.002034
  64 C :   -0.027572
  65 C :    0.024504
  66 C :   -0.085891
  67 C :    0.075806
  68 O :   -0.170195
  69 C :   -0.062231
  70 H :    0.039523
  71 H :    0.036497
  72 H :    0.037479
  73 H :    0.043659
  74 H :    0.036350
  75 H :    0.034543
  76 H :    0.032545
  77 H :    0.040675
  78 H :    0.041908
  79 H :    0.042664
  80 H :    0.043793

  Mayer bond orders larger than 0.100000
B(  0-C ,  1-F ) :   1.1712 B(  0-C ,  2-C ) :   1.2745 B(  0-C ,  9-C ) :   1.2985
B(  2-C ,  3-F ) :   1.1844 B(  2-C ,  4-C ) :   1.2721 B(  2-C ,  8-C ) :   0.1050
B(  4-C ,  5-F ) :   1.1712 B(  4-C ,  6-C ) :   1.2952 B(  6-C ,  7-F ) :   1.1524
B(  6-C ,  8-C ) :   1.3030 B(  8-C ,  9-C ) :   1.2903 B(  8-C , 11-C ) :   1.0674
B(  9-C , 10-F ) :   1.1493 B( 11-C , 12-C ) :   1.4879 B( 11-C , 15-S ) :   1.1032
B( 12-C , 13-C ) :   1.2926 B( 12-C , 70-H ) :   0.9913 B( 13-C , 14-C ) :   1.4265
B( 13-C , 18-C ) :   0.9970 B( 14-C , 15-S ) :   1.1323 B( 14-C , 16-C ) :   1.1908
B( 16-C , 17-C ) :   1.4189 B( 16-C , 26-S ) :   1.0866 B( 17-C , 18-C ) :   0.9899
B( 17-C , 24-C ) :   1.2716 B( 18-C , 19-C ) :   1.7066 B( 19-C , 20-C ) :   1.1412
B( 19-C , 22-C ) :   1.1334 B( 20-C , 21-N ) :   2.9855 B( 22-C , 23-N ) :   2.9962
B( 24-C , 25-C ) :   1.4295 B( 24-C , 71-H ) :   0.9813 B( 25-C , 26-S ) :   1.0923
B( 25-C , 27-C ) :   1.1787 B( 27-C , 28-C ) :   1.3003 B( 27-C , 36-C ) :   0.1254
B( 27-C , 38-C ) :   1.2038 B( 28-C , 29-C ) :   1.1132 B( 28-C , 33-N ) :   1.3700
B( 29-C , 30-N ) :   1.4405 B( 29-C , 36-C ) :   1.2914 B( 30-N , 31-C ) :   1.6591
B( 31-C , 32-C ) :   1.1048 B( 31-C , 35-F ) :   1.1854 B( 32-C , 33-N ) :   1.6549
B( 32-C , 34-F ) :   1.1908 B( 36-C , 37-C ) :   1.1834 B( 36-C , 42-C ) :   1.1924
B( 37-C , 38-C ) :   1.1139 B( 37-C , 41-N ) :   1.4664 B( 38-C , 39-N ) :   1.5072
B( 39-N , 40-S ) :   1.2848 B( 39-N , 41-N ) :   0.1515 B( 40-S , 41-N ) :   1.2685
B( 42-C , 43-C ) :   1.4068 B( 42-C , 46-S ) :   1.0879 B( 43-C , 44-C ) :   1.2768
B( 43-C , 72-H ) :   0.9867 B( 44-C , 45-C ) :   1.4000 B( 44-C , 49-C ) :   0.9876
B( 45-C , 46-S ) :   1.1060 B( 45-C , 47-C ) :   1.1890 B( 47-C , 48-C ) :   1.4331
B( 47-C , 57-S ) :   1.1192 B( 48-C , 49-C ) :   0.9903 B( 48-C , 55-C ) :   1.2688
B( 49-C , 50-C ) :   1.7126 B( 50-C , 51-C ) :   1.1343 B( 50-C , 53-C ) :   1.1400
B( 51-C , 52-N ) :   2.9978 B( 53-C , 54-N ) :   2.9903 B( 55-C , 56-C ) :   1.5155
B( 55-C , 73-H ) :   0.9938 B( 56-C , 57-S ) :   1.1101 B( 56-C , 58-C ) :   1.0045
B( 58-C , 59-C ) :   1.5548 B( 58-C , 67-C ) :   1.0081 B( 59-C , 60-O ) :   1.1557
B( 59-C , 69-C ) :   1.1128 B( 60-O , 61-C ) :   1.0780 B( 61-C , 62-C ) :   1.3527
B( 61-C , 66-C ) :   1.3351 B( 62-C , 63-C ) :   1.4145 B( 62-C , 74-H ) :   0.9943
B( 63-C , 64-C ) :   1.3273 B( 63-C , 75-H ) :   0.9906 B( 64-C , 65-C ) :   1.4005
B( 64-C , 76-H ) :   0.9944 B( 65-C , 66-C ) :   1.3394 B( 65-C , 77-H ) :   0.9976
B( 66-C , 67-C ) :   0.9816 B( 67-C , 68-O ) :   2.1742 B( 69-C , 78-H ) :   0.9440
B( 69-C , 79-H ) :   0.9370 B( 69-C , 80-H ) :   0.9347

-----------------------------------------------------------------------------
         ABSORPTION SPECTRUM VIA TRANSITION ELECTRIC DIPOLE MOMENTS
-----------------------------------------------------------------------------
State   Energy  Wavelength   fosc         T2         TX        TY        TZ
        (cm-1)    (nm)                  (au**2)     (au)      (au)      (au)
-----------------------------------------------------------------------------
   0    9593.2   1042.4   0.763255064  26.19284  -0.81987  -4.84443  -1.43252
   1   13352.5    748.9   0.001311525   0.03234   0.03763   0.12448   0.12419
   2   14062.2    711.1   0.002557989   0.05989   0.06465   0.14511  -0.18614
   3   18407.8    543.2   0.003573408   0.06391   0.01631  -0.01204   0.25199
   4   23270.0    429.7   0.021583842   0.30536  -0.10638  -0.54099   0.03702
   5   24629.9    406.0   0.000190870   0.00255  -0.02861  -0.02319   0.03457
   6   25638.5    390.0   0.226916057   2.91372   0.26036   1.60201   0.52866
   7   25898.0    386.1   0.058223303   0.74013  -0.24660  -0.82390   0.02238
   8   26753.5    373.8   0.133122971   1.63813  -0.02438  -0.97514  -0.82864
   9   26956.8    371.0   0.054006893   0.65956  -0.03244   0.35787   0.72831
  10   28863.9    346.5   1.432644874  16.34025   0.60794   3.81386   1.19378
  11   29646.9    337.3   0.046050185   0.51136   0.04307   0.49250   0.51667
  12   29804.2    335.5   0.113362835   1.25218   0.36240   0.49208  -0.93739
  13   31047.6    322.1   0.000684438   0.00726  -0.06775  -0.04937   0.01517
  14   31219.8    320.3   0.025035207   0.26400   0.19031  -0.01155  -0.47712
  15   31396.2    318.5   0.274402522   2.87731  -0.26961  -1.63544  -0.36051
  16   31633.2    316.1   0.008412730   0.08755   0.02149   0.27532   0.10625
  17   31925.2    313.2   0.037766712   0.38945  -0.09915  -0.05331  -0.61382
  18   32179.6    310.8   0.447719419   4.58038  -0.57499   0.09390   2.05936
  19   32303.1    309.6   0.195808374   1.99555  -0.49950  -0.84504   1.01585
  20   32384.4    308.8   0.110108095   1.11933  -0.46262  -0.57329   0.75938
  21   32597.1    306.8   0.203918577   2.05946  -0.63672  -0.79930   1.00756
  22   32689.1    305.9   0.215599407   2.17130   0.02605  -0.64102  -1.32654
  23   33204.3    301.2   0.286846874   2.84401  -0.20443  -0.64899   1.54306
  24   34123.6    293.1   0.038844804   0.37476  -0.02363   0.59880   0.12507
  25   34159.2    292.7   0.081632056   0.78674  -0.04786  -0.48290  -0.74246
  26   34512.2    289.8   0.103810188   0.99024   0.10734  -0.41504  -0.89803
  27   35419.2    282.3   0.008092816   0.07522   0.00955  -0.26081   0.08431
  28   35941.2    278.2   0.756951516   6.93347   0.67897   0.20568  -2.53578
  29   36136.8    276.7   0.202581251   1.84555   0.23259   1.07321   0.79979
  30   36368.1    275.0   0.003678998   0.03330  -0.04409   0.09265   0.15091
  31   36837.6    271.5   0.054123015   0.48369  -0.01917  -0.37975  -0.58233
  32   36884.8    271.1   0.061506250   0.54897   0.09867  -0.20093  -0.70630
  33   37156.9    269.1   0.153049233   1.35602  -0.52182  -0.71025   0.76110
  34   37464.5    266.9   0.011807529   0.10376  -0.00156  -0.25018  -0.20289
  35   37694.7    265.3   0.007838842   0.06846  -0.04686  -0.22909  -0.11741
  36   37932.9    263.6   0.012768122   0.11081   0.11413   0.28394  -0.13101
  37   38257.6    261.4   0.010796556   0.09291  -0.12241  -0.24055   0.14162
  38   38642.0    258.8   0.105041296   0.89490  -0.14933  -0.92897  -0.09808
  39   38919.4    256.9   0.002002303   0.01694   0.03775   0.04183   0.11731
  40   38958.2    256.7   0.001533793   0.01296  -0.08537   0.06759  -0.03324
  41   39680.6    252.0   0.002886517   0.02395  -0.04849  -0.14493   0.02435
  42   40183.3    248.9   0.053380890   0.43734   0.19564   0.42109  -0.47090

FINAL SINGLE POINT ENERGY     -5109.552273910717

DIPOLE MOMENT
-------------
                                X             Y             Z
Electronic contribution:     15.47382     124.74896      71.08019
Nuclear contribution   :    -14.56665    -126.66854     -73.35582
                        -----------------------------------------
Total Dipole Moment    :      0.90717      -1.91957      -2.27564
                        -----------------------------------------
Magnitude (a.u.)       :      3.11227
Magnitude (Debye)      :      7.91077

Rotational constants in cm-1:     0.002790     0.000236     0.000220
Rotational constants in MHz :    83.650801     7.089674     6.600103

                             ****ORCA TERMINATED NORMALLY****
TOTAL RUN TIME: 0 days 0 hours 7 minutes 42 seconds 236 msec
