                         Program Version 4.2.0 -  RELEASE  -
|  1> # ORCA input file
|  2> # SCF done       -189.677312092477          0.000737000568
|  3> ! CAM-B3LYP def2-SVP def2/J RIJCOSX Grid4 TightSCF
|  4> %maxcore 5000
|  5> %tddft
|  6>     Mode sTDDFT
|  7>     Ethresh 5.0
|  8>     maxcore 5000
|  9> end
| 10>
| 11> %pal
| 12>   nprocs 6
| 13>   end
| 14> * xyz 0 1
| 15>    C        1.41290        -0.39406         3.15195
| 16>    F        2.33346         0.53582         2.89459
| 17>    C        0.49283        -0.19471         4.17710
| 18>    F        0.51670         0.92357         4.90075
| 19>    C       -0.44908        -1.18550         4.43691
| 20>    F       -1.34045        -1.01926         5.41500
| 21>    C       -0.46521        -2.34641         3.67742
| 22>    F       -1.40022        -3.26212         3.96083
| 23>    C        0.44029        -2.57773         2.62989
| 24>    C        1.38300        -1.56165         2.40189
| 25>    F        2.31378        -1.70941         1.45409
| 26>    C        0.41157        -3.78744         1.84131
| 27>    C        0.92253        -3.97824         0.57113
| 28>    C        0.73431        -5.28501         0.12286
| 29>    C        0.08270        -6.09892         1.06958
| 30>    S       -0.31941        -5.25237         2.48765
| 31>    C       -0.04859        -7.40564         0.53790
| 32>    C        0.52253        -7.41470        -0.74982
| 33>    C        1.02403        -6.08262        -1.05612
| 34>    C        1.62406        -5.67593        -2.21121
| 35>    C        1.84861        -6.55588        -3.29166
| 36>    N        2.03770        -7.26263        -4.17454
| 37>    C        2.05143        -4.34616        -2.41344
| 38>    N        2.38919        -3.26479        -2.58959
| 39>    C        0.44990        -8.65873        -1.36199
| 40>    C       -0.17316        -9.59966        -0.55116
| 41>    S       -0.67736        -8.93082         0.99138
| 42>    C       -0.41480       -10.96414        -0.86153
| 43>    C       -1.07295       -11.81297         0.05314
| 44>    C       -1.34168       -13.19883        -0.23443
| 45>    N       -1.96889       -13.95131         0.67186
| 46>    C       -2.33896       -13.43047         1.81892
| 47>    C       -2.07340       -12.05267         2.10501
| 48>    N       -1.45823       -11.29821         1.22741
| 49>    C       -2.47192       -11.49009         3.34305
| 50>    N       -2.80572       -11.06525         4.35283
| 51>    C       -2.99892       -14.25009         2.76595
| 52>    N       -3.53353       -14.89414         3.54812
| 53>    C       -0.96241       -13.80648        -1.45534
| 54>    C       -0.29405       -12.95887        -2.37200
| 55>    C       -0.02728       -11.56759        -2.08180
| 56>    N        0.60827       -10.97371        -3.09224
| 57>    S        0.84693       -12.03135        -4.27318
| 58>    N        0.16131       -13.30111        -3.57717
| 59>    C       -1.25070       -15.16659        -1.71349
| 60>    C       -0.92938       -15.88916        -2.85977
| 61>    C       -1.37191       -17.19964        -2.78875
| 62>    C       -2.04039       -17.48604        -1.57710
| 63>    S       -2.11330       -16.13959        -0.52791
| 64>    C       -2.45867       -18.83548        -1.61572
| 65>    C       -2.05863       -19.40748        -2.83691
| 66>    C       -1.35141       -18.40143        -3.61058
| 67>    C       -0.77377       -18.54770        -4.83688
| 68>    C       -0.76436       -19.77534        -5.53389
| 69>    N       -0.72629       -20.76485        -6.11128
| 70>    C       -0.11790       -17.48033        -5.48732
| 71>    N        0.41646       -16.61887        -6.02320
| 72>    C       -2.45494       -20.74001        -2.96840
| 73>    C       -3.13915       -21.19426        -1.86033
| 74>    S       -3.30296       -19.94531        -0.63236
| 75>    C       -3.76135       -22.49361        -1.72831
| 76>    C       -3.89985       -23.14585        -0.53680
| 77>    O       -4.49613       -24.33936        -0.41086
| 78>    C       -5.00874       -24.96698        -1.49806
| 79>    C       -5.62165       -26.20493        -1.30544
| 80>    C       -6.15075       -26.87298        -2.38806
| 81>    C       -6.07731       -26.32268        -3.66577
| 82>    C       -5.47318       -25.10130        -3.85578
| 83>    C       -4.92968       -24.40466        -2.77273
| 84>    C       -4.28794       -23.09846        -2.97179
| 85>    O       -4.22314       -22.56438        -4.06355
| 86>    C       -3.39813       -22.65663         0.78367
| 87>    H        1.39175        -3.20521        -0.00809
| 88>    H        0.81834        -8.90574        -2.34043
| 89>    H       -0.40129       -15.44181        -3.68167
| 90>    H       -2.26558       -21.35644        -3.82726
| 91>    H       -5.66830       -26.61450        -0.30888
| 92>    H       -6.62577       -27.83104        -2.24225
| 93>    H       -6.49566       -26.85678        -4.50464
| 94>    H       -5.39952       -24.64699        -4.83199
| 95>    H       -4.08094       -21.91757         1.20151
| 96>    H       -2.41605       -22.20073         0.68892
| 97>    H       -3.34562       -23.49806         1.47043
| 98> *
| 99>
|100>                          ****END OF INPUT****

CARTESIAN COORDINATES (ANGSTROEM)
---------------------------------
  C      1.412900   -0.394060    3.151950
  F      2.333460    0.535820    2.894590
  C      0.492830   -0.194710    4.177100
  F      0.516700    0.923570    4.900750
  C     -0.449080   -1.185500    4.436910
  F     -1.340450   -1.019260    5.415000
  C     -0.465210   -2.346410    3.677420
  F     -1.400220   -3.262120    3.960830
  C      0.440290   -2.577730    2.629890
  C      1.383000   -1.561650    2.401890
  F      2.313780   -1.709410    1.454090
  C      0.411570   -3.787440    1.841310
  C      0.922530   -3.978240    0.571130
  C      0.734310   -5.285010    0.122860
  C      0.082700   -6.098920    1.069580
  S     -0.319410   -5.252370    2.487650
  C     -0.048590   -7.405640    0.537900
  C      0.522530   -7.414700   -0.749820
  C      1.024030   -6.082620   -1.056120
  C      1.624060   -5.675930   -2.211210
  C      1.848610   -6.555880   -3.291660
  N      2.037700   -7.262630   -4.174540
  C      2.051430   -4.346160   -2.413440
  N      2.389190   -3.264790   -2.589590
  C      0.449900   -8.658730   -1.361990
  C     -0.173160   -9.599660   -0.551160
  S     -0.677360   -8.930820    0.991380
  C     -0.414800  -10.964140   -0.861530
  C     -1.072950  -11.812970    0.053140
  C     -1.341680  -13.198830   -0.234430
  N     -1.968890  -13.951310    0.671860
  C     -2.338960  -13.430470    1.818920
  C     -2.073400  -12.052670    2.105010
  N     -1.458230  -11.298210    1.227410
  C     -2.471920  -11.490090    3.343050
  N     -2.805720  -11.065250    4.352830
  C     -2.998920  -14.250090    2.765950
  N     -3.533530  -14.894140    3.548120
  C     -0.962410  -13.806480   -1.455340
  C     -0.294050  -12.958870   -2.372000
  C     -0.027280  -11.567590   -2.081800
  N      0.608270  -10.973710   -3.092240
  S      0.846930  -12.031350   -4.273180
  N      0.161310  -13.301110   -3.577170
  C     -1.250700  -15.166590   -1.713490
  C     -0.929380  -15.889160   -2.859770
  C     -1.371910  -17.199640   -2.788750
  C     -2.040390  -17.486040   -1.577100
  S     -2.113300  -16.139590   -0.527910
  C     -2.458670  -18.835480   -1.615720
  C     -2.058630  -19.407480   -2.836910
  C     -1.351410  -18.401430   -3.610580
  C     -0.773770  -18.547700   -4.836880
  C     -0.764360  -19.775340   -5.533890
  N     -0.726290  -20.764850   -6.111280
  C     -0.117900  -17.480330   -5.487320
  N      0.416460  -16.618870   -6.023200
  C     -2.454940  -20.740010   -2.968400
  C     -3.139150  -21.194260   -1.860330
  S     -3.302960  -19.945310   -0.632360
  C     -3.761350  -22.493610   -1.728310
  C     -3.899850  -23.145850   -0.536800
  O     -4.496130  -24.339360   -0.410860
  C     -5.008740  -24.966980   -1.498060
  C     -5.621650  -26.204930   -1.305440
  C     -6.150750  -26.872980   -2.388060
  C     -6.077310  -26.322680   -3.665770
  C     -5.473180  -25.101300   -3.855780
  C     -4.929680  -24.404660   -2.772730
  C     -4.287940  -23.098460   -2.971790
  O     -4.223140  -22.564380   -4.063550
  C     -3.398130  -22.656630    0.783670
  H      1.391750   -3.205210   -0.008090
  H      0.818340   -8.905740   -2.340430
  H     -0.401290  -15.441810   -3.681670
  H     -2.265580  -21.356440   -3.827260
  H     -5.668300  -26.614500   -0.308880
  H     -6.625770  -27.831040   -2.242250
  H     -6.495660  -26.856780   -4.504640
  H     -5.399520  -24.646990   -4.831990
  H     -4.080940  -21.917570    1.201510
  H     -2.416050  -22.200730    0.688920
  H     -3.345620  -23.498060    1.470430

 Total Charge           Charge          ....    0
 Multiplicity           Mult            ....    1
 Number of Electrons    NEL             ....  522
 Basis Dimension        Dim             .... 1083

ORBITAL ENERGIES
----------------

  NO   OCC          E(Eh)            E(eV)
   0   2.0000     -89.053019     -2423.2558
   1   2.0000     -88.991524     -2421.5825
   2   2.0000     -88.987977     -2421.4860
   3   2.0000     -88.985759     -2421.4256
   4   2.0000     -88.985067     -2421.4068
   5   2.0000     -24.819770      -675.3803
   6   2.0000     -24.815049      -675.2518
   7   2.0000     -24.814499      -675.2369
   8   2.0000     -24.811464      -675.1543
   9   2.0000     -24.810341      -675.1237
  10   2.0000     -19.310309      -525.4602
  11   2.0000     -19.197106      -522.3798
  12   2.0000     -14.479093      -393.9962
  13   2.0000     -14.477863      -393.9627
  14   2.0000     -14.462257      -393.5380
  15   2.0000     -14.460597      -393.4929
  16   2.0000     -14.441277      -392.9671
  17   2.0000     -14.440349      -392.9419
  18   2.0000     -14.427887      -392.6028
  19   2.0000     -14.427793      -392.6002
  20   2.0000     -14.426607      -392.5679
  21   2.0000     -14.423794      -392.4914
  22   2.0000     -10.397404      -282.9277
  23   2.0000     -10.396637      -282.9069
  24   2.0000     -10.396367      -282.8995
  25   2.0000     -10.395875      -282.8861
  26   2.0000     -10.394393      -282.8458
  27   2.0000     -10.393545      -282.8227
  28   2.0000     -10.392794      -282.8023
  29   2.0000     -10.379987      -282.4538
  30   2.0000     -10.362596      -281.9806
  31   2.0000     -10.362101      -281.9671
  32   2.0000     -10.360685      -281.9286
  33   2.0000     -10.360438      -281.9219
  34   2.0000     -10.358181      -281.8604
  35   2.0000     -10.357925      -281.8535
  36   2.0000     -10.353514      -281.7334
  37   2.0000     -10.353272      -281.7268
  38   2.0000     -10.349885      -281.6347
  39   2.0000     -10.347525      -281.5705
  40   2.0000     -10.335235      -281.2360
  41   2.0000     -10.334525      -281.2167
  42   2.0000     -10.334130      -281.2060
  43   2.0000     -10.333568      -281.1907
  44   2.0000     -10.332596      -281.1642
  45   2.0000     -10.331963      -281.1470
  46   2.0000     -10.328418      -281.0505
  47   2.0000     -10.328244      -281.0458
  48   2.0000     -10.328152      -281.0433
  49   2.0000     -10.327294      -281.0199
  50   2.0000     -10.326992      -281.0117
  51   2.0000     -10.326889      -281.0089
  52   2.0000     -10.324946      -280.9561
  53   2.0000     -10.324760      -280.9510
  54   2.0000     -10.324453      -280.9427
  55   2.0000     -10.323911      -280.9279
  56   2.0000     -10.323730      -280.9230
  57   2.0000     -10.303746      -280.3792
  58   2.0000     -10.302760      -280.3523
  59   2.0000     -10.301052      -280.3059
  60   2.0000     -10.300275      -280.2847
  61   2.0000     -10.299140      -280.2538
  62   2.0000     -10.299076      -280.2521
  63   2.0000     -10.298492      -280.2362
  64   2.0000     -10.296815      -280.1906
  65   2.0000     -10.294961      -280.1401
  66   2.0000     -10.293956      -280.1128
  67   2.0000     -10.291261      -280.0395
  68   2.0000     -10.290885      -280.0292
  69   2.0000     -10.290158      -280.0094
  70   2.0000     -10.287407      -279.9346
  71   2.0000     -10.283520      -279.8288
  72   2.0000      -8.143995      -221.6094
  73   2.0000      -8.085846      -220.0271
  74   2.0000      -8.082235      -219.9288
  75   2.0000      -8.078348      -219.8230
  76   2.0000      -8.077593      -219.8025
  77   2.0000      -6.115102      -166.4004
  78   2.0000      -6.107113      -166.1830
  79   2.0000      -6.106924      -166.1778
  80   2.0000      -6.055072      -164.7669
  81   2.0000      -6.051490      -164.6694
  82   2.0000      -6.050740      -164.6490
  83   2.0000      -6.048340      -164.5837
  84   2.0000      -6.047918      -164.5722
  85   2.0000      -6.047234      -164.5536
  86   2.0000      -6.047140      -164.5510
  87   2.0000      -6.044757      -164.4862
  88   2.0000      -6.043116      -164.4415
  89   2.0000      -6.042346      -164.4206
  90   2.0000      -6.040774      -164.3778
  91   2.0000      -6.040085      -164.3591
  92   2.0000      -1.343890       -36.5691
  93   2.0000      -1.338944       -36.4345
  94   2.0000      -1.332566       -36.2610
  95   2.0000      -1.321853       -35.9694
  96   2.0000      -1.316359       -35.8199
  97   2.0000      -1.224919       -33.3317
  98   2.0000      -1.151086       -31.3226
  99   2.0000      -1.137160       -30.9437
 100   2.0000      -1.118341       -30.4316
 101   2.0000      -1.066084       -29.0096
 102   2.0000      -1.042874       -28.3780
 103   2.0000      -1.040591       -28.3159
 104   2.0000      -1.025940       -27.9172
 105   2.0000      -1.020030       -27.7564
 106   2.0000      -1.017509       -27.6878
 107   2.0000      -1.015806       -27.6415
 108   2.0000      -1.009268       -27.4636
 109   2.0000      -1.006007       -27.3748
 110   2.0000      -1.005224       -27.3535
 111   2.0000      -1.002399       -27.2767
 112   2.0000      -0.999673       -27.2025
 113   2.0000      -0.990474       -26.9522
 114   2.0000      -0.981629       -26.7115
 115   2.0000      -0.971907       -26.4469
 116   2.0000      -0.957920       -26.0663
 117   2.0000      -0.953654       -25.9502
 118   2.0000      -0.930471       -25.3194
 119   2.0000      -0.921726       -25.0814
 120   2.0000      -0.920240       -25.0410
 121   2.0000      -0.909546       -24.7500
 122   2.0000      -0.894506       -24.3407
 123   2.0000      -0.883587       -24.0436
 124   2.0000      -0.880831       -23.9686
 125   2.0000      -0.870728       -23.6937
 126   2.0000      -0.866102       -23.5678
 127   2.0000      -0.864372       -23.5208
 128   2.0000      -0.854853       -23.2617
 129   2.0000      -0.852842       -23.2070
 130   2.0000      -0.851489       -23.1702
 131   2.0000      -0.845918       -23.0186
 132   2.0000      -0.827707       -22.5230
 133   2.0000      -0.819314       -22.2947
 134   2.0000      -0.812329       -22.1046
 135   2.0000      -0.791459       -21.5367
 136   2.0000      -0.781321       -21.2608
 137   2.0000      -0.775973       -21.1153
 138   2.0000      -0.768478       -20.9113
 139   2.0000      -0.754237       -20.5238
 140   2.0000      -0.751851       -20.4589
 141   2.0000      -0.748464       -20.3667
 142   2.0000      -0.733647       -19.9635
 143   2.0000      -0.726646       -19.7731
 144   2.0000      -0.717477       -19.5236
 145   2.0000      -0.708914       -19.2905
 146   2.0000      -0.703103       -19.1324
 147   2.0000      -0.700256       -19.0549
 148   2.0000      -0.695800       -18.9337
 149   2.0000      -0.693956       -18.8835
 150   2.0000      -0.691148       -18.8071
 151   2.0000      -0.684311       -18.6210
 152   2.0000      -0.681178       -18.5358
 153   2.0000      -0.675561       -18.3829
 154   2.0000      -0.668464       -18.1898
 155   2.0000      -0.664978       -18.0950
 156   2.0000      -0.656724       -17.8704
 157   2.0000      -0.653720       -17.7886
 158   2.0000      -0.647040       -17.6069
 159   2.0000      -0.636178       -17.3113
 160   2.0000      -0.634610       -17.2686
 161   2.0000      -0.632777       -17.2187
 162   2.0000      -0.630276       -17.1507
 163   2.0000      -0.627510       -17.0754
 164   2.0000      -0.621974       -16.9248
 165   2.0000      -0.620122       -16.8744
 166   2.0000      -0.614177       -16.7126
 167   2.0000      -0.612622       -16.6703
 168   2.0000      -0.610183       -16.6039
 169   2.0000      -0.603408       -16.4196
 170   2.0000      -0.598726       -16.2922
 171   2.0000      -0.593845       -16.1594
 172   2.0000      -0.592880       -16.1331
 173   2.0000      -0.590435       -16.0666
 174   2.0000      -0.585233       -15.9250
 175   2.0000      -0.580997       -15.8097
 176   2.0000      -0.575017       -15.6470
 177   2.0000      -0.569606       -15.4998
 178   2.0000      -0.567395       -15.4396
 179   2.0000      -0.558594       -15.2001
 180   2.0000      -0.557030       -15.1576
 181   2.0000      -0.551663       -15.0115
 182   2.0000      -0.550836       -14.9890
 183   2.0000      -0.547505       -14.8984
 184   2.0000      -0.544886       -14.8271
 185   2.0000      -0.542656       -14.7664
 186   2.0000      -0.536804       -14.6072
 187   2.0000      -0.533548       -14.5186
 188   2.0000      -0.529103       -14.3976
 189   2.0000      -0.526888       -14.3374
 190   2.0000      -0.526286       -14.3210
 191   2.0000      -0.523125       -14.2349
 192   2.0000      -0.521230       -14.1834
 193   2.0000      -0.515881       -14.0378
 194   2.0000      -0.514862       -14.0101
 195   2.0000      -0.510211       -13.8835
 196   2.0000      -0.509510       -13.8645
 197   2.0000      -0.504116       -13.7177
 198   2.0000      -0.503698       -13.7063
 199   2.0000      -0.501932       -13.6583
 200   2.0000      -0.499065       -13.5802
 201   2.0000      -0.496353       -13.5064
 202   2.0000      -0.494558       -13.4576
 203   2.0000      -0.493447       -13.4274
 204   2.0000      -0.492594       -13.4042
 205   2.0000      -0.491315       -13.3694
 206   2.0000      -0.486152       -13.2289
 207   2.0000      -0.485986       -13.2243
 208   2.0000      -0.481179       -13.0936
 209   2.0000      -0.477460       -12.9924
 210   2.0000      -0.476615       -12.9694
 211   2.0000      -0.474175       -12.9030
 212   2.0000      -0.471911       -12.8414
 213   2.0000      -0.470347       -12.7988
 214   2.0000      -0.467923       -12.7328
 215   2.0000      -0.466330       -12.6895
 216   2.0000      -0.464326       -12.6349
 217   2.0000      -0.460081       -12.5194
 218   2.0000      -0.459153       -12.4942
 219   2.0000      -0.457893       -12.4599
 220   2.0000      -0.457179       -12.4405
 221   2.0000      -0.455173       -12.3859
 222   2.0000      -0.454544       -12.3688
 223   2.0000      -0.453513       -12.3407
 224   2.0000      -0.451918       -12.2973
 225   2.0000      -0.450533       -12.2596
 226   2.0000      -0.444861       -12.1053
 227   2.0000      -0.440816       -11.9952
 228   2.0000      -0.439211       -11.9515
 229   2.0000      -0.438136       -11.9223
 230   2.0000      -0.437865       -11.9149
 231   2.0000      -0.436453       -11.8765
 232   2.0000      -0.435196       -11.8423
 233   2.0000      -0.433896       -11.8069
 234   2.0000      -0.433118       -11.7857
 235   2.0000      -0.429651       -11.6914
 236   2.0000      -0.427475       -11.6322
 237   2.0000      -0.425087       -11.5672
 238   2.0000      -0.422479       -11.4962
 239   2.0000      -0.416393       -11.3306
 240   2.0000      -0.408165       -11.1067
 241   2.0000      -0.406106       -11.0507
 242   2.0000      -0.394950       -10.7471
 243   2.0000      -0.386470       -10.5164
 244   2.0000      -0.385063       -10.4781
 245   2.0000      -0.380264       -10.3475
 246   2.0000      -0.360631        -9.8133
 247   2.0000      -0.360041        -9.7972
 248   2.0000      -0.358471        -9.7545
 249   2.0000      -0.346393        -9.4258
 250   2.0000      -0.345465        -9.4006
 251   2.0000      -0.344684        -9.3793
 252   2.0000      -0.338896        -9.2218
 253   2.0000      -0.333574        -9.0770
 254   2.0000      -0.330428        -8.9914
 255   2.0000      -0.325074        -8.8457
 256   2.0000      -0.319448        -8.6926
 257   2.0000      -0.317208        -8.6317
 258   2.0000      -0.305186        -8.3045
 259   2.0000      -0.276100        -7.5131
 260   2.0000      -0.239724        -6.5232
 261   0.0000      -0.137329        -3.7369
 262   0.0000      -0.101217        -2.7542
 263   0.0000      -0.097051        -2.6409
 264   0.0000      -0.063974        -1.7408
 265   0.0000      -0.050267        -1.3678

MULLIKEN ATOMIC CHARGES
-----------------------
   0 C :    0.176246
   1 F :   -0.155210
   2 C :    0.135448
   3 F :   -0.149616
   4 C :    0.174296
   5 F :   -0.156463
   6 C :    0.138452
   7 F :   -0.166320
   8 C :    0.020429
   9 C :    0.149579
  10 F :   -0.158680
  11 C :   -0.105826
  12 C :   -0.030684
  13 C :    0.004317
  14 C :   -0.106097
  15 S :    0.218363
  16 C :   -0.064098
  17 C :    0.036649
  18 C :    0.309856
  19 C :   -0.306056
  20 C :   -0.184583
  21 N :    0.169933
  22 C :   -0.194340
  23 N :    0.179508
  24 C :   -0.068653
  25 C :   -0.172279
  26 S :    0.202006
  27 C :    0.187548
  28 C :   -0.061769
  29 C :   -0.068622
  30 N :    0.001538
  31 C :   -0.106214
  32 C :   -0.100130
  33 N :   -0.001040
  34 C :   -0.245087
  35 N :    0.253843
  36 C :   -0.243756
  37 N :    0.246751
  38 C :    0.199833
  39 C :   -0.017067
  40 C :   -0.012242
  41 N :   -0.284603
  42 S :    0.584994
  43 N :   -0.281229
  44 C :   -0.180390
  45 C :   -0.063137
  46 C :    0.032849
  47 C :   -0.049837
  48 S :    0.199322
  49 C :   -0.108364
  50 C :    0.015164
  51 C :    0.307887
  52 C :   -0.304668
  53 C :   -0.191922
  54 N :    0.182747
  55 C :   -0.187750
  56 N :    0.171215
  57 C :    0.001538
  58 C :   -0.139865
  59 S :    0.161028
  60 C :   -0.000364
  61 C :   -0.054525
  62 O :   -0.197539
  63 C :    0.177222
  64 C :   -0.031762
  65 C :    0.041866
  66 C :    0.041427
  67 C :   -0.006391
  68 C :   -0.057709
  69 C :    0.164646
  70 O :   -0.183281
  71 C :    0.087448
  72 H :    0.016249
  73 H :    0.020256
  74 H :    0.022194
  75 H :    0.023541
  76 H :   -0.013597
  77 H :   -0.000006
  78 H :   -0.004773
  79 H :    0.004951
  80 H :    0.060304
  81 H :    0.053862
  82 H :    0.041241
Sum of atomic charges:   -0.0000000

LOEWDIN ATOMIC CHARGES
----------------------
   0 C :    0.030580
   1 F :   -0.033995
   2 C :    0.039206
   3 F :   -0.029216
   4 C :    0.029631
   5 F :   -0.034923
   6 C :    0.054495
   7 F :   -0.043434
   8 C :   -0.086557
   9 C :    0.066296
  10 F :   -0.030896
  11 C :   -0.171649
  12 C :   -0.018504
  13 C :   -0.070749
  14 C :   -0.179128
  15 S :    0.499780
  16 C :   -0.180807
  17 C :   -0.072951
  18 C :    0.081479
  19 C :   -0.103549
  20 C :   -0.016004
  21 N :   -0.034439
  22 C :   -0.018654
  23 N :   -0.031376
  24 C :   -0.011001
  25 C :   -0.167007
  26 S :    0.507844
  27 C :   -0.046030
  28 C :   -0.014493
  29 C :   -0.018972
  30 N :   -0.014164
  31 C :   -0.028504
  32 C :   -0.020511
  33 N :   -0.018458
  34 C :   -0.038985
  35 N :    0.000802
  36 C :   -0.039476
  37 N :   -0.004054
  38 C :   -0.031030
  39 C :   -0.039491
  40 C :   -0.035053
  41 N :   -0.272377
  42 S :    0.703913
  43 N :   -0.268472
  44 C :   -0.173267
  45 C :   -0.000813
  46 C :   -0.077549
  47 C :   -0.165741
  48 S :    0.504721
  49 C :   -0.191962
  50 C :   -0.059619
  51 C :    0.079587
  52 C :   -0.100050
  53 C :   -0.019460
  54 N :   -0.025944
  55 C :   -0.015396
  56 N :   -0.035584
  57 C :   -0.013224
  58 C :   -0.149701
  59 S :    0.482052
  60 C :   -0.138530
  61 C :    0.086719
  62 O :    0.004079
  63 C :    0.062300
  64 C :   -0.038026
  65 C :    0.003240
  66 C :   -0.026202
  67 C :    0.024976
  68 C :   -0.085702
  69 C :    0.077379
  70 O :   -0.170011
  71 C :   -0.063570
  72 H :    0.039621
  73 H :    0.037689
  74 H :    0.038706
  75 H :    0.044163
  76 H :    0.036750
  77 H :    0.034910
  78 H :    0.032939
  79 H :    0.040805
  80 H :    0.043916
  81 H :    0.041525
  82 H :    0.045154

  Mayer bond orders larger than 0.100000
B(  0-C ,  1-F ) :   1.1707 B(  0-C ,  2-C ) :   1.2732 B(  0-C ,  9-C ) :   1.2969
B(  2-C ,  3-F ) :   1.1860 B(  2-C ,  4-C ) :   1.2738 B(  2-C ,  8-C ) :   0.1051
B(  4-C ,  5-F ) :   1.1721 B(  4-C ,  6-C ) :   1.2996 B(  6-C ,  7-F ) :   1.1469
B(  6-C ,  8-C ) :   1.2894 B(  8-C ,  9-C ) :   1.2988 B(  8-C , 11-C ) :   1.0721
B(  9-C , 10-F ) :   1.1514 B( 11-C , 12-C ) :   1.4833 B( 11-C , 15-S ) :   1.1073
B( 12-C , 13-C ) :   1.2928 B( 12-C , 72-H ) :   0.9926 B( 13-C , 14-C ) :   1.4227
B( 13-C , 18-C ) :   0.9936 B( 14-C , 15-S ) :   1.1296 B( 14-C , 16-C ) :   1.1951
B( 16-C , 17-C ) :   1.4156 B( 16-C , 26-S ) :   1.0855 B( 17-C , 18-C ) :   0.9890
B( 17-C , 24-C ) :   1.2734 B( 18-C , 19-C ) :   1.7118 B( 19-C , 20-C ) :   1.1377
B( 19-C , 22-C ) :   1.1336 B( 20-C , 21-N ) :   2.9855 B( 22-C , 23-N ) :   2.9958
B( 24-C , 25-C ) :   1.4186 B( 24-C , 73-H ) :   0.9818 B( 25-C , 26-S ) :   1.0887
B( 25-C , 27-C ) :   1.1998 B( 27-C , 28-C ) :   1.2657 B( 27-C , 38-C ) :   0.1191
B( 27-C , 40-C ) :   1.1938 B( 28-C , 29-C ) :   1.1005 B( 28-C , 33-N ) :   1.3980
B( 29-C , 30-N ) :   1.4192 B( 29-C , 38-C ) :   1.2370 B( 30-N , 31-C ) :   1.6841
B( 31-C , 32-C ) :   1.2212 B( 31-C , 36-C ) :   1.1681 B( 32-C , 33-N ) :   1.6999
B( 32-C , 34-C ) :   1.1677 B( 34-C , 35-N ) :   3.0410 B( 36-C , 37-N ) :   3.0386
B( 38-C , 39-C ) :   1.1887 B( 38-C , 44-C ) :   1.2374 B( 39-C , 40-C ) :   1.0981
B( 39-C , 43-N ) :   1.5213 B( 40-C , 41-N ) :   1.5196 B( 41-N , 42-S ) :   1.2803
B( 41-N , 43-N ) :   0.1456 B( 42-S , 43-N ) :   1.2867 B( 44-C , 45-C ) :   1.3904
B( 44-C , 48-S ) :   1.0720 B( 45-C , 46-C ) :   1.2933 B( 45-C , 74-H ) :   0.9814
B( 46-C , 47-C ) :   1.3883 B( 46-C , 51-C ) :   0.9879 B( 47-C , 48-S ) :   1.0945
B( 47-C , 49-C ) :   1.2044 B( 49-C , 50-C ) :   1.4169 B( 49-C , 59-S ) :   1.1164
B( 50-C , 51-C ) :   0.9889 B( 50-C , 57-C ) :   1.2766 B( 51-C , 52-C ) :   1.7146
B( 52-C , 53-C ) :   1.1344 B( 52-C , 55-C ) :   1.1390 B( 53-C , 54-N ) :   2.9968
B( 55-C , 56-N ) :   2.9861 B( 57-C , 58-C ) :   1.4978 B( 57-C , 75-H ) :   0.9926
B( 58-C , 59-S ) :   1.1149 B( 58-C , 60-C ) :   1.0187 B( 60-C , 61-C ) :   1.5425
B( 60-C , 69-C ) :   1.0056 B( 61-C , 62-O ) :   1.1592 B( 61-C , 71-C ) :   1.1139
B( 62-O , 63-C ) :   1.0766 B( 63-C , 64-C ) :   1.3532 B( 63-C , 68-C ) :   1.3341
B( 64-C , 65-C ) :   1.4131 B( 64-C , 76-H ) :   0.9951 B( 65-C , 66-C ) :   1.3275
B( 65-C , 77-H ) :   0.9901 B( 66-C , 67-C ) :   1.4000 B( 66-C , 78-H ) :   0.9947
B( 67-C , 68-C ) :   1.3376 B( 67-C , 79-H ) :   0.9984 B( 68-C , 69-C ) :   0.9839
B( 69-C , 70-O ) :   2.1641 B( 71-C , 80-H ) :   0.9365 B( 71-C , 81-H ) :   0.9433
B( 71-C , 82-H ) :   0.9336

-----------------------------------------------------------------------------
         ABSORPTION SPECTRUM VIA TRANSITION ELECTRIC DIPOLE MOMENTS
-----------------------------------------------------------------------------
State   Energy  Wavelength   fosc         T2         TX        TY        TZ
        (cm-1)    (nm)                  (au**2)     (au)      (au)      (au)
-----------------------------------------------------------------------------
   0    6921.5   1444.8   0.478422535  22.75562  -0.91131  -4.57483  -0.99805
   1   13328.3    750.3   0.001248530   0.03084  -0.05343   0.13065   0.10447
   2   13789.5    725.2   0.032931316   0.78621  -0.21398  -0.84843  -0.14346
   3   16277.1    614.4   0.004974166   0.10060  -0.11023  -0.28831  -0.07301
   4   22011.1    454.3   0.046758738   0.69935   0.35113   0.12854  -0.74802
   5   22207.6    450.3   0.264200025   3.91659  -0.49193  -1.89911  -0.26074
   6   23386.5    427.6   0.105241331   1.48149  -0.03838  -1.09383  -0.53250
   7   23441.6    426.6   0.224828187   3.15747  -0.44594  -1.71481  -0.13429
   8   23982.1    417.0   0.011462529   0.15735   0.17362   0.03799  -0.35463
   9   24621.9    406.1   0.012624665   0.16880   0.00925  -0.28396  -0.29678
  10   25020.3    399.7   0.057648875   0.75853   0.22464   0.83317   0.11790
  11   25291.6    395.4   0.001117524   0.01455  -0.11863   0.01565  -0.01513
  12   27965.7    357.6   0.052592586   0.61912   0.43028   0.09713  -0.65157
  13   28661.6    348.9   1.143776169  13.13760  -0.72543  -3.46610  -0.77301
  14   28940.8    345.5   0.311279249   3.54092  -0.29560  -1.80417  -0.44554
  15   30146.1    331.7   0.301004273   3.28713  -0.09146   1.42533   1.11678
  16   30291.5    330.1   0.070400155   0.76512  -0.08560  -0.81184  -0.31416
  17   30720.6    325.5   0.088627847   0.94976   0.01005   0.74446   0.62884
  18   30996.4    322.6   0.001655969   0.01759  -0.04087   0.04480   0.11794
  19   31091.6    321.6   0.013760910   0.14571   0.18003   0.06354  -0.33054
  20   31410.4    318.4   0.008733758   0.09154   0.00327   0.28525   0.10079
  21   31896.1    313.5   0.064770220   0.66852   0.30964   0.28258  -0.70199
  22   32082.6    311.7   0.267245691   2.74231   0.65856   1.00405  -1.14039
  23   32331.1    309.3   0.112941619   1.15003   0.42092   0.09388  -0.98186
  24   32389.4    308.7   1.270633844  12.91496  -1.74215  -0.73779   3.05541
  25   32605.5    306.7   0.164326417   1.65917   0.38903  -0.08180  -1.22521
  26   33017.3    302.9   0.117286737   1.16945   0.63914   0.38704  -0.78176
  27   33205.4    301.2   0.007349437   0.07287   0.10326  -0.07998   0.23623
  28   33728.6    296.5   0.023920301   0.23348  -0.13210  -0.36068  -0.29315
  29   33740.3    296.4   0.013243979   0.12922   0.28635   0.20457  -0.07333
  30   33977.8    294.3   0.223912371   2.16949  -0.34408   0.85505   1.14891
  31   34081.3    293.4   0.043627272   0.42142  -0.27269  -0.38867   0.44271
  32   34721.9    288.0   0.281037186   2.66462  -0.28775   0.95849   1.28962
  33   35186.6    284.2   0.011998353   0.11226  -0.00511   0.15481   0.29710
  34   35275.3    283.5   0.065958225   0.61556   0.26491   0.73574   0.06379
  35   36173.8    276.4   0.047798438   0.43501   0.25825   0.36302  -0.48634
  36   36701.3    272.5   0.192022398   1.72245   0.47196   1.21110   0.18147
  37   36778.3    271.9   0.007731649   0.06921  -0.15394  -0.19669   0.08259
  38   36910.3    270.9   0.029032062   0.25894  -0.10959  -0.43831  -0.23413
  39   37381.3    267.5   0.108582644   0.95627   0.51500   0.21220  -0.80375
  40   38040.0    262.9   0.017404922   0.15063  -0.22386  -0.11024   0.29726
  41   38247.9    261.5   0.127316555   1.09585  -0.35733   0.26360   0.94799
  42   38635.9    258.8   0.101985915   0.86901  -0.20599   0.43776   0.79684
  43   38822.3    257.6   0.001362845   0.01156   0.03278   0.04113  -0.09376
  44   38988.8    256.5   0.056107733   0.47376   0.40699   0.15710  -0.53239
  45   39531.4    253.0   0.138198491   1.15090   0.52360   0.42708  -0.83327
  46   39848.4    251.0   0.121426145   1.00317  -0.46703  -0.37138   0.80445
  47   40097.4    249.4   0.005075499   0.04167   0.19148  -0.05965   0.03805

FINAL SINGLE POINT ENERGY     -5095.500781781259

DIPOLE MOMENT
-------------
                                X             Y             Z
Electronic contribution:     26.87080     131.40046      33.40011
Nuclear contribution   :    -28.07334    -134.31922     -31.79009
                        -----------------------------------------
Total Dipole Moment    :     -1.20254      -2.91876       1.61003
                        -----------------------------------------
Magnitude (a.u.)       :      3.54365
Magnitude (Debye)      :      9.00725

Rotational constants in cm-1:     0.002411     0.000240     0.000220
Rotational constants in MHz :    72.277299     7.189338     6.583468

                             ****ORCA TERMINATED NORMALLY****
TOTAL RUN TIME: 0 days 0 hours 9 minutes 9 seconds 485 msec
