                         Program Version 4.2.0 -  RELEASE  -
|  1> # ORCA input file
|  2> # SCF done       -200.543646687144          0.000520671701
|  3> ! CAM-B3LYP def2-SVP def2/J RIJCOSX Grid4 TightSCF
|  4> %maxcore 5000
|  5> %tddft
|  6>     Mode sTDDFT
|  7>     Ethresh 5.0
|  8>     maxcore 5000
|  9> end
| 10>
| 11> %pal
| 12>   nprocs 6
| 13>   end
| 14> * xyz 0 1
| 15>    C       -3.69506        -1.06744        -0.54691
| 16>    F       -4.97008        -0.96323        -0.92931
| 17>    C       -3.11288        -0.05730         0.21412
| 18>    F       -3.82015         1.02110         0.55319
| 19>    C       -1.79016        -0.18768         0.62714
| 20>    F       -1.22504         0.77099         1.36406
| 21>    C       -1.06293        -1.31597         0.26907
| 22>    F        0.21006        -1.41231         0.66859
| 23>    C       -1.61560        -2.33636        -0.50896
| 24>    C       -2.95144        -2.18724        -0.89354
| 25>    F       -3.55142        -3.16270        -1.58923
| 26>    C       -0.84207        -3.51988        -0.85938
| 27>    C       -0.11568        -4.27628         0.01076
| 28>    C        0.39136        -5.43007        -0.70026
| 29>    C        1.20066        -6.42235        -0.13532
| 30>    N        1.84921        -7.24611         0.33342
| 31>    C       -0.05988        -5.38484        -1.99316
| 32>    C       -0.83524        -4.18616        -2.15917
| 33>    C       -1.31610        -3.68466        -3.35226
| 34>    C       -1.53652        -4.44750        -4.60785
| 35>    C       -1.69575        -3.53110        -5.61559
| 36>    C       -1.65741        -2.21658        -5.04473
| 37>    C       -1.47639        -2.31337        -3.67798
| 38>    C       -1.78121        -1.02776        -5.77527
| 39>    N       -1.88280        -0.05821        -6.38178
| 40>    C       -1.70794        -5.84844        -4.73432
| 41>    C       -2.07020        -6.68227        -3.72421
| 42>    C       -2.18490        -8.10789        -3.79213
| 43>    C       -1.77244        -8.84806        -4.88932
| 44>    C       -1.84701       -10.24655        -4.86386
| 45>    C       -1.46549       -11.19796        -5.81368
| 46>    C       -0.83589       -10.91068        -7.12844
| 47>    C        0.61621       -11.43948        -7.17072
| 48>    N        1.36870       -10.65360        -8.11851
| 49>    C       -1.65981       -11.44372        -8.31628
| 50>    N       -1.11918       -10.93212        -9.56295
| 51>    C       -1.70667       -12.49256        -5.22211
| 52>    C       -1.48357       -13.74507        -5.66956
| 53>    C       -1.70975       -14.93729        -4.81003
| 54>    C       -2.32242       -14.63899        -3.47717
| 55>    C       -2.58729       -13.38721        -3.06004
| 56>    C       -2.26802       -12.27999        -3.88027
| 57>    C       -2.35648       -10.91521        -3.67829
| 58>    C       -2.79411       -10.14251        -2.57960
| 59>    C       -2.70553        -8.78955        -2.64243
| 60>    C       -2.52574       -16.01308        -5.49087
| 61>    C       -3.61769       -15.76858        -6.21609
| 62>    C       -4.43333       -16.81806        -6.78171
| 63>    C       -4.61588       -18.05782        -6.25311
| 64>    C       -5.58274       -18.77528        -7.06218
| 65>    C       -5.98312       -20.09569        -6.82679
| 66>    N       -6.31589       -21.17479        -6.61755
| 67>    C       -6.02245       -17.95153        -8.06100
| 68>    C       -5.31474       -16.70283        -7.95843
| 69>    C       -5.36678       -15.67149        -8.86275
| 70>    C       -6.37818       -15.46874        -9.92763
| 71>    C       -5.92874       -14.46432       -10.73113
| 72>    C       -4.66345       -13.99181       -10.21569
| 73>    C       -4.35054       -14.68300        -9.07278
| 74>    C       -3.89213       -12.98538       -10.80225
| 75>    N       -3.25314       -12.15651       -11.27770
| 76>    C       -7.64666       -16.13280       -10.00324
| 77>    C       -8.34690       -16.23629       -11.14954
| 78>    C       -9.60887       -16.89340       -11.38894
| 79>    C      -10.58912       -17.12012       -10.46488
| 80>    O      -11.73926       -17.75622       -10.74644
| 81>    C      -11.97280       -18.23371       -11.99342
| 82>    C      -13.16254       -18.92880       -12.21090
| 83>    C      -13.44041       -19.41745       -13.46878
| 84>    C      -12.54718       -19.22050       -14.51939
| 85>    C      -11.37478       -18.53269       -14.30578
| 86>    C      -11.06934       -18.03087       -13.03805
| 87>    C       -9.82107       -17.29617       -12.79629
| 88>    O       -9.02546       -17.04265       -13.68432
| 89>    C      -10.57542       -16.66267        -9.04153
| 90>    H        0.04878        -4.08526         1.05454
| 91>    H        0.21125        -6.06098        -2.78025
| 92>    H       -1.88258        -3.73851        -6.65248
| 93>    H       -1.34069        -1.48521        -3.00832
| 94>    H       -1.61140        -6.23225        -5.74200
| 95>    H       -2.31271        -6.24322        -2.76519
| 96>    H       -1.36873        -8.35429        -5.75962
| 97>    H       -0.76227        -9.82554        -7.24747
| 98>    H        0.59739       -12.51751        -7.40111
| 99>    H        1.07334       -11.31668        -6.18202
|100>    H        0.92768       -10.72798        -9.03213
|101>    H        2.33137       -10.96217        -8.17645
|102>    H       -2.71947       -11.17630        -8.15630
|103>    H       -1.59971       -12.53455        -8.35585
|104>    H       -1.26840        -9.92894        -9.61772
|105>    H       -1.60810       -11.34938       -10.35172
|106>    H       -1.09306       -13.94115        -6.65782
|107>    H       -0.71118       -15.36762        -4.62612
|108>    H       -2.54912       -15.49482        -2.86010
|109>    H       -3.02868       -13.21081        -2.09019
|110>    H       -3.18121       -10.63402        -1.69967
|111>    H       -3.02550        -8.18656        -1.80521
|112>    H       -2.20456       -17.03082        -5.32507
|113>    H       -3.93621       -14.74785        -6.38243
|114>    H       -4.16633       -18.46095        -5.36528
|115>    H       -6.68173       -18.23154        -8.85913
|116>    H       -6.42307       -14.04158       -11.58455
|117>    H       -3.44259       -14.58756        -8.51040
|118>    H       -8.01194       -16.56569        -9.08614
|119>    H       -7.89104       -15.87900       -12.06478
|120>    H      -13.84257       -19.07021       -11.38580
|121>    H      -14.35948       -19.95711       -13.63926
|122>    H      -12.77774       -19.60880       -15.49935
|123>    H      -10.66168       -18.36219       -15.09791
|124>    H      -10.09606       -15.69128        -8.95328
|125>    H      -10.04681       -17.37777        -8.41160
|126>    H      -11.60164       -16.60095        -8.68560
|127> *
|128>
|129>                          ****END OF INPUT****

CARTESIAN COORDINATES (ANGSTROEM)
---------------------------------
  C     -3.695060   -1.067440   -0.546910
  F     -4.970080   -0.963230   -0.929310
  C     -3.112880   -0.057300    0.214120
  F     -3.820150    1.021100    0.553190
  C     -1.790160   -0.187680    0.627140
  F     -1.225040    0.770990    1.364060
  C     -1.062930   -1.315970    0.269070
  F      0.210060   -1.412310    0.668590
  C     -1.615600   -2.336360   -0.508960
  C     -2.951440   -2.187240   -0.893540
  F     -3.551420   -3.162700   -1.589230
  C     -0.842070   -3.519880   -0.859380
  C     -0.115680   -4.276280    0.010760
  C      0.391360   -5.430070   -0.700260
  C      1.200660   -6.422350   -0.135320
  N      1.849210   -7.246110    0.333420
  C     -0.059880   -5.384840   -1.993160
  C     -0.835240   -4.186160   -2.159170
  C     -1.316100   -3.684660   -3.352260
  C     -1.536520   -4.447500   -4.607850
  C     -1.695750   -3.531100   -5.615590
  C     -1.657410   -2.216580   -5.044730
  C     -1.476390   -2.313370   -3.677980
  C     -1.781210   -1.027760   -5.775270
  N     -1.882800   -0.058210   -6.381780
  C     -1.707940   -5.848440   -4.734320
  C     -2.070200   -6.682270   -3.724210
  C     -2.184900   -8.107890   -3.792130
  C     -1.772440   -8.848060   -4.889320
  C     -1.847010  -10.246550   -4.863860
  C     -1.465490  -11.197960   -5.813680
  C     -0.835890  -10.910680   -7.128440
  C      0.616210  -11.439480   -7.170720
  N      1.368700  -10.653600   -8.118510
  C     -1.659810  -11.443720   -8.316280
  N     -1.119180  -10.932120   -9.562950
  C     -1.706670  -12.492560   -5.222110
  C     -1.483570  -13.745070   -5.669560
  C     -1.709750  -14.937290   -4.810030
  C     -2.322420  -14.638990   -3.477170
  C     -2.587290  -13.387210   -3.060040
  C     -2.268020  -12.279990   -3.880270
  C     -2.356480  -10.915210   -3.678290
  C     -2.794110  -10.142510   -2.579600
  C     -2.705530   -8.789550   -2.642430
  C     -2.525740  -16.013080   -5.490870
  C     -3.617690  -15.768580   -6.216090
  C     -4.433330  -16.818060   -6.781710
  C     -4.615880  -18.057820   -6.253110
  C     -5.582740  -18.775280   -7.062180
  C     -5.983120  -20.095690   -6.826790
  N     -6.315890  -21.174790   -6.617550
  C     -6.022450  -17.951530   -8.061000
  C     -5.314740  -16.702830   -7.958430
  C     -5.366780  -15.671490   -8.862750
  C     -6.378180  -15.468740   -9.927630
  C     -5.928740  -14.464320  -10.731130
  C     -4.663450  -13.991810  -10.215690
  C     -4.350540  -14.683000   -9.072780
  C     -3.892130  -12.985380  -10.802250
  N     -3.253140  -12.156510  -11.277700
  C     -7.646660  -16.132800  -10.003240
  C     -8.346900  -16.236290  -11.149540
  C     -9.608870  -16.893400  -11.388940
  C    -10.589120  -17.120120  -10.464880
  O    -11.739260  -17.756220  -10.746440
  C    -11.972800  -18.233710  -11.993420
  C    -13.162540  -18.928800  -12.210900
  C    -13.440410  -19.417450  -13.468780
  C    -12.547180  -19.220500  -14.519390
  C    -11.374780  -18.532690  -14.305780
  C    -11.069340  -18.030870  -13.038050
  C     -9.821070  -17.296170  -12.796290
  O     -9.025460  -17.042650  -13.684320
  C    -10.575420  -16.662670   -9.041530
  H      0.048780   -4.085260    1.054540
  H      0.211250   -6.060980   -2.780250
  H     -1.882580   -3.738510   -6.652480
  H     -1.340690   -1.485210   -3.008320
  H     -1.611400   -6.232250   -5.742000
  H     -2.312710   -6.243220   -2.765190
  H     -1.368730   -8.354290   -5.759620
  H     -0.762270   -9.825540   -7.247470
  H      0.597390  -12.517510   -7.401110
  H      1.073340  -11.316680   -6.182020
  H      0.927680  -10.727980   -9.032130
  H      2.331370  -10.962170   -8.176450
  H     -2.719470  -11.176300   -8.156300
  H     -1.599710  -12.534550   -8.355850
  H     -1.268400   -9.928940   -9.617720
  H     -1.608100  -11.349380  -10.351720
  H     -1.093060  -13.941150   -6.657820
  H     -0.711180  -15.367620   -4.626120
  H     -2.549120  -15.494820   -2.860100
  H     -3.028680  -13.210810   -2.090190
  H     -3.181210  -10.634020   -1.699670
  H     -3.025500   -8.186560   -1.805210
  H     -2.204560  -17.030820   -5.325070
  H     -3.936210  -14.747850   -6.382430
  H     -4.166330  -18.460950   -5.365280
  H     -6.681730  -18.231540   -8.859130
  H     -6.423070  -14.041580  -11.584550
  H     -3.442590  -14.587560   -8.510400
  H     -8.011940  -16.565690   -9.086140
  H     -7.891040  -15.879000  -12.064780
  H    -13.842570  -19.070210  -11.385800
  H    -14.359480  -19.957110  -13.639260
  H    -12.777740  -19.608800  -15.499350
  H    -10.661680  -18.362190  -15.097910
  H    -10.096060  -15.691280   -8.953280
  H    -10.046810  -17.377770   -8.411600
  H    -11.601640  -16.600950   -8.685600

 Total Charge           Charge          ....    0
 Multiplicity           Mult            ....    1
 Number of Electrons    NEL             ....  512
 Basis Dimension        Dim             .... 1235

ORBITAL ENERGIES
----------------

  NO   OCC          E(Eh)            E(eV)
   0   2.0000     -24.811488      -675.1549
   1   2.0000     -24.810989      -675.1413
   2   2.0000     -24.808972      -675.0864
   3   2.0000     -24.807625      -675.0498
   4   2.0000     -24.807478      -675.0458
   5   2.0000     -19.308483      -525.4105
   6   2.0000     -19.196073      -522.3517
   7   2.0000     -14.430475      -392.6732
   8   2.0000     -14.420507      -392.4019
   9   2.0000     -14.411975      -392.1698
  10   2.0000     -14.404815      -391.9750
  11   2.0000     -14.373744      -391.1295
  12   2.0000     -14.351479      -390.5236
  13   2.0000     -10.394686      -282.8538
  14   2.0000     -10.391061      -282.7552
  15   2.0000     -10.390921      -282.7513
  16   2.0000     -10.389545      -282.7139
  17   2.0000     -10.389405      -282.7101
  18   2.0000     -10.378006      -282.3999
  19   2.0000     -10.359751      -281.9032
  20   2.0000     -10.358665      -281.8736
  21   2.0000     -10.333189      -281.1804
  22   2.0000     -10.332992      -281.1750
  23   2.0000     -10.332638      -281.1654
  24   2.0000     -10.331330      -281.1298
  25   2.0000     -10.330777      -281.1147
  26   2.0000     -10.324926      -280.9555
  27   2.0000     -10.324272      -280.9377
  28   2.0000     -10.323895      -280.9275
  29   2.0000     -10.322344      -280.8853
  30   2.0000     -10.318635      -280.7843
  31   2.0000     -10.314559      -280.6734
  32   2.0000     -10.310670      -280.5676
  33   2.0000     -10.309511      -280.5361
  34   2.0000     -10.307437      -280.4796
  35   2.0000     -10.306678      -280.4590
  36   2.0000     -10.305766      -280.4342
  37   2.0000     -10.304758      -280.4067
  38   2.0000     -10.304591      -280.4022
  39   2.0000     -10.304206      -280.3917
  40   2.0000     -10.303242      -280.3655
  41   2.0000     -10.302882      -280.3557
  42   2.0000     -10.302584      -280.3476
  43   2.0000     -10.299502      -280.2637
  44   2.0000     -10.299372      -280.2602
  45   2.0000     -10.298930      -280.2481
  46   2.0000     -10.297880      -280.2196
  47   2.0000     -10.295267      -280.1484
  48   2.0000     -10.294362      -280.1238
  49   2.0000     -10.293460      -280.0993
  50   2.0000     -10.291685      -280.0510
  51   2.0000     -10.291154      -280.0365
  52   2.0000     -10.290957      -280.0312
  53   2.0000     -10.290244      -280.0118
  54   2.0000     -10.290232      -280.0115
  55   2.0000     -10.289906      -280.0026
  56   2.0000     -10.289258      -279.9850
  57   2.0000     -10.289009      -279.9782
  58   2.0000     -10.287408      -279.9346
  59   2.0000     -10.284866      -279.8654
  60   2.0000     -10.284354      -279.8515
  61   2.0000     -10.283351      -279.8242
  62   2.0000     -10.283260      -279.8217
  63   2.0000     -10.281686      -279.7789
  64   2.0000     -10.278674      -279.6969
  65   2.0000     -10.276881      -279.6481
  66   2.0000     -10.276126      -279.6276
  67   2.0000     -10.272959      -279.5414
  68   2.0000     -10.272724      -279.5350
  69   2.0000     -10.271073      -279.4901
  70   2.0000     -10.268752      -279.4270
  71   2.0000     -10.268394      -279.4172
  72   2.0000     -10.266537      -279.3667
  73   2.0000     -10.266115      -279.3552
  74   2.0000     -10.262624      -279.2602
  75   2.0000      -1.338571       -36.4244
  76   2.0000      -1.332040       -36.2466
  77   2.0000      -1.326304       -36.0906
  78   2.0000      -1.316657       -35.8281
  79   2.0000      -1.312179       -35.7062
  80   2.0000      -1.222078       -33.2544
  81   2.0000      -1.115344       -30.3501
  82   2.0000      -1.024348       -27.8739
  83   2.0000      -1.016424       -27.6583
  84   2.0000      -1.014938       -27.6179
  85   2.0000      -1.002370       -27.2759
  86   2.0000      -1.001442       -27.2506
  87   2.0000      -0.995293       -27.0833
  88   2.0000      -0.989286       -26.9198
  89   2.0000      -0.987450       -26.8699
  90   2.0000      -0.986224       -26.8365
  91   2.0000      -0.975547       -26.5460
  92   2.0000      -0.971352       -26.4318
  93   2.0000      -0.965252       -26.2658
  94   2.0000      -0.953704       -25.9516
  95   2.0000      -0.937384       -25.5075
  96   2.0000      -0.932783       -25.3823
  97   2.0000      -0.927373       -25.2351
  98   2.0000      -0.901799       -24.5392
  99   2.0000      -0.898602       -24.4522
 100   2.0000      -0.897133       -24.4122
 101   2.0000      -0.890424       -24.2297
 102   2.0000      -0.885905       -24.1067
 103   2.0000      -0.878589       -23.9076
 104   2.0000      -0.875761       -23.8307
 105   2.0000      -0.868746       -23.6398
 106   2.0000      -0.866683       -23.5837
 107   2.0000      -0.856272       -23.3003
 108   2.0000      -0.844096       -22.9690
 109   2.0000      -0.840159       -22.8619
 110   2.0000      -0.830482       -22.5986
 111   2.0000      -0.829286       -22.5660
 112   2.0000      -0.827430       -22.5155
 113   2.0000      -0.816493       -22.2179
 114   2.0000      -0.812676       -22.1140
 115   2.0000      -0.805868       -21.9288
 116   2.0000      -0.799289       -21.7498
 117   2.0000      -0.790118       -21.5002
 118   2.0000      -0.761575       -20.7235
 119   2.0000      -0.760220       -20.6866
 120   2.0000      -0.759296       -20.6615
 121   2.0000      -0.750777       -20.4297
 122   2.0000      -0.750087       -20.4109
 123   2.0000      -0.735462       -20.0130
 124   2.0000      -0.729749       -19.8575
 125   2.0000      -0.721935       -19.6449
 126   2.0000      -0.718965       -19.5640
 127   2.0000      -0.716969       -19.5097
 128   2.0000      -0.706797       -19.2329
 129   2.0000      -0.699744       -19.0410
 130   2.0000      -0.694150       -18.8888
 131   2.0000      -0.689523       -18.7629
 132   2.0000      -0.687212       -18.7000
 133   2.0000      -0.683535       -18.5999
 134   2.0000      -0.678806       -18.4713
 135   2.0000      -0.673344       -18.3226
 136   2.0000      -0.667239       -18.1565
 137   2.0000      -0.665403       -18.1065
 138   2.0000      -0.659200       -17.9377
 139   2.0000      -0.651423       -17.7261
 140   2.0000      -0.646160       -17.5829
 141   2.0000      -0.643577       -17.5126
 142   2.0000      -0.641797       -17.4642
 143   2.0000      -0.634593       -17.2681
 144   2.0000      -0.633967       -17.2511
 145   2.0000      -0.630552       -17.1582
 146   2.0000      -0.627049       -17.0629
 147   2.0000      -0.621156       -16.9025
 148   2.0000      -0.616803       -16.7841
 149   2.0000      -0.609836       -16.5945
 150   2.0000      -0.607558       -16.5325
 151   2.0000      -0.604474       -16.4486
 152   2.0000      -0.603921       -16.4335
 153   2.0000      -0.601323       -16.3628
 154   2.0000      -0.598010       -16.2727
 155   2.0000      -0.595111       -16.1938
 156   2.0000      -0.584967       -15.9178
 157   2.0000      -0.583845       -15.8872
 158   2.0000      -0.583371       -15.8743
 159   2.0000      -0.578522       -15.7424
 160   2.0000      -0.573510       -15.6060
 161   2.0000      -0.568123       -15.4594
 162   2.0000      -0.563966       -15.3463
 163   2.0000      -0.558361       -15.1938
 164   2.0000      -0.558162       -15.1884
 165   2.0000      -0.553921       -15.0730
 166   2.0000      -0.547638       -14.9020
 167   2.0000      -0.544746       -14.8233
 168   2.0000      -0.543894       -14.8001
 169   2.0000      -0.538930       -14.6650
 170   2.0000      -0.537984       -14.6393
 171   2.0000      -0.533180       -14.5086
 172   2.0000      -0.531132       -14.4528
 173   2.0000      -0.530518       -14.4361
 174   2.0000      -0.528660       -14.3856
 175   2.0000      -0.527082       -14.3426
 176   2.0000      -0.526357       -14.3229
 177   2.0000      -0.524819       -14.2811
 178   2.0000      -0.523756       -14.2521
 179   2.0000      -0.521754       -14.1976
 180   2.0000      -0.518821       -14.1178
 181   2.0000      -0.517864       -14.0918
 182   2.0000      -0.515574       -14.0295
 183   2.0000      -0.514275       -13.9941
 184   2.0000      -0.512841       -13.9551
 185   2.0000      -0.511126       -13.9084
 186   2.0000      -0.510315       -13.8864
 187   2.0000      -0.509377       -13.8609
 188   2.0000      -0.506131       -13.7725
 189   2.0000      -0.504130       -13.7181
 190   2.0000      -0.501967       -13.6592
 191   2.0000      -0.501258       -13.6399
 192   2.0000      -0.499500       -13.5921
 193   2.0000      -0.498386       -13.5618
 194   2.0000      -0.497450       -13.5363
 195   2.0000      -0.494779       -13.4636
 196   2.0000      -0.494010       -13.4427
 197   2.0000      -0.491099       -13.3635
 198   2.0000      -0.489097       -13.3090
 199   2.0000      -0.487338       -13.2611
 200   2.0000      -0.486348       -13.2342
 201   2.0000      -0.483254       -13.1500
 202   2.0000      -0.479668       -13.0524
 203   2.0000      -0.478064       -13.0088
 204   2.0000      -0.471674       -12.8349
 205   2.0000      -0.470810       -12.8114
 206   2.0000      -0.466741       -12.7007
 207   2.0000      -0.464510       -12.6399
 208   2.0000      -0.461838       -12.5673
 209   2.0000      -0.458054       -12.4643
 210   2.0000      -0.455524       -12.3955
 211   2.0000      -0.453883       -12.3508
 212   2.0000      -0.453062       -12.3285
 213   2.0000      -0.452180       -12.3044
 214   2.0000      -0.450081       -12.2473
 215   2.0000      -0.447933       -12.1889
 216   2.0000      -0.445456       -12.1215
 217   2.0000      -0.442537       -12.0420
 218   2.0000      -0.441504       -12.0139
 219   2.0000      -0.439250       -11.9526
 220   2.0000      -0.436688       -11.8829
 221   2.0000      -0.436079       -11.8663
 222   2.0000      -0.433748       -11.8029
 223   2.0000      -0.432763       -11.7761
 224   2.0000      -0.429698       -11.6927
 225   2.0000      -0.425409       -11.5760
 226   2.0000      -0.425374       -11.5750
 227   2.0000      -0.417994       -11.3742
 228   2.0000      -0.413421       -11.2498
 229   2.0000      -0.411701       -11.2030
 230   2.0000      -0.409566       -11.1449
 231   2.0000      -0.408945       -11.1279
 232   2.0000      -0.405229       -11.0268
 233   2.0000      -0.399172       -10.8620
 234   2.0000      -0.397365       -10.8129
 235   2.0000      -0.389561       -10.6005
 236   2.0000      -0.383142       -10.4258
 237   2.0000      -0.374537       -10.1917
 238   2.0000      -0.366945        -9.9851
 239   2.0000      -0.351903        -9.5758
 240   2.0000      -0.350710        -9.5433
 241   2.0000      -0.339309        -9.2331
 242   2.0000      -0.337676        -9.1886
 243   2.0000      -0.335372        -9.1259
 244   2.0000      -0.330673        -8.9981
 245   2.0000      -0.329876        -8.9764
 246   2.0000      -0.327585        -8.9141
 247   2.0000      -0.320925        -8.7328
 248   2.0000      -0.317493        -8.6394
 249   2.0000      -0.301599        -8.2069
 250   2.0000      -0.298449        -8.1212
 251   2.0000      -0.298320        -8.1177
 252   2.0000      -0.279745        -7.6122
 253   2.0000      -0.276889        -7.5345
 254   2.0000      -0.268484        -7.3058
 255   2.0000      -0.222279        -6.0485
 256   0.0000      -0.132420        -3.6033
 257   0.0000      -0.124240        -3.3807
 258   0.0000      -0.077643        -2.1128
 259   0.0000      -0.032713        -0.8902
 260   0.0000      -0.024680        -0.6716

MULLIKEN ATOMIC CHARGES
-----------------------
   0 C :    0.174168
   1 F :   -0.156747
   2 C :    0.136642
   3 F :   -0.152392
   4 C :    0.169937
   5 F :   -0.157194
   6 C :    0.170892
   7 F :   -0.158746
   8 C :   -0.094853
   9 C :    0.170775
  10 F :   -0.163345
  11 C :    0.044006
  12 C :    0.018462
  13 C :   -0.122441
  14 C :   -0.130421
  15 N :    0.135945
  16 C :   -0.022259
  17 C :    0.035446
  18 C :    0.051264
  19 C :    0.092420
  20 C :   -0.027668
  21 C :   -0.084477
  22 C :   -0.035034
  23 C :   -0.131139
  24 N :    0.142405
  25 C :    0.007425
  26 C :   -0.038517
  27 C :    0.099463
  28 C :   -0.075504
  29 C :    0.057901
  30 C :   -0.011333
  31 C :   -0.059836
  32 C :    0.162863
  33 N :   -0.225344
  34 C :    0.134529
  35 N :   -0.215190
  36 C :    0.104026
  37 C :   -0.159121
  38 C :    0.176012
  39 C :   -0.037797
  40 C :    0.024378
  41 C :    0.000082
  42 C :    0.032579
  43 C :    0.003643
  44 C :   -0.009927
  45 C :   -0.089923
  46 C :    0.012841
  47 C :    0.076078
  48 C :   -0.018336
  49 C :   -0.100755
  50 C :   -0.130330
  51 N :    0.144205
  52 C :   -0.040917
  53 C :    0.054750
  54 C :    0.054674
  55 C :    0.086253
  56 C :   -0.025856
  57 C :   -0.105520
  58 C :   -0.034706
  59 C :   -0.062151
  60 N :    0.097970
  61 C :   -0.034550
  62 C :    0.012773
  63 C :   -0.060889
  64 C :   -0.034438
  65 O :   -0.201148
  66 C :    0.176560
  67 C :   -0.030576
  68 C :    0.040676
  69 C :    0.039640
  70 C :   -0.008092
  71 C :   -0.048350
  72 C :    0.160595
  73 O :   -0.192703
  74 C :    0.094404
  75 H :   -0.002705
  76 H :    0.019913
  77 H :   -0.013231
  78 H :   -0.000687
  79 H :   -0.005461
  80 H :    0.010221
  81 H :   -0.035900
  82 H :   -0.029715
  83 H :   -0.038144
  84 H :   -0.002544
  85 H :    0.083917
  86 H :    0.080681
  87 H :   -0.007659
  88 H :   -0.023239
  89 H :    0.099105
  90 H :    0.091251
  91 H :   -0.002398
  92 H :    0.042952
  93 H :   -0.016295
  94 H :   -0.034333
  95 H :   -0.036039
  96 H :   -0.026732
  97 H :    0.002395
  98 H :    0.020105
  99 H :   -0.007471
 100 H :    0.009531
 101 H :   -0.002051
 102 H :   -0.007325
 103 H :   -0.017582
 104 H :    0.015185
 105 H :   -0.012800
 106 H :   -0.000054
 107 H :   -0.006017
 108 H :    0.001938
 109 H :    0.049163
 110 H :    0.057355
 111 H :    0.036512
Sum of atomic charges:   -0.0000000

LOEWDIN ATOMIC CHARGES
----------------------
   0 C :    0.028370
   1 F :   -0.036876
   2 C :    0.040875
   3 F :   -0.031099
   4 C :    0.027826
   5 F :   -0.036616
   6 C :    0.063542
   7 F :   -0.039201
   8 C :   -0.076651
   9 C :    0.061070
  10 F :   -0.039966
  11 C :   -0.046227
  12 C :    0.040151
  13 C :   -0.078487
  14 C :   -0.033033
  15 N :   -0.050422
  16 C :    0.018924
  17 C :    0.025196
  18 C :    0.051949
  19 C :   -0.011951
  20 C :   -0.022335
  21 C :   -0.034322
  22 C :   -0.028325
  23 C :   -0.028268
  24 N :   -0.038545
  25 C :   -0.016110
  26 C :    0.005134
  27 C :   -0.039952
  28 C :    0.011405
  29 C :   -0.022621
  30 C :   -0.016845
  31 C :   -0.041375
  32 C :    0.032419
  33 N :   -0.128258
  34 C :    0.025490
  35 N :   -0.100931
  36 C :   -0.017320
  37 C :    0.065609
  38 C :   -0.033437
  39 C :   -0.033102
  40 C :   -0.016905
  41 C :   -0.039300
  42 C :   -0.028201
  43 C :   -0.007794
  44 C :   -0.024441
  45 C :    0.006037
  46 C :   -0.028466
  47 C :   -0.026990
  48 C :    0.009380
  49 C :   -0.050331
  50 C :   -0.031543
  51 N :   -0.039932
  52 C :   -0.004717
  53 C :    0.038509
  54 C :    0.040447
  55 C :   -0.019115
  56 C :    0.000401
  57 C :   -0.049687
  58 C :   -0.006031
  59 C :    0.000081
  60 N :   -0.047549
  61 C :   -0.043907
  62 C :    0.015871
  63 C :   -0.127615
  64 C :    0.096721
  65 O :    0.000867
  66 C :    0.062566
  67 C :   -0.038059
  68 C :    0.002792
  69 C :   -0.027252
  70 C :    0.023706
  71 C :   -0.086511
  72 C :    0.074399
  73 O :   -0.181319
  74 C :   -0.052371
  75 H :    0.035678
  76 H :    0.040466
  77 H :    0.031683
  78 H :    0.031904
  79 H :    0.035339
  80 H :    0.032360
  81 H :    0.025238
  82 H :    0.024220
  83 H :   -0.008440
  84 H :    0.016387
  85 H :    0.034601
  86 H :    0.048217
  87 H :    0.000596
  88 H :    0.006834
  89 H :    0.056052
  90 H :    0.041728
  91 H :    0.026456
  92 H :    0.065645
  93 H :    0.023949
  94 H :    0.030917
  95 H :    0.028114
  96 H :    0.026604
  97 H :    0.026532
  98 H :    0.033605
  99 H :    0.032157
 100 H :    0.036536
 101 H :    0.034548
 102 H :    0.031839
 103 H :    0.023186
 104 H :    0.036630
 105 H :    0.036747
 106 H :    0.034810
 107 H :    0.032396
 108 H :    0.039776
 109 H :    0.045989
 110 H :    0.047512
 111 H :    0.043760

  Mayer bond orders larger than 0.100000
B(  0-C ,  1-F ) :   1.1736 B(  0-C ,  2-C ) :   1.2757 B(  0-C ,  9-C ) :   1.2873
B(  2-C ,  3-F ) :   1.1789 B(  2-C ,  4-C ) :   1.2752 B(  2-C ,  8-C ) :   0.1161
B(  4-C ,  5-F ) :   1.1715 B(  4-C ,  6-C ) :   1.2739 B(  6-C ,  7-F ) :   1.1794
B(  6-C ,  8-C ) :   1.3430 B(  8-C ,  9-C ) :   1.3267 B(  8-C , 11-C ) :   0.9403
B(  9-C , 10-F ) :   1.1552 B( 11-C , 12-C ) :   1.6495 B( 11-C , 17-C ) :   1.1207
B( 12-C , 13-C ) :   1.0989 B( 12-C , 75-H ) :   1.0196 B( 13-C , 14-C ) :   1.0610
B( 13-C , 16-C ) :   1.6197 B( 14-C , 15-N ) :   3.0402 B( 16-C , 17-C ) :   1.0932
B( 16-C , 76-H ) :   1.0108 B( 17-C , 18-C ) :   1.4332 B( 18-C , 19-C ) :   1.0206
B( 18-C , 22-C ) :   1.1574 B( 19-C , 20-C ) :   1.5366 B( 19-C , 25-C ) :   1.1513
B( 20-C , 21-C ) :   1.1339 B( 20-C , 77-H ) :   1.0230 B( 21-C , 22-C ) :   1.5614
B( 21-C , 23-C ) :   1.0600 B( 22-C , 78-H ) :   1.0095 B( 23-C , 24-N ) :   3.0381
B( 25-C , 26-C ) :   1.6060 B( 25-C , 79-H ) :   0.9612 B( 26-C , 27-C ) :   1.0973
B( 26-C , 80-H ) :   0.9736 B( 27-C , 28-C ) :   1.4946 B( 27-C , 44-C ) :   1.1126
B( 28-C , 29-C ) :   1.1700 B( 28-C , 81-H ) :   0.9862 B( 29-C , 30-C ) :   1.4688
B( 29-C , 42-C ) :   1.1089 B( 30-C , 31-C ) :   1.0308 B( 30-C , 36-C ) :   1.0872
B( 31-C , 32-C ) :   1.0228 B( 31-C , 34-C ) :   1.0346 B( 31-C , 82-H ) :   0.8774
B( 32-C , 33-N ) :   1.1153 B( 32-C , 83-H ) :   0.9200 B( 32-C , 84-H ) :   0.9466
B( 33-N , 85-H ) :   0.9361 B( 33-N , 86-H ) :   0.9666 B( 34-C , 35-N ) :   1.0948
B( 34-C , 87-H ) :   0.9442 B( 34-C , 88-H ) :   0.9298 B( 35-N , 85-H ) :   0.1119
B( 35-N , 89-H ) :   0.9595 B( 35-N , 90-H ) :   0.9549 B( 36-C , 37-C ) :   1.6223
B( 36-C , 41-C ) :   1.0532 B( 37-C , 38-C ) :   0.9607 B( 37-C , 91-H ) :   0.9814
B( 38-C , 39-C ) :   0.9927 B( 38-C , 45-C ) :   0.9751 B( 38-C , 92-H ) :   0.8484
B( 39-C , 40-C ) :   1.7178 B( 39-C , 93-H ) :   0.9725 B( 40-C , 41-C ) :   1.1347
B( 40-C , 94-H ) :   0.9866 B( 41-C , 42-C ) :   1.4423 B( 42-C , 43-C ) :   1.1447
B( 43-C , 44-C ) :   1.6054 B( 43-C , 95-H ) :   0.9898 B( 44-C , 96-H ) :   0.9899
B( 45-C , 46-C ) :   1.8523 B( 45-C , 97-H ) :   0.9728 B( 46-C , 47-C ) :   1.0372
B( 46-C , 98-H ) :   0.9466 B( 47-C , 48-C ) :   1.6450 B( 47-C , 53-C ) :   1.0570
B( 48-C , 49-C ) :   1.0808 B( 48-C , 99-H ) :   1.0150 B( 49-C , 50-C ) :   1.0569
B( 49-C , 52-C ) :   1.6461 B( 50-C , 51-N ) :   3.0392 B( 52-C , 53-C ) :   1.0730
B( 52-C ,100-H ) :   1.0144 B( 53-C , 54-C ) :   1.4926 B( 54-C , 55-C ) :   1.0396
B( 54-C , 58-C ) :   1.0842 B( 55-C , 56-C ) :   1.6256 B( 55-C , 61-C ) :   1.0732
B( 56-C , 57-C ) :   1.0804 B( 56-C ,101-H ) :   1.0155 B( 57-C , 58-C ) :   1.6230
B( 57-C , 59-C ) :   1.0744 B( 58-C ,102-H ) :   1.0137 B( 59-C , 60-N ) :   2.9170
B( 61-C , 62-C ) :   1.6993 B( 61-C ,103-H ) :   0.9541 B( 62-C , 63-C ) :   1.0939
B( 62-C ,104-H ) :   0.9535 B( 63-C , 64-C ) :   1.5405 B( 63-C , 72-C ) :   0.9845
B( 64-C , 65-O ) :   1.1547 B( 64-C , 74-C ) :   1.1117 B( 65-O , 66-C ) :   1.0770
B( 66-C , 67-C ) :   1.3538 B( 66-C , 71-C ) :   1.3348 B( 67-C , 68-C ) :   1.4128
B( 67-C ,105-H ) :   0.9946 B( 68-C , 69-C ) :   1.3285 B( 68-C ,106-H ) :   0.9902
B( 69-C , 70-C ) :   1.4010 B( 69-C ,107-H ) :   0.9937 B( 70-C , 71-C ) :   1.3394
B( 70-C ,108-H ) :   0.9982 B( 71-C , 72-C ) :   0.9861 B( 72-C , 73-O ) :   2.1703
B( 74-C ,109-H ) :   0.9449 B( 74-C ,110-H ) :   0.9317 B( 74-C ,111-H ) :   0.9356

-----------------------------------------------------------------------------
         ABSORPTION SPECTRUM VIA TRANSITION ELECTRIC DIPOLE MOMENTS
-----------------------------------------------------------------------------
State   Energy  Wavelength   fosc         T2         TX        TY        TZ
        (cm-1)    (nm)                  (au**2)     (au)      (au)      (au)
-----------------------------------------------------------------------------
   0    6184.9   1616.8   0.037178188   1.97892   0.50514   1.09644   0.72219
   1    6950.1   1438.8   0.100017799   4.73764   0.29164   1.94243   0.93784
   2   12061.6    829.1   0.065891290   1.79845  -1.11324  -0.41291  -0.62342
   3   12116.0    825.4   0.014391149   0.39103  -0.24159   0.35474  -0.45478
   4   13768.8    726.3   0.037042406   0.88568   0.18324   0.28456  -0.87814
   5   15830.4    631.7   0.013794443   0.28687  -0.23913  -0.00156  -0.47926
   6   17762.9    563.0   0.001746018   0.03236  -0.13405  -0.04987   0.10911
   7   18856.6    530.3   0.001329421   0.02321  -0.11905  -0.08891   0.03366
   8   19325.9    517.4   0.000257340   0.00438  -0.02451  -0.02970  -0.05386
   9   21020.4    475.7   0.011624594   0.18206  -0.22939   0.30233   0.19502
  10   21975.6    455.1   0.002060215   0.03086  -0.08395  -0.15432  -0.00129
  11   24576.5    406.9   0.410108496   5.49357  -0.17048  -2.25310  -0.62293
  12   24939.3    401.0   0.054821931   0.72368   0.74996   0.36452   0.16844
  13   25274.4    395.7   0.059330903   0.77282   0.05385  -0.66091   0.57716
  14   25717.2    388.8   0.001280730   0.01639  -0.00592  -0.04796   0.11857
  15   25899.0    386.1   0.015165850   0.19278  -0.03369   0.41164  -0.14899
  16   26090.4    383.3   0.015337694   0.19353   0.30375  -0.25526   0.19002
  17   26383.6    379.0   0.014212260   0.17734  -0.09246  -0.03651   0.40922
  18   26799.3    373.1   0.423544172   5.20296   0.68755   1.84411   1.15303
  19   27200.1    367.6   0.002518935   0.03049  -0.07382  -0.15677   0.02145
  20   27550.4    363.0   0.006530416   0.07803   0.00805  -0.17208   0.21991
  21   28357.8    352.6   0.032349533   0.37555   0.16687  -0.38123   0.44986
  22   29042.2    344.3   0.117061422   1.32697  -0.07120   0.96154  -0.63035
  23   29187.5    342.6   0.048103167   0.54257  -0.13726   0.72009   0.07213
  24   29506.7    338.9   0.702309885   7.83580  -0.67794   2.09639  -1.72665
  25   29926.0    334.2   0.437798330   4.81617   0.27848  -1.78556   1.24515
  26   30070.7    332.5   0.191417462   2.09562  -0.12163   0.84325  -1.17037
  27   30843.9    324.2   0.012082388   0.12896  -0.01886  -0.06667  -0.35236
  28   30872.5    323.9   0.074701482   0.79659  -0.43648   0.54172  -0.55911
  29   31361.8    318.9   0.009236268   0.09696   0.07264   0.27162  -0.13378
  30   31527.1    317.2   0.055094192   0.57530  -0.32983   0.29469  -0.61618
  31   31835.3    314.1   0.012535045   0.12963  -0.11970   0.25648  -0.22252
  32   32315.4    309.5   0.037601149   0.38306  -0.04427  -0.50631   0.35320
  33   32567.4    307.1   0.038636537   0.39056   0.05898  -0.60824   0.13088
  34   32727.1    305.6   0.001166196   0.01173  -0.01831  -0.10422  -0.02313
  35   33723.8    296.5   0.035313918   0.34473  -0.11225   0.57520   0.03582
  36   33812.3    295.8   0.090613118   0.88225   0.38524   0.34014   0.78623
  37   33924.4    294.8   0.063039854   0.61176   0.41573  -0.57190  -0.33445
  38   34452.9    290.3   0.000456505   0.00436   0.00115  -0.06309   0.01949
  39   35235.9    283.8   0.009140918   0.08540   0.23819   0.00187  -0.16931
  40   35443.1    282.1   0.151371605   1.40601  -0.85313  -0.64239   0.51528
  41   35863.5    278.8   0.194358700   1.78413  -0.13700  -1.14494   0.67414
  42   36205.7    276.2   0.043192907   0.39275   0.41011  -0.02967   0.47295
  43   36303.6    275.5   0.424475499   3.84927  -1.49695  -1.21710   0.35651
  44   36523.7    273.8   0.001095825   0.00988  -0.00545  -0.08376   0.05322
  45   36835.6    271.5   0.000065766   0.00059   0.01219   0.01351   0.01602
  46   37031.1    270.0   0.373567366   3.32107  -0.94513  -1.50533  -0.40223
  47   37073.3    269.7   0.103719398   0.92103  -0.71093  -0.13017  -0.63140
  48   37487.7    266.8   0.008232270   0.07229   0.05491  -0.22722  -0.13285
  49   37773.9    264.7   0.287333498   2.50421  -0.13604  -1.50500   0.46974
  50   38044.3    262.9   0.000899059   0.00778  -0.04950   0.07149   0.01478
  51   38371.0    260.6   0.000278322   0.00239   0.03200   0.03475  -0.01252
  52   38770.2    257.9   0.028760870   0.24422  -0.29815  -0.10583  -0.37964
  53   39023.1    256.3   0.000003897   0.00003  -0.00170  -0.00545  -0.00056
  54   39355.9    254.1   0.066878420   0.55944  -0.02884   0.73628   0.12846
  55   39465.5    253.4   0.036781707   0.30682  -0.16123  -0.52662  -0.05914
  56   40115.9    249.3   0.273663728   2.24582   0.32782  -1.42631   0.32249

FINAL SINGLE POINT ENERGY     -3358.556788170074

DIPOLE MOMENT
-------------
                                X             Y             Z
Electronic contribution:      7.12297     123.27745      76.61097
Nuclear contribution   :    -10.07361    -126.56404     -76.93000
                        -----------------------------------------
Total Dipole Moment    :     -2.95064      -3.28659      -0.31903
                        -----------------------------------------
Magnitude (a.u.)       :      4.42828
Magnitude (Debye)      :     11.25580

Rotational constants in cm-1:     0.001475     0.000245     0.000232
Rotational constants in MHz :    44.216812     7.345672     6.956692

                             ****ORCA TERMINATED NORMALLY****
TOTAL RUN TIME: 0 days 0 hours 25 minutes 40 seconds 272 msec
