                         Program Version 4.2.0 -  RELEASE  -
|  1> # ORCA input file
|  2> # SCF done       -180.651484620664          0.000588293979
|  3> ! CAM-B3LYP def2-SVP def2/J RIJCOSX Grid4 TightSCF
|  4> %maxcore 5000
|  5> %tddft
|  6>     Mode sTDDFT
|  7>     Ethresh 5.0
|  8>     maxcore 5000
|  9> end
| 10>
| 11> %pal
| 12>   nprocs 6
| 13>   end
| 14> * xyz 0 1
| 15>    C        0.79345         0.51570        -1.38330
| 16>    F        0.23074         1.54194        -0.74243
| 17>    C        1.75195         0.75264        -2.36399
| 18>    F        2.12248         1.99748        -2.66569
| 19>    C        2.31222        -0.33420        -3.02727
| 20>    F        3.23150        -0.13737        -3.97505
| 21>    C        1.92155        -1.62508        -2.70434
| 22>    F        2.50641        -2.63073        -3.37030
| 23>    C        0.96580        -1.90531        -1.71320
| 24>    C        0.41218        -0.78204        -1.07360
| 25>    F       -0.53749        -0.93489        -0.14469
| 26>    C        0.57795        -3.25259        -1.37617
| 27>    C       -0.04911        -3.69192        -0.22442
| 28>    C       -0.27579        -5.06704        -0.24004
| 29>    C        0.17445        -5.68303        -1.42448
| 30>    S        0.89110        -4.57721        -2.49761
| 31>    C       -0.09510        -7.07091        -1.35000
| 32>    C       -0.71677        -7.33275        -0.11417
| 33>    C       -0.84793        -6.08432         0.62381
| 34>    C       -1.38334        -5.91759         1.86739
| 35>    C       -1.90960        -6.99431         2.61236
| 36>    N       -2.34144        -7.85890         3.22957
| 37>    C       -1.43987        -4.65978         2.50424
| 38>    N       -1.48363        -3.64491         3.03612
| 39>    C       -1.01408        -8.67691         0.06846
| 40>    C       -0.62444        -9.45100        -1.01720
| 41>    S        0.11821        -8.48623        -2.28586
| 42>    C       -0.74183       -10.85879        -1.18874
| 43>    C       -1.30506       -11.74290        -0.22930
| 44>    C       -1.36781       -13.16343        -0.44106
| 45>    N       -1.91638       -13.94795         0.50764
| 46>    C       -2.37541       -13.40941         1.60171
| 47>    C       -2.30930       -12.01853         1.81175
| 48>    N       -1.79142       -11.22528         0.91783
| 49>    C       -0.86621       -13.77695        -1.62388
| 50>    C       -0.32877       -12.88950        -2.57924
| 51>    C       -0.26902       -11.46878        -2.36635
| 52>    N        0.28521       -10.83794        -3.40457
| 53>    S        0.68631       -11.91386        -4.52738
| 54>    N        0.18441       -13.23147        -3.76239
| 55>    C       -0.87068       -15.17474        -1.86742
| 56>    C       -1.33237       -16.19731        -1.04622
| 57>    C       -1.15400       -17.44808        -1.61754
| 58>    C       -0.54931       -17.39362        -2.89196
| 59>    S       -0.20600       -15.79695        -3.37921
| 60>    C       -0.39649       -18.71764        -3.37813
| 61>    C       -0.91485       -19.59999        -2.41397
| 62>    C       -1.40235       -18.83990        -1.27844
| 63>    C       -1.96169       -19.33041        -0.13290
| 64>    C       -2.12723       -20.71504         0.07008
| 65>    N       -2.25260       -21.84528         0.22535
| 66>    C       -2.40138       -18.49650         0.91537
| 67>    N       -2.76320       -17.83063         1.77616
| 68>    C       -0.81715       -20.93656        -2.79998
| 69>    C       -0.23151       -21.07823        -4.04346
| 70>    S        0.17244       -19.53115        -4.77100
| 71>    C        0.04536       -22.27346        -4.79895
| 72>    C        0.06536       -23.54748        -4.29279
| 73>    O        0.28253       -24.62968        -5.05662
| 74>    C        0.47815       -24.51343        -6.38886
| 75>    C        0.64200       -25.68352        -7.13229
| 76>    C        0.85921       -25.59625        -8.48898
| 77>    C        0.91999       -24.35483        -9.12165
| 78>    C        0.76307       -23.20066        -8.39163
| 79>    C        0.53641       -23.26429        -7.01248
| 80>    C        0.37238       -22.05669        -6.21185
| 81>    O        0.50746       -20.92942        -6.67626
| 82>    C       -0.09594       -23.93853        -2.86135
| 83>    H       -0.31228        -3.05160         0.59629
| 84>    H       -1.48488        -9.11145         0.93007
| 85>    H       -2.80652       -14.08395         2.32825
| 86>    H       -2.68353       -11.55177         2.71232
| 87>    H       -1.76930       -15.99581        -0.08614
| 88>    H       -1.19040       -21.74848        -2.20957
| 89>    H        0.59421       -26.63418        -6.62551
| 90>    H        0.98458       -26.49884        -9.06722
| 91>    H        1.09212       -24.30447       -10.18550
| 92>    H        0.80711       -22.22507        -8.85088
| 93>    H       -1.14481       -23.92492        -2.56772
| 94>    H        0.45611       -23.26550        -2.21027
| 95>    H        0.27493       -24.95331        -2.73590
| 96> *
| 97>
| 98>                          ****END OF INPUT****

CARTESIAN COORDINATES (ANGSTROEM)
---------------------------------
  C      0.793450    0.515700   -1.383300
  F      0.230740    1.541940   -0.742430
  C      1.751950    0.752640   -2.363990
  F      2.122480    1.997480   -2.665690
  C      2.312220   -0.334200   -3.027270
  F      3.231500   -0.137370   -3.975050
  C      1.921550   -1.625080   -2.704340
  F      2.506410   -2.630730   -3.370300
  C      0.965800   -1.905310   -1.713200
  C      0.412180   -0.782040   -1.073600
  F     -0.537490   -0.934890   -0.144690
  C      0.577950   -3.252590   -1.376170
  C     -0.049110   -3.691920   -0.224420
  C     -0.275790   -5.067040   -0.240040
  C      0.174450   -5.683030   -1.424480
  S      0.891100   -4.577210   -2.497610
  C     -0.095100   -7.070910   -1.350000
  C     -0.716770   -7.332750   -0.114170
  C     -0.847930   -6.084320    0.623810
  C     -1.383340   -5.917590    1.867390
  C     -1.909600   -6.994310    2.612360
  N     -2.341440   -7.858900    3.229570
  C     -1.439870   -4.659780    2.504240
  N     -1.483630   -3.644910    3.036120
  C     -1.014080   -8.676910    0.068460
  C     -0.624440   -9.451000   -1.017200
  S      0.118210   -8.486230   -2.285860
  C     -0.741830  -10.858790   -1.188740
  C     -1.305060  -11.742900   -0.229300
  C     -1.367810  -13.163430   -0.441060
  N     -1.916380  -13.947950    0.507640
  C     -2.375410  -13.409410    1.601710
  C     -2.309300  -12.018530    1.811750
  N     -1.791420  -11.225280    0.917830
  C     -0.866210  -13.776950   -1.623880
  C     -0.328770  -12.889500   -2.579240
  C     -0.269020  -11.468780   -2.366350
  N      0.285210  -10.837940   -3.404570
  S      0.686310  -11.913860   -4.527380
  N      0.184410  -13.231470   -3.762390
  C     -0.870680  -15.174740   -1.867420
  C     -1.332370  -16.197310   -1.046220
  C     -1.154000  -17.448080   -1.617540
  C     -0.549310  -17.393620   -2.891960
  S     -0.206000  -15.796950   -3.379210
  C     -0.396490  -18.717640   -3.378130
  C     -0.914850  -19.599990   -2.413970
  C     -1.402350  -18.839900   -1.278440
  C     -1.961690  -19.330410   -0.132900
  C     -2.127230  -20.715040    0.070080
  N     -2.252600  -21.845280    0.225350
  C     -2.401380  -18.496500    0.915370
  N     -2.763200  -17.830630    1.776160
  C     -0.817150  -20.936560   -2.799980
  C     -0.231510  -21.078230   -4.043460
  S      0.172440  -19.531150   -4.771000
  C      0.045360  -22.273460   -4.798950
  C      0.065360  -23.547480   -4.292790
  O      0.282530  -24.629680   -5.056620
  C      0.478150  -24.513430   -6.388860
  C      0.642000  -25.683520   -7.132290
  C      0.859210  -25.596250   -8.488980
  C      0.919990  -24.354830   -9.121650
  C      0.763070  -23.200660   -8.391630
  C      0.536410  -23.264290   -7.012480
  C      0.372380  -22.056690   -6.211850
  O      0.507460  -20.929420   -6.676260
  C     -0.095940  -23.938530   -2.861350
  H     -0.312280   -3.051600    0.596290
  H     -1.484880   -9.111450    0.930070
  H     -2.806520  -14.083950    2.328250
  H     -2.683530  -11.551770    2.712320
  H     -1.769300  -15.995810   -0.086140
  H     -1.190400  -21.748480   -2.209570
  H      0.594210  -26.634180   -6.625510
  H      0.984580  -26.498840   -9.067220
  H      1.092120  -24.304470  -10.185500
  H      0.807110  -22.225070   -8.850880
  H     -1.144810  -23.924920   -2.567720
  H      0.456110  -23.265500   -2.210270
  H      0.274930  -24.953310   -2.735900

 Total Charge           Charge          ....    0
 Multiplicity           Mult            ....    1
 Number of Electrons    NEL             ....  498
 Basis Dimension        Dim             .... 1037

ORBITAL ENERGIES
----------------

  NO   OCC          E(Eh)            E(eV)
   0   2.0000     -89.044726     -2423.0302
   1   2.0000     -88.983821     -2421.3729
   2   2.0000     -88.973436     -2421.0903
   3   2.0000     -88.971759     -2421.0446
   4   2.0000     -88.970134     -2421.0004
   5   2.0000     -24.815562      -675.2658
   6   2.0000     -24.810635      -675.1317
   7   2.0000     -24.809355      -675.0969
   8   2.0000     -24.807654      -675.0506
   9   2.0000     -24.805928      -675.0036
  10   2.0000     -19.313274      -525.5409
  11   2.0000     -19.207910      -522.6738
  12   2.0000     -14.454101      -393.3161
  13   2.0000     -14.452279      -393.2665
  14   2.0000     -14.431238      -392.6939
  15   2.0000     -14.430488      -392.6736
  16   2.0000     -14.421087      -392.4177
  17   2.0000     -14.420845      -392.4111
  18   2.0000     -14.420765      -392.4090
  19   2.0000     -14.418212      -392.3395
  20   2.0000     -10.392259      -282.7877
  21   2.0000     -10.391233      -282.7598
  22   2.0000     -10.390493      -282.7397
  23   2.0000     -10.388989      -282.6988
  24   2.0000     -10.388176      -282.6766
  25   2.0000     -10.380629      -282.4713
  26   2.0000     -10.367394      -282.1111
  27   2.0000     -10.364357      -282.0285
  28   2.0000     -10.353551      -281.7344
  29   2.0000     -10.348779      -281.6046
  30   2.0000     -10.341804      -281.4148
  31   2.0000     -10.338813      -281.3334
  32   2.0000     -10.336631      -281.2740
  33   2.0000     -10.336170      -281.2615
  34   2.0000     -10.332000      -281.1480
  35   2.0000     -10.330861      -281.1170
  36   2.0000     -10.330738      -281.1137
  37   2.0000     -10.327017      -281.0124
  38   2.0000     -10.325655      -280.9754
  39   2.0000     -10.325254      -280.9644
  40   2.0000     -10.324914      -280.9552
  41   2.0000     -10.322945      -280.9016
  42   2.0000     -10.321620      -280.8656
  43   2.0000     -10.321369      -280.8587
  44   2.0000     -10.319564      -280.8096
  45   2.0000     -10.314700      -280.6773
  46   2.0000     -10.313918      -280.6560
  47   2.0000     -10.313513      -280.6450
  48   2.0000     -10.313345      -280.6404
  49   2.0000     -10.312191      -280.6090
  50   2.0000     -10.310290      -280.5572
  51   2.0000     -10.306795      -280.4622
  52   2.0000     -10.305075      -280.4154
  53   2.0000     -10.299779      -280.2712
  54   2.0000     -10.297533      -280.2101
  55   2.0000     -10.296506      -280.1822
  56   2.0000     -10.294972      -280.1404
  57   2.0000     -10.294060      -280.1156
  58   2.0000     -10.293139      -280.0906
  59   2.0000     -10.292337      -280.0687
  60   2.0000     -10.290040      -280.0062
  61   2.0000     -10.288365      -279.9606
  62   2.0000     -10.287386      -279.9340
  63   2.0000     -10.286694      -279.9152
  64   2.0000     -10.285461      -279.8816
  65   2.0000     -10.284167      -279.8464
  66   2.0000     -10.281742      -279.7804
  67   2.0000     -10.280498      -279.7466
  68   2.0000      -8.135645      -221.3821
  69   2.0000      -8.078144      -219.8175
  70   2.0000      -8.066665      -219.5051
  71   2.0000      -8.064971      -219.4590
  72   2.0000      -8.062278      -219.3857
  73   2.0000      -6.106762      -166.1735
  74   2.0000      -6.099080      -165.9644
  75   2.0000      -6.098304      -165.9433
  76   2.0000      -6.047417      -164.5586
  77   2.0000      -6.043078      -164.4405
  78   2.0000      -6.040563      -164.3721
  79   2.0000      -6.036096      -164.2505
  80   2.0000      -6.034313      -164.2020
  81   2.0000      -6.031865      -164.1354
  82   2.0000      -6.031486      -164.1251
  83   2.0000      -6.029793      -164.0790
  84   2.0000      -6.029105      -164.0603
  85   2.0000      -6.027530      -164.0174
  86   2.0000      -6.026860      -163.9992
  87   2.0000      -6.024919      -163.9464
  88   2.0000      -1.339337       -36.4452
  89   2.0000      -1.334243       -36.3066
  90   2.0000      -1.327644       -36.1270
  91   2.0000      -1.317216       -35.8433
  92   2.0000      -1.311661       -35.6921
  93   2.0000      -1.227641       -33.4058
  94   2.0000      -1.141154       -31.0524
  95   2.0000      -1.129566       -30.7371
  96   2.0000      -1.089244       -29.6398
  97   2.0000      -1.034106       -28.1395
  98   2.0000      -1.028163       -27.9777
  99   2.0000      -1.015199       -27.6250
 100   2.0000      -1.012627       -27.5550
 101   2.0000      -1.009586       -27.4722
 102   2.0000      -1.002026       -27.2665
 103   2.0000      -0.998269       -27.1643
 104   2.0000      -0.997809       -27.1518
 105   2.0000      -0.997428       -27.1414
 106   2.0000      -0.986118       -26.8336
 107   2.0000      -0.978628       -26.6298
 108   2.0000      -0.974685       -26.5225
 109   2.0000      -0.963682       -26.2231
 110   2.0000      -0.946963       -25.7682
 111   2.0000      -0.941979       -25.6326
 112   2.0000      -0.927415       -25.2362
 113   2.0000      -0.910999       -24.7895
 114   2.0000      -0.897634       -24.4259
 115   2.0000      -0.886272       -24.1167
 116   2.0000      -0.883180       -24.0325
 117   2.0000      -0.878753       -23.9121
 118   2.0000      -0.870049       -23.6752
 119   2.0000      -0.865895       -23.5622
 120   2.0000      -0.859698       -23.3936
 121   2.0000      -0.854653       -23.2563
 122   2.0000      -0.844200       -22.9719
 123   2.0000      -0.841006       -22.8849
 124   2.0000      -0.838441       -22.8151
 125   2.0000      -0.824887       -22.4463
 126   2.0000      -0.810416       -22.0525
 127   2.0000      -0.792602       -21.5678
 128   2.0000      -0.785718       -21.3805
 129   2.0000      -0.773542       -21.0491
 130   2.0000      -0.768611       -20.9150
 131   2.0000      -0.759276       -20.6609
 132   2.0000      -0.751208       -20.4414
 133   2.0000      -0.749184       -20.3863
 134   2.0000      -0.745682       -20.2910
 135   2.0000      -0.732326       -19.9276
 136   2.0000      -0.721933       -19.6448
 137   2.0000      -0.707747       -19.2588
 138   2.0000      -0.700829       -19.0705
 139   2.0000      -0.697582       -18.9822
 140   2.0000      -0.692660       -18.8482
 141   2.0000      -0.689905       -18.7733
 142   2.0000      -0.688231       -18.7277
 143   2.0000      -0.679766       -18.4974
 144   2.0000      -0.673528       -18.3276
 145   2.0000      -0.669421       -18.2159
 146   2.0000      -0.665206       -18.1012
 147   2.0000      -0.657400       -17.8888
 148   2.0000      -0.656379       -17.8610
 149   2.0000      -0.647652       -17.6235
 150   2.0000      -0.636971       -17.3328
 151   2.0000      -0.632577       -17.2133
 152   2.0000      -0.631848       -17.1935
 153   2.0000      -0.629861       -17.1394
 154   2.0000      -0.625196       -17.0125
 155   2.0000      -0.621318       -16.9069
 156   2.0000      -0.616926       -16.7874
 157   2.0000      -0.614467       -16.7205
 158   2.0000      -0.608074       -16.5465
 159   2.0000      -0.603221       -16.4145
 160   2.0000      -0.600483       -16.3400
 161   2.0000      -0.598213       -16.2782
 162   2.0000      -0.595525       -16.2051
 163   2.0000      -0.588049       -16.0016
 164   2.0000      -0.586094       -15.9484
 165   2.0000      -0.585894       -15.9430
 166   2.0000      -0.575641       -15.6640
 167   2.0000      -0.571401       -15.5486
 168   2.0000      -0.568456       -15.4685
 169   2.0000      -0.564904       -15.3718
 170   2.0000      -0.559237       -15.2176
 171   2.0000      -0.555416       -15.1136
 172   2.0000      -0.553889       -15.0721
 173   2.0000      -0.548993       -14.9389
 174   2.0000      -0.546862       -14.8809
 175   2.0000      -0.537872       -14.6362
 176   2.0000      -0.535876       -14.5819
 177   2.0000      -0.533258       -14.5107
 178   2.0000      -0.533110       -14.5066
 179   2.0000      -0.532268       -14.4838
 180   2.0000      -0.531908       -14.4740
 181   2.0000      -0.529592       -14.4109
 182   2.0000      -0.524978       -14.2854
 183   2.0000      -0.521415       -14.1884
 184   2.0000      -0.520304       -14.1582
 185   2.0000      -0.515040       -14.0150
 186   2.0000      -0.513814       -13.9816
 187   2.0000      -0.511271       -13.9124
 188   2.0000      -0.504797       -13.7362
 189   2.0000      -0.502177       -13.6649
 190   2.0000      -0.496442       -13.5089
 191   2.0000      -0.495377       -13.4799
 192   2.0000      -0.494157       -13.4467
 193   2.0000      -0.491113       -13.3639
 194   2.0000      -0.489191       -13.3116
 195   2.0000      -0.485052       -13.1989
 196   2.0000      -0.484612       -13.1870
 197   2.0000      -0.481622       -13.1056
 198   2.0000      -0.480550       -13.0764
 199   2.0000      -0.477084       -12.9821
 200   2.0000      -0.475178       -12.9303
 201   2.0000      -0.473698       -12.8900
 202   2.0000      -0.471727       -12.8363
 203   2.0000      -0.469284       -12.7699
 204   2.0000      -0.460094       -12.5198
 205   2.0000      -0.457928       -12.4608
 206   2.0000      -0.456569       -12.4239
 207   2.0000      -0.453756       -12.3473
 208   2.0000      -0.453580       -12.3425
 209   2.0000      -0.452886       -12.3236
 210   2.0000      -0.450093       -12.2477
 211   2.0000      -0.449649       -12.2356
 212   2.0000      -0.448496       -12.2042
 213   2.0000      -0.443271       -12.0620
 214   2.0000      -0.441398       -12.0110
 215   2.0000      -0.437147       -11.8954
 216   2.0000      -0.435072       -11.8389
 217   2.0000      -0.433190       -11.7877
 218   2.0000      -0.431704       -11.7473
 219   2.0000      -0.430622       -11.7178
 220   2.0000      -0.429454       -11.6861
 221   2.0000      -0.428859       -11.6698
 222   2.0000      -0.427483       -11.6324
 223   2.0000      -0.425912       -11.5897
 224   2.0000      -0.417689       -11.3659
 225   2.0000      -0.416468       -11.3327
 226   2.0000      -0.415692       -11.3116
 227   2.0000      -0.398331       -10.8391
 228   2.0000      -0.395516       -10.7625
 229   2.0000      -0.393962       -10.7203
 230   2.0000      -0.383830       -10.4445
 231   2.0000      -0.378501       -10.2995
 232   2.0000      -0.376261       -10.2386
 233   2.0000      -0.364474        -9.9178
 234   2.0000      -0.352593        -9.5945
 235   2.0000      -0.345490        -9.4013
 236   2.0000      -0.344246        -9.3674
 237   2.0000      -0.338505        -9.2112
 238   2.0000      -0.336404        -9.1540
 239   2.0000      -0.334933        -9.1140
 240   2.0000      -0.329248        -8.9593
 241   2.0000      -0.326523        -8.8851
 242   2.0000      -0.325122        -8.8470
 243   2.0000      -0.321737        -8.7549
 244   2.0000      -0.310863        -8.4590
 245   2.0000      -0.305808        -8.3215
 246   2.0000      -0.295498        -8.0409
 247   2.0000      -0.264522        -7.1980
 248   2.0000      -0.226291        -6.1577
 249   0.0000      -0.114415        -3.1134
 250   0.0000      -0.090256        -2.4560
 251   0.0000      -0.084393        -2.2964
 252   0.0000      -0.036253        -0.9865
 253   0.0000      -0.033308        -0.9064

MULLIKEN ATOMIC CHARGES
-----------------------
   0 C :    0.176257
   1 F :   -0.157245
   2 C :    0.131424
   3 F :   -0.151775
   4 C :    0.175082
   5 F :   -0.159395
   6 C :    0.129914
   7 F :   -0.170441
   8 C :    0.037833
   9 C :    0.145194
  10 F :   -0.159874
  11 C :   -0.110104
  12 C :   -0.034522
  13 C :   -0.000419
  14 C :   -0.097932
  15 S :    0.202433
  16 C :   -0.076973
  17 C :    0.045791
  18 C :    0.313691
  19 C :   -0.312685
  20 C :   -0.185298
  21 N :    0.169512
  22 C :   -0.193540
  23 N :    0.171870
  24 C :   -0.071297
  25 C :   -0.179036
  26 S :    0.197326
  27 C :    0.189071
  28 C :   -0.070181
  29 C :   -0.073615
  30 N :   -0.029341
  31 C :    0.039734
  32 C :    0.044289
  33 N :   -0.032950
  34 C :    0.203938
  35 C :   -0.022405
  36 C :   -0.013074
  37 N :   -0.340960
  38 S :    0.556482
  39 N :   -0.329745
  40 C :   -0.196758
  41 C :   -0.064801
  42 C :    0.041047
  43 C :   -0.074777
  44 S :    0.199533
  45 C :   -0.086052
  46 C :    0.006747
  47 C :    0.316437
  48 C :   -0.315722
  49 C :   -0.184734
  50 N :    0.146341
  51 C :   -0.188200
  52 N :    0.165592
  53 C :   -0.070823
  54 C :   -0.096163
  55 S :    0.223410
  56 C :    0.024935
  57 C :   -0.074946
  58 O :   -0.190937
  59 C :    0.174690
  60 C :   -0.027387
  61 C :    0.040962
  62 C :    0.035937
  63 C :   -0.000613
  64 C :   -0.041225
  65 C :    0.163835
  66 O :   -0.231861
  67 C :    0.103387
  68 H :    0.015382
  69 H :    0.018878
  70 H :    0.030298
  71 H :    0.030272
  72 H :    0.019606
  73 H :   -0.020392
  74 H :   -0.011427
  75 H :    0.001860
  76 H :   -0.002824
  77 H :    0.002542
  78 H :    0.072159
  79 H :    0.054874
  80 H :    0.033881
Sum of atomic charges:   -0.0000000

LOEWDIN ATOMIC CHARGES
----------------------
   0 C :    0.030758
   1 F :   -0.035424
   2 C :    0.036381
   3 F :   -0.031482
   4 C :    0.029234
   5 F :   -0.037325
   6 C :    0.052657
   7 F :   -0.045972
   8 C :   -0.083272
   9 C :    0.065036
  10 F :   -0.031421
  11 C :   -0.178504
  12 C :   -0.017862
  13 C :   -0.077587
  14 C :   -0.173473
  15 S :    0.489447
  16 C :   -0.193213
  17 C :   -0.071757
  18 C :    0.084061
  19 C :   -0.107736
  20 C :   -0.013768
  21 N :   -0.040082
  22 C :   -0.018322
  23 N :   -0.035907
  24 C :   -0.017963
  25 C :   -0.157680
  26 S :    0.505324
  27 C :   -0.055474
  28 C :   -0.003262
  29 C :   -0.011100
  30 N :   -0.021151
  31 C :    0.018128
  32 C :    0.023607
  33 N :   -0.024494
  34 C :   -0.037157
  35 C :   -0.051491
  36 C :   -0.047919
  37 N :   -0.308606
  38 S :    0.673478
  39 N :   -0.300468
  40 C :   -0.169219
  41 C :   -0.007790
  42 C :   -0.082196
  43 C :   -0.171691
  44 S :    0.507026
  45 C :   -0.198003
  46 C :   -0.075187
  47 C :    0.088556
  48 C :   -0.119033
  49 C :   -0.011820
  50 N :   -0.053783
  51 C :   -0.015658
  52 N :   -0.044792
  53 C :   -0.044171
  54 C :   -0.158590
  55 S :    0.528580
  56 C :   -0.130749
  57 C :    0.096807
  58 O :    0.010154
  59 C :    0.064197
  60 C :   -0.036101
  61 C :    0.004555
  62 C :   -0.026594
  63 C :    0.024051
  64 C :   -0.084844
  65 C :    0.075120
  66 O :   -0.201783
  67 C :   -0.050528
  68 H :    0.038683
  69 H :    0.035581
  70 H :    0.033991
  71 H :    0.034215
  72 H :    0.036142
  73 H :    0.031950
  74 H :    0.037754
  75 H :    0.035625
  76 H :    0.033413
  77 H :    0.040338
  78 H :    0.053714
  79 H :    0.049775
  80 H :    0.044068

  Mayer bond orders larger than 0.100000
B(  0-C ,  1-F ) :   1.1699 B(  0-C ,  2-C ) :   1.2720 B(  0-C ,  9-C ) :   1.2991
B(  2-C ,  3-F ) :   1.1857 B(  2-C ,  4-C ) :   1.2747 B(  2-C ,  8-C ) :   0.1033
B(  4-C ,  5-F ) :   1.1689 B(  4-C ,  6-C ) :   1.3030 B(  6-C ,  7-F ) :   1.1398
B(  6-C ,  8-C ) :   1.2841 B(  8-C ,  9-C ) :   1.2927 B(  8-C , 11-C ) :   1.0861
B(  9-C , 10-F ) :   1.1461 B( 11-C , 12-C ) :   1.4831 B( 11-C , 15-S ) :   1.0952
B( 12-C , 13-C ) :   1.2885 B( 12-C , 68-H ) :   0.9918 B( 13-C , 14-C ) :   1.4226
B( 13-C , 18-C ) :   0.9963 B( 14-C , 15-S ) :   1.1283 B( 14-C , 16-C ) :   1.1897
B( 16-C , 17-C ) :   1.4158 B( 16-C , 26-S ) :   1.0905 B( 17-C , 18-C ) :   0.9936
B( 17-C , 24-C ) :   1.2470 B( 18-C , 19-C ) :   1.7048 B( 19-C , 20-C ) :   1.1404
B( 19-C , 22-C ) :   1.1335 B( 20-C , 21-N ) :   2.9901 B( 22-C , 23-N ) :   2.9935
B( 24-C , 25-C ) :   1.4204 B( 24-C , 69-H ) :   0.9813 B( 25-C , 26-S ) :   1.1043
B( 25-C , 27-C ) :   1.1788 B( 27-C , 28-C ) :   1.2691 B( 27-C , 34-C ) :   0.1349
B( 27-C , 36-C ) :   1.2035 B( 28-C , 29-C ) :   1.1172 B( 28-C , 33-N ) :   1.4660
B( 29-C , 30-N ) :   1.4690 B( 29-C , 34-C ) :   1.2588 B( 30-N , 31-C ) :   1.6694
B( 31-C , 32-C ) :   1.1819 B( 31-C , 70-H ) :   0.9749 B( 32-C , 33-N ) :   1.6711
B( 32-C , 71-H ) :   0.9745 B( 34-C , 35-C ) :   1.1931 B( 34-C , 40-C ) :   1.2045
B( 35-C , 36-C ) :   1.1190 B( 35-C , 39-N ) :   1.4665 B( 36-C , 37-N ) :   1.4576
B( 37-N , 38-S ) :   1.2700 B( 37-N , 39-N ) :   0.1562 B( 38-S , 39-N ) :   1.2793
B( 40-C , 41-C ) :   1.4064 B( 40-C , 44-S ) :   1.0862 B( 41-C , 42-C ) :   1.2584
B( 41-C , 72-H ) :   0.9817 B( 42-C , 43-C ) :   1.3969 B( 42-C , 47-C ) :   0.9898
B( 43-C , 44-S ) :   1.1158 B( 43-C , 45-C ) :   1.1863 B( 45-C , 46-C ) :   1.4214
B( 45-C , 55-S ) :   1.0723 B( 46-C , 47-C ) :   1.0006 B( 46-C , 53-C ) :   1.2888
B( 47-C , 48-C ) :   1.6922 B( 48-C , 49-C ) :   1.1369 B( 48-C , 51-C ) :   1.1389
B( 49-C , 50-N ) :   2.9798 B( 51-C , 52-N ) :   2.9922 B( 53-C , 54-C ) :   1.4463
B( 53-C , 73-H ) :   0.9874 B( 54-C , 55-S ) :   1.1282 B( 54-C , 56-C ) :   1.0916
B( 55-S , 66-O ) :   0.1052 B( 56-C , 57-C ) :   1.5119 B( 56-C , 65-C ) :   1.0061
B( 57-C , 58-O ) :   1.1580 B( 57-C , 67-C ) :   1.1220 B( 58-O , 59-C ) :   1.0885
B( 59-C , 60-C ) :   1.3453 B( 59-C , 64-C ) :   1.3319 B( 60-C , 61-C ) :   1.4196
B( 60-C , 74-H ) :   0.9961 B( 61-C , 62-C ) :   1.3193 B( 61-C , 75-H ) :   0.9910
B( 62-C , 63-C ) :   1.4085 B( 62-C , 76-H ) :   0.9940 B( 63-C , 64-C ) :   1.3234
B( 63-C , 77-H ) :   1.0009 B( 64-C , 65-C ) :   1.0241 B( 65-C , 66-O ) :   2.0458
B( 67-C , 78-H ) :   0.9270 B( 67-C , 79-H ) :   0.9410 B( 67-C , 80-H ) :   0.9315

-----------------------------------------------------------------------------
         ABSORPTION SPECTRUM VIA TRANSITION ELECTRIC DIPOLE MOMENTS
-----------------------------------------------------------------------------
State   Energy  Wavelength   fosc         T2         TX        TY        TZ
        (cm-1)    (nm)                  (au**2)     (au)      (au)      (au)
-----------------------------------------------------------------------------
   0    9230.6   1083.3   0.759564775  27.08995  -0.21385  -5.14007  -0.78988
   1   12665.8    789.5   0.005025706   0.13063  -0.21327  -0.08164   0.28014
   2   13370.1    747.9   0.009011195   0.22188   0.00768   0.46504   0.07459
   3   18277.2    547.1   0.011767440   0.21196   0.26002  -0.16482  -0.34232
   4   22721.8    440.1   0.040705481   0.58977  -0.09382  -0.76111  -0.04110
   5   23254.0    430.0   0.002556952   0.03620  -0.16021   0.02586  -0.09932
   6   24197.9    413.3   0.004760119   0.06476   0.16079   0.04482  -0.19209
   7   25771.2    388.0   0.305091457   3.89736  -0.18148  -1.96209  -0.12102
   8   26543.9    376.7   0.067756695   0.84035  -0.10361   0.80723   0.42189
   9   26806.8    373.0   0.340212662   4.17813   0.04002  -1.95864  -0.58330
  10   27227.4    367.3   0.115215148   1.39309   0.38634   0.96626  -0.55693
  11   28250.4    354.0   1.001688460  11.67302   0.35026   3.39519   0.15181
  12   28760.1    347.7   0.008034956   0.09197   0.26621   0.14508  -0.00772
  13   29586.1    338.0   0.036702748   0.40840   0.19650   0.51298  -0.32656
  14   30155.6    331.6   0.327477571   3.57511  -0.40229   1.39856   1.20719
  15   30966.8    322.9   0.123247373   1.31026  -0.23594   0.84854   0.73115
  16   31078.4    321.8   0.200465917   2.12353  -0.41963   0.92732   1.04284
  17   31290.1    319.6   0.393102318   4.13595  -0.82285   0.42469   1.81066
  18   32003.6    312.5   0.083311627   0.85700   0.23571   0.82572  -0.34587
  19   32136.0    311.2   0.130986645   1.34187  -0.42476   0.04180   1.07689
  20   32213.1    310.4   0.392648830   4.01280  -0.77856  -0.49420   1.77832
  21   32496.5    307.7   0.338369569   3.42792   0.78380   1.15082  -1.22032
  22   32868.9    304.2   0.152804564   1.53048  -0.49401  -0.82433   0.77904
  23   33413.3    299.3   0.009024496   0.08892   0.10505  -0.19739  -0.19727
  24   33677.0    296.9   0.130082844   1.27163  -0.10149   1.06263   0.36354
  25   34508.3    289.8   0.000327722   0.00313   0.04945  -0.01408   0.02198
  26   34712.3    288.1   0.006423232   0.06092   0.18005  -0.04051  -0.16388
  27   34973.6    285.9   0.105175768   0.99003   0.33838  -0.50536  -0.78749
  28   35628.8    280.7   0.085554116   0.79052  -0.03437   0.76923   0.44455
  29   35709.5    280.0   0.007383732   0.06807  -0.04062  -0.22578  -0.12428
  30   36008.1    277.7   0.297230629   2.71749  -0.72450  -0.03862   1.48024
  31   36074.6    277.2   0.029646778   0.27055   0.23172   0.01721  -0.46536
  32   36582.8    273.4   0.231856226   2.08650  -0.57245  -0.65476   1.15329
  33   37408.2    267.3   0.014056986   0.12371  -0.17847  -0.26769   0.14213
  34   37576.3    266.1   0.002035649   0.01783  -0.03250  -0.08792   0.09512
  35   37663.0    265.5   0.003651232   0.03192   0.07491  -0.00995  -0.16188
  36   37805.1    264.5   0.182136282   1.58607   0.57709   0.57874  -0.95817
  37   37988.1    263.2   0.146189820   1.26691  -0.46828  -0.70210   0.74477
  38   38340.2    260.8   0.042150228   0.36193   0.18509  -0.54850  -0.16375
  39   38499.8    259.7   0.162767568   1.39183  -0.26047  -1.02179   0.52908
  40   38632.0    258.9   0.014073749   0.11993  -0.10748  -0.32856   0.02077
  41   38942.9    256.8   0.123428474   1.04343   0.36294  -0.26284  -0.91794
  42   39632.1    252.3   0.001743153   0.01448  -0.04174   0.00947   0.11246
  43   39690.9    251.9   0.001480952   0.01228   0.05557  -0.00761  -0.09559
  44   39883.9    250.7   0.013432350   0.11087  -0.07502   0.22684   0.23193
  45   40005.1    250.0   0.032972182   0.27134   0.03146  -0.39473  -0.33843
  46   40273.7    248.3   0.036887178   0.30153   0.06847  -0.49785  -0.22134
  47   40290.3    248.2   0.037561951   0.30692   0.11555   0.53698   0.07221

FINAL SINGLE POINT ENERGY     -4911.259741610960

DIPOLE MOMENT
-------------
                                X             Y             Z
Electronic contribution:     13.74134     137.10372       5.32884
Nuclear contribution   :    -12.39928    -140.50683      -8.77874
                        -----------------------------------------
Total Dipole Moment    :      1.34207      -3.40311      -3.44990
                        -----------------------------------------
Magnitude (a.u.)       :      5.02833
Magnitude (Debye)      :     12.78099

Rotational constants in cm-1:     0.002410     0.000250     0.000227
Rotational constants in MHz :    72.236073     7.489243     6.806551

                             ****ORCA TERMINATED NORMALLY****
TOTAL RUN TIME: 0 days 0 hours 7 minutes 54 seconds 12 msec
