                         Program Version 4.2.0 -  RELEASE  -
|  1> # ORCA input file
|  2> # SCF done       -197.178244023542          0.000801551616
|  3> ! CAM-B3LYP def2-SVP def2/J RIJCOSX Grid4 TightSCF
|  4> %maxcore 5000
|  5> %tddft
|  6>     Mode sTDDFT
|  7>     Ethresh 5.0
|  8>     maxcore 5000
|  9> end
| 10>
| 11> %pal
| 12>   nprocs 6
| 13>   end
| 14> * xyz 0 1
| 15>    C       -6.96133        -2.98315         3.22902
| 16>    C       -5.73416        -3.09184         3.87594
| 17>    C       -4.64581        -3.86888         3.33601
| 18>    N       -3.47733        -3.92345         4.01070
| 19>    C       -3.37038        -3.27533         5.13524
| 20>    C       -4.44056        -2.52010         5.66581
| 21>    N       -5.58246        -2.43193         5.05366
| 22>    C       -4.78197        -4.56757         2.10811
| 23>    C       -6.03417        -4.43965         1.47016
| 24>    C       -7.11404        -3.65458         2.02574
| 25>    N       -8.20145        -3.68426         1.24018
| 26>    S       -7.89248        -4.59264        -0.03930
| 27>    N       -6.38166        -5.00329         0.31126
| 28>    C       -3.75199        -5.35107         1.50996
| 29>    C       -2.47515        -5.62345         1.98315
| 30>    C       -1.72015        -6.40783         1.12397
| 31>    C       -2.42900        -6.74775        -0.02900
| 32>    S       -4.02325        -6.10813        -0.04569
| 33>    C       -1.73410        -7.52206        -0.98765
| 34>    C       -0.40921        -7.84072        -0.68872
| 35>   Si        0.01612        -7.14794         1.01993
| 36>    C        0.33976        -8.53802         2.25682
| 37>    C        1.13604        -8.32090         3.37713
| 38>    C        1.38256        -9.33791         4.28138
| 39>    C        0.83361       -10.59322         4.07913
| 40>    C        0.03734       -10.82475         2.96982
| 41>    C       -0.20634        -9.80505         2.06822
| 42>    C        1.37884        -5.84499         1.04497
| 43>    C        1.08624        -4.48455         1.06826
| 44>    C        2.09814        -3.54219         1.10931
| 45>    C        3.42227        -3.94662         1.12731
| 46>    C        3.72920        -5.29732         1.10422
| 47>    C        2.71485        -6.23591         1.06396
| 48>    C        0.18468        -8.58313        -1.70386
| 49>    C       -0.67321        -8.83211        -2.75596
| 50>    S       -2.24873        -8.14528        -2.50617
| 51>    C       -0.40881        -9.55245        -3.96436
| 52>    N       -1.42672        -9.72970        -4.80228
| 53>    C       -1.14309       -10.38679        -5.92451
| 54>    N        0.07809       -10.84487        -6.23774
| 55>    C        1.00387       -10.62365        -5.32873
| 56>    N        0.83744        -9.99959        -4.17998
| 57>    C       -2.20819       -10.62463        -6.84868
| 58>    C       -3.54511       -10.31376        -6.68882
| 59>    C       -4.32147       -10.70345        -7.77288
| 60>    C       -3.55406       -11.31267        -8.76773
| 61>    S       -1.88539       -11.41087        -8.36243
| 62>    C       -4.24488       -11.74558        -9.92358
| 63>    C       -5.62557       -11.53424        -9.93056
| 64>   Si       -6.13652       -10.71736        -8.30581
| 65>    C       -6.92340        -9.01626        -8.50613
| 66>    C       -7.30227        -8.52570        -9.75160
| 67>    C       -7.91246        -7.28961        -9.87053
| 68>    C       -8.15187        -6.52286        -8.74282
| 69>    C       -7.77975        -6.99803        -7.49579
| 70>    C       -7.17282        -8.23479        -7.38109
| 71>    C       -7.16305       -11.83918        -7.18435
| 72>    C       -6.61170       -12.99598        -6.63901
| 73>    C       -7.35772       -13.81715        -5.81405
| 74>    C       -8.67253       -13.49434        -5.52084
| 75>    C       -9.23514       -12.34807        -6.05665
| 76>    C       -8.48481       -11.52896        -6.88094
| 77>    C       -6.20649       -11.98044       -11.10755
| 78>    C       -5.29409       -12.52502       -12.00249
| 79>    S       -3.66940       -12.49460       -11.36415
| 80>    C       -5.56023       -13.05463       -13.29435
| 81>    C       -4.51740       -13.59026       -14.08732
| 82>    C       -4.74710       -14.13094       -15.39914
| 83>    N       -3.70514       -14.62972       -16.11256
| 84>    C       -2.52239       -14.59829       -15.57477
| 85>    C       -2.29521       -14.06682       -14.28357
| 86>    N       -3.27369       -13.58204       -13.57462
| 87>    C       -6.02116       -14.15216       -15.95573
| 88>    C       -7.06230       -13.63124       -15.19911
| 89>    C       -6.84747       -13.08137       -13.87378
| 90>    N       -7.98696       -12.63595       -13.33817
| 91>    S       -9.18551       -12.88203       -14.37726
| 92>    N       -8.35151       -13.55963       -15.56113
| 93>    H       -7.75295        -2.39462         3.65921
| 94>    H       -2.41844        -3.34339         5.64498
| 95>    H       -4.34431        -1.98660         6.60217
| 96>    H       -2.13246        -5.24425         2.92727
| 97>    H        1.56952        -7.34408         3.53660
| 98>    H        2.00490        -9.15315         5.14512
| 99>    H        1.02694       -11.38929         4.78336
|100>    H       -0.39167       -11.80294         2.80726
|101>    H       -0.82463        -9.99127         1.20174
|102>    H        0.05444        -4.16443         1.05798
|103>    H        1.85432        -2.48974         1.12862
|104>    H        4.21357        -3.21192         1.16015
|105>    H        4.76110        -5.61728         1.11902
|106>    H        2.95828        -7.28857         1.05081
|107>    H        1.19788        -8.94087        -1.70237
|108>    H        2.00054       -10.98985        -5.54614
|109>    H       -3.90878        -9.82492        -5.80357
|110>    H       -7.11724        -9.12045       -10.63417
|111>    H       -8.20269        -6.92293       -10.84461
|112>    H       -8.62761        -5.55731        -8.83463
|113>    H       -7.96464        -6.40304        -6.61301
|114>    H       -6.88854        -8.60448        -6.40649
|115>    H       -5.58542       -13.24947        -6.86381
|116>    H       -6.91477       -14.71000        -5.39694
|117>    H       -9.25660       -14.13446        -4.87572
|118>    H      -10.26029       -12.09236        -5.83036
|119>    H       -8.92588       -10.63303        -7.29386
|120>    H       -7.25542       -11.92572       -11.33472
|121>    H       -1.70917       -15.00142       -16.16361
|122>    H       -1.30977       -14.04359       -13.83998
|123>    H       -6.18523       -14.55776       -16.93889
|124> *
|125>
|126>                          ****END OF INPUT****

CARTESIAN COORDINATES (ANGSTROEM)
---------------------------------
  C     -6.961330   -2.983150    3.229020
  C     -5.734160   -3.091840    3.875940
  C     -4.645810   -3.868880    3.336010
  N     -3.477330   -3.923450    4.010700
  C     -3.370380   -3.275330    5.135240
  C     -4.440560   -2.520100    5.665810
  N     -5.582460   -2.431930    5.053660
  C     -4.781970   -4.567570    2.108110
  C     -6.034170   -4.439650    1.470160
  C     -7.114040   -3.654580    2.025740
  N     -8.201450   -3.684260    1.240180
  S     -7.892480   -4.592640   -0.039300
  N     -6.381660   -5.003290    0.311260
  C     -3.751990   -5.351070    1.509960
  C     -2.475150   -5.623450    1.983150
  C     -1.720150   -6.407830    1.123970
  C     -2.429000   -6.747750   -0.029000
  S     -4.023250   -6.108130   -0.045690
  C     -1.734100   -7.522060   -0.987650
  C     -0.409210   -7.840720   -0.688720
  Si     0.016120   -7.147940    1.019930
  C      0.339760   -8.538020    2.256820
  C      1.136040   -8.320900    3.377130
  C      1.382560   -9.337910    4.281380
  C      0.833610  -10.593220    4.079130
  C      0.037340  -10.824750    2.969820
  C     -0.206340   -9.805050    2.068220
  C      1.378840   -5.844990    1.044970
  C      1.086240   -4.484550    1.068260
  C      2.098140   -3.542190    1.109310
  C      3.422270   -3.946620    1.127310
  C      3.729200   -5.297320    1.104220
  C      2.714850   -6.235910    1.063960
  C      0.184680   -8.583130   -1.703860
  C     -0.673210   -8.832110   -2.755960
  S     -2.248730   -8.145280   -2.506170
  C     -0.408810   -9.552450   -3.964360
  N     -1.426720   -9.729700   -4.802280
  C     -1.143090  -10.386790   -5.924510
  N      0.078090  -10.844870   -6.237740
  C      1.003870  -10.623650   -5.328730
  N      0.837440   -9.999590   -4.179980
  C     -2.208190  -10.624630   -6.848680
  C     -3.545110  -10.313760   -6.688820
  C     -4.321470  -10.703450   -7.772880
  C     -3.554060  -11.312670   -8.767730
  S     -1.885390  -11.410870   -8.362430
  C     -4.244880  -11.745580   -9.923580
  C     -5.625570  -11.534240   -9.930560
  Si    -6.136520  -10.717360   -8.305810
  C     -6.923400   -9.016260   -8.506130
  C     -7.302270   -8.525700   -9.751600
  C     -7.912460   -7.289610   -9.870530
  C     -8.151870   -6.522860   -8.742820
  C     -7.779750   -6.998030   -7.495790
  C     -7.172820   -8.234790   -7.381090
  C     -7.163050  -11.839180   -7.184350
  C     -6.611700  -12.995980   -6.639010
  C     -7.357720  -13.817150   -5.814050
  C     -8.672530  -13.494340   -5.520840
  C     -9.235140  -12.348070   -6.056650
  C     -8.484810  -11.528960   -6.880940
  C     -6.206490  -11.980440  -11.107550
  C     -5.294090  -12.525020  -12.002490
  S     -3.669400  -12.494600  -11.364150
  C     -5.560230  -13.054630  -13.294350
  C     -4.517400  -13.590260  -14.087320
  C     -4.747100  -14.130940  -15.399140
  N     -3.705140  -14.629720  -16.112560
  C     -2.522390  -14.598290  -15.574770
  C     -2.295210  -14.066820  -14.283570
  N     -3.273690  -13.582040  -13.574620
  C     -6.021160  -14.152160  -15.955730
  C     -7.062300  -13.631240  -15.199110
  C     -6.847470  -13.081370  -13.873780
  N     -7.986960  -12.635950  -13.338170
  S     -9.185510  -12.882030  -14.377260
  N     -8.351510  -13.559630  -15.561130
  H     -7.752950   -2.394620    3.659210
  H     -2.418440   -3.343390    5.644980
  H     -4.344310   -1.986600    6.602170
  H     -2.132460   -5.244250    2.927270
  H      1.569520   -7.344080    3.536600
  H      2.004900   -9.153150    5.145120
  H      1.026940  -11.389290    4.783360
  H     -0.391670  -11.802940    2.807260
  H     -0.824630   -9.991270    1.201740
  H      0.054440   -4.164430    1.057980
  H      1.854320   -2.489740    1.128620
  H      4.213570   -3.211920    1.160150
  H      4.761100   -5.617280    1.119020
  H      2.958280   -7.288570    1.050810
  H      1.197880   -8.940870   -1.702370
  H      2.000540  -10.989850   -5.546140
  H     -3.908780   -9.824920   -5.803570
  H     -7.117240   -9.120450  -10.634170
  H     -8.202690   -6.922930  -10.844610
  H     -8.627610   -5.557310   -8.834630
  H     -7.964640   -6.403040   -6.613010
  H     -6.888540   -8.604480   -6.406490
  H     -5.585420  -13.249470   -6.863810
  H     -6.914770  -14.710000   -5.396940
  H     -9.256600  -14.134460   -4.875720
  H    -10.260290  -12.092360   -5.830360
  H     -8.925880  -10.633030   -7.293860
  H     -7.255420  -11.925720  -11.334720
  H     -1.709170  -15.001420  -16.163610
  H     -1.309770  -14.043590  -13.839980
  H     -6.185230  -14.557760  -16.938890

 Total Charge           Charge          ....    0
 Multiplicity           Mult            ....    1
 Number of Electrons    NEL             ....  586
 Basis Dimension        Dim             .... 1279

ORBITAL ENERGIES
----------------

  NO   OCC          E(Eh)            E(eV)
   0   2.0000     -89.029987     -2422.6291
   1   2.0000     -89.027839     -2422.5707
   2   2.0000     -88.953197     -2420.5395
   3   2.0000     -88.952300     -2420.5151
   4   2.0000     -88.948454     -2420.4105
   5   2.0000     -88.947176     -2420.3757
   6   2.0000     -66.196249     -1801.2915
   7   2.0000     -66.195009     -1801.2578
   8   2.0000     -14.438188      -392.8831
   9   2.0000     -14.437016      -392.8512
  10   2.0000     -14.434564      -392.7844
  11   2.0000     -14.433194      -392.7472
  12   2.0000     -14.430031      -392.6611
  13   2.0000     -14.424585      -392.5129
  14   2.0000     -14.423328      -392.4787
  15   2.0000     -14.421729      -392.4352
  16   2.0000     -14.403167      -391.9301
  17   2.0000     -14.399159      -391.8210
  18   2.0000     -14.398516      -391.8035
  19   2.0000     -10.349760      -281.6313
  20   2.0000     -10.349382      -281.6210
  21   2.0000     -10.336878      -281.2807
  22   2.0000     -10.323926      -280.9283
  23   2.0000     -10.323756      -280.9237
  24   2.0000     -10.322418      -280.8873
  25   2.0000     -10.321037      -280.8497
  26   2.0000     -10.320672      -280.8398
  27   2.0000     -10.320639      -280.8389
  28   2.0000     -10.320426      -280.8331
  29   2.0000     -10.319506      -280.8080
  30   2.0000     -10.319188      -280.7994
  31   2.0000     -10.317980      -280.7665
  32   2.0000     -10.317545      -280.7547
  33   2.0000     -10.317466      -280.7525
  34   2.0000     -10.303710      -280.3782
  35   2.0000     -10.302909      -280.3564
  36   2.0000     -10.300796      -280.2989
  37   2.0000     -10.299629      -280.2671
  38   2.0000     -10.294813      -280.1361
  39   2.0000     -10.294058      -280.1156
  40   2.0000     -10.292759      -280.0802
  41   2.0000     -10.289619      -279.9948
  42   2.0000     -10.285590      -279.8851
  43   2.0000     -10.284975      -279.8684
  44   2.0000     -10.276555      -279.6393
  45   2.0000     -10.276336      -279.6333
  46   2.0000     -10.271372      -279.4983
  47   2.0000     -10.270818      -279.4832
  48   2.0000     -10.267031      -279.3801
  49   2.0000     -10.266669      -279.3703
  50   2.0000     -10.266544      -279.3669
  51   2.0000     -10.266298      -279.3602
  52   2.0000     -10.265353      -279.3345
  53   2.0000     -10.265032      -279.3257
  54   2.0000     -10.264551      -279.3126
  55   2.0000     -10.264349      -279.3071
  56   2.0000     -10.264166      -279.3022
  57   2.0000     -10.264059      -279.2992
  58   2.0000     -10.263821      -279.2928
  59   2.0000     -10.263581      -279.2862
  60   2.0000     -10.263424      -279.2820
  61   2.0000     -10.263140      -279.2742
  62   2.0000     -10.262808      -279.2652
  63   2.0000     -10.262158      -279.2475
  64   2.0000     -10.262040      -279.2443
  65   2.0000     -10.261601      -279.2324
  66   2.0000     -10.261565      -279.2314
  67   2.0000     -10.261548      -279.2309
  68   2.0000     -10.260077      -279.1909
  69   2.0000     -10.259954      -279.1875
  70   2.0000     -10.254831      -279.0481
  71   2.0000     -10.254647      -279.0431
  72   2.0000     -10.252713      -278.9905
  73   2.0000     -10.250774      -278.9377
  74   2.0000     -10.248923      -278.8874
  75   2.0000     -10.247949      -278.8609
  76   2.0000     -10.245770      -278.8016
  77   2.0000     -10.245261      -278.7877
  78   2.0000      -8.121193      -220.9889
  79   2.0000      -8.119315      -220.9378
  80   2.0000      -8.048041      -218.9983
  81   2.0000      -8.047254      -218.9769
  82   2.0000      -8.042675      -218.8523
  83   2.0000      -8.040395      -218.7903
  84   2.0000      -6.092142      -165.7756
  85   2.0000      -6.090287      -165.7251
  86   2.0000      -6.084481      -165.5671
  87   2.0000      -6.084179      -165.5589
  88   2.0000      -6.082509      -165.5135
  89   2.0000      -6.082322      -165.5084
  90   2.0000      -6.017120      -163.7342
  91   2.0000      -6.016280      -163.7113
  92   2.0000      -6.013087      -163.6244
  93   2.0000      -6.012294      -163.6028
  94   2.0000      -6.011957      -163.5937
  95   2.0000      -6.010555      -163.5555
  96   2.0000      -6.009872      -163.5369
  97   2.0000      -6.009767      -163.5341
  98   2.0000      -6.007628      -163.4759
  99   2.0000      -6.005256      -163.4113
 100   2.0000      -6.004982      -163.4039
 101   2.0000      -6.002750      -163.3431
 102   2.0000      -5.359169      -145.8304
 103   2.0000      -5.358042      -145.7997
 104   2.0000      -3.722344      -101.2901
 105   2.0000      -3.721440      -101.2655
 106   2.0000      -3.721249      -101.2603
 107   2.0000      -3.720857      -101.2497
 108   2.0000      -3.720304      -101.2346
 109   2.0000      -3.719675      -101.2175
 110   2.0000      -1.124712       -30.6050
 111   2.0000      -1.122792       -30.5527
 112   2.0000      -1.106747       -30.1161
 113   2.0000      -1.082940       -29.4683
 114   2.0000      -1.078658       -29.3518
 115   2.0000      -1.008724       -27.4488
 116   2.0000      -1.003980       -27.3197
 117   2.0000      -0.996086       -27.1049
 118   2.0000      -0.989995       -26.9391
 119   2.0000      -0.983672       -26.7671
 120   2.0000      -0.980024       -26.6678
 121   2.0000      -0.974598       -26.5201
 122   2.0000      -0.973367       -26.4867
 123   2.0000      -0.960029       -26.1237
 124   2.0000      -0.957717       -26.0608
 125   2.0000      -0.943450       -25.6726
 126   2.0000      -0.942713       -25.6525
 127   2.0000      -0.939832       -25.5741
 128   2.0000      -0.939700       -25.5705
 129   2.0000      -0.936636       -25.4872
 130   2.0000      -0.934948       -25.4412
 131   2.0000      -0.875857       -23.8333
 132   2.0000      -0.875115       -23.8131
 133   2.0000      -0.864454       -23.5230
 134   2.0000      -0.864028       -23.5114
 135   2.0000      -0.845394       -23.0043
 136   2.0000      -0.842521       -22.9262
 137   2.0000      -0.834502       -22.7080
 138   2.0000      -0.833593       -22.6832
 139   2.0000      -0.826636       -22.4939
 140   2.0000      -0.826251       -22.4834
 141   2.0000      -0.824302       -22.4304
 142   2.0000      -0.823569       -22.4104
 143   2.0000      -0.821520       -22.3547
 144   2.0000      -0.820384       -22.3238
 145   2.0000      -0.818706       -22.2781
 146   2.0000      -0.817471       -22.2445
 147   2.0000      -0.812001       -22.0957
 148   2.0000      -0.811186       -22.0735
 149   2.0000      -0.798164       -21.7192
 150   2.0000      -0.790042       -21.4981
 151   2.0000      -0.783973       -21.3330
 152   2.0000      -0.781135       -21.2558
 153   2.0000      -0.748212       -20.3599
 154   2.0000      -0.746746       -20.3200
 155   2.0000      -0.737512       -20.0687
 156   2.0000      -0.734908       -19.9979
 157   2.0000      -0.711460       -19.3598
 158   2.0000      -0.701864       -19.0987
 159   2.0000      -0.694455       -18.8971
 160   2.0000      -0.690409       -18.7870
 161   2.0000      -0.688757       -18.7420
 162   2.0000      -0.682843       -18.5811
 163   2.0000      -0.681433       -18.5427
 164   2.0000      -0.680555       -18.5188
 165   2.0000      -0.676746       -18.4152
 166   2.0000      -0.675998       -18.3948
 167   2.0000      -0.668829       -18.1998
 168   2.0000      -0.667893       -18.1743
 169   2.0000      -0.664377       -18.0786
 170   2.0000      -0.660401       -17.9704
 171   2.0000      -0.658484       -17.9183
 172   2.0000      -0.650833       -17.7101
 173   2.0000      -0.646326       -17.5874
 174   2.0000      -0.634160       -17.2564
 175   2.0000      -0.627710       -17.0809
 176   2.0000      -0.622863       -16.9490
 177   2.0000      -0.621315       -16.9068
 178   2.0000      -0.617042       -16.7906
 179   2.0000      -0.614097       -16.7104
 180   2.0000      -0.611883       -16.6502
 181   2.0000      -0.607466       -16.5300
 182   2.0000      -0.599634       -16.3169
 183   2.0000      -0.597748       -16.2656
 184   2.0000      -0.593525       -16.1506
 185   2.0000      -0.592890       -16.1334
 186   2.0000      -0.586389       -15.9565
 187   2.0000      -0.579257       -15.7624
 188   2.0000      -0.572153       -15.5691
 189   2.0000      -0.568818       -15.4783
 190   2.0000      -0.559551       -15.2261
 191   2.0000      -0.551632       -15.0107
 192   2.0000      -0.550931       -14.9916
 193   2.0000      -0.550470       -14.9791
 194   2.0000      -0.547686       -14.9033
 195   2.0000      -0.546282       -14.8651
 196   2.0000      -0.541320       -14.7301
 197   2.0000      -0.538345       -14.6491
 198   2.0000      -0.534837       -14.5537
 199   2.0000      -0.532422       -14.4879
 200   2.0000      -0.529269       -14.4021
 201   2.0000      -0.526611       -14.3298
 202   2.0000      -0.525901       -14.3105
 203   2.0000      -0.524382       -14.2691
 204   2.0000      -0.523346       -14.2410
 205   2.0000      -0.521488       -14.1904
 206   2.0000      -0.519932       -14.1481
 207   2.0000      -0.518894       -14.1198
 208   2.0000      -0.517524       -14.0825
 209   2.0000      -0.516910       -14.0658
 210   2.0000      -0.508816       -13.8456
 211   2.0000      -0.507731       -13.8161
 212   2.0000      -0.505962       -13.7679
 213   2.0000      -0.501319       -13.6416
 214   2.0000      -0.496962       -13.5230
 215   2.0000      -0.496173       -13.5015
 216   2.0000      -0.495397       -13.4804
 217   2.0000      -0.494211       -13.4482
 218   2.0000      -0.493323       -13.4240
 219   2.0000      -0.491910       -13.3856
 220   2.0000      -0.489051       -13.3078
 221   2.0000      -0.487104       -13.2548
 222   2.0000      -0.480179       -13.0663
 223   2.0000      -0.478406       -13.0181
 224   2.0000      -0.466677       -12.6989
 225   2.0000      -0.465961       -12.6795
 226   2.0000      -0.465823       -12.6757
 227   2.0000      -0.465135       -12.6570
 228   2.0000      -0.463963       -12.6251
 229   2.0000      -0.461701       -12.5635
 230   2.0000      -0.461306       -12.5528
 231   2.0000      -0.456007       -12.4086
 232   2.0000      -0.451052       -12.2737
 233   2.0000      -0.450609       -12.2617
 234   2.0000      -0.448598       -12.2070
 235   2.0000      -0.446188       -12.1414
 236   2.0000      -0.445168       -12.1136
 237   2.0000      -0.443905       -12.0793
 238   2.0000      -0.442373       -12.0376
 239   2.0000      -0.441658       -12.0181
 240   2.0000      -0.436844       -11.8871
 241   2.0000      -0.432177       -11.7601
 242   2.0000      -0.431660       -11.7461
 243   2.0000      -0.427898       -11.6437
 244   2.0000      -0.427546       -11.6341
 245   2.0000      -0.423415       -11.5217
 246   2.0000      -0.420794       -11.4504
 247   2.0000      -0.419545       -11.4164
 248   2.0000      -0.417995       -11.3742
 249   2.0000      -0.411020       -11.1844
 250   2.0000      -0.410777       -11.1778
 251   2.0000      -0.408309       -11.1107
 252   2.0000      -0.406663       -11.0659
 253   2.0000      -0.401415       -10.9231
 254   2.0000      -0.400357       -10.8943
 255   2.0000      -0.394671       -10.7396
 256   2.0000      -0.393789       -10.7155
 257   2.0000      -0.393562       -10.7094
 258   2.0000      -0.392202       -10.6724
 259   2.0000      -0.390940       -10.6380
 260   2.0000      -0.385405       -10.4874
 261   2.0000      -0.378782       -10.3072
 262   2.0000      -0.375887       -10.2284
 263   2.0000      -0.373690       -10.1686
 264   2.0000      -0.371451       -10.1077
 265   2.0000      -0.370758       -10.0888
 266   2.0000      -0.363777        -9.8989
 267   2.0000      -0.359676        -9.7873
 268   2.0000      -0.349786        -9.5182
 269   2.0000      -0.342568        -9.3217
 270   2.0000      -0.338298        -9.2056
 271   2.0000      -0.331210        -9.0127
 272   2.0000      -0.330434        -8.9916
 273   2.0000      -0.330264        -8.9869
 274   2.0000      -0.327109        -8.9011
 275   2.0000      -0.321215        -8.7407
 276   2.0000      -0.320779        -8.7288
 277   2.0000      -0.319270        -8.6878
 278   2.0000      -0.317741        -8.6462
 279   2.0000      -0.317464        -8.6386
 280   2.0000      -0.315968        -8.5979
 281   2.0000      -0.315918        -8.5966
 282   2.0000      -0.313627        -8.5342
 283   2.0000      -0.313601        -8.5335
 284   2.0000      -0.313042        -8.5183
 285   2.0000      -0.310209        -8.4412
 286   2.0000      -0.309891        -8.4326
 287   2.0000      -0.306517        -8.3408
 288   2.0000      -0.304318        -8.2809
 289   2.0000      -0.289684        -7.8827
 290   2.0000      -0.288314        -7.8454
 291   2.0000      -0.233567        -6.3557
 292   2.0000      -0.231804        -6.3077
 293   0.0000      -0.092904        -2.5281
 294   0.0000      -0.091719        -2.4958
 295   0.0000      -0.041757        -1.1363
 296   0.0000      -0.031397        -0.8544
 297   0.0000      -0.004884        -0.1329

MULLIKEN ATOMIC CHARGES
-----------------------
   0 C :   -0.105785
   1 C :    0.019566
   2 C :   -0.086877
   3 N :   -0.026602
   4 C :    0.031375
   5 C :    0.020798
   6 N :   -0.024949
   7 C :    0.241871
   8 C :   -0.056506
   9 C :    0.119374
  10 N :   -0.275633
  11 S :    0.533895
  12 N :   -0.327436
  13 C :   -0.193850
  14 C :   -0.025475
  15 C :   -0.116815
  16 C :   -0.054454
  17 S :    0.168071
  18 C :   -0.077538
  19 C :   -0.138020
  20 Si:    0.646722
  21 C :   -0.123501
  22 C :   -0.013323
  23 C :    0.026577
  24 C :    0.020300
  25 C :    0.034026
  26 C :   -0.004748
  27 C :   -0.127990
  28 C :   -0.008627
  29 C :    0.029333
  30 C :    0.019967
  31 C :    0.026897
  32 C :   -0.005381
  33 C :   -0.023175
  34 C :   -0.064974
  35 S :    0.193108
  36 C :   -0.022312
  37 N :   -0.065405
  38 C :   -0.026589
  39 N :   -0.116649
  40 C :    0.112935
  41 N :   -0.103734
  42 C :   -0.062285
  43 C :   -0.026704
  44 C :   -0.132739
  45 C :   -0.079244
  46 S :    0.201030
  47 C :   -0.056342
  48 C :   -0.112731
  49 Si:    0.634152
  50 C :   -0.131282
  51 C :   -0.006951
  52 C :    0.028835
  53 C :    0.024695
  54 C :    0.028117
  55 C :   -0.001592
  56 C :   -0.111916
  57 C :   -0.001878
  58 C :    0.031237
  59 C :    0.019632
  60 C :    0.027921
  61 C :   -0.019857
  62 C :   -0.034706
  63 C :   -0.180957
  64 S :    0.166597
  65 C :    0.221277
  66 C :   -0.064282
  67 C :    0.025941
  68 N :   -0.018627
  69 C :    0.017393
  70 C :    0.040318
  71 N :   -0.071793
  72 C :   -0.097675
  73 C :    0.105501
  74 C :   -0.051479
  75 N :   -0.291871
  76 S :    0.526352
  77 N :   -0.276966
  78 H :   -0.032477
  79 H :    0.010648
  80 H :    0.014243
  81 H :   -0.007271
  82 H :   -0.014130
  83 H :   -0.017818
  84 H :   -0.013766
  85 H :   -0.015995
  86 H :   -0.005562
  87 H :   -0.010244
  88 H :   -0.015395
  89 H :   -0.012018
  90 H :   -0.015457
  91 H :   -0.010099
  92 H :   -0.006109
  93 H :    0.010789
  94 H :   -0.007860
  95 H :   -0.016450
  96 H :   -0.016561
  97 H :   -0.013607
  98 H :   -0.016003
  99 H :   -0.010967
 100 H :   -0.006096
 101 H :   -0.016191
 102 H :   -0.013980
 103 H :   -0.018265
 104 H :   -0.012406
 105 H :   -0.003784
 106 H :    0.016843
 107 H :    0.014673
 108 H :   -0.034274
Sum of atomic charges:   -0.0000000

LOEWDIN ATOMIC CHARGES
----------------------
   0 C :   -0.027774
   1 C :   -0.009643
   2 C :   -0.018487
   3 N :   -0.026318
   4 C :    0.005099
   5 C :    0.005277
   6 N :   -0.035601
   7 C :   -0.026089
   8 C :   -0.055067
   9 C :   -0.050164
  10 N :   -0.291931
  11 S :    0.669080
  12 N :   -0.307753
  13 C :   -0.173049
  14 C :   -0.031332
  15 C :   -0.206501
  16 C :   -0.192730
  17 S :    0.476197
  18 C :   -0.182651
  19 C :   -0.205614
  20 Si:    0.687077
  21 C :   -0.179304
  22 C :   -0.024807
  23 C :   -0.027411
  24 C :   -0.016897
  25 C :   -0.024766
  26 C :   -0.015916
  27 C :   -0.179218
  28 C :   -0.018726
  29 C :   -0.025532
  30 C :   -0.016317
  31 C :   -0.025844
  32 C :   -0.022631
  33 C :   -0.014518
  34 C :   -0.204239
  35 S :    0.473129
  36 C :    0.035713
  37 N :   -0.122286
  38 C :    0.037045
  39 N :   -0.134999
  40 C :    0.070698
  41 N :   -0.122993
  42 C :   -0.206513
  43 C :   -0.014424
  44 C :   -0.204424
  45 C :   -0.182494
  46 S :    0.477304
  47 C :   -0.194470
  48 C :   -0.206503
  49 Si:    0.686211
  50 C :   -0.178164
  51 C :   -0.020356
  52 C :   -0.024764
  53 C :   -0.016323
  54 C :   -0.025377
  55 C :   -0.021773
  56 C :   -0.178622
  57 C :   -0.015332
  58 C :   -0.025255
  59 C :   -0.017477
  60 C :   -0.027586
  61 C :   -0.025605
  62 C :   -0.032916
  63 C :   -0.174983
  64 S :    0.476864
  65 C :   -0.024548
  66 C :   -0.026986
  67 C :   -0.011121
  68 N :   -0.034050
  69 C :    0.007408
  70 C :    0.012143
  71 N :   -0.046944
  72 C :   -0.029057
  73 C :   -0.048562
  74 C :   -0.045952
  75 N :   -0.287206
  76 S :    0.664997
  77 N :   -0.292681
  78 H :    0.041536
  79 H :    0.025584
  80 H :    0.026802
  81 H :    0.026487
  82 H :    0.024572
  83 H :    0.026551
  84 H :    0.027448
  85 H :    0.027594
  86 H :    0.027935
  87 H :    0.027745
  88 H :    0.027594
  89 H :    0.027968
  90 H :    0.027573
  91 H :    0.025199
  92 H :    0.035637
  93 H :    0.020109
  94 H :    0.033825
  95 H :    0.027269
  96 H :    0.027409
  97 H :    0.027823
  98 H :    0.027411
  99 H :    0.024988
 100 H :    0.027771
 101 H :    0.027330
 102 H :    0.027191
 103 H :    0.026348
 104 H :    0.025144
 105 H :    0.027375
 106 H :    0.027528
 107 H :    0.028078
 108 H :    0.041511

  Mayer bond orders larger than 0.100000
B(  0-C ,  1-C ) :   1.3127 B(  0-C ,  7-C ) :   0.1396 B(  0-C ,  9-C ) :   1.1810
B(  0-C , 78-H ) :   1.0620 B(  1-C ,  2-C ) :   1.1342 B(  1-C ,  6-N ) :   1.3544
B(  2-C ,  3-N ) :   1.4423 B(  2-C ,  7-C ) :   1.2858 B(  3-N ,  4-C ) :   1.6937
B(  4-C ,  5-C ) :   1.1679 B(  4-C , 79-H ) :   0.9728 B(  5-C ,  6-N ) :   1.7372
B(  5-C , 80-H ) :   0.9740 B(  7-C ,  8-C ) :   1.2008 B(  7-C , 13-C ) :   1.1631
B(  8-C ,  9-C ) :   1.1316 B(  8-C , 12-N ) :   1.4631 B(  9-C , 10-N ) :   1.4499
B( 10-N , 11-S ) :   1.3065 B( 10-N , 12-N ) :   0.1636 B( 11-S , 12-N ) :   1.2755
B( 13-C , 14-C ) :   1.4436 B( 13-C , 17-S ) :   1.1071 B( 14-C , 15-C ) :   1.2333
B( 14-C , 81-H ) :   0.9872 B( 15-C , 16-C ) :   1.4736 B( 15-C , 20-Si) :   0.8944
B( 16-C , 17-S ) :   1.1006 B( 16-C , 18-C ) :   1.1499 B( 18-C , 19-C ) :   1.4867
B( 18-C , 34-C ) :   0.1062 B( 18-C , 35-S ) :   1.1275 B( 19-C , 20-Si) :   0.8952
B( 19-C , 33-C ) :   1.2419 B( 20-Si, 21-C ) :   0.9588 B( 20-Si, 27-C ) :   0.9540
B( 21-C , 22-C ) :   1.3724 B( 21-C , 26-C ) :   1.3683 B( 22-C , 23-C ) :   1.3896
B( 22-C , 82-H ) :   0.9912 B( 23-C , 24-C ) :   1.3901 B( 23-C , 83-H ) :   0.9924
B( 24-C , 25-C ) :   1.3843 B( 24-C , 84-H ) :   0.9913 B( 25-C , 26-C ) :   1.3933
B( 25-C , 85-H ) :   0.9924 B( 26-C , 86-H ) :   0.9923 B( 27-C , 28-C ) :   1.3785
B( 27-C , 32-C ) :   1.3617 B( 28-C , 29-C ) :   1.3857 B( 28-C , 87-H ) :   0.9946
B( 29-C , 30-C ) :   1.3901 B( 29-C , 88-H ) :   0.9935 B( 30-C , 31-C ) :   1.3862
B( 30-C , 89-H ) :   0.9918 B( 31-C , 32-C ) :   1.3908 B( 31-C , 90-H ) :   0.9936
B( 32-C , 91-H ) :   0.9905 B( 33-C , 34-C ) :   1.4918 B( 33-C , 92-H ) :   1.0081
B( 34-C , 35-S ) :   1.1063 B( 34-C , 36-C ) :   1.0429 B( 36-C , 37-N ) :   1.5747
B( 36-C , 41-N ) :   1.5676 B( 37-N , 38-C ) :   1.5682 B( 38-C , 39-N ) :   1.5724
B( 38-C , 42-C ) :   1.0558 B( 39-N , 40-C ) :   1.5095 B( 40-C , 41-N ) :   1.5141
B( 40-C , 93-H ) :   0.9758 B( 42-C , 43-C ) :   1.4845 B( 42-C , 45-C ) :   0.1041
B( 42-C , 46-S ) :   1.1035 B( 43-C , 44-C ) :   1.2506 B( 43-C , 94-H ) :   1.0058
B( 44-C , 45-C ) :   1.4814 B( 44-C , 49-Si) :   0.8961 B( 45-C , 46-S ) :   1.1282
B( 45-C , 47-C ) :   1.1558 B( 47-C , 48-C ) :   1.4812 B( 47-C , 64-S ) :   1.0770
B( 48-C , 49-Si) :   0.8960 B( 48-C , 62-C ) :   1.2438 B( 49-Si, 50-C ) :   0.9538
B( 49-Si, 56-C ) :   0.9657 B( 50-C , 51-C ) :   1.3763 B( 50-C , 55-C ) :   1.3600
B( 51-C , 52-C ) :   1.3883 B( 51-C , 95-H ) :   0.9946 B( 52-C , 53-C ) :   1.3927
B( 52-C , 96-H ) :   0.9927 B( 53-C , 54-C ) :   1.3823 B( 53-C , 97-H ) :   0.9915
B( 54-C , 55-C ) :   1.3945 B( 54-C , 98-H ) :   0.9926 B( 55-C , 99-H ) :   0.9889
B( 56-C , 57-C ) :   1.3636 B( 56-C , 61-C ) :   1.3754 B( 57-C , 58-C ) :   1.3942
B( 57-C ,100-H ) :   0.9921 B( 58-C , 59-C ) :   1.3802 B( 58-C ,101-H ) :   0.9936
B( 59-C , 60-C ) :   1.3936 B( 59-C ,102-H ) :   0.9919 B( 60-C , 61-C ) :   1.3842
B( 60-C ,103-H ) :   0.9926 B( 61-C ,104-H ) :   0.9937 B( 62-C , 63-C ) :   1.4445
B( 62-C ,105-H ) :   0.9863 B( 63-C , 64-S ) :   1.1009 B( 63-C , 65-C ) :   1.1739
B( 65-C , 66-C ) :   1.2739 B( 65-C , 72-C ) :   0.1388 B( 65-C , 74-C ) :   1.2163
B( 66-C , 67-C ) :   1.1434 B( 66-C , 71-N ) :   1.3876 B( 67-C , 68-N ) :   1.3558
B( 67-C , 72-C ) :   1.3176 B( 68-N , 69-C ) :   1.7361 B( 69-C , 70-C ) :   1.1711
B( 69-C ,106-H ) :   0.9746 B( 70-C , 71-N ) :   1.6788 B( 70-C ,107-H ) :   0.9734
B( 72-C , 73-C ) :   1.1825 B( 72-C ,108-H ) :   1.0597 B( 73-C , 74-C ) :   1.1215
B( 73-C , 77-N ) :   1.4525 B( 74-C , 75-N ) :   1.4993 B( 75-N , 76-S ) :   1.2769
B( 75-N , 77-N ) :   0.1623 B( 76-S , 77-N ) :   1.3035

-----------------------------------------------------------------------------
         ABSORPTION SPECTRUM VIA TRANSITION ELECTRIC DIPOLE MOMENTS
-----------------------------------------------------------------------------
State   Energy  Wavelength   fosc         T2         TX        TY        TZ
        (cm-1)    (nm)                  (au**2)     (au)      (au)      (au)
-----------------------------------------------------------------------------
   0   14518.9    688.8   0.928051369  21.04336   0.20679  -2.25175  -3.99127
   1   15211.7    657.4   0.295930037   6.40454   2.31073  -1.03170  -0.02550
   2   22128.6    451.9   0.021761986   0.32376   0.30809   0.16641   0.44850
   3   22907.2    436.5   0.028080722   0.40356  -0.15054   0.33370   0.51918
   4   24310.0    411.4   0.002080121   0.02817  -0.03927  -0.14946   0.06550
   5   24908.4    401.5   0.003680326   0.04864  -0.06645  -0.14358   0.15366
   6   25624.4    390.3   1.080081132  13.87642   0.55054   1.69040   3.27351
   7   26943.9    371.1   0.144700461   1.76801  -1.25929   0.42685   0.00199
   8   27393.3    365.1   0.072973195   0.87699  -0.79944  -0.02562  -0.48706
   9   27762.2    360.2   0.163938097   1.94402   1.32333  -0.41241  -0.15082
  10   28799.8    347.2   0.003238187   0.03702  -0.01457  -0.07860  -0.17500
  11   29104.9    343.6   0.004477348   0.05064  -0.14907   0.11481   0.12345
  12   30237.8    330.7   0.027885728   0.30360  -0.15190   0.28328   0.44753
  13   30568.4    327.1   0.023481404   0.25289  -0.37660  -0.09005  -0.32086
  14   30981.6    322.8   0.018601040   0.19766  -0.13983  -0.16398  -0.38886
  15   31246.8    320.0   0.013726723   0.14462   0.31267   0.02101   0.21545
  16   31441.6    318.1   0.000758319   0.00794   0.06720   0.05164   0.02750
  17   32919.1    303.8   0.098353960   0.98360   0.91624  -0.31971  -0.20469
  18   33095.0    302.2   0.037923202   0.37724   0.60006  -0.04017  -0.12473
  19   33166.5    301.5   0.227174056   2.25494  -0.93570  -0.31402  -1.13172
  20   33880.5    295.2   0.008521299   0.08280   0.27141  -0.07910   0.05367
  21   33985.1    294.2   0.009384654   0.09091  -0.19886  -0.09907  -0.20384
  22   34274.1    291.8   0.020626253   0.19812   0.16227   0.13062   0.39335
  23   34835.7    287.1   0.000952690   0.00900  -0.07316  -0.05179   0.03112
  24   34931.0    286.3   0.003977328   0.03748  -0.09695  -0.07051  -0.15204
  25   35183.4    284.2   0.005270531   0.04932  -0.19126   0.10845   0.03126
  26   35229.2    283.9   0.001167059   0.01091   0.06207  -0.04590   0.07033
  27   35334.7    283.0   0.046531593   0.43353   0.63193  -0.11467   0.14509
  28   35575.8    281.1   0.000273755   0.00253   0.00329   0.03583  -0.03520
  29   35775.1    279.5   0.012066042   0.11103   0.33264  -0.01573  -0.01181
  30   35898.0    278.6   0.002018379   0.01851   0.08170   0.10459   0.02993
  31   36119.3    276.9   0.047987139   0.43738  -0.65363   0.09843  -0.02146
  32   36382.1    274.9   0.031156954   0.28193   0.38010  -0.31367  -0.19766
  33   36628.6    273.0   0.002404877   0.02161  -0.06877   0.00997  -0.12956
  34   37122.8    269.4   0.001315604   0.01167  -0.03278  -0.05501   0.08698
  35   37398.9    267.4   0.013156366   0.11581  -0.09906   0.02591  -0.32454
  36   37642.3    265.7   0.003121172   0.02730   0.06651   0.11025   0.10353
  37   37870.7    264.1   0.108552166   0.94365   0.18705   0.38281   0.87300
  38   37957.7    263.5   0.037961426   0.32924  -0.02174  -0.41628  -0.39431
  39   38101.3    262.5   0.054160540   0.46797   0.00682  -0.43112  -0.53109
  40   38522.0    259.6   0.157665830   1.34742   1.06555  -0.27470  -0.36955
  41   38604.4    259.0   0.030890533   0.26343   0.49033  -0.14841   0.03132
  42   38642.6    258.8   0.003573667   0.03045  -0.15322  -0.08255  -0.01243
  43   38809.2    257.7   0.003580905   0.03038   0.14052   0.06068   0.08335
  44   38977.7    256.6   0.046872424   0.39589   0.60479   0.16760   0.04504
  45   39244.8    254.8   0.026116010   0.21908  -0.46766  -0.01765  -0.00756
  46   39474.9    253.3   0.009527093   0.07945   0.21289  -0.10583  -0.15143
  47   39534.9    252.9   0.304004786   2.53149   0.13551  -0.66470  -1.43920
  48   39644.6    252.2   0.414402647   3.44123  -1.67477   0.05964  -0.79549
  49   39940.2    250.4   0.051474496   0.42428  -0.63066   0.14898   0.06606
  50   40005.1    250.0   0.109929945   0.90464   0.87222  -0.23991  -0.29379
  51   40163.9    249.0   0.032320998   0.26493   0.27575   0.11198   0.41994
  52   40272.1    248.3   0.114096170   0.93270   0.90470  -0.06800   0.33105

FINAL SINGLE POINT ENERGY     -5832.834997597352

DIPOLE MOMENT
-------------
                                X             Y             Z
Electronic contribution:    -19.86896      -6.14931     -37.70174
Nuclear contribution   :     20.03968       6.46524      38.56750
                        -----------------------------------------
Total Dipole Moment    :      0.17072       0.31593       0.86576
                        -----------------------------------------
Magnitude (a.u.)       :      0.93728
Magnitude (Debye)      :      2.38238

Rotational constants in cm-1:     0.001189     0.000269     0.000236
Rotational constants in MHz :    35.647225     8.056856     7.066250

                             ****ORCA TERMINATED NORMALLY****
TOTAL RUN TIME: 0 days 0 hours 11 minutes 51 seconds 805 msec
