                         Program Version 4.2.0 -  RELEASE  -
|  1> # ORCA input file
|  2> # SCF done       -184.762373665284          0.000590735631
|  3> ! CAM-B3LYP def2-SVP def2/J RIJCOSX Grid4 TightSCF
|  4> %maxcore 5000
|  5> %tddft
|  6>     Mode sTDDFT
|  7>     Ethresh 5.0
|  8>     maxcore 5000
|  9> end
| 10>
| 11> %pal
| 12>   nprocs 6
| 13>   end
| 14> * xyz 0 1
| 15>    C       -7.25609        -5.09693         5.46996
| 16>    C       -7.70015        -5.52537         4.22229
| 17>    C       -6.77018        -5.84574         3.17538
| 18>    N       -7.22131        -6.25880         1.97667
| 19>    C       -8.50618        -6.36059         1.78878
| 20>    C       -9.42129        -6.04439         2.82070
| 21>    N       -9.03207        -5.64195         3.99361
| 22>    C       -5.37116        -5.74717         3.35002
| 23>    C       -4.93512        -5.31077         4.61773
| 24>    C       -5.88536        -4.98989         5.66553
| 25>    N       -5.26390        -4.59700         6.78759
| 26>    S       -3.68479        -4.62941         6.54760
| 27>    N       -3.67644        -5.13637         5.02769
| 28>    C       -4.48720        -6.08266         2.28898
| 29>    C       -3.10001        -6.04680         2.31517
| 30>    C       -2.54646        -6.45433         1.10872
| 31>    C       -3.52508        -6.79873         0.15018
| 32>    S       -5.12408        -6.61929         0.74529
| 33>    C       -2.86222        -7.20712        -1.02585
| 34>    C       -1.46583        -7.13024        -0.82026
| 35>    C       -1.22779        -6.61656         0.52152
| 36>    C       -0.02799        -6.29375         1.08228
| 37>    C        1.19149        -6.36090         0.37267
| 38>    N        2.18552        -6.35412        -0.19765
| 39>    C        0.07494        -5.80652         2.40320
| 40>    N        0.17458        -5.41137         3.47500
| 41>    C       -0.72555        -7.56760        -1.90749
| 42>    C       -1.54505        -7.95886        -2.96334
| 43>    S       -3.25616        -7.77902        -2.58610
| 44>    C       -1.11637        -8.45569        -4.20477
| 45>    C        0.19199        -8.82789        -4.55197
| 46>    C        0.30904        -9.27698        -5.91303
| 47>    N        1.49904        -9.58092        -6.43386
| 48>    C        2.53892        -9.52522        -5.63086
| 49>    C        3.87527        -9.76636        -6.23237
| 50>    O        4.04502        -9.86857        -7.42784
| 51>    C        4.98599        -9.82893        -5.26538
| 52>    C        4.83932        -9.62770        -3.95173
| 53>    C        3.54627        -9.33494        -3.30773
| 54>    O        3.42433        -9.23326        -2.10631
| 55>    C        2.39799        -9.21611        -4.24206
| 56>    N        1.24417        -8.84476        -3.73213
| 57>    C       -0.91751        -9.29142        -6.59593
| 58>    S       -2.18123        -8.70895        -5.55458
| 59>    C       -1.13586        -9.70271        -7.92064
| 60>    C       -0.21146       -10.33599        -8.74770
| 61>    C       -0.74542       -10.60786        -9.99766
| 62>    C       -2.07835       -10.16151       -10.14679
| 63>    S       -2.68358        -9.44307        -8.72051
| 64>    C       -2.51181       -10.43320       -11.46114
| 65>    C       -1.45135       -11.05980       -12.15245
| 66>    C       -0.32441       -11.22023       -11.25013
| 67>    C        0.85001       -11.86513       -11.50113
| 68>    C        1.14749       -12.41561       -12.76661
| 69>    N        1.40476       -12.86069       -13.79154
| 70>    C        1.82789       -12.08931       -10.50679
| 71>    N        2.61241       -12.33338        -9.70785
| 72>    C       -1.77630       -11.36396       -13.46771
| 73>    C       -3.06864       -10.97199       -13.78779
| 74>    S       -3.90459       -10.22204       -12.44039
| 75>    C       -3.72002       -11.11780       -15.04246
| 76>    C       -5.04538       -10.66001       -15.21938
| 77>    C       -5.73958       -10.78010       -16.47125
| 78>    N       -7.01102       -10.31981       -16.57877
| 79>    C       -7.56005        -9.78071       -15.53132
| 80>    C       -6.87717        -9.66175       -14.29771
| 81>    N       -5.65587       -10.09378       -14.16211
| 82>    C       -5.12769       -11.36160       -17.57799
| 83>    C       -3.82585       -11.82145       -17.42853
| 84>    C       -3.11291       -11.70633       -16.17066
| 85>    N       -1.88047       -12.21250       -16.25800
| 86>    S       -1.64473       -12.76730       -17.74260
| 87>    N       -3.06997       -12.40828       -18.36866
| 88>    H       -7.95837        -4.85917         6.25007
| 89>    H       -8.83550        -6.69545         0.81537
| 90>    H      -10.48808        -6.12932         2.66386
| 91>    H       -2.55604        -5.73922         3.18938
| 92>    H        0.34616        -7.62918        -1.96851
| 93>    H        5.95414       -10.04442        -5.69706
| 94>    H        5.68292        -9.68004        -3.27669
| 95>    H        0.78808       -10.55505        -8.41735
| 96>    H       -1.13272       -11.83948       -14.18497
| 97>    H       -8.57425        -9.42188       -15.64293
| 98>    H       -7.33871        -9.21242       -13.42987
| 99>    H       -5.65332       -11.44741       -18.51321
|100> *
|101>
|102>                          ****END OF INPUT****

CARTESIAN COORDINATES (ANGSTROEM)
---------------------------------
  C     -7.256090   -5.096930    5.469960
  C     -7.700150   -5.525370    4.222290
  C     -6.770180   -5.845740    3.175380
  N     -7.221310   -6.258800    1.976670
  C     -8.506180   -6.360590    1.788780
  C     -9.421290   -6.044390    2.820700
  N     -9.032070   -5.641950    3.993610
  C     -5.371160   -5.747170    3.350020
  C     -4.935120   -5.310770    4.617730
  C     -5.885360   -4.989890    5.665530
  N     -5.263900   -4.597000    6.787590
  S     -3.684790   -4.629410    6.547600
  N     -3.676440   -5.136370    5.027690
  C     -4.487200   -6.082660    2.288980
  C     -3.100010   -6.046800    2.315170
  C     -2.546460   -6.454330    1.108720
  C     -3.525080   -6.798730    0.150180
  S     -5.124080   -6.619290    0.745290
  C     -2.862220   -7.207120   -1.025850
  C     -1.465830   -7.130240   -0.820260
  C     -1.227790   -6.616560    0.521520
  C     -0.027990   -6.293750    1.082280
  C      1.191490   -6.360900    0.372670
  N      2.185520   -6.354120   -0.197650
  C      0.074940   -5.806520    2.403200
  N      0.174580   -5.411370    3.475000
  C     -0.725550   -7.567600   -1.907490
  C     -1.545050   -7.958860   -2.963340
  S     -3.256160   -7.779020   -2.586100
  C     -1.116370   -8.455690   -4.204770
  C      0.191990   -8.827890   -4.551970
  C      0.309040   -9.276980   -5.913030
  N      1.499040   -9.580920   -6.433860
  C      2.538920   -9.525220   -5.630860
  C      3.875270   -9.766360   -6.232370
  O      4.045020   -9.868570   -7.427840
  C      4.985990   -9.828930   -5.265380
  C      4.839320   -9.627700   -3.951730
  C      3.546270   -9.334940   -3.307730
  O      3.424330   -9.233260   -2.106310
  C      2.397990   -9.216110   -4.242060
  N      1.244170   -8.844760   -3.732130
  C     -0.917510   -9.291420   -6.595930
  S     -2.181230   -8.708950   -5.554580
  C     -1.135860   -9.702710   -7.920640
  C     -0.211460  -10.335990   -8.747700
  C     -0.745420  -10.607860   -9.997660
  C     -2.078350  -10.161510  -10.146790
  S     -2.683580   -9.443070   -8.720510
  C     -2.511810  -10.433200  -11.461140
  C     -1.451350  -11.059800  -12.152450
  C     -0.324410  -11.220230  -11.250130
  C      0.850010  -11.865130  -11.501130
  C      1.147490  -12.415610  -12.766610
  N      1.404760  -12.860690  -13.791540
  C      1.827890  -12.089310  -10.506790
  N      2.612410  -12.333380   -9.707850
  C     -1.776300  -11.363960  -13.467710
  C     -3.068640  -10.971990  -13.787790
  S     -3.904590  -10.222040  -12.440390
  C     -3.720020  -11.117800  -15.042460
  C     -5.045380  -10.660010  -15.219380
  C     -5.739580  -10.780100  -16.471250
  N     -7.011020  -10.319810  -16.578770
  C     -7.560050   -9.780710  -15.531320
  C     -6.877170   -9.661750  -14.297710
  N     -5.655870  -10.093780  -14.162110
  C     -5.127690  -11.361600  -17.577990
  C     -3.825850  -11.821450  -17.428530
  C     -3.112910  -11.706330  -16.170660
  N     -1.880470  -12.212500  -16.258000
  S     -1.644730  -12.767300  -17.742600
  N     -3.069970  -12.408280  -18.368660
  H     -7.958370   -4.859170    6.250070
  H     -8.835500   -6.695450    0.815370
  H    -10.488080   -6.129320    2.663860
  H     -2.556040   -5.739220    3.189380
  H      0.346160   -7.629180   -1.968510
  H      5.954140  -10.044420   -5.697060
  H      5.682920   -9.680040   -3.276690
  H      0.788080  -10.555050   -8.417350
  H     -1.132720  -11.839480  -14.184970
  H     -8.574250   -9.421880  -15.642930
  H     -7.338710   -9.212420  -13.429870
  H     -5.653320  -11.447410  -18.513210

 Total Charge           Charge          ....    0
 Multiplicity           Mult            ....    1
 Number of Electrons    NEL             ....  538
 Basis Dimension        Dim             .... 1110

ORBITAL ENERGIES
----------------

  NO   OCC          E(Eh)            E(eV)
   0   2.0000     -89.036579     -2422.8085
   1   2.0000     -89.036489     -2422.8060
   2   2.0000     -88.996253     -2421.7112
   3   2.0000     -88.986660     -2421.4501
   4   2.0000     -88.986551     -2421.4471
   5   2.0000     -88.974696     -2421.1246
   6   2.0000     -88.974626     -2421.1226
   7   2.0000     -19.219385      -522.9860
   8   2.0000     -19.219366      -522.9855
   9   2.0000     -14.444207      -393.0468
  10   2.0000     -14.444074      -393.0432
  11   2.0000     -14.444052      -393.0426
  12   2.0000     -14.444051      -393.0426
  13   2.0000     -14.444029      -393.0420
  14   2.0000     -14.444021      -393.0418
  15   2.0000     -14.441431      -392.9713
  16   2.0000     -14.441394      -392.9703
  17   2.0000     -14.435163      -392.8008
  18   2.0000     -14.435073      -392.7983
  19   2.0000     -14.420023      -392.3888
  20   2.0000     -14.419965      -392.3872
  21   2.0000     -14.416998      -392.3065
  22   2.0000     -14.416926      -392.3045
  23   2.0000     -10.368314      -282.1362
  24   2.0000     -10.368202      -282.1331
  25   2.0000     -10.354304      -281.7549
  26   2.0000     -10.354257      -281.7537
  27   2.0000     -10.340694      -281.3846
  28   2.0000     -10.340629      -281.3828
  29   2.0000     -10.337659      -281.3020
  30   2.0000     -10.337528      -281.2984
  31   2.0000     -10.335543      -281.2444
  32   2.0000     -10.335265      -281.2369
  33   2.0000     -10.333292      -281.1832
  34   2.0000     -10.333193      -281.1805
  35   2.0000     -10.333156      -281.1795
  36   2.0000     -10.333081      -281.1774
  37   2.0000     -10.332105      -281.1509
  38   2.0000     -10.331995      -281.1479
  39   2.0000     -10.330606      -281.1101
  40   2.0000     -10.330313      -281.1021
  41   2.0000     -10.329998      -281.0935
  42   2.0000     -10.329946      -281.0921
  43   2.0000     -10.329888      -281.0905
  44   2.0000     -10.329841      -281.0893
  45   2.0000     -10.329100      -281.0691
  46   2.0000     -10.328943      -281.0648
  47   2.0000     -10.326658      -281.0026
  48   2.0000     -10.326574      -281.0004
  49   2.0000     -10.326027      -280.9855
  50   2.0000     -10.325952      -280.9834
  51   2.0000     -10.320310      -280.8299
  52   2.0000     -10.320257      -280.8285
  53   2.0000     -10.316540      -280.7273
  54   2.0000     -10.316412      -280.7239
  55   2.0000     -10.313861      -280.6544
  56   2.0000     -10.313818      -280.6533
  57   2.0000     -10.313583      -280.6469
  58   2.0000     -10.313560      -280.6462
  59   2.0000     -10.312877      -280.6276
  60   2.0000     -10.312766      -280.6246
  61   2.0000     -10.301753      -280.3250
  62   2.0000     -10.301056      -280.3060
  63   2.0000     -10.297192      -280.2009
  64   2.0000     -10.297095      -280.1982
  65   2.0000     -10.292676      -280.0780
  66   2.0000     -10.292499      -280.0731
  67   2.0000     -10.289655      -279.9957
  68   2.0000     -10.289521      -279.9921
  69   2.0000     -10.288695      -279.9696
  70   2.0000     -10.288694      -279.9696
  71   2.0000     -10.286721      -279.9159
  72   2.0000     -10.286677      -279.9147
  73   2.0000      -8.127803      -221.1688
  74   2.0000      -8.127796      -221.1686
  75   2.0000      -8.091110      -220.1703
  76   2.0000      -8.081354      -219.9048
  77   2.0000      -8.081273      -219.9026
  78   2.0000      -8.066704      -219.5062
  79   2.0000      -8.066703      -219.5062
  80   2.0000      -6.098705      -165.9542
  81   2.0000      -6.098682      -165.9536
  82   2.0000      -6.090975      -165.7438
  83   2.0000      -6.090947      -165.7431
  84   2.0000      -6.090925      -165.7425
  85   2.0000      -6.090902      -165.7419
  86   2.0000      -6.060199      -164.9064
  87   2.0000      -6.056111      -164.7952
  88   2.0000      -6.053684      -164.7291
  89   2.0000      -6.050611      -164.6455
  90   2.0000      -6.050551      -164.6439
  91   2.0000      -6.046525      -164.5343
  92   2.0000      -6.046425      -164.5316
  93   2.0000      -6.043653      -164.4562
  94   2.0000      -6.043553      -164.4534
  95   2.0000      -6.036402      -164.2589
  96   2.0000      -6.036402      -164.2588
  97   2.0000      -6.031408      -164.1230
  98   2.0000      -6.031396      -164.1226
  99   2.0000      -6.029189      -164.0626
 100   2.0000      -6.029182      -164.0624
 101   2.0000      -1.136799       -30.9339
 102   2.0000      -1.132034       -30.8042
 103   2.0000      -1.131733       -30.7960
 104   2.0000      -1.131596       -30.7923
 105   2.0000      -1.095963       -29.8227
 106   2.0000      -1.095769       -29.8174
 107   2.0000      -1.095607       -29.8130
 108   2.0000      -1.035136       -28.1675
 109   2.0000      -1.034841       -28.1595
 110   2.0000      -1.022769       -27.8310
 111   2.0000      -1.021075       -27.7849
 112   2.0000      -1.020584       -27.7715
 113   2.0000      -1.012695       -27.5568
 114   2.0000      -1.010373       -27.4936
 115   2.0000      -1.005312       -27.3559
 116   2.0000      -0.995613       -27.0920
 117   2.0000      -0.995516       -27.0894
 118   2.0000      -0.990707       -26.9585
 119   2.0000      -0.987063       -26.8593
 120   2.0000      -0.981500       -26.7080
 121   2.0000      -0.977837       -26.6083
 122   2.0000      -0.962648       -26.1950
 123   2.0000      -0.960033       -26.1238
 124   2.0000      -0.944625       -25.7045
 125   2.0000      -0.943026       -25.6610
 126   2.0000      -0.932369       -25.3711
 127   2.0000      -0.910234       -24.7687
 128   2.0000      -0.901321       -24.5262
 129   2.0000      -0.878024       -23.8922
 130   2.0000      -0.875685       -23.8286
 131   2.0000      -0.874498       -23.7963
 132   2.0000      -0.872151       -23.7324
 133   2.0000      -0.866334       -23.5741
 134   2.0000      -0.864726       -23.5304
 135   2.0000      -0.856406       -23.3040
 136   2.0000      -0.844752       -22.9869
 137   2.0000      -0.842503       -22.9257
 138   2.0000      -0.841184       -22.8898
 139   2.0000      -0.805445       -21.9173
 140   2.0000      -0.798654       -21.7325
 141   2.0000      -0.793847       -21.6017
 142   2.0000      -0.793790       -21.6001
 143   2.0000      -0.786942       -21.4138
 144   2.0000      -0.773208       -21.0401
 145   2.0000      -0.769048       -20.9269
 146   2.0000      -0.768829       -20.9209
 147   2.0000      -0.754458       -20.5299
 148   2.0000      -0.749840       -20.4042
 149   2.0000      -0.743257       -20.2250
 150   2.0000      -0.741320       -20.1723
 151   2.0000      -0.718881       -19.5617
 152   2.0000      -0.711735       -19.3673
 153   2.0000      -0.702495       -19.1159
 154   2.0000      -0.697161       -18.9707
 155   2.0000      -0.686685       -18.6856
 156   2.0000      -0.681209       -18.5366
 157   2.0000      -0.676309       -18.4033
 158   2.0000      -0.675476       -18.3806
 159   2.0000      -0.672090       -18.2885
 160   2.0000      -0.662356       -18.0236
 161   2.0000      -0.661243       -17.9933
 162   2.0000      -0.659988       -17.9592
 163   2.0000      -0.657596       -17.8941
 164   2.0000      -0.639168       -17.3926
 165   2.0000      -0.638961       -17.3870
 166   2.0000      -0.634835       -17.2747
 167   2.0000      -0.633437       -17.2367
 168   2.0000      -0.624239       -16.9864
 169   2.0000      -0.615754       -16.7555
 170   2.0000      -0.613646       -16.6982
 171   2.0000      -0.613495       -16.6940
 172   2.0000      -0.606944       -16.5158
 173   2.0000      -0.603813       -16.4306
 174   2.0000      -0.600253       -16.3337
 175   2.0000      -0.597319       -16.2539
 176   2.0000      -0.591407       -16.0930
 177   2.0000      -0.568068       -15.4579
 178   2.0000      -0.566943       -15.4273
 179   2.0000      -0.566793       -15.4232
 180   2.0000      -0.562004       -15.2929
 181   2.0000      -0.561287       -15.2734
 182   2.0000      -0.561174       -15.2703
 183   2.0000      -0.560744       -15.2586
 184   2.0000      -0.558293       -15.1919
 185   2.0000      -0.553455       -15.0603
 186   2.0000      -0.550320       -14.9750
 187   2.0000      -0.549809       -14.9611
 188   2.0000      -0.544075       -14.8050
 189   2.0000      -0.537218       -14.6184
 190   2.0000      -0.536939       -14.6109
 191   2.0000      -0.532170       -14.4811
 192   2.0000      -0.532022       -14.4771
 193   2.0000      -0.524191       -14.2640
 194   2.0000      -0.520726       -14.1697
 195   2.0000      -0.519708       -14.1420
 196   2.0000      -0.517047       -14.0696
 197   2.0000      -0.516354       -14.0507
 198   2.0000      -0.513664       -13.9775
 199   2.0000      -0.505751       -13.7622
 200   2.0000      -0.500990       -13.6326
 201   2.0000      -0.495889       -13.4938
 202   2.0000      -0.494814       -13.4646
 203   2.0000      -0.492949       -13.4138
 204   2.0000      -0.491797       -13.3825
 205   2.0000      -0.490168       -13.3381
 206   2.0000      -0.487987       -13.2788
 207   2.0000      -0.484491       -13.1837
 208   2.0000      -0.484038       -13.1713
 209   2.0000      -0.483342       -13.1524
 210   2.0000      -0.482585       -13.1318
 211   2.0000      -0.479344       -13.0436
 212   2.0000      -0.475895       -12.9498
 213   2.0000      -0.474602       -12.9146
 214   2.0000      -0.473439       -12.8829
 215   2.0000      -0.472148       -12.8478
 216   2.0000      -0.462822       -12.5940
 217   2.0000      -0.461874       -12.5682
 218   2.0000      -0.454897       -12.3784
 219   2.0000      -0.451864       -12.2959
 220   2.0000      -0.451760       -12.2930
 221   2.0000      -0.451333       -12.2814
 222   2.0000      -0.450839       -12.2680
 223   2.0000      -0.450292       -12.2531
 224   2.0000      -0.446052       -12.1377
 225   2.0000      -0.442687       -12.0461
 226   2.0000      -0.440760       -11.9937
 227   2.0000      -0.438823       -11.9410
 228   2.0000      -0.435897       -11.8614
 229   2.0000      -0.432346       -11.7647
 230   2.0000      -0.429612       -11.6903
 231   2.0000      -0.428932       -11.6718
 232   2.0000      -0.427861       -11.6427
 233   2.0000      -0.427216       -11.6251
 234   2.0000      -0.426947       -11.6178
 235   2.0000      -0.426584       -11.6079
 236   2.0000      -0.415672       -11.3110
 237   2.0000      -0.415393       -11.3034
 238   2.0000      -0.409830       -11.1520
 239   2.0000      -0.409593       -11.1456
 240   2.0000      -0.403838       -10.9890
 241   2.0000      -0.403588       -10.9822
 242   2.0000      -0.401399       -10.9226
 243   2.0000      -0.400260       -10.8916
 244   2.0000      -0.396713       -10.7951
 245   2.0000      -0.382220       -10.4007
 246   2.0000      -0.382158       -10.3991
 247   2.0000      -0.378914       -10.3108
 248   2.0000      -0.372036       -10.1236
 249   2.0000      -0.371950       -10.1213
 250   2.0000      -0.365284        -9.9399
 251   2.0000      -0.364455        -9.9173
 252   2.0000      -0.357706        -9.7337
 253   2.0000      -0.346819        -9.4374
 254   2.0000      -0.341089        -9.2815
 255   2.0000      -0.340524        -9.2661
 256   2.0000      -0.339146        -9.2286
 257   2.0000      -0.339087        -9.2270
 258   2.0000      -0.337631        -9.1874
 259   2.0000      -0.333874        -9.0852
 260   2.0000      -0.330596        -8.9960
 261   2.0000      -0.329883        -8.9766
 262   2.0000      -0.329451        -8.9648
 263   2.0000      -0.312396        -8.5007
 264   2.0000      -0.311414        -8.4740
 265   2.0000      -0.310025        -8.4362
 266   2.0000      -0.281301        -7.6546
 267   2.0000      -0.254234        -6.9181
 268   2.0000      -0.223484        -6.0813
 269   0.0000      -0.116853        -3.1797
 270   0.0000      -0.104797        -2.8517
 271   0.0000      -0.090052        -2.4504
 272   0.0000      -0.087028        -2.3682
 273   0.0000      -0.082673        -2.2497

MULLIKEN ATOMIC CHARGES
-----------------------
   0 C :   -0.089927
   1 C :    0.017260
   2 C :   -0.046180
   3 N :   -0.086872
   4 C :    0.049330
   5 C :    0.015696
   6 N :   -0.014026
   7 C :    0.195303
   8 C :   -0.045589
   9 C :    0.103389
  10 N :   -0.276353
  11 S :    0.551150
  12 N :   -0.285465
  13 C :   -0.169944
  14 C :   -0.057166
  15 C :    0.030773
  16 C :   -0.063256
  17 S :    0.193481
  18 C :   -0.102181
  19 C :    0.028271
  20 C :    0.309072
  21 C :   -0.303053
  22 C :   -0.195576
  23 N :    0.188213
  24 C :   -0.190534
  25 N :    0.172879
  26 C :   -0.061693
  27 C :   -0.092632
  28 S :    0.172624
  29 C :   -0.116447
  30 C :    0.021025
  31 C :    0.023613
  32 N :    0.060696
  33 C :   -0.120120
  34 C :    0.143083
  35 O :   -0.100844
  36 C :   -0.012116
  37 C :   -0.010598
  38 C :    0.143109
  39 O :   -0.101006
  40 C :   -0.118180
  41 N :    0.063952
  42 C :   -0.111948
  43 S :    0.193118
  44 C :   -0.093993
  45 C :   -0.059107
  46 C :    0.027836
  47 C :   -0.103779
  48 S :    0.172042
  49 C :   -0.062544
  50 C :    0.035115
  51 C :    0.309372
  52 C :   -0.303363
  53 C :   -0.189570
  54 N :    0.172174
  55 C :   -0.193982
  56 N :    0.186506
  57 C :   -0.063232
  58 C :   -0.167849
  59 S :    0.193145
  60 C :    0.196538
  61 C :   -0.051742
  62 C :    0.023891
  63 N :   -0.014632
  64 C :    0.018131
  65 C :    0.047129
  66 N :   -0.087305
  67 C :   -0.096425
  68 C :    0.101761
  69 C :   -0.039024
  70 N :   -0.287099
  71 S :    0.550953
  72 N :   -0.272748
  73 H :   -0.028297
  74 H :    0.014183
  75 H :    0.020699
  76 H :    0.019776
  77 H :    0.029662
  78 H :    0.019072
  79 H :    0.019552
  80 H :    0.028455
  81 H :    0.019954
  82 H :    0.019444
  83 H :    0.014186
  84 H :   -0.029210
Sum of atomic charges:   -0.0000000

LOEWDIN ATOMIC CHARGES
----------------------
   0 C :   -0.019364
   1 C :   -0.012715
   2 C :   -0.024392
   3 N :   -0.053220
   4 C :    0.016708
   5 C :    0.007326
   6 N :   -0.028872
   7 C :   -0.030283
   8 C :   -0.044763
   9 C :   -0.048717
  10 N :   -0.289819
  11 S :    0.686926
  12 N :   -0.283352
  13 C :   -0.166525
  14 C :   -0.010898
  15 C :   -0.074180
  16 C :   -0.186142
  17 S :    0.502862
  18 C :   -0.176433
  19 C :   -0.063211
  20 C :    0.078639
  21 C :   -0.098466
  22 C :   -0.022158
  23 N :   -0.022204
  24 C :   -0.015705
  25 N :   -0.034513
  26 C :   -0.007652
  27 C :   -0.185394
  28 S :    0.454740
  29 C :   -0.192236
  30 C :   -0.044026
  31 C :   -0.043557
  32 N :    0.008498
  33 C :   -0.039334
  34 C :    0.055275
  35 O :   -0.093394
  36 C :   -0.012443
  37 C :   -0.012302
  38 C :    0.055347
  39 O :   -0.093817
  40 C :   -0.039541
  41 N :    0.008934
  42 C :   -0.192127
  43 S :    0.480880
  44 C :   -0.185269
  45 C :   -0.007781
  46 C :   -0.063257
  47 C :   -0.176478
  48 S :    0.454467
  49 C :   -0.185910
  50 C :   -0.074326
  51 C :    0.078557
  52 C :   -0.098406
  53 C :   -0.015436
  54 N :   -0.034722
  55 C :   -0.022286
  56 N :   -0.022046
  57 C :   -0.011040
  58 C :   -0.166446
  59 S :    0.502643
  60 C :   -0.030203
  61 C :   -0.024430
  62 C :   -0.012454
  63 N :   -0.029015
  64 C :    0.007576
  65 C :    0.016531
  66 N :   -0.053334
  67 C :   -0.019395
  68 C :   -0.048889
  69 C :   -0.044619
  70 N :   -0.283547
  71 S :    0.686911
  72 N :   -0.289607
  73 H :    0.043907
  74 H :    0.028172
  75 H :    0.029009
  76 H :    0.038208
  77 H :    0.044021
  78 H :    0.045842
  79 H :    0.045891
  80 H :    0.043833
  81 H :    0.038214
  82 H :    0.028835
  83 H :    0.028172
  84 H :    0.043725

  Mayer bond orders larger than 0.100000
B(  0-C ,  1-C ) :   1.3117 B(  0-C ,  7-C ) :   0.1398 B(  0-C ,  9-C ) :   1.1854
B(  0-C , 73-H ) :   1.0609 B(  1-C ,  2-C ) :   1.1422 B(  1-C ,  6-N ) :   1.3628
B(  2-C ,  3-N ) :   1.3761 B(  2-C ,  7-C ) :   1.2868 B(  3-N ,  4-C ) :   1.6711
B(  4-C ,  5-C ) :   1.1752 B(  4-C , 74-H ) :   0.9723 B(  5-C ,  6-N ) :   1.7331
B(  5-C , 75-H ) :   0.9752 B(  7-C ,  8-C ) :   1.2213 B(  7-C , 13-C ) :   1.1758
B(  8-C ,  9-C ) :   1.1195 B(  8-C , 12-N ) :   1.5012 B(  9-C , 10-N ) :   1.4484
B( 10-N , 11-S ) :   1.3130 B( 10-N , 12-N ) :   0.1603 B( 11-S , 12-N ) :   1.2825
B( 13-C , 14-C ) :   1.4301 B( 13-C , 17-S ) :   1.0891 B( 14-C , 15-C ) :   1.2708
B( 14-C , 76-H ) :   0.9823 B( 15-C , 16-C ) :   1.4019 B( 15-C , 20-C ) :   0.9952
B( 16-C , 17-S ) :   1.0670 B( 16-C , 18-C ) :   1.2162 B( 18-C , 19-C ) :   1.4090
B( 18-C , 28-S ) :   1.1168 B( 19-C , 20-C ) :   0.9807 B( 19-C , 26-C ) :   1.2828
B( 20-C , 21-C ) :   1.7120 B( 21-C , 22-C ) :   1.1328 B( 21-C , 24-C ) :   1.1404
B( 22-C , 23-N ) :   3.0011 B( 24-C , 25-N ) :   2.9883 B( 26-C , 27-C ) :   1.4387
B( 26-C , 77-H ) :   0.9877 B( 27-C , 28-S ) :   1.0783 B( 27-C , 29-C ) :   1.2018
B( 29-C , 30-C ) :   1.3618 B( 29-C , 42-C ) :   0.1469 B( 29-C , 43-S ) :   1.1450
B( 30-C , 31-C ) :   1.1826 B( 30-C , 41-N ) :   1.4420 B( 31-C , 32-N ) :   1.4399
B( 31-C , 42-C ) :   1.3627 B( 32-N , 33-C ) :   1.7130 B( 33-C , 34-C ) :   0.8910
B( 33-C , 40-C ) :   1.0938 B( 34-C , 35-O ) :   2.2385 B( 34-C , 36-C ) :   1.0228
B( 36-C , 37-C ) :   1.6885 B( 36-C , 78-H ) :   0.9947 B( 37-C , 38-C ) :   1.0225
B( 37-C , 79-H ) :   0.9952 B( 38-C , 39-O ) :   2.2387 B( 38-C , 40-C ) :   0.8913
B( 40-C , 41-N ) :   1.7116 B( 42-C , 43-S ) :   1.1432 B( 42-C , 44-C ) :   1.2011
B( 44-C , 45-C ) :   1.4404 B( 44-C , 48-S ) :   1.0785 B( 45-C , 46-C ) :   1.2814
B( 45-C , 80-H ) :   0.9868 B( 46-C , 47-C ) :   1.4113 B( 46-C , 51-C ) :   0.9828
B( 47-C , 48-S ) :   1.1162 B( 47-C , 49-C ) :   1.2178 B( 49-C , 50-C ) :   1.3988
B( 49-C , 59-S ) :   1.0673 B( 50-C , 51-C ) :   0.9931 B( 50-C , 57-C ) :   1.2720
B( 51-C , 52-C ) :   1.7135 B( 52-C , 53-C ) :   1.1412 B( 52-C , 55-C ) :   1.1296
B( 53-C , 54-N ) :   2.9886 B( 55-C , 56-N ) :   3.0013 B( 57-C , 58-C ) :   1.4318
B( 57-C , 81-H ) :   0.9822 B( 58-C , 59-S ) :   1.0879 B( 58-C , 60-C ) :   1.1751
B( 60-C , 61-C ) :   1.2853 B( 60-C , 67-C ) :   0.1401 B( 60-C , 69-C ) :   1.2211
B( 61-C , 62-C ) :   1.1440 B( 61-C , 66-N ) :   1.3767 B( 62-C , 63-N ) :   1.3600
B( 62-C , 67-C ) :   1.3121 B( 63-N , 64-C ) :   1.7340 B( 64-C , 65-C ) :   1.1757
B( 64-C , 82-H ) :   0.9748 B( 65-C , 66-N ) :   1.6696 B( 65-C , 83-H ) :   0.9724
B( 67-C , 68-C ) :   1.1813 B( 67-C , 84-H ) :   1.0621 B( 68-C , 69-C ) :   1.1200
B( 68-C , 72-N ) :   1.4516 B( 69-C , 70-N ) :   1.4984 B( 70-N , 71-S ) :   1.2824
B( 70-N , 72-N ) :   0.1604 B( 71-S , 72-N ) :   1.3124

-----------------------------------------------------------------------------
         ABSORPTION SPECTRUM VIA TRANSITION ELECTRIC DIPOLE MOMENTS
-----------------------------------------------------------------------------
State   Energy  Wavelength   fosc         T2         TX        TY        TZ
        (cm-1)    (nm)                  (au**2)     (au)      (au)      (au)
-----------------------------------------------------------------------------
   0    9028.1   1107.6   0.990312398  36.11183   0.51022  -1.70556  -5.73956
   1   11473.2    871.6   0.129512716   3.71623   1.89666  -0.24395   0.24370
   2   13693.8    730.3   0.175353626   4.21567   0.16603  -0.63646  -1.94500
   3   14988.1    667.2   0.233766964   5.13465   2.23009  -0.28696   0.28104
   4   15314.9    653.0   0.129671419   2.78744  -0.17261   0.19000   1.64971
   5   17076.2    585.6   0.013183360   0.25416   0.49268  -0.08013   0.07074
   6   17307.9    577.8   0.098081191   1.86559   1.34407  -0.17478   0.16892
   7   19999.2    500.0   0.003003426   0.04944   0.02025   0.21998   0.02525
   8   23444.2    426.5   0.004211707   0.05914  -0.00117   0.09847   0.22236
   9   23478.6    425.9   0.000339862   0.00477  -0.04907   0.02340   0.04254
  10   23780.0    420.5   0.033874943   0.46897  -0.67449   0.10008  -0.06337
  11   24015.7    416.4   0.178424272   2.44587  -0.13014   0.40602   1.50469
  12   24776.6    403.6   0.000025545   0.00034   0.00629   0.01534   0.00804
  13   24808.6    403.1   0.000387677   0.00514   0.07039   0.01379   0.00032
  14   24834.6    402.7   0.006164355   0.08172  -0.03548  -0.27847   0.05394
  15   25825.6    387.2   0.000660197   0.00842   0.09039  -0.00950   0.01247
  16   26234.1    381.2   0.215146315   2.69987   0.12144  -0.60327  -1.52355
  17   26408.0    378.7   0.034064783   0.42466  -0.63963   0.07277  -0.10120
  18   26660.1    375.1   0.002987738   0.03689   0.03178   0.10163  -0.15986
  19   27340.2    365.8   0.009389153   0.11306  -0.05044  -0.30194   0.13909
  20   27564.8    362.8   0.160990953   1.92274  -1.36356   0.18193  -0.17417
  21   27721.5    360.7   0.611913953   7.26690  -0.21623   0.85457   2.54752
  22   29366.0    340.5   0.111897497   1.25445  -0.07550   0.50081   0.99897
  23   29447.8    339.6   0.008746742   0.09778  -0.30092   0.01356  -0.08395
  24   30403.1    328.9   0.009109675   0.09864   0.30836  -0.03179   0.05045
  25   30504.2    327.8   0.032891860   0.35498  -0.58497   0.07262  -0.08668
  26   30588.2    326.9   0.048484784   0.52183  -0.05194   0.34839   0.63068
  27   30628.0    326.5   0.069203981   0.74386  -0.06086   0.37653   0.77355
  28   30742.4    325.3   0.002017670   0.02161  -0.00088   0.07151   0.12842
  29   30756.9    325.1   0.030760323   0.32925   0.01715  -0.28179  -0.49955
  30   30953.2    323.1   0.025046609   0.26639  -0.50635   0.05619  -0.08274
  31   31892.2    313.6   0.055321119   0.57106   0.73025  -0.08984   0.17241
  32   31929.9    313.2   0.028380899   0.29262  -0.12487   0.01804   0.52603
  33   32035.4    312.2   0.006213574   0.06385  -0.05565  -0.23761  -0.06557
  34   32233.1    310.2   0.030254269   0.30900  -0.49762  -0.07800  -0.23513
  35   32271.6    309.9   0.071738940   0.73183  -0.21330   0.54961   0.61989
  36   32345.3    309.2   0.074659381   0.75989  -0.85364   0.07996  -0.15746
  37   33099.1    302.1   0.065367293   0.65016   0.14161   0.26275  -0.74905
  38   33289.8    300.4   0.001172926   0.01160   0.10618  -0.01653   0.00723
  39   33398.4    299.4   0.862859814   8.50530   2.86819  -0.37951   0.36711
  40   33687.0    296.9   0.153844711   1.50348  -0.01189  -0.92283  -0.80729
  41   33800.6    295.9   0.032628866   0.31780  -0.55402   0.07387  -0.07350
  42   34372.8    290.9   0.004903541   0.04696  -0.03035  -0.20028   0.07702
  43   34424.0    290.5   0.005408600   0.05172   0.22177  -0.03762   0.03360
  44   34539.9    289.5   0.751468404   7.16251  -2.62877   0.36522  -0.34456
  45   34632.5    288.7   0.002749116   0.02613  -0.14672  -0.06476  -0.02029
  46   35259.8    283.6   0.015623531   0.14587   0.04202  -0.03891  -0.37761
  47   35405.6    282.4   0.003522582   0.03275  -0.02509  -0.17274  -0.04780
  48   35564.7    281.2   0.008389807   0.07766  -0.27462   0.03958  -0.02601
  49   35674.4    280.3   0.001125074   0.01038  -0.04669  -0.07800   0.04604
  50   35744.6    279.8   0.128171803   1.18048  -1.06687   0.14883  -0.14184
  51   36061.5    277.3   0.022077771   0.20155  -0.44159   0.06197  -0.05204
  52   36189.3    276.3   0.018788509   0.17092  -0.02801   0.28076   0.30217
  53   36245.8    275.9   0.004911119   0.04461  -0.20283  -0.00597  -0.05858
  54   36851.4    271.4   0.025374844   0.22669  -0.46658   0.06937  -0.06466
  55   37216.6    268.7   0.027246371   0.24102  -0.01873  -0.37647  -0.31455
  56   37248.6    268.5   0.000645249   0.00570   0.06846  -0.02572  -0.01882
  57   37490.0    266.7   0.039414567   0.34611   0.00010  -0.42668  -0.40504
  58   37649.2    265.6   0.009655075   0.08443   0.00152  -0.16803  -0.23704
  59   37747.6    264.9   0.224917124   1.96159  -1.37829   0.18475  -0.16669
  60   37830.7    264.3   0.070697413   0.61523   0.06880  -0.03614  -0.78050
  61   37993.4    263.2   0.026300841   0.22790   0.47028  -0.05559   0.06033
  62   38079.1    262.6   0.001336032   0.01155   0.04945   0.07034  -0.06448
  63   38083.1    262.6   0.000835697   0.00722  -0.06211   0.03789  -0.04395
  64   38366.1    260.6   0.006379247   0.05474  -0.22785   0.03062  -0.04341
  65   38606.3    259.0   0.092020990   0.78470   0.05988  -0.22895  -0.85364
  66   38649.0    258.7   0.001147261   0.00977  -0.06088   0.02964   0.07203
  67   38740.7    258.1   0.300299225   2.55189  -0.14549   0.43000   1.53161
  68   38866.4    257.3   0.055802245   0.47266   0.17058  -0.22641  -0.62634
  69   38883.9    257.2   0.021119002   0.17880  -0.37907   0.01104  -0.18706
  70   39175.2    255.3   0.023088174   0.19402   0.05595  -0.15855  -0.40713
  71   39277.6    254.6   0.123696696   1.03678   0.99471  -0.09985   0.19330
  72   39595.7    252.6   0.177866813   1.47884  -0.09463  -0.52791  -1.09142
  73   39623.6    252.4   0.109042359   0.90598   0.42805  -0.46033  -0.71473
  74   39641.8    252.3   0.195682200   1.62508  -0.10482  -0.59400  -1.12306
  75   39764.9    251.5   0.149556640   1.23817   1.09333  -0.19827   0.05915
  76   39931.8    250.4   0.000976506   0.00805  -0.00690   0.03716   0.08138
  77   39952.6    250.3   0.000105425   0.00087   0.00033  -0.01174  -0.02703
  78   40102.9    249.4   0.019495798   0.16004   0.05027  -0.15469  -0.36550

FINAL SINGLE POINT ENERGY     -5612.290125197769

DIPOLE MOMENT
-------------
                                X             Y             Z
Electronic contribution:      7.33582      -0.82769       0.90965
Nuclear contribution   :    -11.73348       1.40954      -1.46756
                        -----------------------------------------
Total Dipole Moment    :     -4.39766       0.58186      -0.55791
                        -----------------------------------------
Magnitude (a.u.)       :      4.47093
Magnitude (Debye)      :     11.36421

Rotational constants in cm-1:     0.001372     0.000260     0.000220
Rotational constants in MHz :    41.139907     7.784694     6.593647

                             ****ORCA TERMINATED NORMALLY****
TOTAL RUN TIME: 0 days 0 hours 9 minutes 13 seconds 871 msec
