                         Program Version 4.2.0 -  RELEASE  -
|  1> # ORCA input file
|  2> # SCF done       -156.394618653194          0.000250011216
|  3> ! CAM-B3LYP def2-SVP def2/J RIJCOSX Grid4 TightSCF
|  4> %maxcore 5000
|  5> %tddft
|  6>     Mode sTDDFT
|  7>     Ethresh 5.0
|  8>     maxcore 5000
|  9> end
| 10>
| 11> %pal
| 12>   nprocs 6
| 13>   end
| 14> * xyz 0 1
| 15>    C       -9.18888        -9.24438         4.26989
| 16>    C       -8.21272        -8.29500         4.45438
| 17>    O       -8.22639        -7.71039         5.67331
| 18>    C       -7.11883        -7.00737         6.19813
| 19>    C       -7.29941        -7.93920         3.38852
| 20>    O       -6.50082        -6.85777         3.63126
| 21>    C       -6.28843        -5.91342         2.60018
| 22>    C       -7.28339        -8.63539         2.19032
| 23>    C       -8.31095        -9.59351         1.99558
| 24>    C       -9.27262        -9.88381         3.02749
| 25>    N      -10.08738       -10.80682         2.55188
| 26>    O       -9.66122       -11.07445         1.31466
| 27>    N       -8.59291       -10.35926         0.96265
| 28>    C       -6.27219        -8.49027         1.16668
| 29>    C       -4.91960        -8.34097         1.35540
| 30>    C       -4.22745        -8.30757         0.13938
| 31>    C       -5.05605        -8.42760        -0.97844
| 32>    S       -6.70893        -8.61165        -0.52404
| 33>    C       -4.33779        -8.38016        -2.18093
| 34>    C       -2.96453        -8.22827        -1.96916
| 35>    S       -2.54485        -8.13997        -0.27947
| 36>    C       -2.21724        -8.17531        -3.14634
| 37>    C       -3.01616        -8.28181        -4.26466
| 38>    S       -4.71380        -8.45078        -3.86175
| 39>    C       -2.61703        -8.26345        -5.63877
| 40>    C       -1.29557        -8.17930        -6.07209
| 41>    N       -0.90173        -8.15101        -7.33491
| 42>    C       -1.76630        -8.20142        -8.33656
| 43>    C       -3.15821        -8.29690        -8.05329
| 44>    C       -3.57517        -8.32972        -6.68052
| 45>    N       -4.89719        -8.42167        -6.56139
| 46>    S       -5.54948        -8.46420        -8.03044
| 47>    N       -4.19181        -8.36645        -8.88832
| 48>    C       -1.24560        -8.15566        -9.66231
| 49>    C       -1.92858        -8.16710       -10.85983
| 50>    C       -1.05549        -8.10292       -11.94348
| 51>    C        0.29748        -8.04439       -11.57629
| 52>    S        0.49109        -8.06545        -9.86376
| 53>    C        1.14462        -7.98085       -12.68788
| 54>    C        0.43602        -7.99135       -13.89533
| 55>    S       -1.28906        -8.07767       -13.67041
| 56>    C        1.25013        -7.93394       -15.02572
| 57>    C        2.58732        -7.88483       -14.69245
| 58>    S        2.84554        -7.89778       -12.96062
| 59>    C        3.68768        -7.85638       -15.61048
| 60>    C        5.01420        -7.84207       -15.18875
| 61>    O        5.17710        -7.78336       -13.84488
| 62>    C        6.30187        -8.32412       -13.18265
| 63>    C        6.11330        -7.82353       -16.12403
| 64>    O        7.34951        -7.75744       -15.56454
| 65>    C        8.47391        -7.71890       -16.41231
| 66>    C        5.90269        -7.85189       -17.47750
| 67>    C        4.57544        -7.87331       -17.93282
| 68>    C        3.46547        -7.86419       -17.01398
| 69>    N        2.36417        -7.88072       -17.73644
| 70>    O        2.75319        -7.89769       -19.01324
| 71>    N        4.07977        -7.89308       -19.15394
| 72>    H       -9.87468        -9.47467         5.06598
| 73>    H       -6.17707        -7.51461         5.98452
| 74>    H       -7.28554        -6.98488         7.27558
| 75>    H       -7.07316        -5.98454         5.81918
| 76>    H       -5.32646        -6.07168         2.10648
| 77>    H       -6.28561        -4.93541         3.08433
| 78>    H       -7.08322        -5.94886         1.85291
| 79>    H       -4.45278        -8.30262         2.32309
| 80>    H       -1.15003        -8.06156        -3.17637
| 81>    H       -0.48860        -8.13161        -5.35511
| 82>    H       -2.99936        -8.21922       -10.92141
| 83>    H        0.90209        -7.92896       -16.04110
| 84>    H        7.15257        -7.64194       -13.21815
| 85>    H        6.58943        -9.29038       -13.60072
| 86>    H        5.98060        -8.45496       -12.14931
| 87>    H        8.54411        -8.62276       -17.02441
| 88>    H        9.33524        -7.66297       -15.74886
| 89>    H        8.45526        -6.83814       -17.06045
| 90>    H        6.70073        -7.84077       -18.19746
| 91> *
| 92>
| 93>                          ****END OF INPUT****

CARTESIAN COORDINATES (ANGSTROEM)
---------------------------------
  C     -9.188880   -9.244380    4.269890
  C     -8.212720   -8.295000    4.454380
  O     -8.226390   -7.710390    5.673310
  C     -7.118830   -7.007370    6.198130
  C     -7.299410   -7.939200    3.388520
  O     -6.500820   -6.857770    3.631260
  C     -6.288430   -5.913420    2.600180
  C     -7.283390   -8.635390    2.190320
  C     -8.310950   -9.593510    1.995580
  C     -9.272620   -9.883810    3.027490
  N    -10.087380  -10.806820    2.551880
  O     -9.661220  -11.074450    1.314660
  N     -8.592910  -10.359260    0.962650
  C     -6.272190   -8.490270    1.166680
  C     -4.919600   -8.340970    1.355400
  C     -4.227450   -8.307570    0.139380
  C     -5.056050   -8.427600   -0.978440
  S     -6.708930   -8.611650   -0.524040
  C     -4.337790   -8.380160   -2.180930
  C     -2.964530   -8.228270   -1.969160
  S     -2.544850   -8.139970   -0.279470
  C     -2.217240   -8.175310   -3.146340
  C     -3.016160   -8.281810   -4.264660
  S     -4.713800   -8.450780   -3.861750
  C     -2.617030   -8.263450   -5.638770
  C     -1.295570   -8.179300   -6.072090
  N     -0.901730   -8.151010   -7.334910
  C     -1.766300   -8.201420   -8.336560
  C     -3.158210   -8.296900   -8.053290
  C     -3.575170   -8.329720   -6.680520
  N     -4.897190   -8.421670   -6.561390
  S     -5.549480   -8.464200   -8.030440
  N     -4.191810   -8.366450   -8.888320
  C     -1.245600   -8.155660   -9.662310
  C     -1.928580   -8.167100  -10.859830
  C     -1.055490   -8.102920  -11.943480
  C      0.297480   -8.044390  -11.576290
  S      0.491090   -8.065450   -9.863760
  C      1.144620   -7.980850  -12.687880
  C      0.436020   -7.991350  -13.895330
  S     -1.289060   -8.077670  -13.670410
  C      1.250130   -7.933940  -15.025720
  C      2.587320   -7.884830  -14.692450
  S      2.845540   -7.897780  -12.960620
  C      3.687680   -7.856380  -15.610480
  C      5.014200   -7.842070  -15.188750
  O      5.177100   -7.783360  -13.844880
  C      6.301870   -8.324120  -13.182650
  C      6.113300   -7.823530  -16.124030
  O      7.349510   -7.757440  -15.564540
  C      8.473910   -7.718900  -16.412310
  C      5.902690   -7.851890  -17.477500
  C      4.575440   -7.873310  -17.932820
  C      3.465470   -7.864190  -17.013980
  N      2.364170   -7.880720  -17.736440
  O      2.753190   -7.897690  -19.013240
  N      4.079770   -7.893080  -19.153940
  H     -9.874680   -9.474670    5.065980
  H     -6.177070   -7.514610    5.984520
  H     -7.285540   -6.984880    7.275580
  H     -7.073160   -5.984540    5.819180
  H     -5.326460   -6.071680    2.106480
  H     -6.285610   -4.935410    3.084330
  H     -7.083220   -5.948860    1.852910
  H     -4.452780   -8.302620    2.323090
  H     -1.150030   -8.061560   -3.176370
  H     -0.488600   -8.131610   -5.355110
  H     -2.999360   -8.219220  -10.921410
  H      0.902090   -7.928960  -16.041100
  H      7.152570   -7.641940  -13.218150
  H      6.589430   -9.290380  -13.600720
  H      5.980600   -8.454960  -12.149310
  H      8.544110   -8.622760  -17.024410
  H      9.335240   -7.662970  -15.748860
  H      8.455260   -6.838140  -17.060450
  H      6.700730   -7.840770  -18.197460

 Total Charge           Charge          ....    0
 Multiplicity           Mult            ....    1
 Number of Electrons    NEL             ....  450
 Basis Dimension        Dim             ....  921

ORBITAL ENERGIES
----------------

  NO   OCC          E(Eh)            E(eV)
   0   2.0000     -89.032521     -2422.6981
   1   2.0000     -88.956030     -2420.6166
   2   2.0000     -88.951770     -2420.5007
   3   2.0000     -88.951675     -2420.4981
   4   2.0000     -88.950269     -2420.4599
   5   2.0000     -88.949792     -2420.4469
   6   2.0000     -88.945922     -2420.3416
   7   2.0000     -19.340445      -526.2803
   8   2.0000     -19.333978      -526.1043
   9   2.0000     -19.273110      -524.4480
  10   2.0000     -19.264888      -524.2243
  11   2.0000     -19.259723      -524.0837
  12   2.0000     -19.248500      -523.7783
  13   2.0000     -14.469501      -393.7351
  14   2.0000     -14.467114      -393.6702
  15   2.0000     -14.462674      -393.5494
  16   2.0000     -14.457955      -393.4209
  17   2.0000     -14.449892      -393.2015
  18   2.0000     -14.444051      -393.0426
  19   2.0000     -14.409851      -392.1120
  20   2.0000     -10.366462      -282.0858
  21   2.0000     -10.359714      -281.9021
  22   2.0000     -10.358251      -281.8623
  23   2.0000     -10.352763      -281.7130
  24   2.0000     -10.342668      -281.4383
  25   2.0000     -10.330833      -281.1162
  26   2.0000     -10.329790      -281.0879
  27   2.0000     -10.328292      -281.0471
  28   2.0000     -10.327650      -281.0296
  29   2.0000     -10.326843      -281.0077
  30   2.0000     -10.319133      -280.7979
  31   2.0000     -10.318687      -280.7858
  32   2.0000     -10.317932      -280.7652
  33   2.0000     -10.311783      -280.5979
  34   2.0000     -10.311161      -280.5810
  35   2.0000     -10.309051      -280.5235
  36   2.0000     -10.307704      -280.4869
  37   2.0000     -10.305283      -280.4210
  38   2.0000     -10.305011      -280.4136
  39   2.0000     -10.304360      -280.3959
  40   2.0000     -10.302412      -280.3429
  41   2.0000     -10.299933      -280.2754
  42   2.0000     -10.297789      -280.2171
  43   2.0000     -10.296861      -280.1918
  44   2.0000     -10.296785      -280.1898
  45   2.0000     -10.295780      -280.1624
  46   2.0000     -10.295469      -280.1539
  47   2.0000     -10.294911      -280.1388
  48   2.0000     -10.291900      -280.0568
  49   2.0000     -10.291435      -280.0442
  50   2.0000     -10.290675      -280.0235
  51   2.0000     -10.290141      -280.0090
  52   2.0000     -10.283133      -279.8183
  53   2.0000     -10.279545      -279.7206
  54   2.0000     -10.277303      -279.6596
  55   2.0000     -10.276017      -279.6246
  56   2.0000     -10.269553      -279.4487
  57   2.0000      -8.124140      -221.0691
  58   2.0000      -8.050792      -219.0732
  59   2.0000      -8.047031      -218.9708
  60   2.0000      -8.045836      -218.9383
  61   2.0000      -8.044369      -218.8984
  62   2.0000      -8.043931      -218.8865
  63   2.0000      -8.041147      -218.8107
  64   2.0000      -6.095382      -165.8638
  65   2.0000      -6.087549      -165.6506
  66   2.0000      -6.086537      -165.6231
  67   2.0000      -6.020354      -163.8222
  68   2.0000      -6.016774      -163.7247
  69   2.0000      -6.016127      -163.7071
  70   2.0000      -6.015514      -163.6905
  71   2.0000      -6.013933      -163.6474
  72   2.0000      -6.013675      -163.6404
  73   2.0000      -6.012962      -163.6210
  74   2.0000      -6.012451      -163.6071
  75   2.0000      -6.011115      -163.5707
  76   2.0000      -6.010893      -163.5647
  77   2.0000      -6.009773      -163.5342
  78   2.0000      -6.009230      -163.5195
  79   2.0000      -6.007960      -163.4849
  80   2.0000      -6.007434      -163.4706
  81   2.0000      -6.007066      -163.4606
  82   2.0000      -6.006037      -163.4326
  83   2.0000      -6.005593      -163.4205
  84   2.0000      -6.002080      -163.3249
  85   2.0000      -1.293523       -35.1985
  86   2.0000      -1.286522       -35.0080
  87   2.0000      -1.184934       -32.2437
  88   2.0000      -1.169608       -31.8266
  89   2.0000      -1.161333       -31.6015
  90   2.0000      -1.145374       -31.1672
  91   2.0000      -1.132964       -30.8295
  92   2.0000      -1.046598       -28.4794
  93   2.0000      -1.013065       -27.5669
  94   2.0000      -1.007645       -27.4194
  95   2.0000      -0.999807       -27.2061
  96   2.0000      -0.995594       -27.0915
  97   2.0000      -0.991633       -26.9837
  98   2.0000      -0.989369       -26.9221
  99   2.0000      -0.984087       -26.7784
 100   2.0000      -0.967551       -26.3284
 101   2.0000      -0.964252       -26.2386
 102   2.0000      -0.925960       -25.1966
 103   2.0000      -0.919372       -25.0174
 104   2.0000      -0.909833       -24.7578
 105   2.0000      -0.903535       -24.5864
 106   2.0000      -0.898558       -24.4510
 107   2.0000      -0.878224       -23.8977
 108   2.0000      -0.875287       -23.8178
 109   2.0000      -0.872519       -23.7424
 110   2.0000      -0.851167       -23.1614
 111   2.0000      -0.841456       -22.8972
 112   2.0000      -0.829940       -22.5838
 113   2.0000      -0.828593       -22.5472
 114   2.0000      -0.823246       -22.4017
 115   2.0000      -0.820174       -22.3181
 116   2.0000      -0.811459       -22.0809
 117   2.0000      -0.798292       -21.7226
 118   2.0000      -0.796363       -21.6701
 119   2.0000      -0.780407       -21.2359
 120   2.0000      -0.777943       -21.1689
 121   2.0000      -0.764752       -20.8099
 122   2.0000      -0.756380       -20.5822
 123   2.0000      -0.732611       -19.9354
 124   2.0000      -0.729102       -19.8399
 125   2.0000      -0.726709       -19.7747
 126   2.0000      -0.722858       -19.6700
 127   2.0000      -0.719971       -19.5914
 128   2.0000      -0.712535       -19.3891
 129   2.0000      -0.698986       -19.0204
 130   2.0000      -0.680795       -18.5254
 131   2.0000      -0.661194       -17.9920
 132   2.0000      -0.650801       -17.7092
 133   2.0000      -0.648345       -17.6424
 134   2.0000      -0.645697       -17.5703
 135   2.0000      -0.644603       -17.5405
 136   2.0000      -0.635253       -17.2861
 137   2.0000      -0.630859       -17.1666
 138   2.0000      -0.627242       -17.0681
 139   2.0000      -0.624676       -16.9983
 140   2.0000      -0.622498       -16.9390
 141   2.0000      -0.616651       -16.7799
 142   2.0000      -0.616241       -16.7688
 143   2.0000      -0.606958       -16.5162
 144   2.0000      -0.601335       -16.3632
 145   2.0000      -0.598017       -16.2729
 146   2.0000      -0.596026       -16.2187
 147   2.0000      -0.588463       -16.0129
 148   2.0000      -0.585191       -15.9239
 149   2.0000      -0.581105       -15.8127
 150   2.0000      -0.570519       -15.5246
 151   2.0000      -0.569510       -15.4972
 152   2.0000      -0.560564       -15.2537
 153   2.0000      -0.559061       -15.2128
 154   2.0000      -0.558870       -15.2076
 155   2.0000      -0.554129       -15.0786
 156   2.0000      -0.551769       -15.0144
 157   2.0000      -0.549761       -14.9598
 158   2.0000      -0.546657       -14.8753
 159   2.0000      -0.545130       -14.8337
 160   2.0000      -0.542203       -14.7541
 161   2.0000      -0.541164       -14.7258
 162   2.0000      -0.525955       -14.3120
 163   2.0000      -0.523878       -14.2555
 164   2.0000      -0.519690       -14.1415
 165   2.0000      -0.516637       -14.0584
 166   2.0000      -0.510835       -13.9005
 167   2.0000      -0.508303       -13.8316
 168   2.0000      -0.507561       -13.8114
 169   2.0000      -0.501616       -13.6497
 170   2.0000      -0.496573       -13.5125
 171   2.0000      -0.489759       -13.3270
 172   2.0000      -0.488035       -13.2801
 173   2.0000      -0.484828       -13.1928
 174   2.0000      -0.482509       -13.1297
 175   2.0000      -0.481053       -13.0901
 176   2.0000      -0.474985       -12.9250
 177   2.0000      -0.474398       -12.9090
 178   2.0000      -0.471742       -12.8367
 179   2.0000      -0.466041       -12.6816
 180   2.0000      -0.465377       -12.6635
 181   2.0000      -0.463767       -12.6197
 182   2.0000      -0.455379       -12.3915
 183   2.0000      -0.454542       -12.3687
 184   2.0000      -0.452285       -12.3073
 185   2.0000      -0.445817       -12.1313
 186   2.0000      -0.443709       -12.0739
 187   2.0000      -0.438904       -11.9432
 188   2.0000      -0.437127       -11.8948
 189   2.0000      -0.435641       -11.8544
 190   2.0000      -0.428530       -11.6609
 191   2.0000      -0.425563       -11.5801
 192   2.0000      -0.421712       -11.4754
 193   2.0000      -0.417040       -11.3482
 194   2.0000      -0.414354       -11.2751
 195   2.0000      -0.412395       -11.2218
 196   2.0000      -0.409634       -11.1467
 197   2.0000      -0.405980       -11.0473
 198   2.0000      -0.403642       -10.9837
 199   2.0000      -0.397677       -10.8213
 200   2.0000      -0.393411       -10.7053
 201   2.0000      -0.393172       -10.6987
 202   2.0000      -0.392404       -10.6778
 203   2.0000      -0.386877       -10.5275
 204   2.0000      -0.385027       -10.4771
 205   2.0000      -0.381850       -10.3907
 206   2.0000      -0.381795       -10.3892
 207   2.0000      -0.377574       -10.2743
 208   2.0000      -0.373524       -10.1641
 209   2.0000      -0.365280        -9.9398
 210   2.0000      -0.364196        -9.9103
 211   2.0000      -0.356725        -9.7070
 212   2.0000      -0.350251        -9.5308
 213   2.0000      -0.336795        -9.1646
 214   2.0000      -0.328128        -8.9288
 215   2.0000      -0.324381        -8.8269
 216   2.0000      -0.321144        -8.7388
 217   2.0000      -0.313797        -8.5388
 218   2.0000      -0.308978        -8.4077
 219   2.0000      -0.297243        -8.0884
 220   2.0000      -0.283287        -7.7086
 221   2.0000      -0.276504        -7.5241
 222   2.0000      -0.271867        -7.3979
 223   2.0000      -0.252261        -6.8644
 224   2.0000      -0.227353        -6.1866
 225   0.0000      -0.083630        -2.2757
 226   0.0000      -0.052440        -1.4270
 227   0.0000      -0.046969        -1.2781
 228   0.0000      -0.012056        -0.3281
 229   0.0000      -0.003790        -0.1031

MULLIKEN ATOMIC CHARGES
-----------------------
   0 C :   -0.152038
   1 C :    0.222447
   2 O :   -0.308727
   3 C :    0.206850
   4 C :    0.042158
   5 O :   -0.342696
   6 C :    0.194150
   7 C :    0.097911
   8 C :   -0.096770
   9 C :    0.054822
  10 N :    0.044781
  11 O :   -0.112132
  12 N :    0.042192
  13 C :   -0.187659
  14 C :   -0.023763
  15 C :   -0.041524
  16 C :   -0.075951
  17 S :    0.199275
  18 C :   -0.067491
  19 C :   -0.019786
  20 S :    0.138840
  21 C :   -0.061369
  22 C :   -0.082457
  23 S :    0.174516
  24 C :    0.089318
  25 C :   -0.047252
  26 N :   -0.053116
  27 C :    0.030561
  28 C :    0.002314
  29 C :    0.020572
  30 N :   -0.312213
  31 S :    0.531834
  32 N :   -0.262724
  33 C :   -0.119042
  34 C :   -0.049785
  35 C :   -0.024451
  36 C :   -0.071529
  37 S :    0.182348
  38 C :   -0.062612
  39 C :   -0.012715
  40 S :    0.148431
  41 C :   -0.057972
  42 C :   -0.141609
  43 S :    0.154780
  44 C :    0.138390
  45 C :    0.089980
  46 O :   -0.337233
  47 C :    0.207496
  48 C :    0.229136
  49 O :   -0.323027
  50 C :    0.176510
  51 C :   -0.201739
  52 C :    0.021695
  53 C :   -0.074789
  54 N :    0.035595
  55 O :   -0.107716
  56 N :    0.050645
  57 H :   -0.020203
  58 H :    0.019641
  59 H :    0.031055
  60 H :    0.021404
  61 H :    0.039095
  62 H :    0.030520
  63 H :    0.038133
  64 H :   -0.008605
  65 H :   -0.017254
  66 H :   -0.004192
  67 H :   -0.004014
  68 H :    0.002208
  69 H :    0.035908
  70 H :    0.020541
  71 H :    0.034399
  72 H :    0.033267
  73 H :    0.043357
  74 H :    0.034690
  75 H :   -0.025617
Sum of atomic charges:   -0.0000000

LOEWDIN ATOMIC CHARGES
----------------------
   0 C :   -0.058146
   1 C :    0.058289
   2 O :   -0.096504
   3 C :    0.079804
   4 C :    0.039098
   5 O :   -0.104044
   6 C :    0.083838
   7 C :   -0.082606
   8 C :   -0.063509
   9 C :   -0.060163
  10 N :   -0.037342
  11 O :    0.063774
  12 N :   -0.041856
  13 C :   -0.168609
  14 C :   -0.062683
  15 C :   -0.200078
  16 C :   -0.217399
  17 S :    0.461042
  18 C :   -0.224093
  19 C :   -0.192154
  20 S :    0.391029
  21 C :   -0.065721
  22 C :   -0.157963
  23 S :    0.461853
  24 C :   -0.074103
  25 C :    0.022248
  26 N :   -0.084074
  27 C :   -0.000551
  28 C :   -0.060055
  29 C :   -0.041161
  30 N :   -0.298743
  31 S :    0.657653
  32 N :   -0.268274
  33 C :   -0.180364
  34 C :   -0.043287
  35 C :   -0.197150
  36 C :   -0.208042
  37 S :    0.451901
  38 C :   -0.227926
  39 C :   -0.187877
  40 S :    0.398586
  41 C :   -0.059794
  42 C :   -0.160919
  43 S :    0.446775
  44 C :   -0.060175
  45 C :    0.045170
  46 O :   -0.098405
  47 C :    0.082572
  48 C :    0.051538
  49 O :   -0.088543
  50 C :    0.080981
  51 C :   -0.090257
  52 C :   -0.057178
  53 C :   -0.048245
  54 N :   -0.031402
  55 O :    0.063711
  56 N :   -0.032539
  57 H :    0.043069
  58 H :    0.015383
  59 H :    0.023291
  60 H :    0.014767
  61 H :    0.020575
  62 H :    0.022373
  63 H :    0.023942
  64 H :    0.033369
  65 H :    0.031095
  66 H :    0.023324
  67 H :    0.034183
  68 H :    0.033795
  69 H :    0.018385
  70 H :    0.017484
  71 H :    0.023811
  72 H :    0.020523
  73 H :    0.031738
  74 H :    0.021665
  75 H :    0.039301

  Mayer bond orders larger than 0.100000
B(  0-C ,  1-C ) :   1.4999 B(  0-C ,  7-C ) :   0.1123 B(  0-C ,  9-C ) :   1.0929
B(  0-C , 57-H ) :   1.0573 B(  1-C ,  2-O ) :   1.1689 B(  1-C ,  4-C ) :   1.0994
B(  2-O ,  3-C ) :   0.9333 B(  3-C , 58-H ) :   0.9744 B(  3-C , 59-H ) :   0.9773
B(  3-C , 60-H ) :   0.9762 B(  4-C ,  5-O ) :   1.1599 B(  4-C ,  7-C ) :   1.4635
B(  5-O ,  6-C ) :   0.9301 B(  6-C , 61-H ) :   0.9682 B(  6-C , 62-H ) :   0.9755
B(  6-C , 63-H ) :   0.9633 B(  7-C ,  8-C ) :   1.1425 B(  7-C , 13-C ) :   1.0163
B(  8-C ,  9-C ) :   1.1486 B(  8-C , 12-N ) :   1.6183 B(  9-C , 10-N ) :   1.6018
B( 10-N , 11-O ) :   1.0548 B( 10-N , 12-N ) :   0.1797 B( 11-O , 12-N ) :   1.0571
B( 13-C , 14-C ) :   1.5395 B( 13-C , 17-S ) :   1.1212 B( 14-C , 15-C ) :   1.2575
B( 14-C , 64-H ) :   1.0041 B( 15-C , 16-C ) :   1.4737 B( 15-C , 20-S ) :   1.0414
B( 16-C , 17-S ) :   1.0739 B( 16-C , 18-C ) :   1.2905 B( 18-C , 19-C ) :   1.4632
B( 18-C , 23-S ) :   1.0475 B( 19-C , 20-S ) :   1.0431 B( 19-C , 21-C ) :   1.2696
B( 21-C , 22-C ) :   1.5079 B( 21-C , 65-H ) :   0.9953 B( 22-C , 23-S ) :   1.1085
B( 22-C , 24-C ) :   1.1016 B( 24-C , 25-C ) :   1.4217 B( 24-C , 27-C ) :   0.1004
B( 24-C , 29-C ) :   1.1857 B( 25-C , 26-N ) :   1.4525 B( 25-C , 66-H ) :   0.9781
B( 26-N , 27-C ) :   1.6603 B( 27-C , 28-C ) :   1.1651 B( 27-C , 33-C ) :   1.1488
B( 28-C , 29-C ) :   1.1859 B( 28-C , 32-N ) :   1.5480 B( 29-C , 30-N ) :   1.4951
B( 30-N , 31-S ) :   1.2563 B( 30-N , 32-N ) :   0.1480 B( 31-S , 32-N ) :   1.2744
B( 33-C , 34-C ) :   1.5216 B( 33-C , 37-S ) :   1.0755 B( 34-C , 35-C ) :   1.2528
B( 34-C , 67-H ) :   0.9881 B( 35-C , 36-C ) :   1.4540 B( 35-C , 40-S ) :   1.0420
B( 36-C , 37-S ) :   1.0664 B( 36-C , 38-C ) :   1.3025 B( 38-C , 39-C ) :   1.4558
B( 38-C , 43-S ) :   1.0351 B( 39-C , 40-S ) :   1.0478 B( 39-C , 41-C ) :   1.2437
B( 41-C , 42-C ) :   1.5296 B( 41-C , 68-H ) :   0.9850 B( 42-C , 43-S ) :   1.0873
B( 42-C , 44-C ) :   1.1386 B( 44-C , 45-C ) :   1.4860 B( 44-C , 51-C ) :   0.1078
B( 44-C , 53-C ) :   1.1410 B( 45-C , 46-O ) :   1.1659 B( 45-C , 48-C ) :   1.1276
B( 46-O , 47-C ) :   0.9129 B( 47-C , 69-H ) :   0.9767 B( 47-C , 70-H ) :   0.9756
B( 47-C , 71-H ) :   0.9741 B( 48-C , 49-O ) :   1.1493 B( 48-C , 51-C ) :   1.4302
B( 49-O , 50-C ) :   0.9518 B( 50-C , 72-H ) :   0.9695 B( 50-C , 73-H ) :   0.9773
B( 50-C , 74-H ) :   0.9690 B( 51-C , 52-C ) :   1.0985 B( 51-C , 75-H ) :   1.0417
B( 52-C , 53-C ) :   1.1424 B( 52-C , 56-N ) :   1.6163 B( 53-C , 54-N ) :   1.6104
B( 54-N , 55-O ) :   1.0492 B( 54-N , 56-N ) :   0.1757 B( 55-O , 56-N ) :   1.0562

-----------------------------------------------------------------------------
         ABSORPTION SPECTRUM VIA TRANSITION ELECTRIC DIPOLE MOMENTS
-----------------------------------------------------------------------------
State   Energy  Wavelength   fosc         T2         TX        TY        TZ
        (cm-1)    (nm)                  (au**2)     (au)      (au)      (au)
-----------------------------------------------------------------------------
   0   15927.3    627.9   1.425693639  29.46861   2.68019   0.17574  -4.71745
   1   22807.9    438.4   0.102767947   1.48337   1.17606   0.02860  -0.31532
   2   24223.0    412.8   0.382508973   5.19863  -1.63100  -0.05716   1.59223
   3   25117.3    398.1   0.029514273   0.38684   0.55500   0.01725   0.28021
   4   25522.6    391.8   0.452405863   5.83552   1.37235   0.18545  -1.97934
   5   26697.8    374.6   0.020569290   0.25364  -0.47103  -0.04836  -0.17158
   6   30405.6    328.9   0.158435428   1.71544   0.55883   0.07322  -1.18228
   7   30420.7    328.7   0.216932537   2.34764  -0.63372  -0.02139   1.39484
   8   30986.8    322.7   0.102680051   1.09090   0.13481   0.00265  -1.03572
   9   31289.7    319.6   0.107907443   1.13534  -0.40948  -0.12285  -0.97600
  10   32516.3    307.5   0.020546366   0.20802   0.00174  -0.15989   0.42715
  11   32919.5    303.8   0.073591363   0.73595   0.17755   0.20283   0.81442
  12   33466.3    298.8   0.047324066   0.46553  -0.46730  -0.37243   0.32933
  13   33931.0    294.7   0.310470820   3.01231   1.38323   0.30623  -1.00260
  14   35344.5    282.9   0.054210600   0.50494   0.32585   0.33891   0.53282
  15   35743.9    279.8   0.019470907   0.17933   0.02996  -0.29130  -0.30590
  16   36029.5    277.6   0.074690490   0.68247   0.20805   0.60914   0.51782
  17   36984.2    270.4   0.012402580   0.11040  -0.05393   0.26049   0.19909
  18   37244.6    268.5   0.157089201   1.38854  -0.56827  -0.02246  -1.03204
  19   37759.5    264.8   0.001852539   0.01615  -0.11856   0.03095  -0.03373
  20   38129.6    262.3   0.000718705   0.00621  -0.07040  -0.01978   0.02929
  21   38338.9    260.8   0.011704946   0.10051  -0.25325   0.14795   0.12035
  22   39049.5    256.1   0.070844620   0.59726   0.38996  -0.46461  -0.47889
  23   39442.5    253.5   0.006653184   0.05553   0.12108   0.17819  -0.09551
  24   39717.4    251.8   0.071896668   0.59594   0.69269   0.13439  -0.31314
  25   40157.7    249.0   0.054878650   0.44989   0.10628   0.47636   0.46008
  26   40320.5    248.0   0.096794115   0.79031   0.73654   0.08068   0.49124

FINAL SINGLE POINT ENERGY     -5039.477157138595

DIPOLE MOMENT
-------------
                                X             Y             Z
Electronic contribution:    -28.36718     -10.47319     -18.97632
Nuclear contribution   :     31.87289      11.94246      19.67924
                        -----------------------------------------
Total Dipole Moment    :      3.50571       1.46927       0.70292
                        -----------------------------------------
Magnitude (a.u.)       :      3.86560
Magnitude (Debye)      :      9.82558

Rotational constants in cm-1:     0.004711     0.000252     0.000242
Rotational constants in MHz :   141.224945     7.560363     7.257633

                             ****ORCA TERMINATED NORMALLY****
TOTAL RUN TIME: 0 days 0 hours 5 minutes 21 seconds 535 msec
