                         Program Version 4.2.0 -  RELEASE  -
|  1> # ORCA input file
|  2> # SCF done       -190.934263801238          0.000502775197
|  3> ! CAM-B3LYP def2-SVP def2/J RIJCOSX Grid4 TightSCF
|  4> %maxcore 5000
|  5> %tddft
|  6>     Mode sTDDFT
|  7>     Ethresh 5.0
|  8>     maxcore 5000
|  9> end
| 10>
| 11> %pal
| 12>   nprocs 6
| 13>   end
| 14> * xyz 0 1
| 15>    C        0.37422        -1.46665         5.87170
| 16>    C        1.60053        -1.62895         6.46250
| 17>    O        2.08105        -0.77505         7.40707
| 18>    C        1.28339         0.31554         7.80221
| 19>    C        2.47004        -2.73917         6.14602
| 20>    O        3.69288        -2.88668         6.72093
| 21>    C        4.49781        -1.77020         7.04694
| 22>    C        2.06927        -3.75196         5.27648
| 23>    C        0.79204        -3.58678         4.67723
| 24>    C       -0.03846        -2.44616         4.95755
| 25>    N       -1.13686        -2.56980         4.23888
| 26>    O       -1.00259        -3.70978         3.55293
| 27>    N        0.14997        -4.33363         3.80495
| 28>    C        2.84701        -4.91228         4.94098
| 29>    S        2.25700        -6.00360         3.71862
| 30>    C        3.65066        -7.02677         3.89175
| 31>    C        4.50709        -6.53316         4.85525
| 32>    C        4.05398        -5.35389         5.44298
| 33>    C        3.80589        -8.20375         3.10901
| 34>    C        4.88177        -9.06628         3.06685
| 35>    C        4.70665       -10.13205         2.18507
| 36>    C        3.49092       -10.11261         1.53514
| 37>    S        2.54833        -8.73352         2.02850
| 38>    C        2.98338       -11.04162         0.59088
| 39>    S        3.94688       -12.38819         0.04620
| 40>    C        2.65650       -12.95840        -0.98286
| 41>    C        1.55978       -12.12570        -0.88222
| 42>    C        1.74247       -11.05526        -0.00845
| 43>    C        2.77809       -14.12351        -1.78218
| 44>    C        3.90231       -14.87106        -1.88541
| 45>    C        4.04297       -16.04745        -2.66553
| 46>    N        5.26128       -16.69492        -2.74518
| 47>    C        5.12267       -17.78885        -3.53880
| 48>    C        5.79688       -18.87968        -4.08090
| 49>    C        4.85168       -19.58645        -4.83126
| 50>    N        3.63239       -18.93950        -4.75077
| 51>    C        3.77409       -17.83745        -3.96853
| 52>    C        3.09992       -16.74678        -3.42562
| 53>    C        4.98443       -20.78758        -5.57511
| 54>    C        6.14207       -21.47103        -5.74613
| 55>    C        6.26919       -22.69302        -6.45774
| 56>    S        7.84749       -23.41693        -6.63390
| 57>    C        7.18844       -24.76841        -7.51178
| 58>    C        5.82226       -24.63810        -7.64778
| 59>    C        5.31040       -23.48162        -7.06383
| 60>    C        8.01902       -25.81949        -7.97761
| 61>    C        9.39146       -25.92448        -7.90107
| 62>    C        9.89129       -27.10125        -8.45744
| 63>    C        8.91184       -27.92773        -8.96816
| 64>    S        7.33522       -27.21851        -8.75686
| 65>    C        9.06725       -29.19676        -9.58883
| 66>    S        7.68626       -30.14589       -10.05296
| 67>    C        8.70486       -31.42116       -10.66342
| 68>    C       10.03594       -31.09206       -10.50303
| 69>    C       10.24194       -29.85255        -9.90033
| 70>    C        8.18056       -32.61390       -11.23245
| 71>    C        6.86219       -32.89761       -11.29460
| 72>    C        6.23588       -34.06623       -11.84574
| 73>    C        6.82454       -35.02609       -12.66469
| 74>    O        8.13987       -34.84958       -12.96254
| 75>    C        8.65594       -35.20874       -14.22982
| 76>    C        6.08450       -36.17734       -13.13123
| 77>    O        6.81621       -37.07704       -13.84381
| 78>    C        6.18272       -38.24126       -14.31713
| 79>    C        4.75464       -36.35557       -12.85115
| 80>    C        4.12095       -35.38353       -12.06255
| 81>    C        4.85722       -34.25689       -11.55429
| 82>    N        4.01903       -33.52686       -10.84854
| 83>    O        2.84020       -34.14888       -10.90879
| 84>    N        2.87876       -35.27269       -11.63467
| 85>    H       -0.28133        -0.64399         6.09236
| 86>    H        1.86063         0.83519         8.56536
| 87>    H        0.33281        -0.01798         8.22893
| 88>    H        1.09085         0.99538         6.96666
| 89>    H        4.40650        -0.97415         6.30599
| 90>    H        5.52186        -2.14675         7.04563
| 91>    H        4.25840        -1.37647         8.03646
| 92>    H        5.42645        -7.01708         5.13055
| 93>    H        4.58257        -4.84251         6.22330
| 94>    H        5.76899        -8.92271         3.65634
| 95>    H        5.43619       -10.90501         2.01825
| 96>    H        0.65316       -12.29733        -1.43522
| 97>    H        0.99926       -10.30456         0.19592
| 98>    H        1.89321       -14.40096        -2.33737
| 99>    H        4.77944       -14.55623        -1.33184
|100>    H        6.10031       -16.38317        -2.28774
|101>    H        6.82637       -19.14667        -3.95591
|102>    H        2.79231       -19.25094        -5.20639
|103>    H        2.06895       -16.48240        -3.54462
|104>    H        4.07639       -21.16666        -6.02572
|105>    H        7.05236       -21.08058        -5.31485
|106>    H        5.22557       -25.37274        -8.16002
|107>    H        4.26558       -23.22955        -7.07589
|108>    H       10.00237       -25.16115        -7.45213
|109>    H       10.93675       -27.34928        -8.48198
|110>    H       10.83332       -31.74355       -10.81498
|111>    H       11.21389       -29.43984        -9.69924
|112>    H        8.91238       -33.31289       -11.60679
|113>    H        6.15962       -32.19718       -10.85909
|114>    H        7.92907       -35.03895       -15.02600
|115>    H        8.98145       -36.25059       -14.25027
|116>    H        9.51702       -34.55687       -14.38481
|117>    H        5.79117       -38.84648       -13.49428
|118>    H        6.95622       -38.80018       -14.84150
|119>    H        5.37262       -38.00219       -15.01274
|120>    H        4.19084       -37.20567       -13.19044
|121> *
|122>
|123>                          ****END OF INPUT****

CARTESIAN COORDINATES (ANGSTROEM)
---------------------------------
  C      0.374220   -1.466650    5.871700
  C      1.600530   -1.628950    6.462500
  O      2.081050   -0.775050    7.407070
  C      1.283390    0.315540    7.802210
  C      2.470040   -2.739170    6.146020
  O      3.692880   -2.886680    6.720930
  C      4.497810   -1.770200    7.046940
  C      2.069270   -3.751960    5.276480
  C      0.792040   -3.586780    4.677230
  C     -0.038460   -2.446160    4.957550
  N     -1.136860   -2.569800    4.238880
  O     -1.002590   -3.709780    3.552930
  N      0.149970   -4.333630    3.804950
  C      2.847010   -4.912280    4.940980
  S      2.257000   -6.003600    3.718620
  C      3.650660   -7.026770    3.891750
  C      4.507090   -6.533160    4.855250
  C      4.053980   -5.353890    5.442980
  C      3.805890   -8.203750    3.109010
  C      4.881770   -9.066280    3.066850
  C      4.706650  -10.132050    2.185070
  C      3.490920  -10.112610    1.535140
  S      2.548330   -8.733520    2.028500
  C      2.983380  -11.041620    0.590880
  S      3.946880  -12.388190    0.046200
  C      2.656500  -12.958400   -0.982860
  C      1.559780  -12.125700   -0.882220
  C      1.742470  -11.055260   -0.008450
  C      2.778090  -14.123510   -1.782180
  C      3.902310  -14.871060   -1.885410
  C      4.042970  -16.047450   -2.665530
  N      5.261280  -16.694920   -2.745180
  C      5.122670  -17.788850   -3.538800
  C      5.796880  -18.879680   -4.080900
  C      4.851680  -19.586450   -4.831260
  N      3.632390  -18.939500   -4.750770
  C      3.774090  -17.837450   -3.968530
  C      3.099920  -16.746780   -3.425620
  C      4.984430  -20.787580   -5.575110
  C      6.142070  -21.471030   -5.746130
  C      6.269190  -22.693020   -6.457740
  S      7.847490  -23.416930   -6.633900
  C      7.188440  -24.768410   -7.511780
  C      5.822260  -24.638100   -7.647780
  C      5.310400  -23.481620   -7.063830
  C      8.019020  -25.819490   -7.977610
  C      9.391460  -25.924480   -7.901070
  C      9.891290  -27.101250   -8.457440
  C      8.911840  -27.927730   -8.968160
  S      7.335220  -27.218510   -8.756860
  C      9.067250  -29.196760   -9.588830
  S      7.686260  -30.145890  -10.052960
  C      8.704860  -31.421160  -10.663420
  C     10.035940  -31.092060  -10.503030
  C     10.241940  -29.852550   -9.900330
  C      8.180560  -32.613900  -11.232450
  C      6.862190  -32.897610  -11.294600
  C      6.235880  -34.066230  -11.845740
  C      6.824540  -35.026090  -12.664690
  O      8.139870  -34.849580  -12.962540
  C      8.655940  -35.208740  -14.229820
  C      6.084500  -36.177340  -13.131230
  O      6.816210  -37.077040  -13.843810
  C      6.182720  -38.241260  -14.317130
  C      4.754640  -36.355570  -12.851150
  C      4.120950  -35.383530  -12.062550
  C      4.857220  -34.256890  -11.554290
  N      4.019030  -33.526860  -10.848540
  O      2.840200  -34.148880  -10.908790
  N      2.878760  -35.272690  -11.634670
  H     -0.281330   -0.643990    6.092360
  H      1.860630    0.835190    8.565360
  H      0.332810   -0.017980    8.228930
  H      1.090850    0.995380    6.966660
  H      4.406500   -0.974150    6.305990
  H      5.521860   -2.146750    7.045630
  H      4.258400   -1.376470    8.036460
  H      5.426450   -7.017080    5.130550
  H      4.582570   -4.842510    6.223300
  H      5.768990   -8.922710    3.656340
  H      5.436190  -10.905010    2.018250
  H      0.653160  -12.297330   -1.435220
  H      0.999260  -10.304560    0.195920
  H      1.893210  -14.400960   -2.337370
  H      4.779440  -14.556230   -1.331840
  H      6.100310  -16.383170   -2.287740
  H      6.826370  -19.146670   -3.955910
  H      2.792310  -19.250940   -5.206390
  H      2.068950  -16.482400   -3.544620
  H      4.076390  -21.166660   -6.025720
  H      7.052360  -21.080580   -5.314850
  H      5.225570  -25.372740   -8.160020
  H      4.265580  -23.229550   -7.075890
  H     10.002370  -25.161150   -7.452130
  H     10.936750  -27.349280   -8.481980
  H     10.833320  -31.743550  -10.814980
  H     11.213890  -29.439840   -9.699240
  H      8.912380  -33.312890  -11.606790
  H      6.159620  -32.197180  -10.859090
  H      7.929070  -35.038950  -15.026000
  H      8.981450  -36.250590  -14.250270
  H      9.517020  -34.556870  -14.384810
  H      5.791170  -38.846480  -13.494280
  H      6.956220  -38.800180  -14.841500
  H      5.372620  -38.002190  -15.012740
  H      4.190840  -37.205670  -13.190440

 Total Charge           Charge          ....    0
 Multiplicity           Mult            ....    1
 Number of Electrons    NEL             ....  534
 Basis Dimension        Dim             .... 1184

ORBITAL ENERGIES
----------------

  NO   OCC          E(Eh)            E(eV)
   0   2.0000     -88.946175     -2420.3485
   1   2.0000     -88.943859     -2420.2854
   2   2.0000     -88.943130     -2420.2656
   3   2.0000     -88.942877     -2420.2587
   4   2.0000     -88.941071     -2420.2096
   5   2.0000     -88.939181     -2420.1581
   6   2.0000     -19.334167      -526.1094
   7   2.0000     -19.329144      -525.9728
   8   2.0000     -19.266721      -524.2741
   9   2.0000     -19.263912      -524.1977
  10   2.0000     -19.251791      -523.8679
  11   2.0000     -19.248722      -523.7844
  12   2.0000     -14.462697      -393.5500
  13   2.0000     -14.460587      -393.4926
  14   2.0000     -14.457749      -393.4154
  15   2.0000     -14.455345      -393.3499
  16   2.0000     -14.444870      -393.0649
  17   2.0000     -14.444531      -393.0557
  18   2.0000     -10.359604      -281.8992
  19   2.0000     -10.355730      -281.7938
  20   2.0000     -10.351635      -281.6823
  21   2.0000     -10.346147      -281.5330
  22   2.0000     -10.337793      -281.3057
  23   2.0000     -10.335394      -281.2404
  24   2.0000     -10.321250      -280.8555
  25   2.0000     -10.318950      -280.7929
  26   2.0000     -10.311536      -280.5912
  27   2.0000     -10.310879      -280.5733
  28   2.0000     -10.306559      -280.4557
  29   2.0000     -10.304688      -280.4048
  30   2.0000     -10.298742      -280.2430
  31   2.0000     -10.297789      -280.2171
  32   2.0000     -10.296363      -280.1783
  33   2.0000     -10.295622      -280.1581
  34   2.0000     -10.294308      -280.1224
  35   2.0000     -10.293646      -280.1043
  36   2.0000     -10.292997      -280.0867
  37   2.0000     -10.292618      -280.0764
  38   2.0000     -10.291860      -280.0557
  39   2.0000     -10.291773      -280.0534
  40   2.0000     -10.291065      -280.0341
  41   2.0000     -10.290220      -280.0111
  42   2.0000     -10.289904      -280.0025
  43   2.0000     -10.288926      -279.9759
  44   2.0000     -10.288016      -279.9511
  45   2.0000     -10.287356      -279.9332
  46   2.0000     -10.283673      -279.8330
  47   2.0000     -10.280634      -279.7503
  48   2.0000     -10.278844      -279.7016
  49   2.0000     -10.278324      -279.6874
  50   2.0000     -10.271656      -279.5060
  51   2.0000     -10.270092      -279.4634
  52   2.0000     -10.269712      -279.4531
  53   2.0000     -10.267889      -279.4035
  54   2.0000     -10.267222      -279.3853
  55   2.0000     -10.265965      -279.3511
  56   2.0000     -10.265242      -279.3314
  57   2.0000     -10.265086      -279.3272
  58   2.0000     -10.264036      -279.2986
  59   2.0000     -10.263842      -279.2933
  60   2.0000     -10.263656      -279.2883
  61   2.0000     -10.263625      -279.2874
  62   2.0000     -10.263138      -279.2742
  63   2.0000     -10.261392      -279.2267
  64   2.0000     -10.260232      -279.1951
  65   2.0000     -10.260168      -279.1934
  66   2.0000     -10.258403      -279.1453
  67   2.0000     -10.257678      -279.1256
  68   2.0000     -10.250217      -278.9226
  69   2.0000     -10.249858      -278.9128
  70   2.0000      -8.041879      -218.8307
  71   2.0000      -8.039596      -218.7685
  72   2.0000      -8.038928      -218.7503
  73   2.0000      -8.038650      -218.7428
  74   2.0000      -8.036710      -218.6900
  75   2.0000      -8.034090      -218.6187
  76   2.0000      -6.011263      -163.5748
  77   2.0000      -6.008980      -163.5127
  78   2.0000      -6.008138      -163.4897
  79   2.0000      -6.007945      -163.4845
  80   2.0000      -6.007141      -163.4626
  81   2.0000      -6.006017      -163.4320
  82   2.0000      -6.004819      -163.3994
  83   2.0000      -6.004168      -163.3817
  84   2.0000      -6.003946      -163.3757
  85   2.0000      -6.003765      -163.3707
  86   2.0000      -6.003517      -163.3640
  87   2.0000      -6.002099      -163.3254
  88   2.0000      -6.001502      -163.3092
  89   2.0000      -6.000990      -163.2952
  90   2.0000      -6.000621      -163.2852
  91   2.0000      -5.999093      -163.2436
  92   2.0000      -5.998602      -163.2302
  93   2.0000      -5.996148      -163.1635
  94   2.0000      -1.286300       -35.0020
  95   2.0000      -1.280795       -34.8522
  96   2.0000      -1.176604       -32.0170
  97   2.0000      -1.173572       -31.9345
  98   2.0000      -1.148251       -31.2455
  99   2.0000      -1.144875       -31.1536
 100   2.0000      -1.075843       -29.2752
 101   2.0000      -1.039685       -28.2913
 102   2.0000      -0.997653       -27.1475
 103   2.0000      -0.988090       -26.8873
 104   2.0000      -0.987054       -26.8591
 105   2.0000      -0.987037       -26.8586
 106   2.0000      -0.982734       -26.7416
 107   2.0000      -0.979214       -26.6458
 108   2.0000      -0.972928       -26.4747
 109   2.0000      -0.967718       -26.3329
 110   2.0000      -0.956281       -26.0217
 111   2.0000      -0.952079       -25.9074
 112   2.0000      -0.905396       -24.6371
 113   2.0000      -0.902757       -24.5653
 114   2.0000      -0.892746       -24.2928
 115   2.0000      -0.890802       -24.2400
 116   2.0000      -0.888081       -24.1659
 117   2.0000      -0.877360       -23.8742
 118   2.0000      -0.863925       -23.5086
 119   2.0000      -0.856046       -23.2942
 120   2.0000      -0.851156       -23.1611
 121   2.0000      -0.845123       -22.9970
 122   2.0000      -0.837004       -22.7760
 123   2.0000      -0.831634       -22.6299
 124   2.0000      -0.827461       -22.5164
 125   2.0000      -0.823472       -22.4078
 126   2.0000      -0.819984       -22.3129
 127   2.0000      -0.819573       -22.3017
 128   2.0000      -0.817142       -22.2356
 129   2.0000      -0.815514       -22.1913
 130   2.0000      -0.808907       -22.0115
 131   2.0000      -0.806877       -21.9562
 132   2.0000      -0.800422       -21.7806
 133   2.0000      -0.795683       -21.6516
 134   2.0000      -0.791815       -21.5464
 135   2.0000      -0.774671       -21.0799
 136   2.0000      -0.764953       -20.8154
 137   2.0000      -0.746499       -20.3133
 138   2.0000      -0.730303       -19.8726
 139   2.0000      -0.723137       -19.6776
 140   2.0000      -0.721357       -19.6291
 141   2.0000      -0.718287       -19.5456
 142   2.0000      -0.717384       -19.5210
 143   2.0000      -0.702473       -19.1153
 144   2.0000      -0.698330       -19.0025
 145   2.0000      -0.683065       -18.5872
 146   2.0000      -0.677233       -18.4285
 147   2.0000      -0.676084       -18.3972
 148   2.0000      -0.673309       -18.3217
 149   2.0000      -0.668604       -18.1936
 150   2.0000      -0.656892       -17.8749
 151   2.0000      -0.651314       -17.7232
 152   2.0000      -0.645904       -17.5759
 153   2.0000      -0.641656       -17.4603
 154   2.0000      -0.635372       -17.2894
 155   2.0000      -0.632747       -17.2179
 156   2.0000      -0.629497       -17.1295
 157   2.0000      -0.626501       -17.0480
 158   2.0000      -0.622616       -16.9422
 159   2.0000      -0.614382       -16.7182
 160   2.0000      -0.613016       -16.6810
 161   2.0000      -0.609301       -16.5799
 162   2.0000      -0.608555       -16.5596
 163   2.0000      -0.604600       -16.4520
 164   2.0000      -0.603030       -16.4093
 165   2.0000      -0.600238       -16.3333
 166   2.0000      -0.599976       -16.3262
 167   2.0000      -0.594102       -16.1663
 168   2.0000      -0.591817       -16.1042
 169   2.0000      -0.589662       -16.0455
 170   2.0000      -0.586807       -15.9678
 171   2.0000      -0.584105       -15.8943
 172   2.0000      -0.582908       -15.8617
 173   2.0000      -0.574498       -15.6329
 174   2.0000      -0.571024       -15.5384
 175   2.0000      -0.565917       -15.3994
 176   2.0000      -0.557835       -15.1795
 177   2.0000      -0.551598       -15.0097
 178   2.0000      -0.550366       -14.9762
 179   2.0000      -0.549120       -14.9423
 180   2.0000      -0.546669       -14.8756
 181   2.0000      -0.544872       -14.8267
 182   2.0000      -0.541506       -14.7351
 183   2.0000      -0.540243       -14.7007
 184   2.0000      -0.539263       -14.6741
 185   2.0000      -0.533159       -14.5080
 186   2.0000      -0.530827       -14.4445
 187   2.0000      -0.521007       -14.1773
 188   2.0000      -0.518082       -14.0977
 189   2.0000      -0.516719       -14.0606
 190   2.0000      -0.512988       -13.9591
 191   2.0000      -0.511425       -13.9166
 192   2.0000      -0.508418       -13.8348
 193   2.0000      -0.504311       -13.7230
 194   2.0000      -0.503020       -13.6879
 195   2.0000      -0.495837       -13.4924
 196   2.0000      -0.490452       -13.3459
 197   2.0000      -0.488986       -13.3060
 198   2.0000      -0.488269       -13.2865
 199   2.0000      -0.484849       -13.1934
 200   2.0000      -0.483030       -13.1439
 201   2.0000      -0.481475       -13.1016
 202   2.0000      -0.480467       -13.0742
 203   2.0000      -0.479515       -13.0483
 204   2.0000      -0.476430       -12.9643
 205   2.0000      -0.475181       -12.9303
 206   2.0000      -0.471730       -12.8364
 207   2.0000      -0.471076       -12.8186
 208   2.0000      -0.469715       -12.7816
 209   2.0000      -0.466511       -12.6944
 210   2.0000      -0.461626       -12.5615
 211   2.0000      -0.460959       -12.5433
 212   2.0000      -0.459993       -12.5170
 213   2.0000      -0.457021       -12.4362
 214   2.0000      -0.454880       -12.3779
 215   2.0000      -0.452083       -12.3018
 216   2.0000      -0.447748       -12.1838
 217   2.0000      -0.446421       -12.1477
 218   2.0000      -0.444758       -12.1025
 219   2.0000      -0.443069       -12.0565
 220   2.0000      -0.442343       -12.0368
 221   2.0000      -0.438449       -11.9308
 222   2.0000      -0.435189       -11.8421
 223   2.0000      -0.432607       -11.7718
 224   2.0000      -0.429600       -11.6900
 225   2.0000      -0.428425       -11.6580
 226   2.0000      -0.427017       -11.6197
 227   2.0000      -0.424533       -11.5521
 228   2.0000      -0.422895       -11.5075
 229   2.0000      -0.420539       -11.4434
 230   2.0000      -0.417221       -11.3531
 231   2.0000      -0.411799       -11.2056
 232   2.0000      -0.410936       -11.1821
 233   2.0000      -0.405506       -11.0344
 234   2.0000      -0.403384       -10.9766
 235   2.0000      -0.400957       -10.9106
 236   2.0000      -0.400593       -10.9007
 237   2.0000      -0.394028       -10.7220
 238   2.0000      -0.391736       -10.6597
 239   2.0000      -0.390160       -10.6168
 240   2.0000      -0.388828       -10.5805
 241   2.0000      -0.388051       -10.5594
 242   2.0000      -0.384146       -10.4531
 243   2.0000      -0.380740       -10.3605
 244   2.0000      -0.375512       -10.2182
 245   2.0000      -0.371159       -10.0998
 246   2.0000      -0.369468       -10.0537
 247   2.0000      -0.360106        -9.7990
 248   2.0000      -0.353072        -9.6076
 249   2.0000      -0.341511        -9.2930
 250   2.0000      -0.326547        -8.8858
 251   2.0000      -0.320828        -8.7302
 252   2.0000      -0.317622        -8.6429
 253   2.0000      -0.313625        -8.5342
 254   2.0000      -0.312226        -8.4961
 255   2.0000      -0.309153        -8.4125
 256   2.0000      -0.308217        -8.3870
 257   2.0000      -0.306612        -8.3433
 258   2.0000      -0.304244        -8.2789
 259   2.0000      -0.303362        -8.2549
 260   2.0000      -0.293775        -7.9940
 261   2.0000      -0.278086        -7.5671
 262   2.0000      -0.272863        -7.4250
 263   2.0000      -0.257958        -7.0194
 264   2.0000      -0.233724        -6.3600
 265   2.0000      -0.220492        -5.9999
 266   2.0000      -0.193944        -5.2775
 267   0.0000      -0.057002        -1.5511
 268   0.0000      -0.052818        -1.4373
 269   0.0000      -0.038689        -1.0528
 270   0.0000      -0.023786        -0.6473
 271   0.0000      -0.005667        -0.1542

MULLIKEN ATOMIC CHARGES
-----------------------
   0 C :   -0.211701
   1 C :    0.233302
   2 O :   -0.325512
   3 C :    0.177583
   4 C :    0.068214
   5 O :   -0.324670
   6 C :    0.210087
   7 C :    0.188040
   8 C :   -0.099659
   9 C :    0.040407
  10 N :    0.044444
  11 O :   -0.107950
  12 N :    0.011744
  13 C :   -0.148618
  14 S :    0.139303
  15 C :   -0.010213
  16 C :   -0.002226
  17 C :    0.009880
  18 C :   -0.042087
  19 C :   -0.000998
  20 C :   -0.014440
  21 C :   -0.033781
  22 S :    0.125791
  23 C :   -0.038574
  24 S :    0.087974
  25 C :   -0.034991
  26 C :    0.008126
  27 C :   -0.009397
  28 C :    0.009547
  29 C :   -0.004381
  30 C :    0.108245
  31 N :   -0.040155
  32 C :    0.113640
  33 C :   -0.181312
  34 C :    0.105000
  35 N :   -0.041199
  36 C :    0.113759
  37 C :   -0.180754
  38 C :    0.005614
  39 C :    0.043571
  40 C :   -0.060977
  41 S :    0.110914
  42 C :   -0.051173
  43 C :   -0.010700
  44 C :    0.001559
  45 C :   -0.027385
  46 C :   -0.015840
  47 C :   -0.004256
  48 C :   -0.033547
  49 S :    0.120885
  50 C :   -0.033071
  51 S :    0.113836
  52 C :   -0.043953
  53 C :    0.016239
  54 C :   -0.007132
  55 C :    0.046104
  56 C :   -0.085502
  57 C :    0.078947
  58 C :    0.094635
  59 O :   -0.325394
  60 C :    0.208682
  61 C :    0.234856
  62 O :   -0.322863
  63 C :    0.177275
  64 C :   -0.211947
  65 C :    0.036918
  66 C :   -0.072995
  67 N :    0.043249
  68 O :   -0.117314
  69 N :    0.044003
  70 H :   -0.028483
  71 H :    0.041709
  72 H :    0.033128
  73 H :    0.031806
  74 H :    0.018016
  75 H :    0.028251
  76 H :    0.029851
  77 H :   -0.031299
  78 H :   -0.015335
  79 H :   -0.024165
  80 H :   -0.017076
  81 H :   -0.023377
  82 H :   -0.011221
  83 H :   -0.020005
  84 H :   -0.028813
  85 H :    0.116970
  86 H :   -0.040007
  87 H :    0.116960
  88 H :   -0.041035
  89 H :   -0.037926
  90 H :   -0.025582
  91 H :   -0.012262
  92 H :   -0.025203
  93 H :   -0.015481
  94 H :   -0.022483
  95 H :   -0.023854
  96 H :   -0.024744
  97 H :    0.000166
  98 H :    0.006941
  99 H :    0.017015
 100 H :    0.030054
 101 H :    0.027691
 102 H :    0.031769
 103 H :    0.041175
 104 H :    0.031468
 105 H :   -0.030329
Sum of atomic charges:   -0.0000000

LOEWDIN ATOMIC CHARGES
----------------------
   0 C :   -0.094943
   1 C :    0.053240
   2 O :   -0.089647
   3 C :    0.080159
   4 C :    0.047801
   5 O :   -0.092459
   6 C :    0.080965
   7 C :   -0.059238
   8 C :   -0.061187
   9 C :   -0.057754
  10 N :   -0.035898
  11 O :    0.062336
  12 N :   -0.048158
  13 C :   -0.174350
  14 S :    0.463526
  15 C :   -0.185072
  16 C :   -0.064969
  17 C :   -0.045851
  18 C :   -0.184389
  19 C :   -0.054048
  20 C :   -0.065667
  21 C :   -0.180857
  22 S :    0.431375
  23 C :   -0.182542
  24 S :    0.413831
  25 C :   -0.162755
  26 C :   -0.060414
  27 C :   -0.063299
  28 C :   -0.045010
  29 C :   -0.043468
  30 C :   -0.004177
  31 N :    0.067517
  32 C :   -0.023510
  33 C :   -0.096983
  34 C :   -0.005924
  35 N :    0.066939
  36 C :   -0.022789
  37 C :   -0.098532
  38 C :   -0.029088
  39 C :   -0.052947
  40 C :   -0.163322
  41 S :    0.423976
  42 C :   -0.191272
  43 C :   -0.059047
  44 C :   -0.064242
  45 C :   -0.178247
  46 C :   -0.066843
  47 C :   -0.052152
  48 C :   -0.187749
  49 S :    0.427626
  50 C :   -0.177347
  51 S :    0.428298
  52 C :   -0.172340
  53 C :   -0.050372
  54 C :   -0.062519
  55 C :   -0.018980
  56 C :   -0.038596
  57 C :   -0.047196
  58 C :    0.045797
  59 O :   -0.094718
  60 C :    0.080183
  61 C :    0.052173
  62 O :   -0.090087
  63 C :    0.079470
  64 C :   -0.094222
  65 C :   -0.060201
  66 C :   -0.056350
  67 N :   -0.033479
  68 O :    0.059094
  69 N :   -0.040447
  70 H :    0.037889
  71 H :    0.030815
  72 H :    0.021069
  73 H :    0.019610
  74 H :    0.016082
  75 H :    0.021635
  76 H :    0.015859
  77 H :    0.024654
  78 H :    0.027513
  79 H :    0.028038
  80 H :    0.025020
  81 H :    0.028365
  82 H :    0.026474
  83 H :    0.032162
  84 H :    0.018629
  85 H :    0.086963
  86 H :    0.021116
  87 H :    0.086540
  88 H :    0.020957
  89 H :    0.024237
  90 H :    0.025147
  91 H :    0.026233
  92 H :    0.025601
  93 H :    0.025828
  94 H :    0.028490
  95 H :    0.028664
  96 H :    0.027060
  97 H :    0.033272
  98 H :    0.026782
  99 H :    0.015974
 100 H :    0.015576
 101 H :    0.021633
 102 H :    0.020594
 103 H :    0.030434
 104 H :    0.019327
 105 H :    0.037109

  Mayer bond orders larger than 0.100000
B(  0-C ,  1-C ) :   1.4223 B(  0-C ,  7-C ) :   0.1058 B(  0-C ,  9-C ) :   1.1002
B(  0-C , 70-H ) :   1.0420 B(  1-C ,  2-O ) :   1.1445 B(  1-C ,  4-C ) :   1.1186
B(  2-O ,  3-C ) :   0.9544 B(  3-C , 71-H ) :   0.9774 B(  3-C , 72-H ) :   0.9685
B(  3-C , 73-H ) :   0.9692 B(  4-C ,  5-O ) :   1.1925 B(  4-C ,  7-C ) :   1.4949
B(  5-O ,  6-C ) :   0.9253 B(  6-C , 74-H ) :   0.9741 B(  6-C , 75-H ) :   0.9766
B(  6-C , 76-H ) :   0.9755 B(  7-C ,  8-C ) :   1.1207 B(  7-C , 13-C ) :   1.1151
B(  8-C ,  9-C ) :   1.1499 B(  8-C , 12-N ) :   1.5870 B(  9-C , 10-N ) :   1.6139
B( 10-N , 11-O ) :   1.0529 B( 10-N , 12-N ) :   0.1758 B( 11-O , 12-N ) :   1.0559
B( 13-C , 14-S ) :   1.1256 B( 13-C , 15-C ) :   0.1105 B( 13-C , 17-C ) :   1.4928
B( 14-S , 15-C ) :   1.1084 B( 15-C , 16-C ) :   1.5008 B( 15-C , 18-C ) :   1.1120
B( 16-C , 17-C ) :   1.2548 B( 16-C , 77-H ) :   0.9962 B( 17-C , 78-H ) :   0.9928
B( 18-C , 19-C ) :   1.5257 B( 18-C , 21-C ) :   0.1063 B( 18-C , 22-S ) :   1.1138
B( 19-C , 20-C ) :   1.2635 B( 19-C , 79-H ) :   0.9951 B( 20-C , 21-C ) :   1.4982
B( 20-C , 80-H ) :   0.9920 B( 21-C , 22-S ) :   1.1209 B( 21-C , 23-C ) :   1.1586
B( 23-C , 24-S ) :   1.1109 B( 23-C , 27-C ) :   1.5064 B( 24-S , 25-C ) :   1.0980
B( 25-C , 26-C ) :   1.4781 B( 25-C , 28-C ) :   1.1597 B( 26-C , 27-C ) :   1.2548
B( 26-C , 81-H ) :   1.0005 B( 27-C , 82-H ) :   0.9925 B( 28-C , 29-C ) :   1.6546
B( 28-C , 83-H ) :   0.9790 B( 29-C , 30-C ) :   1.1174 B( 29-C , 84-H ) :   0.9578
B( 30-C , 31-N ) :   1.1695 B( 30-C , 37-C ) :   1.4094 B( 31-N , 32-C ) :   1.1627
B( 31-N , 85-H ) :   0.9384 B( 32-C , 33-C ) :   1.2570 B( 32-C , 36-C ) :   1.3172
B( 33-C , 34-C ) :   1.4061 B( 33-C , 86-H ) :   1.0314 B( 34-C , 35-N ) :   1.1665
B( 34-C , 38-C ) :   1.1171 B( 35-N , 36-C ) :   1.1635 B( 35-N , 87-H ) :   0.9380
B( 36-C , 37-C ) :   1.2557 B( 37-C , 88-H ) :   1.0315 B( 38-C , 39-C ) :   1.6910
B( 38-C , 89-H ) :   0.9618 B( 39-C , 40-C ) :   1.1183 B( 39-C , 90-H ) :   0.9630
B( 40-C , 41-S ) :   1.1124 B( 40-C , 44-C ) :   1.4930 B( 41-S , 42-C ) :   1.1187
B( 42-C , 43-C ) :   1.4928 B( 42-C , 45-C ) :   1.1560 B( 43-C , 44-C ) :   1.2794
B( 43-C , 91-H ) :   0.9915 B( 44-C , 92-H ) :   0.9925 B( 45-C , 46-C ) :   1.4997
B( 45-C , 48-C ) :   0.1064 B( 45-C , 49-S ) :   1.1238 B( 46-C , 47-C ) :   1.2639
B( 46-C , 93-H ) :   0.9928 B( 47-C , 48-C ) :   1.5230 B( 47-C , 94-H ) :   0.9967
B( 48-C , 49-S ) :   1.1102 B( 48-C , 50-C ) :   1.1168 B( 50-C , 51-S ) :   1.1240
B( 50-C , 52-C ) :   0.1031 B( 50-C , 54-C ) :   1.5164 B( 51-S , 52-C ) :   1.1028
B( 52-C , 53-C ) :   1.4750 B( 52-C , 55-C ) :   1.1381 B( 53-C , 54-C ) :   1.2585
B( 53-C , 95-H ) :   0.9999 B( 54-C , 96-H ) :   0.9973 B( 55-C , 56-C ) :   1.6416
B( 55-C , 97-H ) :   0.9753 B( 56-C , 57-C ) :   1.1443 B( 56-C , 98-H ) :   0.9651
B( 57-C , 58-C ) :   1.4832 B( 57-C , 64-C ) :   0.1136 B( 57-C , 66-C ) :   1.1184
B( 58-C , 59-O ) :   1.1756 B( 58-C , 61-C ) :   1.1234 B( 59-O , 60-C ) :   0.9275
B( 60-C , 99-H ) :   0.9738 B( 60-C ,100-H ) :   0.9751 B( 60-C ,101-H ) :   0.9770
B( 61-C , 62-O ) :   1.1462 B( 61-C , 64-C ) :   1.4245 B( 62-O , 63-C ) :   0.9561
B( 63-C ,102-H ) :   0.9689 B( 63-C ,103-H ) :   0.9773 B( 63-C ,104-H ) :   0.9689
B( 64-C , 65-C ) :   1.0965 B( 64-C ,105-H ) :   1.0417 B( 65-C , 66-C ) :   1.1434
B( 65-C , 69-N ) :   1.6151 B( 66-C , 67-N ) :   1.6345 B( 67-N , 68-O ) :   1.0525
B( 67-N , 69-N ) :   0.1782 B( 68-O , 69-N ) :   1.0490

-----------------------------------------------------------------------------
         ABSORPTION SPECTRUM VIA TRANSITION ELECTRIC DIPOLE MOMENTS
-----------------------------------------------------------------------------
State   Energy  Wavelength   fosc         T2         TX        TY        TZ
        (cm-1)    (nm)                  (au**2)     (au)      (au)      (au)
-----------------------------------------------------------------------------
   0   17145.8    583.2   3.915799059  75.18606   1.54585  -7.39861  -4.24935
   1   20105.0    497.4   0.018683988   0.30594  -0.33698  -0.42044   0.12497
   2   22647.9    441.5   0.085556854   1.24366  -0.85731  -0.71129  -0.05240
   3   24354.8    410.6   0.086050728   1.16317  -1.03119  -0.25646  -0.18451
   4   25463.2    392.7   0.624013986   8.06784  -0.09036   2.51415   1.31862
   5   25734.1    388.6   0.151077273   1.93270   1.27075   0.14900   0.54378
   6   28339.5    352.9   0.075415711   0.87608  -0.92533   0.03316  -0.13690
   7   29052.5    344.2   0.042284085   0.47915   0.37015   0.34011   0.47588
   8   29842.5    335.1   0.006238528   0.06882   0.16977   0.16085   0.11886
   9   31195.5    320.6   0.035926744   0.37914  -0.61140  -0.05538  -0.04760
  10   31549.5    317.0   0.012875005   0.13435  -0.32646  -0.15700   0.05590
  11   32306.9    309.5   0.003721195   0.03792   0.14473  -0.06102  -0.11510
  12   33532.6    298.2   0.064410808   0.63236   0.32409   0.60653   0.39932
  13   34167.2    292.7   0.003673610   0.03540  -0.10974   0.13278   0.07566
  14   34332.4    291.3   0.003343825   0.03206  -0.08075   0.09743   0.12669
  15   34532.4    289.6   0.151212203   1.44157   0.94765  -0.72601  -0.12818
  16   35690.4    280.2   0.113038758   1.04268   0.08721   0.86985   0.52767
  17   36503.3    273.9   0.089601258   0.80809   0.44556   0.70491   0.33566
  18   37136.5    269.3   0.035132828   0.31145  -0.12605  -0.50721  -0.19571
  19   37775.9    264.7   0.021995919   0.19169   0.41750   0.02141   0.13009
  20   38480.1    259.9   0.041925645   0.35869   0.51898  -0.29789  -0.02472
  21   38918.7    256.9   0.003667104   0.03102   0.05643  -0.04550   0.16052
  22   39178.6    255.2   0.036265900   0.30474   0.51772  -0.16368   0.09953
  23   39273.5    254.6   0.023014687   0.19292  -0.41226  -0.14527  -0.04314
  24   39565.0    252.7   0.276138783   2.29769  -1.38915   0.59239   0.13055
  25   39972.5    250.2   0.066155441   0.54485   0.70779   0.13658  -0.15886
  26   40157.7    249.0   0.621361395   5.09391   1.74033   0.57401   1.31745

FINAL SINGLE POINT ENERGY     -5167.746414349601

DIPOLE MOMENT
-------------
                                X             Y             Z
Electronic contribution:    -17.17516      15.04704       8.97703
Nuclear contribution   :     19.67690     -14.34955      -8.89327
                        -----------------------------------------
Total Dipole Moment    :      2.50174       0.69749       0.08377
                        -----------------------------------------
Magnitude (a.u.)       :      2.59850
Magnitude (Debye)      :      6.60486

Rotational constants in cm-1:     0.004325     0.000084     0.000083
Rotational constants in MHz :   129.675160     2.528162     2.489865

                             ****ORCA TERMINATED NORMALLY****
TOTAL RUN TIME: 0 days 0 hours 8 minutes 2 seconds 136 msec
