                         Program Version 4.2.0 -  RELEASE  -
|  1> # ORCA input file
|  2> # SCF done       -196.852312073641          0.000322650035
|  3> ! CAM-B3LYP def2-SVP def2/J RIJCOSX Grid4 TightSCF
|  4> %maxcore 5000
|  5> %tddft
|  6>     Mode sTDDFT
|  7>     Ethresh 5.0
|  8>     maxcore 5000
|  9> end
| 10>
| 11> %pal
| 12>   nprocs 6
| 13>   end
| 14> * xyz 0 1
| 15>    C       -1.67547        -8.13047         6.67038
| 16>    C       -0.66126        -8.27066         5.75967
| 17>    O        0.64002        -8.43128         6.11843
| 18>    C        0.96856        -8.44155         7.48854
| 19>    C       -0.91850        -8.27148         4.34017
| 20>    O        0.03681        -8.43033         3.39383
| 21>    C        1.40925        -8.17333         3.60217
| 22>    C       -2.20942        -8.15273         3.82542
| 23>    C       -3.26361        -8.02272         4.76938
| 24>    C       -2.98519        -8.00519         6.18194
| 25>    N       -4.13576        -7.86668         6.81041
| 26>    O       -5.06834        -7.80101         5.86042
| 27>    N       -4.56681        -7.89245         4.62940
| 28>    C       -2.47917        -8.14021         2.42016
| 29>    C       -3.71987        -7.98402         1.82285
| 30>    C       -3.63193        -7.98154         0.43311
| 31>    C       -2.31147        -8.14489        -0.03126
| 32>    S       -1.18913        -8.29852         1.24507
| 33>    C       -2.31968        -8.11760        -1.44571
| 34>    C       -3.64987        -7.93577        -1.87927
| 35>    C       -4.51642        -7.84934        -0.71393
| 36>    C       -5.86964        -7.68077        -0.70796
| 37>    C       -6.61812        -7.56627        -1.89886
| 38>    N       -7.24046        -7.47204        -2.85757
| 39>    C       -6.62548        -7.60887         0.48167
| 40>    N       -7.26173        -7.54608         1.43334
| 41>    C       -3.76238        -7.88537        -3.26154
| 42>    C       -2.53197        -8.03133        -3.89227
| 43>    S       -1.21727        -8.23902        -2.74495
| 44>    C       -2.28338        -8.01778        -5.28948
| 45>    C       -0.98824        -8.21523        -5.81600
| 46>    C       -0.71647        -8.20128        -7.22500
| 47>    N        0.54502        -8.40203        -7.65347
| 48>    C        1.49188        -8.60292        -6.79423
| 49>    C        1.22368        -8.61430        -5.40283
| 50>    N        0.02480        -8.42582        -4.95325
| 51>    F        2.19628        -8.81860        -4.51634
| 52>    F        2.72422        -8.79758        -7.25751
| 53>    C       -1.72202        -7.97867        -8.19061
| 54>    C       -3.02512        -7.78070        -7.67133
| 55>    C       -3.30027        -7.80325        -6.25201
| 56>    N       -4.59330        -7.59473        -6.00307
| 57>    S       -5.38083        -7.39443        -7.38464
| 58>    N       -4.13342        -7.55834        -8.37846
| 59>    C       -1.43123        -7.95314        -9.57981
| 60>    C       -2.32715        -7.70475       -10.61365
| 61>    C       -1.71334        -7.75031       -11.85702
| 62>    C       -0.33421        -8.04104       -11.77807
| 63>    S        0.19843        -8.24642       -10.16856
| 64>    C        0.19336        -8.06366       -13.09322
| 65>    C       -0.84900        -7.78602       -13.99720
| 66>    C       -2.07719        -7.57349       -13.25355
| 67>    C       -3.30413        -7.25590       -13.76146
| 68>    C       -3.51510        -7.08353       -15.14493
| 69>    N       -3.68994        -6.93485       -16.26921
| 70>    C       -4.43702        -7.06529       -12.94333
| 71>    N       -5.36778        -6.90689       -12.29230
| 72>    C       -0.43217        -7.78922       -15.32630
| 73>    C        0.91847        -8.06125       -15.44980
| 74>    S        1.68234        -8.32858       -13.88723
| 75>    C        1.73148        -8.14040       -16.63181
| 76>    C        1.28415        -7.87395       -17.92987
| 77>    O       -0.01843        -7.54429       -18.02478
| 78>    C       -0.64410        -7.01336       -19.17602
| 79>    C        2.17958        -7.98262       -19.06381
| 80>    O        1.61668        -7.73058       -20.27499
| 81>    C        2.41698        -7.81769       -21.43100
| 82>    C        3.49866        -8.32649       -18.92343
| 83>    C        3.97447        -8.58899       -17.63039
| 84>    C        3.09611        -8.50115       -16.49629
| 85>    N        3.80422        -8.79910       -15.42750
| 86>    O        5.04193        -9.05718       -15.85982
| 87>    N        5.16424        -8.93629       -17.18281
| 88>    H       -1.51311        -8.12634         7.73282
| 89>    H        0.70237        -7.49640         7.97038
| 90>    H        2.04833        -8.57558         7.52535
| 91>    H        0.48048        -9.26953         8.01030
| 92>    H        1.83830        -8.13924         2.60058
| 93>    H        1.88403        -8.97033         4.17613
| 94>    H        1.56971        -7.21637         4.10131
| 95>    H       -4.62171        -7.87757         2.39748
| 96>    H       -4.67212        -7.74959        -3.81639
| 97>    H       -3.36653        -7.50463       -10.42991
| 98>    H       -1.07695        -7.61112       -16.16291
| 99>    H       -0.11840        -6.13615       -19.55589
|100>    H       -1.63786        -6.72342       -18.83240
|101>    H       -0.73635        -7.75794       -19.96789
|102>    H        3.24117        -7.09914       -21.40237
|103>    H        1.75318        -7.57464       -22.25901
|104>    H        2.81472        -8.82737       -21.56728
|105>    H        4.17305        -8.41058       -19.75603
|106> *
|107>
|108>                          ****END OF INPUT****

CARTESIAN COORDINATES (ANGSTROEM)
---------------------------------
  C     -1.675470   -8.130470    6.670380
  C     -0.661260   -8.270660    5.759670
  O      0.640020   -8.431280    6.118430
  C      0.968560   -8.441550    7.488540
  C     -0.918500   -8.271480    4.340170
  O      0.036810   -8.430330    3.393830
  C      1.409250   -8.173330    3.602170
  C     -2.209420   -8.152730    3.825420
  C     -3.263610   -8.022720    4.769380
  C     -2.985190   -8.005190    6.181940
  N     -4.135760   -7.866680    6.810410
  O     -5.068340   -7.801010    5.860420
  N     -4.566810   -7.892450    4.629400
  C     -2.479170   -8.140210    2.420160
  C     -3.719870   -7.984020    1.822850
  C     -3.631930   -7.981540    0.433110
  C     -2.311470   -8.144890   -0.031260
  S     -1.189130   -8.298520    1.245070
  C     -2.319680   -8.117600   -1.445710
  C     -3.649870   -7.935770   -1.879270
  C     -4.516420   -7.849340   -0.713930
  C     -5.869640   -7.680770   -0.707960
  C     -6.618120   -7.566270   -1.898860
  N     -7.240460   -7.472040   -2.857570
  C     -6.625480   -7.608870    0.481670
  N     -7.261730   -7.546080    1.433340
  C     -3.762380   -7.885370   -3.261540
  C     -2.531970   -8.031330   -3.892270
  S     -1.217270   -8.239020   -2.744950
  C     -2.283380   -8.017780   -5.289480
  C     -0.988240   -8.215230   -5.816000
  C     -0.716470   -8.201280   -7.225000
  N      0.545020   -8.402030   -7.653470
  C      1.491880   -8.602920   -6.794230
  C      1.223680   -8.614300   -5.402830
  N      0.024800   -8.425820   -4.953250
  F      2.196280   -8.818600   -4.516340
  F      2.724220   -8.797580   -7.257510
  C     -1.722020   -7.978670   -8.190610
  C     -3.025120   -7.780700   -7.671330
  C     -3.300270   -7.803250   -6.252010
  N     -4.593300   -7.594730   -6.003070
  S     -5.380830   -7.394430   -7.384640
  N     -4.133420   -7.558340   -8.378460
  C     -1.431230   -7.953140   -9.579810
  C     -2.327150   -7.704750  -10.613650
  C     -1.713340   -7.750310  -11.857020
  C     -0.334210   -8.041040  -11.778070
  S      0.198430   -8.246420  -10.168560
  C      0.193360   -8.063660  -13.093220
  C     -0.849000   -7.786020  -13.997200
  C     -2.077190   -7.573490  -13.253550
  C     -3.304130   -7.255900  -13.761460
  C     -3.515100   -7.083530  -15.144930
  N     -3.689940   -6.934850  -16.269210
  C     -4.437020   -7.065290  -12.943330
  N     -5.367780   -6.906890  -12.292300
  C     -0.432170   -7.789220  -15.326300
  C      0.918470   -8.061250  -15.449800
  S      1.682340   -8.328580  -13.887230
  C      1.731480   -8.140400  -16.631810
  C      1.284150   -7.873950  -17.929870
  O     -0.018430   -7.544290  -18.024780
  C     -0.644100   -7.013360  -19.176020
  C      2.179580   -7.982620  -19.063810
  O      1.616680   -7.730580  -20.274990
  C      2.416980   -7.817690  -21.431000
  C      3.498660   -8.326490  -18.923430
  C      3.974470   -8.588990  -17.630390
  C      3.096110   -8.501150  -16.496290
  N      3.804220   -8.799100  -15.427500
  O      5.041930   -9.057180  -15.859820
  N      5.164240   -8.936290  -17.182810
  H     -1.513110   -8.126340    7.732820
  H      0.702370   -7.496400    7.970380
  H      2.048330   -8.575580    7.525350
  H      0.480480   -9.269530    8.010300
  H      1.838300   -8.139240    2.600580
  H      1.884030   -8.970330    4.176130
  H      1.569710   -7.216370    4.101310
  H     -4.621710   -7.877570    2.397480
  H     -4.672120   -7.749590   -3.816390
  H     -3.366530   -7.504630  -10.429910
  H     -1.076950   -7.611120  -16.162910
  H     -0.118400   -6.136150  -19.555890
  H     -1.637860   -6.723420  -18.832400
  H     -0.736350   -7.757940  -19.967890
  H      3.241170   -7.099140  -21.402370
  H      1.753180   -7.574640  -22.259010
  H      2.814720   -8.827370  -21.567280
  H      4.173050   -8.410580  -19.756030

 Total Charge           Charge          ....    0
 Multiplicity           Mult            ....    1
 Number of Electrons    NEL             ....  536
 Basis Dimension        Dim             .... 1132

ORBITAL ENERGIES
----------------

  NO   OCC          E(Eh)            E(eV)
   0   2.0000     -89.035769     -2422.7864
   1   2.0000     -88.973149     -2421.0825
   2   2.0000     -88.971183     -2421.0290
   3   2.0000     -88.970593     -2421.0129
   4   2.0000     -88.970226     -2421.0029
   5   2.0000     -24.818503      -675.3458
   6   2.0000     -24.817954      -675.3309
   7   2.0000     -19.343549      -526.3647
   8   2.0000     -19.342116      -526.3257
   9   2.0000     -19.276440      -524.5386
  10   2.0000     -19.274765      -524.4930
  11   2.0000     -19.274263      -524.4794
  12   2.0000     -19.265280      -524.2349
  13   2.0000     -14.471660      -393.7939
  14   2.0000     -14.471105      -393.7788
  15   2.0000     -14.470432      -393.7605
  16   2.0000     -14.468626      -393.7113
  17   2.0000     -14.459630      -393.4665
  18   2.0000     -14.459289      -393.4572
  19   2.0000     -14.444812      -393.0633
  20   2.0000     -14.444667      -393.0594
  21   2.0000     -14.419665      -392.3790
  22   2.0000     -14.416153      -392.2835
  23   2.0000     -14.413920      -392.2227
  24   2.0000     -14.411489      -392.1566
  25   2.0000     -10.434156      -283.9278
  26   2.0000     -10.433856      -283.9197
  27   2.0000     -10.370371      -282.1921
  28   2.0000     -10.370352      -282.1916
  29   2.0000     -10.367863      -282.1239
  30   2.0000     -10.366174      -282.0779
  31   2.0000     -10.348280      -281.5910
  32   2.0000     -10.346298      -281.5371
  33   2.0000     -10.345559      -281.5170
  34   2.0000     -10.344323      -281.4833
  35   2.0000     -10.343067      -281.4492
  36   2.0000     -10.342797      -281.4418
  37   2.0000     -10.337284      -281.2918
  38   2.0000     -10.335907      -281.2543
  39   2.0000     -10.335652      -281.2474
  40   2.0000     -10.334513      -281.2164
  41   2.0000     -10.334337      -281.2116
  42   2.0000     -10.324244      -280.9370
  43   2.0000     -10.321133      -280.8523
  44   2.0000     -10.321128      -280.8522
  45   2.0000     -10.321012      -280.8490
  46   2.0000     -10.320795      -280.8431
  47   2.0000     -10.319764      -280.8150
  48   2.0000     -10.317169      -280.7445
  49   2.0000     -10.314696      -280.6772
  50   2.0000     -10.312450      -280.6160
  51   2.0000     -10.312422      -280.6153
  52   2.0000     -10.312080      -280.6060
  53   2.0000     -10.311907      -280.6013
  54   2.0000     -10.311873      -280.6003
  55   2.0000     -10.311620      -280.5935
  56   2.0000     -10.311225      -280.5827
  57   2.0000     -10.310665      -280.5675
  58   2.0000     -10.310341      -280.5587
  59   2.0000     -10.310057      -280.5509
  60   2.0000     -10.309999      -280.5493
  61   2.0000     -10.308737      -280.5150
  62   2.0000     -10.307107      -280.4706
  63   2.0000     -10.294365      -280.1239
  64   2.0000     -10.294140      -280.1178
  65   2.0000     -10.285569      -279.8846
  66   2.0000     -10.284472      -279.8547
  67   2.0000     -10.284256      -279.8488
  68   2.0000     -10.283532      -279.8291
  69   2.0000     -10.282688      -279.8062
  70   2.0000     -10.281969      -279.7866
  71   2.0000     -10.280663      -279.7511
  72   2.0000     -10.280477      -279.7460
  73   2.0000      -8.126881      -221.1437
  74   2.0000      -8.066086      -219.4894
  75   2.0000      -8.064051      -219.4340
  76   2.0000      -8.063814      -219.4275
  77   2.0000      -8.063430      -219.4171
  78   2.0000      -6.098006      -165.9352
  79   2.0000      -6.090056      -165.7188
  80   2.0000      -6.089727      -165.7099
  81   2.0000      -6.035479      -164.2337
  82   2.0000      -6.033491      -164.1796
  83   2.0000      -6.033137      -164.1700
  84   2.0000      -6.032890      -164.1633
  85   2.0000      -6.030918      -164.1096
  86   2.0000      -6.028803      -164.0521
  87   2.0000      -6.028714      -164.0497
  88   2.0000      -6.028645      -164.0478
  89   2.0000      -6.028215      -164.0361
  90   2.0000      -6.026575      -163.9915
  91   2.0000      -6.026296      -163.9839
  92   2.0000      -6.025953      -163.9745
  93   2.0000      -1.346040       -36.6276
  94   2.0000      -1.332054       -36.2470
  95   2.0000      -1.296435       -35.2778
  96   2.0000      -1.296109       -35.2689
  97   2.0000      -1.189994       -32.3814
  98   2.0000      -1.186433       -32.2845
  99   2.0000      -1.168117       -31.7861
 100   2.0000      -1.161772       -31.6134
 101   2.0000      -1.134039       -30.8588
 102   2.0000      -1.117705       -30.4143
 103   2.0000      -1.045000       -28.4359
 104   2.0000      -1.027490       -27.9594
 105   2.0000      -1.025757       -27.9123
 106   2.0000      -1.010064       -27.4852
 107   2.0000      -1.005538       -27.3621
 108   2.0000      -1.005389       -27.3580
 109   2.0000      -1.002366       -27.2758
 110   2.0000      -0.996051       -27.1039
 111   2.0000      -0.995452       -27.0876
 112   2.0000      -0.995105       -27.0782
 113   2.0000      -0.990356       -26.9490
 114   2.0000      -0.989612       -26.9287
 115   2.0000      -0.983454       -26.7611
 116   2.0000      -0.973061       -26.4783
 117   2.0000      -0.962689       -26.1961
 118   2.0000      -0.942507       -25.6469
 119   2.0000      -0.938375       -25.5345
 120   2.0000      -0.917224       -24.9589
 121   2.0000      -0.916333       -24.9347
 122   2.0000      -0.905697       -24.6453
 123   2.0000      -0.898797       -24.4575
 124   2.0000      -0.884263       -24.0620
 125   2.0000      -0.884082       -24.0571
 126   2.0000      -0.873068       -23.7574
 127   2.0000      -0.865028       -23.5386
 128   2.0000      -0.849375       -23.1127
 129   2.0000      -0.845303       -23.0019
 130   2.0000      -0.837560       -22.7912
 131   2.0000      -0.836985       -22.7755
 132   2.0000      -0.831770       -22.6336
 133   2.0000      -0.831240       -22.6192
 134   2.0000      -0.819963       -22.3123
 135   2.0000      -0.814746       -22.1704
 136   2.0000      -0.812837       -22.1184
 137   2.0000      -0.796420       -21.6717
 138   2.0000      -0.781776       -21.2732
 139   2.0000      -0.765917       -20.8417
 140   2.0000      -0.763024       -20.7629
 141   2.0000      -0.760192       -20.6859
 142   2.0000      -0.752697       -20.4819
 143   2.0000      -0.739714       -20.1287
 144   2.0000      -0.732719       -19.9383
 145   2.0000      -0.731437       -19.9034
 146   2.0000      -0.729657       -19.8550
 147   2.0000      -0.721550       -19.6344
 148   2.0000      -0.709491       -19.3062
 149   2.0000      -0.699287       -19.0286
 150   2.0000      -0.691481       -18.8162
 151   2.0000      -0.680570       -18.5193
 152   2.0000      -0.679498       -18.4901
 153   2.0000      -0.675026       -18.3684
 154   2.0000      -0.671094       -18.2614
 155   2.0000      -0.664647       -18.0860
 156   2.0000      -0.662454       -18.0263
 157   2.0000      -0.657666       -17.8960
 158   2.0000      -0.651585       -17.7305
 159   2.0000      -0.649200       -17.6656
 160   2.0000      -0.640199       -17.4207
 161   2.0000      -0.638814       -17.3830
 162   2.0000      -0.633428       -17.2364
 163   2.0000      -0.632003       -17.1977
 164   2.0000      -0.626093       -17.0369
 165   2.0000      -0.623901       -16.9772
 166   2.0000      -0.621507       -16.9121
 167   2.0000      -0.619461       -16.8564
 168   2.0000      -0.616797       -16.7839
 169   2.0000      -0.611144       -16.6301
 170   2.0000      -0.603632       -16.4257
 171   2.0000      -0.599436       -16.3115
 172   2.0000      -0.598515       -16.2864
 173   2.0000      -0.598309       -16.2808
 174   2.0000      -0.594575       -16.1792
 175   2.0000      -0.586071       -15.9478
 176   2.0000      -0.585200       -15.9241
 177   2.0000      -0.583357       -15.8739
 178   2.0000      -0.573485       -15.6053
 179   2.0000      -0.570012       -15.5108
 180   2.0000      -0.565277       -15.3820
 181   2.0000      -0.564209       -15.3529
 182   2.0000      -0.561779       -15.2868
 183   2.0000      -0.561422       -15.2771
 184   2.0000      -0.556952       -15.1554
 185   2.0000      -0.555970       -15.1287
 186   2.0000      -0.554364       -15.0850
 187   2.0000      -0.550102       -14.9690
 188   2.0000      -0.544643       -14.8205
 189   2.0000      -0.538940       -14.6653
 190   2.0000      -0.536365       -14.5952
 191   2.0000      -0.530914       -14.4469
 192   2.0000      -0.529528       -14.4092
 193   2.0000      -0.529243       -14.4014
 194   2.0000      -0.525186       -14.2910
 195   2.0000      -0.520977       -14.1765
 196   2.0000      -0.517719       -14.0879
 197   2.0000      -0.514679       -14.0051
 198   2.0000      -0.514220       -13.9926
 199   2.0000      -0.511602       -13.9214
 200   2.0000      -0.505856       -13.7650
 201   2.0000      -0.502276       -13.6676
 202   2.0000      -0.495600       -13.4860
 203   2.0000      -0.494755       -13.4630
 204   2.0000      -0.491344       -13.3701
 205   2.0000      -0.489829       -13.3289
 206   2.0000      -0.487452       -13.2642
 207   2.0000      -0.485171       -13.2022
 208   2.0000      -0.479386       -13.0447
 209   2.0000      -0.477104       -12.9827
 210   2.0000      -0.476633       -12.9698
 211   2.0000      -0.476562       -12.9679
 212   2.0000      -0.475874       -12.9492
 213   2.0000      -0.473768       -12.8919
 214   2.0000      -0.466781       -12.7017
 215   2.0000      -0.465415       -12.6646
 216   2.0000      -0.463088       -12.6013
 217   2.0000      -0.455126       -12.3846
 218   2.0000      -0.452834       -12.3222
 219   2.0000      -0.452182       -12.3045
 220   2.0000      -0.450555       -12.2602
 221   2.0000      -0.448638       -12.2081
 222   2.0000      -0.445079       -12.1112
 223   2.0000      -0.444862       -12.1053
 224   2.0000      -0.443342       -12.0640
 225   2.0000      -0.442541       -12.0421
 226   2.0000      -0.438377       -11.9289
 227   2.0000      -0.436407       -11.8752
 228   2.0000      -0.435029       -11.8377
 229   2.0000      -0.431647       -11.7457
 230   2.0000      -0.428997       -11.6736
 231   2.0000      -0.426792       -11.6136
 232   2.0000      -0.426017       -11.5925
 233   2.0000      -0.423200       -11.5158
 234   2.0000      -0.421909       -11.4807
 235   2.0000      -0.421665       -11.4741
 236   2.0000      -0.419245       -11.4082
 237   2.0000      -0.417052       -11.3486
 238   2.0000      -0.416278       -11.3275
 239   2.0000      -0.410726       -11.1764
 240   2.0000      -0.408409       -11.1134
 241   2.0000      -0.407405       -11.0860
 242   2.0000      -0.402822       -10.9613
 243   2.0000      -0.400359       -10.8943
 244   2.0000      -0.398558       -10.8453
 245   2.0000      -0.393714       -10.7135
 246   2.0000      -0.392243       -10.6735
 247   2.0000      -0.390930       -10.6377
 248   2.0000      -0.389633       -10.6025
 249   2.0000      -0.383990       -10.4489
 250   2.0000      -0.381879       -10.3915
 251   2.0000      -0.374729       -10.1969
 252   2.0000      -0.369854       -10.0643
 253   2.0000      -0.365989        -9.9591
 254   2.0000      -0.359180        -9.7738
 255   2.0000      -0.358609        -9.7582
 256   2.0000      -0.340877        -9.2757
 257   2.0000      -0.333642        -9.0789
 258   2.0000      -0.330055        -8.9813
 259   2.0000      -0.326526        -8.8852
 260   2.0000      -0.316413        -8.6100
 261   2.0000      -0.313700        -8.5362
 262   2.0000      -0.310651        -8.4533
 263   2.0000      -0.305918        -8.3244
 264   2.0000      -0.304099        -8.2750
 265   2.0000      -0.283541        -7.7155
 266   2.0000      -0.254151        -6.9158
 267   2.0000      -0.222765        -6.0618
 268   0.0000      -0.113877        -3.0987
 269   0.0000      -0.087450        -2.3796
 270   0.0000      -0.081913        -2.2290
 271   0.0000      -0.054244        -1.4761
 272   0.0000      -0.053980        -1.4689

MULLIKEN ATOMIC CHARGES
-----------------------
   0 C :   -0.200044
   1 C :    0.229119
   2 O :   -0.327692
   3 C :    0.176772
   4 C :    0.099748
   5 O :   -0.343437
   6 C :    0.211398
   7 C :    0.122230
   8 C :   -0.066616
   9 C :    0.019141
  10 N :    0.051514
  11 O :   -0.098804
  12 N :    0.044383
  13 C :   -0.142825
  14 C :   -0.063511
  15 C :    0.029063
  16 C :   -0.088330
  17 S :    0.189954
  18 C :   -0.068041
  19 C :    0.033191
  20 C :    0.313824
  21 C :   -0.310548
  22 C :   -0.189303
  23 N :    0.165126
  24 C :   -0.196807
  25 N :    0.181542
  26 C :   -0.063769
  27 C :   -0.186221
  28 S :    0.189803
  29 C :    0.185112
  30 C :   -0.063341
  31 C :   -0.061423
  32 N :   -0.042975
  33 C :    0.147737
  34 C :    0.145114
  35 N :   -0.044734
  36 F :   -0.140965
  37 F :   -0.138338
  38 C :    0.184383
  39 C :   -0.014521
  40 C :   -0.014996
  41 N :   -0.283720
  42 S :    0.570401
  43 N :   -0.286358
  44 C :   -0.188518
  45 C :   -0.063344
  46 C :    0.031488
  47 C :   -0.070002
  48 S :    0.198262
  49 C :   -0.079027
  50 C :    0.023585
  51 C :    0.314955
  52 C :   -0.312916
  53 C :   -0.188698
  54 N :    0.159153
  55 C :   -0.191981
  56 N :    0.170010
  57 C :   -0.051607
  58 C :   -0.138978
  59 S :    0.200342
  60 C :    0.149421
  61 C :    0.097151
  62 O :   -0.309997
  63 C :    0.205551
  64 C :    0.227267
  65 O :   -0.326329
  66 C :    0.177203
  67 C :   -0.207923
  68 C :    0.033528
  69 C :   -0.091034
  70 N :   -0.003538
  71 O :   -0.105143
  72 N :    0.053354
  73 H :   -0.024545
  74 H :    0.034190
  75 H :    0.044330
  76 H :    0.035707
  77 H :    0.032293
  78 H :    0.035796
  79 H :    0.023368
  80 H :    0.022392
  81 H :    0.017788
  82 H :    0.019115
  83 H :    0.007596
  84 H :    0.020415
  85 H :    0.049098
  86 H :    0.028641
  87 H :    0.034978
  88 H :    0.044583
  89 H :    0.034075
  90 H :   -0.024292
Sum of atomic charges:   -0.0000000

LOEWDIN ATOMIC CHARGES
----------------------
   0 C :   -0.086560
   1 C :    0.049608
   2 O :   -0.090433
   3 C :    0.081361
   4 C :    0.046799
   5 O :   -0.098766
   6 C :    0.083182
   7 C :   -0.063698
   8 C :   -0.050148
   9 C :   -0.058192
  10 N :   -0.030740
  11 O :    0.071265
  12 N :   -0.024931
  13 C :   -0.164686
  14 C :   -0.022998
  15 C :   -0.068359
  16 C :   -0.192971
  17 S :    0.496568
  18 C :   -0.178681
  19 C :   -0.076685
  20 C :    0.081761
  21 C :   -0.106411
  22 C :   -0.015620
  23 N :   -0.040108
  24 C :   -0.021405
  25 N :   -0.029009
  26 C :   -0.012073
  27 C :   -0.171038
  28 S :    0.499223
  29 C :   -0.044252
  30 C :   -0.020101
  31 C :   -0.019416
  32 N :   -0.054652
  33 C :    0.060625
  34 C :    0.059930
  35 N :   -0.054637
  36 F :   -0.030285
  37 F :   -0.028004
  38 C :   -0.045626
  39 C :   -0.038885
  40 C :   -0.039290
  41 N :   -0.273185
  42 S :    0.690323
  43 N :   -0.274594
  44 C :   -0.170992
  45 C :   -0.012453
  46 C :   -0.078549
  47 C :   -0.177314
  48 S :    0.506162
  49 C :   -0.186000
  50 C :   -0.074685
  51 C :    0.087260
  52 C :   -0.114206
  53 C :   -0.010190
  54 N :   -0.050477
  55 C :   -0.017760
  56 N :   -0.039880
  57 C :   -0.027279
  58 C :   -0.158893
  59 S :    0.514231
  60 C :   -0.074390
  61 C :    0.062719
  62 O :   -0.072919
  63 C :    0.082984
  64 C :    0.051818
  65 O :   -0.086934
  66 C :    0.081426
  67 C :   -0.087700
  68 C :   -0.059193
  69 C :   -0.060253
  70 N :   -0.058978
  71 O :    0.063733
  72 N :   -0.029651
  73 H :    0.040154
  74 H :    0.021091
  75 H :    0.032086
  76 H :    0.021938
  77 H :    0.023655
  78 H :    0.019511
  79 H :    0.018455
  80 H :    0.039368
  81 H :    0.036705
  82 H :    0.036841
  83 H :    0.035684
  84 H :    0.016234
  85 H :    0.029892
  86 H :    0.017477
  87 H :    0.021128
  88 H :    0.032561
  89 H :    0.021398
  90 H :    0.039980

  Mayer bond orders larger than 0.100000
B(  0-C ,  1-C ) :   1.4308 B(  0-C ,  7-C ) :   0.1085 B(  0-C ,  9-C ) :   1.0964
B(  0-C , 73-H ) :   1.0425 B(  1-C ,  2-O ) :   1.1443 B(  1-C ,  4-C ) :   1.1307
B(  2-O ,  3-C ) :   0.9487 B(  3-C , 74-H ) :   0.9695 B(  3-C , 75-H ) :   0.9773
B(  3-C , 76-H ) :   0.9691 B(  4-C ,  5-O ) :   1.1605 B(  4-C ,  7-C ) :   1.4796
B(  5-O ,  6-C ) :   0.9113 B(  6-C , 77-H ) :   0.9734 B(  6-C , 78-H ) :   0.9769
B(  6-C , 79-H ) :   0.9769 B(  7-C ,  8-C ) :   1.1450 B(  7-C , 13-C ) :   1.1400
B(  8-C ,  9-C ) :   1.1438 B(  8-C , 12-N ) :   1.6080 B(  9-C , 10-N ) :   1.6148
B( 10-N , 11-O ) :   1.0609 B( 10-N , 12-N ) :   0.1761 B( 11-O , 12-N ) :   1.0544
B( 13-C , 14-C ) :   1.4652 B( 13-C , 17-S ) :   1.0966 B( 14-C , 15-C ) :   1.2654
B( 14-C , 80-H ) :   0.9800 B( 15-C , 16-C ) :   1.4207 B( 15-C , 20-C ) :   0.9908
B( 16-C , 17-S ) :   1.0872 B( 16-C , 18-C ) :   1.1939 B( 18-C , 19-C ) :   1.4059
B( 18-C , 28-S ) :   1.0911 B( 19-C , 20-C ) :   0.9895 B( 19-C , 26-C ) :   1.2752
B( 20-C , 21-C ) :   1.7056 B( 21-C , 22-C ) :   1.1390 B( 21-C , 24-C ) :   1.1360
B( 22-C , 23-N ) :   2.9854 B( 24-C , 25-N ) :   2.9950 B( 26-C , 27-C ) :   1.4178
B( 26-C , 81-H ) :   0.9813 B( 27-C , 28-S ) :   1.0803 B( 27-C , 29-C ) :   1.1966
B( 29-C , 30-C ) :   1.2920 B( 29-C , 38-C ) :   0.1266 B( 29-C , 40-C ) :   1.1909
B( 30-C , 31-C ) :   1.1172 B( 30-C , 35-N ) :   1.3813 B( 31-C , 32-N ) :   1.3810
B( 31-C , 38-C ) :   1.2939 B( 32-N , 33-C ) :   1.6527 B( 33-C , 34-C ) :   1.1137
B( 33-C , 37-F ) :   1.1840 B( 34-C , 35-N ) :   1.6527 B( 34-C , 36-F ) :   1.1810
B( 38-C , 39-C ) :   1.1919 B( 38-C , 44-C ) :   1.1934 B( 39-C , 40-C ) :   1.1029
B( 39-C , 43-N ) :   1.5147 B( 40-C , 41-N ) :   1.5171 B( 41-N , 42-S ) :   1.2799
B( 41-N , 43-N ) :   0.1488 B( 42-S , 43-N ) :   1.2794 B( 44-C , 45-C ) :   1.4209
B( 44-C , 48-S ) :   1.0827 B( 45-C , 46-C ) :   1.2759 B( 45-C , 82-H ) :   0.9810
B( 46-C , 47-C ) :   1.4026 B( 46-C , 51-C ) :   0.9897 B( 47-C , 48-S ) :   1.0957
B( 47-C , 49-C ) :   1.1892 B( 49-C , 50-C ) :   1.4162 B( 49-C , 59-S ) :   1.1013
B( 50-C , 51-C ) :   0.9985 B( 50-C , 57-C ) :   1.2546 B( 51-C , 52-C ) :   1.6980
B( 52-C , 53-C ) :   1.1367 B( 52-C , 55-C ) :   1.1392 B( 53-C , 54-N ) :   2.9931
B( 55-C , 56-N ) :   2.9896 B( 57-C , 58-C ) :   1.4471 B( 57-C , 83-H ) :   0.9971
B( 58-C , 59-S ) :   1.1124 B( 58-C , 60-C ) :   1.1245 B( 60-C , 61-C ) :   1.4689
B( 60-C , 67-C ) :   0.1033 B( 60-C , 69-C ) :   1.1357 B( 61-C , 62-O ) :   1.2330
B( 61-C , 64-C ) :   1.1099 B( 62-O , 63-C ) :   0.9077 B( 63-C , 84-H ) :   0.9762
B( 63-C , 85-H ) :   0.9723 B( 63-C , 86-H ) :   0.9757 B( 64-C , 65-O ) :   1.1451
B( 64-C , 67-C ) :   1.4317 B( 65-O , 66-C ) :   0.9501 B( 66-C , 87-H ) :   0.9687
B( 66-C , 88-H ) :   0.9771 B( 66-C , 89-H ) :   0.9687 B( 67-C , 68-C ) :   1.0964
B( 67-C , 90-H ) :   1.0429 B( 68-C , 69-C ) :   1.1518 B( 68-C , 72-N ) :   1.6177
B( 69-C , 70-N ) :   1.5799 B( 70-N , 71-O ) :   1.0509 B( 70-N , 72-N ) :   0.1739
B( 71-O , 72-N ) :   1.0586

-----------------------------------------------------------------------------
         ABSORPTION SPECTRUM VIA TRANSITION ELECTRIC DIPOLE MOMENTS
-----------------------------------------------------------------------------
State   Energy  Wavelength   fosc         T2         TX        TY        TZ
        (cm-1)    (nm)                  (au**2)     (au)      (au)      (au)
-----------------------------------------------------------------------------
   0    8757.5   1141.9   0.798183920  30.00548   1.00837   0.04555  -5.38392
   1   12450.4    803.2   0.007650049   0.20228   0.27627  -0.02740   0.35385
   2   13468.1    742.5   0.002165861   0.05294   0.19716   0.00688  -0.11841
   3   17057.3    586.3   0.003176630   0.06131   0.24313   0.01861   0.04302
   4   21815.8    458.4   0.070673289   1.06650   0.30426   0.00209  -0.98687
   5   22859.5    437.5   0.049362896   0.71090   0.60350  -0.03796   0.58758
   6   23006.7    434.7   1.161618541  16.62207  -0.74509   0.02544   4.00828
   7   24106.5    414.8   0.087083089   1.18926   1.01295  -0.10059   0.39125
   8   24505.7    408.1   0.018527532   0.24890   0.47966  -0.02745   0.13446
   9   25321.5    394.9   0.009055264   0.11773   0.01770   0.01729   0.34223
  10   26236.5    381.1   0.010754402   0.13494   0.36174  -0.05409   0.03416
  11   26607.4    375.8   0.013954970   0.17266  -0.39101   0.11386  -0.08252
  12   28234.2    354.2   0.092424250   1.07767  -1.00825   0.11974   0.21623
  13   29350.3    340.7   0.186190586   2.08843   0.26740  -0.06396   1.41875
  14   29978.2    333.6   0.032852886   0.36078   0.16615  -0.01219  -0.57708
  15   30239.4    330.7   0.303202967   3.30092   0.04485   0.17115  -1.80821
  16   30577.3    327.0   0.203061175   2.18627   1.23673  -0.14569  -0.79720
  17   30910.6    323.5   0.129051942   1.37446  -1.11806   0.16333   0.31262
  18   31040.0    322.2   0.013464618   0.14281  -0.14422  -0.03160   0.34786
  19   31385.5    318.6   0.276216520   2.89732   0.07145  -0.05691   1.69970
  20   31929.9    313.2   0.066114857   0.68167  -0.48993  -0.00633   0.66453
  21   32106.2    311.5   0.001057994   0.01085  -0.00786   0.00017   0.10386
  22   32182.6    310.7   0.306904872   3.13948  -0.92737   0.24768  -1.48934
  23   32383.7    308.8   0.501945825   5.10278   2.20669  -0.44506  -0.18764
  24   32466.7    308.0   0.105299031   1.06773   1.00268  -0.21177  -0.13239
  25   32664.4    306.1   0.123999653   1.24974  -1.04261   0.05086  -0.40016
  26   33266.7    300.6   0.025197793   0.24936  -0.27883   0.04876  -0.41139
  27   33463.4    298.8   0.083572675   0.82219   0.04030   0.02827  -0.90541
  28   33511.6    298.4   0.064367739   0.63234   0.17540   0.03810  -0.77468
  29   34300.2    291.5   0.218880384   2.10081   1.30039  -0.23377  -0.59594
  30   34482.4    290.0   0.198816740   1.89815  -1.08664   0.22086  -0.81767
  31   35525.9    281.5   0.132037416   1.22357  -1.06845   0.21465  -0.18948
  32   35701.5    280.1   0.226826397   2.09162  -1.28295   0.24245  -0.62199
  33   36132.7    276.8   0.120676351   1.09951   0.79116  -0.10869  -0.67953
  34   37181.6    269.0   0.109258282   0.96739   0.89192  -0.15607   0.38408
  35   37427.1    267.2   0.284262202   2.50040  -1.50091   0.22575  -0.44352
  36   37762.1    264.8   0.112490549   0.98070  -0.71614   0.15663   0.66582
  37   37928.6    263.7   0.001338705   0.01162   0.08167  -0.04866   0.05082
  38   38011.6    263.1   0.009338137   0.08088   0.24765  -0.04440  -0.13257
  39   38145.9    262.2   0.012947860   0.11174   0.19411  -0.00739   0.27205
  40   38273.8    261.3   0.047778395   0.41097  -0.60489   0.20681  -0.04797
  41   38427.8    260.2   0.108188674   0.92685  -0.13780   0.12402  -0.94472
  42   38523.3    259.6   0.017315366   0.14797  -0.19254   0.00273   0.33301
  43   38714.1    258.3   0.110456403   0.93928   0.89189  -0.13399   0.35478
  44   38906.3    257.0   0.059864778   0.50656  -0.70111   0.05935  -0.10714
  45   39210.6    255.0   0.081928926   0.68787  -0.74425   0.17885  -0.31935
  46   39251.7    254.8   0.087912883   0.73734  -0.79383   0.08983   0.31480
  47   39304.2    254.4   0.053491516   0.44805  -0.64861   0.14023   0.08764

FINAL SINGLE POINT ENERGY     -5134.161378265553

DIPOLE MOMENT
-------------
                                X             Y             Z
Electronic contribution:    -12.00701      -4.52474      10.02169
Nuclear contribution   :     16.84965       4.43487     -10.73607
                        -----------------------------------------
Total Dipole Moment    :      4.84265      -0.08987      -0.71438
                        -----------------------------------------
Magnitude (a.u.)       :      4.89588
Magnitude (Debye)      :     12.44433

Rotational constants in cm-1:     0.002299     0.000234     0.000213
Rotational constants in MHz :    68.919446     7.015440     6.375145

                             ****ORCA TERMINATED NORMALLY****
TOTAL RUN TIME: 0 days 0 hours 9 minutes 22 seconds 725 msec
