                         Program Version 4.2.0 -  RELEASE  -
|  1> # ORCA input file
|  2> # SCF done       -204.676287370806          0.000580732507
|  3> ! CAM-B3LYP def2-SVP def2/J RIJCOSX Grid4 TightSCF
|  4> %maxcore 5000
|  5> %tddft
|  6>     Mode sTDDFT
|  7>     Ethresh 5.0
|  8>     maxcore 5000
|  9> end
| 10>
| 11> %pal
| 12>   nprocs 6
| 13>   end
| 14> * xyz 0 1
| 15>    C       -4.60024        -0.94611        -3.56479
| 16>    C       -4.50177        -0.78768        -4.92259
| 17>    C       -3.82505        -1.68562        -5.77610
| 18>    N       -3.29401        -2.37454        -6.52484
| 19>    C       -5.03411         0.28104        -5.67459
| 20>    N       -5.42739         1.11204        -6.36327
| 21>    C       -4.01475        -2.04286        -2.80211
| 22>    C       -4.26432        -1.82608        -1.42456
| 23>    C       -3.83410        -2.68784        -0.44495
| 24>    C       -3.12643        -3.82603        -0.84406
| 25>    C       -2.88591        -4.03973        -2.22312
| 26>    C       -3.31760        -3.16493        -3.21222
| 27>    S       -2.00131        -5.50947        -2.49672
| 28>    C       -1.96608        -5.81287        -0.77991
| 29>    C       -2.58430        -4.86329        -0.03759
| 30>   Br       -1.11809        -7.35366        -0.13048
| 31>    C       -5.03545        -0.58209        -1.25913
| 32>    O       -5.39754        -0.09652        -0.20669
| 33>    C       -5.27103        -0.06460        -2.62103
| 34>    C       -6.02771         1.02271        -2.95147
| 35>    C       -6.75431         1.92267        -2.14023
| 36>    C       -7.52250         2.93248        -2.69618
| 37>    C       -8.20626         3.71464        -1.75429
| 38>    C       -7.92759         3.28314        -0.42453
| 39>    S       -6.84003         1.92458        -0.38981
| 40>    C       -8.49634         3.89219         0.67157
| 41>    C       -9.37894         4.95160         0.44971
| 42>    C       -9.66228         5.37753        -0.88179
| 43>    C       -9.08683         4.78345        -1.97638
| 44>    S      -10.82076         6.68252        -0.89413
| 45>    C      -10.91425         6.65899         0.85909
| 46>    C      -10.09637         5.69725         1.40475
| 47>    C      -11.80650         7.55028         1.52914
| 48>    C      -11.90068         7.67978         2.93756
| 49>    C      -12.89886         8.51673         3.57113
| 50>    N      -12.91732         8.61400         4.90893
| 51>    C      -12.05552         7.94644         5.63262
| 52>    C      -11.08032         7.10633         5.00746
| 53>    N      -11.02925         7.00686         3.70365
| 54>    C      -10.14821         6.37955         5.78966
| 55>    N       -9.41441         5.79417         6.44614
| 56>    C      -12.09454         8.07996         7.04321
| 57>    N      -12.11185         8.16412         8.18538
| 58>    C      -13.85555         9.24906         2.82470
| 59>    C      -13.69653         9.18373         1.42633
| 60>    C      -12.69664         8.36004         0.79580
| 61>    N      -12.75314         8.45254        -0.53398
| 62>    S      -13.92535         9.46319        -0.94762
| 63>    N      -14.43366         9.83573         0.52528
| 64>    C      -14.93320         9.98838         3.40147
| 65>    C      -15.31354        10.05733         4.72094
| 66>    C      -16.45916        10.84636         4.94028
| 67>    C      -16.96512        11.40095         3.73141
| 68>    S      -15.99978        10.91935         2.36308
| 69>    C      -18.09027        12.19241         3.70389
| 70>    C      -18.74860        12.43883         4.91103
| 71>    C      -18.24308        11.87480         6.11612
| 72>    C      -17.11252        11.09577         6.15120
| 73>    S      -19.24483        12.28845         7.47771
| 74>    C      -20.33820        13.19334         6.43948
| 75>    C      -19.91549        13.20228         5.13690
| 76>    C      -21.47193        13.87681         6.96408
| 77>    C      -22.18846        13.58129         8.07583
| 78>    C      -22.22267        12.39858         8.91586
| 79>    C      -22.04344        11.10975         8.49121
| 80>    C      -22.18089         9.98311         9.32739
| 81>    N      -22.27000         9.04060         9.97583
| 82>    C      -21.80857        10.76815         7.14200
| 83>    N      -21.68110        10.45319         6.04581
| 84>    C      -22.76817        12.80272        10.20473
| 85>    C      -23.29316        14.11546        10.08425
| 86>    C      -23.03929        14.62264         8.72097
| 87>    O      -23.39132        15.67202         8.23703
| 88>    C      -23.92024        14.75397        11.12719
| 89>    C      -24.02328        14.07144        12.34380
| 90>    C      -23.48302        12.76688        12.45599
| 91>    C      -22.85671        12.11617        11.40036
| 92>    S      -23.71255        12.11468        14.04894
| 93>    C      -24.52515        13.57889        14.53605
| 94>    C      -24.61816        14.51107        13.55804
| 95>   Br      -25.17033        13.73879        16.28905
| 96>    H       -4.04003        -2.49073         0.59540
| 97>    H       -3.10951        -3.37544        -4.24770
| 98>    H       -2.65624        -4.89204         1.03429
| 99>    H       -6.12542         1.24581        -4.00732
|100>    H       -7.58927         3.08789        -3.75912
|101>    H       -8.27836         3.56083         1.67426
|102>    H       -9.30705         5.11245        -2.97930
|103>    H      -10.02224         5.52641         2.46208
|104>    H      -14.78865         9.54880         5.50727
|105>    H      -18.46631        12.60390         2.78106
|106>    H      -16.74095        10.67574         7.07208
|107>    H      -20.45484        13.70523         4.35398
|108>    H      -21.75514        14.78975         6.44885
|109>    H      -24.32005        15.74881        11.00896
|110>    H      -22.45359        11.12509        11.52893
|111>    H      -25.08636        15.46990        13.68577
|112> *
|113>
|114>                          ****END OF INPUT****

CARTESIAN COORDINATES (ANGSTROEM)
---------------------------------
  C     -4.600240   -0.946110   -3.564790
  C     -4.501770   -0.787680   -4.922590
  C     -3.825050   -1.685620   -5.776100
  N     -3.294010   -2.374540   -6.524840
  C     -5.034110    0.281040   -5.674590
  N     -5.427390    1.112040   -6.363270
  C     -4.014750   -2.042860   -2.802110
  C     -4.264320   -1.826080   -1.424560
  C     -3.834100   -2.687840   -0.444950
  C     -3.126430   -3.826030   -0.844060
  C     -2.885910   -4.039730   -2.223120
  C     -3.317600   -3.164930   -3.212220
  S     -2.001310   -5.509470   -2.496720
  C     -1.966080   -5.812870   -0.779910
  C     -2.584300   -4.863290   -0.037590
  Br    -1.118090   -7.353660   -0.130480
  C     -5.035450   -0.582090   -1.259130
  O     -5.397540   -0.096520   -0.206690
  C     -5.271030   -0.064600   -2.621030
  C     -6.027710    1.022710   -2.951470
  C     -6.754310    1.922670   -2.140230
  C     -7.522500    2.932480   -2.696180
  C     -8.206260    3.714640   -1.754290
  C     -7.927590    3.283140   -0.424530
  S     -6.840030    1.924580   -0.389810
  C     -8.496340    3.892190    0.671570
  C     -9.378940    4.951600    0.449710
  C     -9.662280    5.377530   -0.881790
  C     -9.086830    4.783450   -1.976380
  S    -10.820760    6.682520   -0.894130
  C    -10.914250    6.658990    0.859090
  C    -10.096370    5.697250    1.404750
  C    -11.806500    7.550280    1.529140
  C    -11.900680    7.679780    2.937560
  C    -12.898860    8.516730    3.571130
  N    -12.917320    8.614000    4.908930
  C    -12.055520    7.946440    5.632620
  C    -11.080320    7.106330    5.007460
  N    -11.029250    7.006860    3.703650
  C    -10.148210    6.379550    5.789660
  N     -9.414410    5.794170    6.446140
  C    -12.094540    8.079960    7.043210
  N    -12.111850    8.164120    8.185380
  C    -13.855550    9.249060    2.824700
  C    -13.696530    9.183730    1.426330
  C    -12.696640    8.360040    0.795800
  N    -12.753140    8.452540   -0.533980
  S    -13.925350    9.463190   -0.947620
  N    -14.433660    9.835730    0.525280
  C    -14.933200    9.988380    3.401470
  C    -15.313540   10.057330    4.720940
  C    -16.459160   10.846360    4.940280
  C    -16.965120   11.400950    3.731410
  S    -15.999780   10.919350    2.363080
  C    -18.090270   12.192410    3.703890
  C    -18.748600   12.438830    4.911030
  C    -18.243080   11.874800    6.116120
  C    -17.112520   11.095770    6.151200
  S    -19.244830   12.288450    7.477710
  C    -20.338200   13.193340    6.439480
  C    -19.915490   13.202280    5.136900
  C    -21.471930   13.876810    6.964080
  C    -22.188460   13.581290    8.075830
  C    -22.222670   12.398580    8.915860
  C    -22.043440   11.109750    8.491210
  C    -22.180890    9.983110    9.327390
  N    -22.270000    9.040600    9.975830
  C    -21.808570   10.768150    7.142000
  N    -21.681100   10.453190    6.045810
  C    -22.768170   12.802720   10.204730
  C    -23.293160   14.115460   10.084250
  C    -23.039290   14.622640    8.720970
  O    -23.391320   15.672020    8.237030
  C    -23.920240   14.753970   11.127190
  C    -24.023280   14.071440   12.343800
  C    -23.483020   12.766880   12.455990
  C    -22.856710   12.116170   11.400360
  S    -23.712550   12.114680   14.048940
  C    -24.525150   13.578890   14.536050
  C    -24.618160   14.511070   13.558040
  Br   -25.170330   13.738790   16.289050
  H     -4.040030   -2.490730    0.595400
  H     -3.109510   -3.375440   -4.247700
  H     -2.656240   -4.892040    1.034290
  H     -6.125420    1.245810   -4.007320
  H     -7.589270    3.087890   -3.759120
  H     -8.278360    3.560830    1.674260
  H     -9.307050    5.112450   -2.979300
  H    -10.022240    5.526410    2.462080
  H    -14.788650    9.548800    5.507270
  H    -18.466310   12.603900    2.781060
  H    -16.740950   10.675740    7.072080
  H    -20.454840   13.705230    4.353980
  H    -21.755140   14.789750    6.448850
  H    -24.320050   15.748810   11.008960
  H    -22.453590   11.125090   11.528930
  H    -25.086360   15.469900   13.685770

 Total Charge           Charge          ....    0
 Multiplicity           Mult            ....    1
 Number of Electrons    NEL             ....  644
 Basis Dimension        Dim             .... 1278

ORBITAL ENERGIES
----------------

  NO   OCC          E(Eh)            E(eV)
   0   2.0000    -482.887464    -13140.0359
   1   2.0000    -482.887221    -13140.0293
   2   2.0000     -89.059890     -2423.4428
   3   2.0000     -88.977899     -2421.2117
   4   2.0000     -88.977860     -2421.2107
   5   2.0000     -88.958941     -2420.6958
   6   2.0000     -88.953766     -2420.5550
   7   2.0000     -88.952795     -2420.5286
   8   2.0000     -88.952093     -2420.5095
   9   2.0000     -62.565187     -1702.4853
  10   2.0000     -62.564933     -1702.4784
  11   2.0000     -56.399139     -1534.6986
  12   2.0000     -56.398889     -1534.6918
  13   2.0000     -56.396417     -1534.6245
  14   2.0000     -56.396385     -1534.6237
  15   2.0000     -56.396163     -1534.6176
  16   2.0000     -56.396134     -1534.6168
  17   2.0000     -19.223800      -523.1062
  18   2.0000     -19.219314      -522.9841
  19   2.0000     -14.471173      -393.7806
  20   2.0000     -14.471030      -393.7767
  21   2.0000     -14.466088      -393.6423
  22   2.0000     -14.465931      -393.6380
  23   2.0000     -14.438695      -392.8969
  24   2.0000     -14.438634      -392.8952
  25   2.0000     -14.420634      -392.4054
  26   2.0000     -14.418822      -392.3561
  27   2.0000     -14.417425      -392.3181
  28   2.0000     -14.413074      -392.1997
  29   2.0000     -10.391782      -282.7748
  30   2.0000     -10.391515      -282.7675
  31   2.0000     -10.372871      -282.2602
  32   2.0000     -10.370640      -282.1995
  33   2.0000     -10.361402      -281.9481
  34   2.0000     -10.360773      -281.9310
  35   2.0000     -10.360751      -281.9304
  36   2.0000     -10.360496      -281.9234
  37   2.0000     -10.354817      -281.7689
  38   2.0000     -10.354549      -281.7616
  39   2.0000     -10.347032      -281.5571
  40   2.0000     -10.345866      -281.5253
  41   2.0000     -10.345297      -281.5098
  42   2.0000     -10.343680      -281.4658
  43   2.0000     -10.332131      -281.1516
  44   2.0000     -10.331668      -281.1390
  45   2.0000     -10.331590      -281.1369
  46   2.0000     -10.331577      -281.1365
  47   2.0000     -10.328847      -281.0622
  48   2.0000     -10.328412      -281.0504
  49   2.0000     -10.325686      -280.9762
  50   2.0000     -10.323484      -280.9163
  51   2.0000     -10.323327      -280.9120
  52   2.0000     -10.322880      -280.8998
  53   2.0000     -10.322554      -280.8910
  54   2.0000     -10.321492      -280.8621
  55   2.0000     -10.320736      -280.8415
  56   2.0000     -10.320424      -280.8330
  57   2.0000     -10.319337      -280.8034
  58   2.0000     -10.315496      -280.6989
  59   2.0000     -10.312136      -280.6075
  60   2.0000     -10.312048      -280.6051
  61   2.0000     -10.311420      -280.5880
  62   2.0000     -10.310557      -280.5645
  63   2.0000     -10.310141      -280.5532
  64   2.0000     -10.308512      -280.5089
  65   2.0000     -10.308476      -280.5079
  66   2.0000     -10.305454      -280.4257
  67   2.0000     -10.304709      -280.4054
  68   2.0000     -10.304528      -280.4005
  69   2.0000     -10.304219      -280.3920
  70   2.0000     -10.303222      -280.3649
  71   2.0000     -10.303102      -280.3616
  72   2.0000     -10.302608      -280.3482
  73   2.0000     -10.298957      -280.2489
  74   2.0000     -10.298623      -280.2398
  75   2.0000     -10.297829      -280.2182
  76   2.0000     -10.297248      -280.2024
  77   2.0000     -10.296461      -280.1809
  78   2.0000     -10.295866      -280.1648
  79   2.0000     -10.295474      -280.1541
  80   2.0000     -10.292419      -280.0709
  81   2.0000     -10.292220      -280.0656
  82   2.0000     -10.291898      -280.0568
  83   2.0000     -10.291611      -280.0490
  84   2.0000     -10.291577      -280.0480
  85   2.0000     -10.291528      -280.0467
  86   2.0000     -10.288480      -279.9638
  87   2.0000     -10.285873      -279.8928
  88   2.0000     -10.285505      -279.8828
  89   2.0000      -8.794630      -239.3140
  90   2.0000      -8.794360      -239.3067
  91   2.0000      -8.150690      -221.7915
  92   2.0000      -8.073941      -219.7031
  93   2.0000      -8.073859      -219.7009
  94   2.0000      -8.054420      -219.1719
  95   2.0000      -8.048555      -219.0123
  96   2.0000      -8.047557      -218.9852
  97   2.0000      -8.046198      -218.9482
  98   2.0000      -6.630949      -180.4373
  99   2.0000      -6.630690      -180.4302
 100   2.0000      -6.616354      -180.0401
 101   2.0000      -6.616152      -180.0347
 102   2.0000      -6.616088      -180.0329
 103   2.0000      -6.615870      -180.0270
 104   2.0000      -6.121699      -166.5799
 105   2.0000      -6.113954      -166.3691
 106   2.0000      -6.113638      -166.3605
 107   2.0000      -6.043618      -164.4552
 108   2.0000      -6.043568      -164.4538
 109   2.0000      -6.039357      -164.3392
 110   2.0000      -6.039262      -164.3367
 111   2.0000      -6.035150      -164.2248
 112   2.0000      -6.035071      -164.2226
 113   2.0000      -6.024145      -163.9253
 114   2.0000      -6.020072      -163.8145
 115   2.0000      -6.018357      -163.7678
 116   2.0000      -6.017384      -163.7413
 117   2.0000      -6.015935      -163.7019
 118   2.0000      -6.015504      -163.6902
 119   2.0000      -6.014008      -163.6495
 120   2.0000      -6.013046      -163.6233
 121   2.0000      -6.011546      -163.5825
 122   2.0000      -6.009707      -163.5324
 123   2.0000      -6.008665      -163.5041
 124   2.0000      -6.007491      -163.4721
 125   2.0000      -2.746817       -74.7447
 126   2.0000      -2.746533       -74.7370
 127   2.0000      -2.742730       -74.6335
 128   2.0000      -2.742568       -74.6291
 129   2.0000      -2.742454       -74.6260
 130   2.0000      -2.742330       -74.6226
 131   2.0000      -2.730975       -74.3136
 132   2.0000      -2.730951       -74.3130
 133   2.0000      -2.730704       -74.3062
 134   2.0000      -2.730687       -74.3058
 135   2.0000      -1.156648       -31.4740
 136   2.0000      -1.140155       -31.0252
 137   2.0000      -1.134813       -30.8798
 138   2.0000      -1.131276       -30.7836
 139   2.0000      -1.057726       -28.7822
 140   2.0000      -1.026226       -27.9250
 141   2.0000      -1.026188       -27.9240
 142   2.0000      -1.023441       -27.8493
 143   2.0000      -1.017895       -27.6983
 144   2.0000      -1.016863       -27.6702
 145   2.0000      -1.015705       -27.6387
 146   2.0000      -1.011758       -27.5313
 147   2.0000      -1.009459       -27.4688
 148   2.0000      -1.005237       -27.3539
 149   2.0000      -0.997851       -27.1529
 150   2.0000      -0.997474       -27.1427
 151   2.0000      -0.994163       -27.0525
 152   2.0000      -0.992614       -27.0104
 153   2.0000      -0.991363       -26.9764
 154   2.0000      -0.982296       -26.7296
 155   2.0000      -0.975274       -26.5385
 156   2.0000      -0.946477       -25.7549
 157   2.0000      -0.946001       -25.7420
 158   2.0000      -0.929649       -25.2970
 159   2.0000      -0.923979       -25.1428
 160   2.0000      -0.917451       -24.9651
 161   2.0000      -0.911624       -24.8066
 162   2.0000      -0.910896       -24.7867
 163   2.0000      -0.904154       -24.6033
 164   2.0000      -0.893635       -24.3170
 165   2.0000      -0.888807       -24.1857
 166   2.0000      -0.888639       -24.1811
 167   2.0000      -0.885330       -24.0911
 168   2.0000      -0.883719       -24.0472
 169   2.0000      -0.881558       -23.9884
 170   2.0000      -0.863334       -23.4925
 171   2.0000      -0.858864       -23.3709
 172   2.0000      -0.848637       -23.0926
 173   2.0000      -0.839846       -22.8534
 174   2.0000      -0.837922       -22.8010
 175   2.0000      -0.832040       -22.6410
 176   2.0000      -0.831824       -22.6351
 177   2.0000      -0.820241       -22.3199
 178   2.0000      -0.819903       -22.3107
 179   2.0000      -0.801389       -21.8069
 180   2.0000      -0.791722       -21.5439
 181   2.0000      -0.788891       -21.4668
 182   2.0000      -0.783399       -21.3174
 183   2.0000      -0.770124       -20.9561
 184   2.0000      -0.764810       -20.8115
 185   2.0000      -0.760190       -20.6858
 186   2.0000      -0.752644       -20.4805
 187   2.0000      -0.739947       -20.1350
 188   2.0000      -0.725981       -19.7549
 189   2.0000      -0.712365       -19.3844
 190   2.0000      -0.711006       -19.3474
 191   2.0000      -0.704157       -19.1611
 192   2.0000      -0.701965       -19.1014
 193   2.0000      -0.695325       -18.9208
 194   2.0000      -0.695142       -18.9158
 195   2.0000      -0.692502       -18.8439
 196   2.0000      -0.687756       -18.7148
 197   2.0000      -0.686268       -18.6743
 198   2.0000      -0.672988       -18.3129
 199   2.0000      -0.670395       -18.2424
 200   2.0000      -0.663358       -18.0509
 201   2.0000      -0.661722       -18.0064
 202   2.0000      -0.658858       -17.9284
 203   2.0000      -0.653480       -17.7821
 204   2.0000      -0.645153       -17.5555
 205   2.0000      -0.639260       -17.3951
 206   2.0000      -0.633218       -17.2307
 207   2.0000      -0.631543       -17.1852
 208   2.0000      -0.627144       -17.0654
 209   2.0000      -0.625711       -17.0265
 210   2.0000      -0.617326       -16.7983
 211   2.0000      -0.616692       -16.7810
 212   2.0000      -0.605603       -16.4793
 213   2.0000      -0.603902       -16.4330
 214   2.0000      -0.601384       -16.3645
 215   2.0000      -0.592914       -16.1340
 216   2.0000      -0.591361       -16.0918
 217   2.0000      -0.590093       -16.0572
 218   2.0000      -0.577368       -15.7110
 219   2.0000      -0.572784       -15.5862
 220   2.0000      -0.569429       -15.4949
 221   2.0000      -0.568776       -15.4772
 222   2.0000      -0.566119       -15.4049
 223   2.0000      -0.563491       -15.3334
 224   2.0000      -0.555444       -15.1144
 225   2.0000      -0.550807       -14.9882
 226   2.0000      -0.549254       -14.9460
 227   2.0000      -0.545329       -14.8392
 228   2.0000      -0.543100       -14.7785
 229   2.0000      -0.541182       -14.7263
 230   2.0000      -0.538793       -14.6613
 231   2.0000      -0.537859       -14.6359
 232   2.0000      -0.535209       -14.5638
 233   2.0000      -0.533408       -14.5148
 234   2.0000      -0.528511       -14.3815
 235   2.0000      -0.526902       -14.3377
 236   2.0000      -0.521634       -14.1944
 237   2.0000      -0.521079       -14.1793
 238   2.0000      -0.516576       -14.0567
 239   2.0000      -0.514832       -14.0093
 240   2.0000      -0.514278       -13.9942
 241   2.0000      -0.511563       -13.9203
 242   2.0000      -0.510723       -13.8975
 243   2.0000      -0.510040       -13.8789
 244   2.0000      -0.506412       -13.7802
 245   2.0000      -0.503702       -13.7064
 246   2.0000      -0.502322       -13.6689
 247   2.0000      -0.499950       -13.6043
 248   2.0000      -0.497679       -13.5425
 249   2.0000      -0.496725       -13.5166
 250   2.0000      -0.496242       -13.5034
 251   2.0000      -0.494879       -13.4664
 252   2.0000      -0.492229       -13.3942
 253   2.0000      -0.483854       -13.1663
 254   2.0000      -0.480965       -13.0877
 255   2.0000      -0.479089       -13.0367
 256   2.0000      -0.475408       -12.9365
 257   2.0000      -0.473450       -12.8832
 258   2.0000      -0.471990       -12.8435
 259   2.0000      -0.465123       -12.6566
 260   2.0000      -0.463645       -12.6164
 261   2.0000      -0.462260       -12.5787
 262   2.0000      -0.462085       -12.5740
 263   2.0000      -0.460871       -12.5409
 264   2.0000      -0.459910       -12.5148
 265   2.0000      -0.455692       -12.4000
 266   2.0000      -0.454973       -12.3805
 267   2.0000      -0.453071       -12.3287
 268   2.0000      -0.452436       -12.3114
 269   2.0000      -0.450744       -12.2654
 270   2.0000      -0.449822       -12.2403
 271   2.0000      -0.449201       -12.2234
 272   2.0000      -0.448800       -12.2125
 273   2.0000      -0.446632       -12.1535
 274   2.0000      -0.445023       -12.1097
 275   2.0000      -0.443439       -12.0666
 276   2.0000      -0.441955       -12.0262
 277   2.0000      -0.440182       -11.9780
 278   2.0000      -0.439031       -11.9466
 279   2.0000      -0.438861       -11.9420
 280   2.0000      -0.434927       -11.8350
 281   2.0000      -0.430535       -11.7154
 282   2.0000      -0.429302       -11.6819
 283   2.0000      -0.428663       -11.6645
 284   2.0000      -0.427584       -11.6352
 285   2.0000      -0.424457       -11.5501
 286   2.0000      -0.422337       -11.4924
 287   2.0000      -0.421798       -11.4777
 288   2.0000      -0.418297       -11.3824
 289   2.0000      -0.413156       -11.2425
 290   2.0000      -0.411582       -11.1997
 291   2.0000      -0.410805       -11.1786
 292   2.0000      -0.404386       -11.0039
 293   2.0000      -0.401724       -10.9315
 294   2.0000      -0.394315       -10.7299
 295   2.0000      -0.393862       -10.7175
 296   2.0000      -0.389631       -10.6024
 297   2.0000      -0.388711       -10.5774
 298   2.0000      -0.386869       -10.5272
 299   2.0000      -0.384433       -10.4610
 300   2.0000      -0.376712       -10.2509
 301   2.0000      -0.376652       -10.2492
 302   2.0000      -0.372358       -10.1324
 303   2.0000      -0.368782       -10.0351
 304   2.0000      -0.368012       -10.0141
 305   2.0000      -0.364467        -9.9176
 306   2.0000      -0.359764        -9.7897
 307   2.0000      -0.352005        -9.5786
 308   2.0000      -0.345526        -9.4022
 309   2.0000      -0.339863        -9.2481
 310   2.0000      -0.336518        -9.1571
 311   2.0000      -0.335121        -9.1191
 312   2.0000      -0.328681        -8.9439
 313   2.0000      -0.318524        -8.6675
 314   2.0000      -0.317873        -8.6498
 315   2.0000      -0.306334        -8.3358
 316   2.0000      -0.297817        -8.1040
 317   2.0000      -0.295935        -8.0528
 318   2.0000      -0.290837        -7.9141
 319   2.0000      -0.282728        -7.6934
 320   2.0000      -0.269118        -7.3231
 321   2.0000      -0.247759        -6.7419
 322   0.0000      -0.137136        -3.7317
 323   0.0000      -0.095973        -2.6116
 324   0.0000      -0.093214        -2.5365
 325   0.0000      -0.066285        -1.8037
 326   0.0000      -0.063305        -1.7226

MULLIKEN ATOMIC CHARGES
-----------------------
   0 C :    0.323711
   1 C :   -0.353221
   2 C :   -0.186720
   3 N :    0.153156
   4 C :   -0.186121
   5 N :    0.145410
   6 C :    0.012604
   7 C :   -0.011201
   8 C :   -0.073704
   9 C :    0.119874
  10 C :   -0.088634
  11 C :   -0.023065
  12 S :    0.188948
  13 C :   -0.123252
  14 C :    0.037834
  15 Br:    0.026943
  16 C :    0.160488
  17 O :   -0.158921
  18 C :   -0.079277
  19 C :   -0.026032
  20 C :   -0.038473
  21 C :   -0.037627
  22 C :    0.131685
  23 C :   -0.036849
  24 S :    0.172515
  25 C :   -0.051381
  26 C :    0.127960
  27 C :   -0.014212
  28 C :   -0.049906
  29 S :    0.134555
  30 C :   -0.151216
  31 C :   -0.033244
  32 C :    0.210158
  33 C :   -0.076359
  34 C :   -0.073963
  35 N :    0.042321
  36 C :   -0.115883
  37 C :   -0.116554
  38 N :    0.042536
  39 C :   -0.226681
  40 N :    0.247779
  41 C :   -0.228205
  42 N :    0.245358
  43 C :    0.213988
  44 C :   -0.024217
  45 C :   -0.020301
  46 N :   -0.311206
  47 S :    0.575786
  48 N :   -0.309346
  49 C :   -0.156081
  50 C :   -0.029948
  51 C :    0.122394
  52 C :   -0.012760
  53 S :    0.138069
  54 C :   -0.053828
  55 C :    0.119449
  56 C :   -0.035211
  57 C :   -0.045437
  58 S :    0.127344
  59 C :   -0.100285
  60 C :    0.039379
  61 C :    0.060518
  62 C :   -0.126657
  63 C :    0.243939
  64 C :   -0.312876
  65 C :   -0.182034
  66 N :    0.159226
  67 C :   -0.195851
  68 N :    0.173671
  69 C :    0.008396
  70 C :   -0.001306
  71 C :    0.137570
  72 O :   -0.137777
  73 C :   -0.067472
  74 C :    0.110217
  75 C :   -0.086474
  76 C :   -0.019395
  77 S :    0.187662
  78 C :   -0.125871
  79 C :    0.043711
  80 Br:    0.025457
  81 H :   -0.007776
  82 H :   -0.005861
  83 H :   -0.000831
  84 H :    0.011327
  85 H :    0.002185
  86 H :   -0.021617
  87 H :   -0.027017
  88 H :   -0.002002
  89 H :   -0.002923
  90 H :   -0.027383
  91 H :   -0.020952
  92 H :   -0.009673
  93 H :    0.030191
  94 H :   -0.008277
  95 H :   -0.002253
  96 H :   -0.002710
Sum of atomic charges:   -0.0000000

LOEWDIN ATOMIC CHARGES
----------------------
   0 C :    0.077413
   1 C :   -0.140443
   2 C :   -0.018040
   3 N :   -0.052025
   4 C :   -0.021154
   5 N :   -0.052244
   6 C :   -0.021034
   7 C :   -0.050711
   8 C :    0.023650
   9 C :   -0.031604
  10 C :   -0.143129
  11 C :   -0.008853
  12 S :    0.434779
  13 C :   -0.270649
  14 C :   -0.070112
  15 Br:    0.139413
  16 C :    0.083839
  17 O :   -0.150896
  18 C :   -0.099500
  19 C :    0.059012
  20 C :   -0.169517
  21 C :   -0.008032
  22 C :   -0.049197
  23 C :   -0.156136
  24 S :    0.457232
  25 C :   -0.026854
  26 C :   -0.039712
  27 C :   -0.155204
  28 C :   -0.026290
  29 S :    0.422077
  30 C :   -0.150305
  31 C :   -0.022226
  32 C :   -0.031584
  33 C :   -0.002469
  34 C :   -0.003019
  35 N :    0.010591
  36 C :   -0.025643
  37 C :   -0.025269
  38 N :    0.010525
  39 C :   -0.038839
  40 N :   -0.000901
  41 C :   -0.038816
  42 N :   -0.001265
  43 C :   -0.029733
  44 C :   -0.044868
  45 C :   -0.044113
  46 N :   -0.290750
  47 S :    0.696815
  48 N :   -0.290732
  49 C :   -0.152603
  50 C :   -0.020804
  51 C :   -0.041987
  52 C :   -0.153817
  53 S :    0.426916
  54 C :   -0.024931
  55 C :   -0.039110
  56 C :   -0.143319
  57 C :   -0.024305
  58 S :    0.417958
  59 C :   -0.163289
  60 C :   -0.003565
  61 C :    0.050918
  62 C :   -0.086034
  63 C :    0.058222
  64 C :   -0.132674
  65 C :   -0.018930
  66 N :   -0.047142
  67 C :   -0.033040
  68 N :   -0.046105
  69 C :   -0.016678
  70 C :   -0.054060
  71 C :    0.084460
  72 O :   -0.138262
  73 C :    0.024228
  74 C :   -0.033412
  75 C :   -0.141855
  76 C :   -0.012000
  77 S :    0.433976
  78 C :   -0.271476
  79 C :   -0.069686
  80 Br:    0.138485
  81 H :    0.041969
  82 H :    0.041259
  83 H :    0.039672
  84 H :    0.050643
  85 H :    0.038215
  86 H :    0.034245
  87 H :    0.032314
  88 H :    0.031052
  89 H :    0.030947
  90 H :    0.032711
  91 H :    0.035188
  92 H :    0.037225
  93 H :    0.052492
  94 H :    0.041916
  95 H :    0.041341
  96 H :    0.039256

  Mayer bond orders larger than 0.100000
B(  0-C ,  1-C ) :   1.6268 B(  0-C ,  6-C ) :   1.0024 B(  0-C , 18-C ) :   1.0716
B(  1-C ,  2-C ) :   1.1441 B(  1-C ,  4-C ) :   1.1428 B(  2-C ,  3-N ) :   2.9692
B(  4-C ,  5-N ) :   2.9601 B(  6-C ,  7-C ) :   1.2738 B(  6-C , 11-C ) :   1.4079
B(  7-C ,  8-C ) :   1.4173 B(  7-C , 16-C ) :   0.9562 B(  8-C ,  9-C ) :   1.2456
B(  8-C , 81-H ) :   1.0185 B(  9-C , 10-C ) :   1.3020 B(  9-C , 14-C ) :   1.1633
B( 10-C , 11-C ) :   1.3313 B( 10-C , 12-S ) :   1.0876 B( 11-C , 82-H ) :   0.9803
B( 12-S , 13-C ) :   1.0868 B( 13-C , 14-C ) :   1.6166 B( 13-C , 15-Br) :   1.0212
B( 14-C , 83-H ) :   1.0009 B( 16-C , 17-O ) :   2.1714 B( 16-C , 18-C ) :   0.9506
B( 18-C , 19-C ) :   1.5442 B( 19-C , 20-C ) :   1.2147 B( 19-C , 84-H ) :   0.9409
B( 20-C , 21-C ) :   1.4372 B( 20-C , 24-S ) :   1.0740 B( 21-C , 22-C ) :   1.1841
B( 21-C , 85-H ) :   1.0104 B( 22-C , 23-C ) :   1.2464 B( 22-C , 28-C ) :   1.2811
B( 23-C , 24-S ) :   1.0184 B( 23-C , 25-C ) :   1.3788 B( 25-C , 26-C ) :   1.3133
B( 25-C , 86-H ) :   1.0039 B( 26-C , 27-C ) :   1.2444 B( 26-C , 31-C ) :   1.1427
B( 27-C , 28-C ) :   1.4167 B( 27-C , 29-S ) :   1.0053 B( 28-C , 87-H ) :   1.0031
B( 29-S , 30-C ) :   1.0795 B( 30-C , 31-C ) :   1.5082 B( 30-C , 32-C ) :   1.1723
B( 31-C , 88-H ) :   0.9916 B( 32-C , 33-C ) :   1.2556 B( 32-C , 43-C ) :   0.1212
B( 32-C , 45-C ) :   1.2060 B( 33-C , 34-C ) :   1.0998 B( 33-C , 38-N ) :   1.4446
B( 34-C , 35-N ) :   1.4423 B( 34-C , 43-C ) :   1.2543 B( 35-N , 36-C ) :   1.7297
B( 36-C , 37-C ) :   1.2092 B( 36-C , 41-C ) :   1.1519 B( 37-C , 38-N ) :   1.7292
B( 37-C , 39-C ) :   1.1542 B( 39-C , 40-N ) :   3.0477 B( 41-C , 42-N ) :   3.0475
B( 43-C , 44-C ) :   1.2068 B( 43-C , 49-C ) :   1.1739 B( 44-C , 45-C ) :   1.1155
B( 44-C , 48-N ) :   1.4739 B( 45-C , 46-N ) :   1.4726 B( 46-N , 47-S ) :   1.2868
B( 46-N , 48-N ) :   0.1539 B( 47-S , 48-N ) :   1.2871 B( 49-C , 50-C ) :   1.5057
B( 49-C , 53-S ) :   1.0833 B( 50-C , 51-C ) :   1.1446 B( 50-C , 89-H ) :   0.9919
B( 51-C , 52-C ) :   1.2638 B( 51-C , 57-C ) :   1.2992 B( 52-C , 53-S ) :   1.0113
B( 52-C , 54-C ) :   1.3896 B( 54-C , 55-C ) :   1.3084 B( 54-C , 90-H ) :   1.0027
B( 55-C , 56-C ) :   1.2636 B( 55-C , 60-C ) :   1.1614 B( 56-C , 57-C ) :   1.4012
B( 56-C , 58-S ) :   1.0403 B( 57-C , 91-H ) :   1.0033 B( 58-S , 59-C ) :   1.0788
B( 59-C , 60-C ) :   1.5225 B( 59-C , 61-C ) :   1.0848 B( 60-C , 92-H ) :   1.0039
B( 61-C , 62-C ) :   1.6940 B( 61-C , 93-H ) :   0.9507 B( 62-C , 63-C ) :   1.0223
B( 62-C , 71-C ) :   0.9311 B( 63-C , 64-C ) :   1.6711 B( 63-C , 69-C ) :   1.0182
B( 64-C , 65-C ) :   1.1360 B( 64-C , 67-C ) :   1.1492 B( 65-C , 66-N ) :   2.9928
B( 67-C , 68-N ) :   3.0220 B( 69-C , 70-C ) :   1.2741 B( 69-C , 76-C ) :   1.4151
B( 70-C , 71-C ) :   0.9223 B( 70-C , 73-C ) :   1.4232 B( 71-C , 72-O ) :   2.2778
B( 73-C , 74-C ) :   1.2560 B( 73-C , 94-H ) :   1.0152 B( 74-C , 75-C ) :   1.3060
B( 74-C , 79-C ) :   1.1637 B( 75-C , 76-C ) :   1.3280 B( 75-C , 77-S ) :   1.0854
B( 76-C , 95-H ) :   0.9836 B( 77-S , 78-C ) :   1.0869 B( 78-C , 79-C ) :   1.6193
B( 78-C , 80-Br) :   1.0195 B( 79-C , 96-H ) :   0.9996

-----------------------------------------------------------------------------
         ABSORPTION SPECTRUM VIA TRANSITION ELECTRIC DIPOLE MOMENTS
-----------------------------------------------------------------------------
State   Energy  Wavelength   fosc         T2         TX        TY        TZ
        (cm-1)    (nm)                  (au**2)     (au)      (au)      (au)
-----------------------------------------------------------------------------
   0    9160.5   1091.6   0.800639968  28.77362  -3.68535   3.06511   2.40768
   1   13955.0    716.6   0.021466182   0.50641  -0.38648  -0.26046   0.53778
   2   15952.2    626.9   0.090288483   1.86332   0.94374  -0.80751  -0.56621
   3   19736.3    506.7   0.401902309   6.70395  -1.11502   2.06650   1.09100
   4   19961.3    501.0   0.796795146  13.14114   2.69040  -1.86797  -1.55357
   5   20439.8    489.2   0.244611604   3.93982   1.30321   0.22827  -1.47964
   6   23390.2    427.5   0.214637259   3.02098   1.38443  -0.84571  -0.62378
   7   23881.0    418.7   0.049229143   0.67865  -0.29278  -0.07227  -0.76662
   8   24207.2    413.1   0.116965925   1.59071   0.85662  -0.38381  -0.84238
   9   24694.8    404.9   0.301603409   4.02074  -0.97057   1.48225   0.93897
  10   25337.1    394.7   0.005662050   0.07357  -0.16340   0.05585   0.20917
  11   25759.7    388.2   0.036775142   0.46999  -0.33236   0.43736   0.41018
  12   25896.1    386.2   0.046947743   0.59684  -0.22733   0.19241   0.71284
  13   25978.4    384.9   0.043117373   0.54641  -0.26408   0.56071  -0.40284
  14   26776.2    373.5   0.037374940   0.45952   0.39026  -0.51404   0.20731
  15   27136.6    368.5   0.164701815   1.99811  -0.56463   1.11412  -0.66184
  16   27935.1    358.0   0.000579576   0.00683  -0.01320  -0.05063   0.06397
  17   28147.0    355.3   0.037708824   0.44105   0.43071  -0.49673  -0.09382
  18   28400.7    352.1   0.003052335   0.03538  -0.00266   0.14274   0.12247
  19   28551.4    350.2   0.057043521   0.65774  -0.67966   0.40713   0.17335
  20   28697.1    348.5   0.086522206   0.99258   0.22760  -0.92961  -0.27679
  21   29011.0    344.7   0.217577138   2.46903   0.79488  -0.26793  -1.32869
  22   29275.4    341.6   0.158566441   1.78313  -0.66012   1.15491  -0.11641
  23   29380.3    340.4   0.065511134   0.73406   0.35725  -0.20256  -0.75193
  24   29593.7    337.9   0.129960803   1.44574   0.12081   0.19996  -1.17947
  25   29949.2    333.9   0.120170527   1.32096   0.29351  -0.79739   0.77394
  26   30287.0    330.2   0.033849285   0.36793  -0.25192   0.32413   0.44655
  27   30607.7    326.7   0.079563341   0.85577  -0.65749   0.43343  -0.48541
  28   31036.4    322.2   0.282332522   2.99478  -0.21872   0.08106  -1.71475
  29   31840.8    314.1   0.446642794   4.61798  -1.45693   1.52823   0.39981
  30   32054.4    312.0   0.094234675   0.96783  -0.42550   0.81081   0.35969
  31   32220.4    310.4   0.172841586   1.76601  -0.81527   0.63613   0.83468
  32   32328.0    309.3   0.119499987   1.21693   0.32255   0.35361  -0.99391
  33   32692.5    305.9   0.265253740   2.67109   1.07288  -0.99743   0.72467
  34   32808.8    304.8   0.047325885   0.47488   0.30978  -0.32104   0.52521
  35   33056.0    302.5   0.013574682   0.13519   0.17518   0.06929  -0.31576
  36   33099.9    302.1   0.055584980   0.55285   0.09320  -0.23524   0.69916
  37   33284.2    300.4   0.109883809   1.08685   0.63178  -0.55236   0.61855
  38   33319.6    300.1   0.065068778   0.64291  -0.07179  -0.28070   0.74764
  39   33738.1    296.4   0.125711782   1.22668  -0.18825   0.53062   0.95377
  40   33890.0    295.1   0.012048817   0.11704   0.23438  -0.13899   0.20686
  41   34211.8    292.3   0.671910031   6.46563  -0.43294   0.55470  -2.44346
  42   34425.5    290.5   0.111885686   1.06997  -0.30619   0.95715  -0.24511
  43   34561.1    289.3   0.074569751   0.71031  -0.22732   0.55196  -0.59497
  44   34708.0    288.1   0.306742081   2.90951  -0.50196   0.77352   1.43499
  45   34939.6    286.2   0.011344241   0.10689   0.04366   0.01388  -0.32371
  46   35432.9    282.2   0.008965278   0.08330   0.09768  -0.24080   0.12560
  47   35566.4    281.2   0.058940958   0.54557  -0.11738   0.08593  -0.72416
  48   35939.5    278.2   0.041307103   0.37838   0.51950  -0.31798   0.08595
  49   36128.5    276.8   0.091821105   0.83670  -0.48281   0.47284   0.61645
  50   36455.7    274.3   0.002405567   0.02172  -0.02760  -0.10477   0.09992
  51   36558.7    273.5   0.223471562   2.01237  -0.68346   1.03556  -0.68765
  52   36724.0    272.3   0.033326539   0.29876  -0.14423  -0.10476   0.51670
  53   36953.3    270.6   0.110476678   0.98422   0.36393  -0.07583  -0.91980
  54   37492.3    266.7   0.000914480   0.00803  -0.06327  -0.05552   0.03074
  55   37976.0    263.3   0.014729637   0.12769   0.19224   0.05077  -0.29691
  56   38571.2    259.3   0.012549897   0.10712  -0.12793   0.28937  -0.08375
  57   38879.2    257.2   0.009974761   0.08446  -0.00846   0.28045  -0.07573
  58   39061.0    256.0   0.086512875   0.72914  -0.24649   0.20264   0.79204
  59   39075.6    255.9   0.020562453   0.17324  -0.12360   0.12553  -0.37710
  60   39166.6    255.3   0.013739921   0.11549  -0.05765  -0.01124   0.33472
  61   39372.0    254.0   0.083597952   0.69901  -0.39737   0.72436   0.12810
  62   39473.0    253.3   0.008194581   0.06834   0.18732  -0.03676   0.17861
  63   39524.8    253.0   0.094370806   0.78604   0.64175  -0.60977  -0.04875
  64   39953.8    250.3   0.073986818   0.60964   0.03627  -0.20891   0.75145
  65   40056.2    249.6   0.129927115   1.06784  -0.07616   0.98451   0.30460
  66   40087.5    249.5   0.107026394   0.87894  -0.18209   0.31837  -0.86280
  67   40317.7    248.0   0.054299206   0.44338   0.27852   0.14614  -0.58690

FINAL SINGLE POINT ENERGY    -10924.525483724858

DIPOLE MOMENT
-------------
                                X             Y             Z
Electronic contribution:      3.76927     -66.13359      87.18016
Nuclear contribution   :     -4.59019      67.73718     -86.83282
                        -----------------------------------------
Total Dipole Moment    :     -0.82093       1.60359       0.34734
                        -----------------------------------------
Magnitude (a.u.)       :      1.83468
Magnitude (Debye)      :      4.66338

Rotational constants in cm-1:     0.001184     0.000098     0.000092
Rotational constants in MHz :    35.480943     2.933900     2.758857

                             ****ORCA TERMINATED NORMALLY****
TOTAL RUN TIME: 0 days 0 hours 10 minutes 56 seconds 457 msec
