                         Program Version 4.2.0 -  RELEASE  -
|  1> # ORCA input file
|  2> # SCF done       -194.339148007086          0.000859977727
|  3> ! CAM-B3LYP def2-SVP def2/J RIJCOSX Grid4 TightSCF
|  4> %maxcore 5000
|  5> %tddft
|  6>     Mode sTDDFT
|  7>     Ethresh 5.0
|  8>     maxcore 5000
|  9> end
| 10>
| 11> %pal
| 12>   nprocs 6
| 13>   end
| 14> * xyz 0 1
| 15>    C       -3.34272        -1.67812         0.62251
| 16>    C       -2.64235        -2.13092        -0.46801
| 17>    C       -1.84735        -3.29559        -0.46544
| 18>    N       -1.18449        -4.23123        -0.52935
| 19>    C       -2.59475        -1.51911        -1.73835
| 20>    N       -2.48816        -1.10149        -2.80334
| 21>    C       -3.36865        -2.32381         1.93363
| 22>    C       -4.17181        -1.54805         2.80559
| 23>    C       -4.39784        -1.89534         4.11457
| 24>    C       -3.80352        -3.06954         4.58942
| 25>    C       -3.00351        -3.83902         3.71272
| 26>    C       -2.77404        -3.48543         2.38793
| 27>    S       -2.36931        -5.25185         4.50077
| 28>    C       -3.17678        -4.79533         5.97729
| 29>    C       -3.88505        -3.64482         5.88711
| 30>   Br       -3.01046        -5.88143         7.49739
| 31>    C       -4.68988        -0.37953         2.06997
| 32>    O       -5.40643         0.49748         2.52237
| 33>    C       -4.17164        -0.49575         0.70503
| 34>    C       -4.44759         0.37613        -0.32266
| 35>    C       -5.23398         1.52636        -0.32820
| 36>    C       -5.37973         2.29122        -1.51235
| 37>    C       -6.24012         3.40955        -1.36803
| 38>    N       -6.39893         4.27630        -2.37458
| 39>    C       -5.80361         4.00868        -3.51074
| 40>    C       -5.00998         2.83175        -3.68066
| 41>    N       -4.78670         2.01512        -2.67848
| 42>    C       -4.36414         2.50088        -4.98132
| 43>    C       -5.96944         4.99725        -4.61484
| 44>    C       -6.76707         3.50324        -0.06025
| 45>    S       -6.14411         2.25830         0.96419
| 46>    C       -7.64808         4.48663         0.44607
| 47>    C       -7.66694         4.76892         1.83849
| 48>    C       -8.47794         5.80504         2.39133
| 49>    N       -8.42722         6.05447         3.70937
| 50>    C       -7.65191         5.32848         4.46817
| 51>    C       -6.84936         4.30888         3.92088
| 52>    N       -6.86059         4.05754         2.64097
| 53>    C       -9.36976         6.57776         1.60001
| 54>    C       -9.34233         6.31664         0.21069
| 55>    C       -8.51233         5.26744        -0.35264
| 56>    N       -8.69562         5.14917        -1.66611
| 57>    S       -9.72307         6.27893        -2.15395
| 58>    N      -10.02172         6.96209        -0.73389
| 59>    C      -10.22691         7.51240         2.22181
| 60>    C      -11.40257         8.10829         1.71569
| 61>    C      -11.98948         9.03828         2.62109
| 62>    N      -13.03629         9.78904         2.24235
| 63>    C      -13.57405         9.54261         1.07268
| 64>    C      -13.10448         8.46486         0.25792
| 65>    N      -12.02021         7.80320         0.57045
| 66>    C      -13.82885         8.05141        -0.97706
| 67>    C      -14.72256        10.39629         0.65863
| 68>    C      -11.31604         9.11268         3.85356
| 69>    S       -9.94170         8.03988         3.83907
| 70>    C      -11.56622         9.91796         4.97237
| 71>    C      -12.70321        10.60926         5.30145
| 72>    C      -14.05869        10.52210         4.82720
| 73>    C      -14.67408         9.40451         4.31825
| 74>    C      -15.99505         9.37686         3.83799
| 75>    N      -17.04938         9.30207         3.38705
| 76>    C      -14.06027         8.13887         4.26345
| 77>    N      -13.61635         7.08036         4.22605
| 78>    C      -14.73384        11.76056         5.20081
| 79>    C      -13.88612        12.49406         6.06871
| 80>    C      -12.60986        11.76364         6.23075
| 81>    O      -11.67052        12.06338         6.93292
| 82>    C      -14.25956        13.69403         6.62177
| 83>    C      -15.52356        14.19880         6.29481
| 84>    C      -16.35685        13.46349         5.41963
| 85>    C      -15.98351        12.24378         4.86707
| 86>    S      -17.86842        14.27546         5.14385
| 87>    C      -17.36965        15.57108         6.19913
| 88>    C      -16.13445        15.40788         6.72840
| 89>   Br      -18.52489        17.01927         6.49524
| 90>    H       -5.01596        -1.28282         4.75199
| 91>    H       -2.15783        -4.10850         1.76194
| 92>    H       -4.44354        -3.21860         6.70038
| 93>    H       -4.01196         0.17286        -1.29445
| 94>    H       -5.11644         2.37892        -5.75908
| 95>    H       -3.80069         1.57842        -4.87349
| 96>    H       -3.69212         3.30127        -5.28746
| 97>    H       -6.60032         5.81122        -4.27060
| 98>    H       -6.43021         4.52410        -5.48037
| 99>    H       -5.00246         5.39220        -4.92300
|100>    H       -7.64549         5.56129         5.52324
|101>    H       -6.18702         3.70874         4.52755
|102>    H      -14.86932         7.82617        -0.74917
|103>    H      -13.34633         7.17249        -1.39361
|104>    H      -13.81079         8.85279        -1.71450
|105>    H      -14.81132        11.24026         1.33760
|106>    H      -15.64677         9.81923         0.69755
|107>    H      -14.59036        10.75589        -0.35964
|108>    H      -10.72514        10.07754         5.64044
|109>    H      -13.60002        14.22887         7.28704
|110>    H      -16.64953        11.71777         4.20304
|111>    H      -15.67059        16.11016         7.39669
|112> *
|113>
|114>                          ****END OF INPUT****

CARTESIAN COORDINATES (ANGSTROEM)
---------------------------------
  C     -3.342720   -1.678120    0.622510
  C     -2.642350   -2.130920   -0.468010
  C     -1.847350   -3.295590   -0.465440
  N     -1.184490   -4.231230   -0.529350
  C     -2.594750   -1.519110   -1.738350
  N     -2.488160   -1.101490   -2.803340
  C     -3.368650   -2.323810    1.933630
  C     -4.171810   -1.548050    2.805590
  C     -4.397840   -1.895340    4.114570
  C     -3.803520   -3.069540    4.589420
  C     -3.003510   -3.839020    3.712720
  C     -2.774040   -3.485430    2.387930
  S     -2.369310   -5.251850    4.500770
  C     -3.176780   -4.795330    5.977290
  C     -3.885050   -3.644820    5.887110
  Br    -3.010460   -5.881430    7.497390
  C     -4.689880   -0.379530    2.069970
  O     -5.406430    0.497480    2.522370
  C     -4.171640   -0.495750    0.705030
  C     -4.447590    0.376130   -0.322660
  C     -5.233980    1.526360   -0.328200
  C     -5.379730    2.291220   -1.512350
  C     -6.240120    3.409550   -1.368030
  N     -6.398930    4.276300   -2.374580
  C     -5.803610    4.008680   -3.510740
  C     -5.009980    2.831750   -3.680660
  N     -4.786700    2.015120   -2.678480
  C     -4.364140    2.500880   -4.981320
  C     -5.969440    4.997250   -4.614840
  C     -6.767070    3.503240   -0.060250
  S     -6.144110    2.258300    0.964190
  C     -7.648080    4.486630    0.446070
  C     -7.666940    4.768920    1.838490
  C     -8.477940    5.805040    2.391330
  N     -8.427220    6.054470    3.709370
  C     -7.651910    5.328480    4.468170
  C     -6.849360    4.308880    3.920880
  N     -6.860590    4.057540    2.640970
  C     -9.369760    6.577760    1.600010
  C     -9.342330    6.316640    0.210690
  C     -8.512330    5.267440   -0.352640
  N     -8.695620    5.149170   -1.666110
  S     -9.723070    6.278930   -2.153950
  N    -10.021720    6.962090   -0.733890
  C    -10.226910    7.512400    2.221810
  C    -11.402570    8.108290    1.715690
  C    -11.989480    9.038280    2.621090
  N    -13.036290    9.789040    2.242350
  C    -13.574050    9.542610    1.072680
  C    -13.104480    8.464860    0.257920
  N    -12.020210    7.803200    0.570450
  C    -13.828850    8.051410   -0.977060
  C    -14.722560   10.396290    0.658630
  C    -11.316040    9.112680    3.853560
  S     -9.941700    8.039880    3.839070
  C    -11.566220    9.917960    4.972370
  C    -12.703210   10.609260    5.301450
  C    -14.058690   10.522100    4.827200
  C    -14.674080    9.404510    4.318250
  C    -15.995050    9.376860    3.837990
  N    -17.049380    9.302070    3.387050
  C    -14.060270    8.138870    4.263450
  N    -13.616350    7.080360    4.226050
  C    -14.733840   11.760560    5.200810
  C    -13.886120   12.494060    6.068710
  C    -12.609860   11.763640    6.230750
  O    -11.670520   12.063380    6.932920
  C    -14.259560   13.694030    6.621770
  C    -15.523560   14.198800    6.294810
  C    -16.356850   13.463490    5.419630
  C    -15.983510   12.243780    4.867070
  S    -17.868420   14.275460    5.143850
  C    -17.369650   15.571080    6.199130
  C    -16.134450   15.407880    6.728400
  Br   -18.524890   17.019270    6.495240
  H     -5.015960   -1.282820    4.751990
  H     -2.157830   -4.108500    1.761940
  H     -4.443540   -3.218600    6.700380
  H     -4.011960    0.172860   -1.294450
  H     -5.116440    2.378920   -5.759080
  H     -3.800690    1.578420   -4.873490
  H     -3.692120    3.301270   -5.287460
  H     -6.600320    5.811220   -4.270600
  H     -6.430210    4.524100   -5.480370
  H     -5.002460    5.392200   -4.923000
  H     -7.645490    5.561290    5.523240
  H     -6.187020    3.708740    4.527550
  H    -14.869320    7.826170   -0.749170
  H    -13.346330    7.172490   -1.393610
  H    -13.810790    8.852790   -1.714500
  H    -14.811320   11.240260    1.337600
  H    -15.646770    9.819230    0.697550
  H    -14.590360   10.755890   -0.359640
  H    -10.725140   10.077540    5.640440
  H    -13.600020   14.228870    7.287040
  H    -16.649530   11.717770    4.203040
  H    -15.670590   16.110160    7.396690

 Total Charge           Charge          ....    0
 Multiplicity           Mult            ....    1
 Number of Electrons    NEL             ....  596
 Basis Dimension        Dim             .... 1216

ORBITAL ENERGIES
----------------

  NO   OCC          E(Eh)            E(eV)
   0   2.0000    -482.883363    -13139.9243
   1   2.0000    -482.881386    -13139.8705
   2   2.0000     -89.033986     -2422.7379
   3   2.0000     -88.977851     -2421.2104
   4   2.0000     -88.974935     -2421.1311
   5   2.0000     -88.972299     -2421.0594
   6   2.0000     -88.970015     -2420.9972
   7   2.0000     -62.561066     -1702.3732
   8   2.0000     -62.559079     -1702.3191
   9   2.0000     -56.395012     -1534.5863
  10   2.0000     -56.393024     -1534.5322
  11   2.0000     -56.392308     -1534.5127
  12   2.0000     -56.392268     -1534.5116
  13   2.0000     -56.390325     -1534.4587
  14   2.0000     -56.390285     -1534.4577
  15   2.0000     -19.215856      -522.8900
  16   2.0000     -19.206548      -522.6367
  17   2.0000     -14.448233      -393.1564
  18   2.0000     -14.445446      -393.0806
  19   2.0000     -14.439309      -392.9136
  20   2.0000     -14.439061      -392.9068
  21   2.0000     -14.419196      -392.3663
  22   2.0000     -14.418228      -392.3399
  23   2.0000     -14.416949      -392.3051
  24   2.0000     -14.416187      -392.2844
  25   2.0000     -14.408673      -392.0799
  26   2.0000     -14.408197      -392.0670
  27   2.0000     -14.407649      -392.0521
  28   2.0000     -14.404061      -391.9544
  29   2.0000     -10.363327      -282.0005
  30   2.0000     -10.357057      -281.8298
  31   2.0000     -10.355869      -281.7975
  32   2.0000     -10.352977      -281.7188
  33   2.0000     -10.342881      -281.4441
  34   2.0000     -10.340458      -281.3782
  35   2.0000     -10.339722      -281.3581
  36   2.0000     -10.339399      -281.3494
  37   2.0000     -10.337060      -281.2857
  38   2.0000     -10.336146      -281.2608
  39   2.0000     -10.334166      -281.2070
  40   2.0000     -10.333533      -281.1897
  41   2.0000     -10.328545      -281.0540
  42   2.0000     -10.327610      -281.0286
  43   2.0000     -10.326855      -281.0080
  44   2.0000     -10.326256      -280.9917
  45   2.0000     -10.325007      -280.9577
  46   2.0000     -10.321959      -280.8748
  47   2.0000     -10.321527      -280.8630
  48   2.0000     -10.321520      -280.8628
  49   2.0000     -10.319427      -280.8059
  50   2.0000     -10.319199      -280.7997
  51   2.0000     -10.318366      -280.7770
  52   2.0000     -10.317008      -280.7401
  53   2.0000     -10.316671      -280.7309
  54   2.0000     -10.315881      -280.7094
  55   2.0000     -10.315489      -280.6987
  56   2.0000     -10.314639      -280.6756
  57   2.0000     -10.312330      -280.6128
  58   2.0000     -10.311236      -280.5830
  59   2.0000     -10.310760      -280.5700
  60   2.0000     -10.310610      -280.5660
  61   2.0000     -10.310445      -280.5615
  62   2.0000     -10.306427      -280.4521
  63   2.0000     -10.306063      -280.4422
  64   2.0000     -10.305964      -280.4395
  65   2.0000     -10.303740      -280.3790
  66   2.0000     -10.303162      -280.3633
  67   2.0000     -10.300803      -280.2991
  68   2.0000     -10.300227      -280.2834
  69   2.0000     -10.300135      -280.2809
  70   2.0000     -10.297784      -280.2169
  71   2.0000     -10.297711      -280.2150
  72   2.0000     -10.294538      -280.1286
  73   2.0000     -10.294093      -280.1165
  74   2.0000     -10.291467      -280.0451
  75   2.0000     -10.288490      -279.9641
  76   2.0000     -10.287889      -279.9477
  77   2.0000     -10.286747      -279.9166
  78   2.0000     -10.284401      -279.8528
  79   2.0000     -10.271869      -279.5118
  80   2.0000     -10.270899      -279.4854
  81   2.0000     -10.270816      -279.4831
  82   2.0000     -10.266963      -279.3783
  83   2.0000      -8.790488      -239.2013
  84   2.0000      -8.788485      -239.1468
  85   2.0000      -8.125317      -221.1011
  86   2.0000      -8.070645      -219.6134
  87   2.0000      -8.068318      -219.5501
  88   2.0000      -8.066272      -219.4944
  89   2.0000      -8.066055      -219.4885
  90   2.0000      -6.626769      -180.3236
  91   2.0000      -6.624750      -180.2686
  92   2.0000      -6.612217      -179.9276
  93   2.0000      -6.612048      -179.9230
  94   2.0000      -6.610231      -179.8735
  95   2.0000      -6.610050      -179.8686
  96   2.0000      -6.096275      -165.8881
  97   2.0000      -6.088523      -165.6771
  98   2.0000      -6.088350      -165.6724
  99   2.0000      -6.039764      -164.3503
 100   2.0000      -6.038004      -164.3024
 101   2.0000      -6.035736      -164.2407
 102   2.0000      -6.035386      -164.2312
 103   2.0000      -6.035259      -164.2277
 104   2.0000      -6.033729      -164.1861
 105   2.0000      -6.033670      -164.1845
 106   2.0000      -6.031494      -164.1253
 107   2.0000      -6.030704      -164.1038
 108   2.0000      -6.029540      -164.0721
 109   2.0000      -6.029281      -164.0651
 110   2.0000      -6.027266      -164.0102
 111   2.0000      -2.742650       -74.6313
 112   2.0000      -2.740629       -74.5763
 113   2.0000      -2.738575       -74.5204
 114   2.0000      -2.738404       -74.5158
 115   2.0000      -2.736510       -74.4642
 116   2.0000      -2.736455       -74.4627
 117   2.0000      -2.726859       -74.2016
 118   2.0000      -2.726849       -74.2013
 119   2.0000      -2.724880       -74.1478
 120   2.0000      -2.724857       -74.1471
 121   2.0000      -1.131737       -30.7961
 122   2.0000      -1.130511       -30.7628
 123   2.0000      -1.121187       -30.5091
 124   2.0000      -1.106124       -30.0992
 125   2.0000      -1.083357       -29.4797
 126   2.0000      -1.082222       -29.4487
 127   2.0000      -1.032843       -28.1051
 128   2.0000      -1.018178       -27.7060
 129   2.0000      -1.015776       -27.6407
 130   2.0000      -1.009019       -27.4568
 131   2.0000      -1.007365       -27.4118
 132   2.0000      -1.005215       -27.3533
 133   2.0000      -1.002073       -27.2678
 134   2.0000      -0.993060       -27.0225
 135   2.0000      -0.989634       -26.9293
 136   2.0000      -0.986253       -26.8373
 137   2.0000      -0.984634       -26.7932
 138   2.0000      -0.984139       -26.7798
 139   2.0000      -0.980740       -26.6873
 140   2.0000      -0.977984       -26.6123
 141   2.0000      -0.961379       -26.1605
 142   2.0000      -0.937773       -25.5181
 143   2.0000      -0.934570       -25.4309
 144   2.0000      -0.907078       -24.6829
 145   2.0000      -0.903768       -24.5928
 146   2.0000      -0.900437       -24.5021
 147   2.0000      -0.896315       -24.3900
 148   2.0000      -0.891390       -24.2560
 149   2.0000      -0.888483       -24.1768
 150   2.0000      -0.881818       -23.9955
 151   2.0000      -0.879757       -23.9394
 152   2.0000      -0.878936       -23.9171
 153   2.0000      -0.877697       -23.8834
 154   2.0000      -0.865998       -23.5650
 155   2.0000      -0.852352       -23.1937
 156   2.0000      -0.831096       -22.6153
 157   2.0000      -0.827231       -22.5101
 158   2.0000      -0.824833       -22.4448
 159   2.0000      -0.821988       -22.3674
 160   2.0000      -0.812132       -22.0992
 161   2.0000      -0.803045       -21.8520
 162   2.0000      -0.801892       -21.8206
 163   2.0000      -0.795296       -21.6411
 164   2.0000      -0.793134       -21.5823
 165   2.0000      -0.770864       -20.9763
 166   2.0000      -0.766290       -20.8518
 167   2.0000      -0.755821       -20.5669
 168   2.0000      -0.752267       -20.4702
 169   2.0000      -0.743584       -20.2340
 170   2.0000      -0.731713       -19.9109
 171   2.0000      -0.718728       -19.5576
 172   2.0000      -0.717461       -19.5231
 173   2.0000      -0.711052       -19.3487
 174   2.0000      -0.707722       -19.2581
 175   2.0000      -0.703496       -19.1431
 176   2.0000      -0.692333       -18.8393
 177   2.0000      -0.686589       -18.6830
 178   2.0000      -0.685073       -18.6418
 179   2.0000      -0.679921       -18.5016
 180   2.0000      -0.676871       -18.4186
 181   2.0000      -0.658570       -17.9206
 182   2.0000      -0.654242       -17.8028
 183   2.0000      -0.653291       -17.7770
 184   2.0000      -0.652934       -17.7672
 185   2.0000      -0.647934       -17.6312
 186   2.0000      -0.643922       -17.5220
 187   2.0000      -0.636618       -17.3233
 188   2.0000      -0.630939       -17.1687
 189   2.0000      -0.627321       -17.0703
 190   2.0000      -0.619861       -16.8673
 191   2.0000      -0.615869       -16.7587
 192   2.0000      -0.612266       -16.6606
 193   2.0000      -0.598895       -16.2968
 194   2.0000      -0.596923       -16.2431
 195   2.0000      -0.588968       -16.0266
 196   2.0000      -0.586077       -15.9480
 197   2.0000      -0.581043       -15.8110
 198   2.0000      -0.577290       -15.7089
 199   2.0000      -0.571262       -15.5448
 200   2.0000      -0.568131       -15.4596
 201   2.0000      -0.567201       -15.4343
 202   2.0000      -0.560163       -15.2428
 203   2.0000      -0.555733       -15.1223
 204   2.0000      -0.554025       -15.0758
 205   2.0000      -0.551305       -15.0018
 206   2.0000      -0.543374       -14.7860
 207   2.0000      -0.541672       -14.7396
 208   2.0000      -0.540628       -14.7112
 209   2.0000      -0.538611       -14.6564
 210   2.0000      -0.536606       -14.6018
 211   2.0000      -0.536403       -14.5963
 212   2.0000      -0.532193       -14.4817
 213   2.0000      -0.531032       -14.4501
 214   2.0000      -0.526335       -14.3223
 215   2.0000      -0.517818       -14.0905
 216   2.0000      -0.516277       -14.0486
 217   2.0000      -0.514584       -14.0026
 218   2.0000      -0.512107       -13.9351
 219   2.0000      -0.509193       -13.8558
 220   2.0000      -0.508177       -13.8282
 221   2.0000      -0.503915       -13.7122
 222   2.0000      -0.503326       -13.6962
 223   2.0000      -0.502405       -13.6711
 224   2.0000      -0.499822       -13.6008
 225   2.0000      -0.497901       -13.5486
 226   2.0000      -0.496502       -13.5105
 227   2.0000      -0.495103       -13.4724
 228   2.0000      -0.493272       -13.4226
 229   2.0000      -0.492807       -13.4100
 230   2.0000      -0.489370       -13.3164
 231   2.0000      -0.488941       -13.3048
 232   2.0000      -0.484562       -13.1856
 233   2.0000      -0.484171       -13.1750
 234   2.0000      -0.480537       -13.0761
 235   2.0000      -0.479729       -13.0541
 236   2.0000      -0.476037       -12.9536
 237   2.0000      -0.475126       -12.9288
 238   2.0000      -0.473112       -12.8740
 239   2.0000      -0.468758       -12.7555
 240   2.0000      -0.468493       -12.7484
 241   2.0000      -0.464018       -12.6266
 242   2.0000      -0.460801       -12.5390
 243   2.0000      -0.458517       -12.4769
 244   2.0000      -0.457688       -12.4543
 245   2.0000      -0.455207       -12.3868
 246   2.0000      -0.451821       -12.2947
 247   2.0000      -0.446378       -12.1466
 248   2.0000      -0.444770       -12.1028
 249   2.0000      -0.442924       -12.0526
 250   2.0000      -0.441758       -12.0208
 251   2.0000      -0.441018       -12.0007
 252   2.0000      -0.438896       -11.9430
 253   2.0000      -0.437411       -11.9026
 254   2.0000      -0.436462       -11.8767
 255   2.0000      -0.435242       -11.8435
 256   2.0000      -0.434596       -11.8260
 257   2.0000      -0.432361       -11.7651
 258   2.0000      -0.430862       -11.7243
 259   2.0000      -0.423306       -11.5187
 260   2.0000      -0.419796       -11.4232
 261   2.0000      -0.418951       -11.4002
 262   2.0000      -0.416630       -11.3371
 263   2.0000      -0.414032       -11.2664
 264   2.0000      -0.413234       -11.2447
 265   2.0000      -0.409452       -11.1418
 266   2.0000      -0.408506       -11.1160
 267   2.0000      -0.404445       -11.0055
 268   2.0000      -0.402845       -10.9620
 269   2.0000      -0.400454       -10.8969
 270   2.0000      -0.397755       -10.8235
 271   2.0000      -0.395457       -10.7609
 272   2.0000      -0.385008       -10.4766
 273   2.0000      -0.382443       -10.4068
 274   2.0000      -0.378326       -10.2948
 275   2.0000      -0.373716       -10.1693
 276   2.0000      -0.372704       -10.1418
 277   2.0000      -0.371047       -10.0967
 278   2.0000      -0.370732       -10.0881
 279   2.0000      -0.364329        -9.9139
 280   2.0000      -0.355597        -9.6763
 281   2.0000      -0.347220        -9.4483
 282   2.0000      -0.345310        -9.3964
 283   2.0000      -0.342111        -9.3093
 284   2.0000      -0.339091        -9.2271
 285   2.0000      -0.329687        -8.9712
 286   2.0000      -0.325604        -8.8601
 287   2.0000      -0.316573        -8.6144
 288   2.0000      -0.315743        -8.5918
 289   2.0000      -0.312839        -8.5128
 290   2.0000      -0.310497        -8.4490
 291   2.0000      -0.308689        -8.3999
 292   2.0000      -0.306239        -8.3332
 293   2.0000      -0.304481        -8.2853
 294   2.0000      -0.290594        -7.9075
 295   2.0000      -0.282736        -7.6936
 296   2.0000      -0.277062        -7.5393
 297   2.0000      -0.236874        -6.4457
 298   0.0000      -0.129444        -3.5223
 299   0.0000      -0.083671        -2.2768
 300   0.0000      -0.074042        -2.0148
 301   0.0000      -0.056550        -1.5388
 302   0.0000      -0.051579        -1.4035

MULLIKEN ATOMIC CHARGES
-----------------------
   0 C :    0.333405
   1 C :   -0.357366
   2 C :   -0.190584
   3 N :    0.144866
   4 C :   -0.197996
   5 N :    0.157675
   6 C :    0.012498
   7 C :   -0.009849
   8 C :   -0.078421
   9 C :    0.118961
  10 C :   -0.091054
  11 C :   -0.025315
  12 S :    0.184730
  13 C :   -0.123166
  14 C :    0.037331
  15 Br:    0.020476
  16 C :    0.161803
  17 O :   -0.188898
  18 C :   -0.088021
  19 C :   -0.062952
  20 C :   -0.106950
  21 C :   -0.000960
  22 C :    0.094287
  23 N :    0.051363
  24 C :   -0.182569
  25 C :   -0.167491
  26 N :    0.026589
  27 C :    0.125201
  28 C :    0.130820
  29 C :   -0.267002
  30 S :    0.279631
  31 C :    0.147180
  32 C :   -0.053524
  33 C :   -0.052625
  34 N :   -0.066689
  35 C :    0.050514
  36 C :    0.043042
  37 N :   -0.040817
  38 C :    0.171914
  39 C :   -0.022841
  40 C :   -0.023581
  41 N :   -0.249454
  42 S :    0.520985
  43 N :   -0.250806
  44 C :   -0.259305
  45 C :    0.069292
  46 C :   -0.005917
  47 N :    0.003053
  48 C :   -0.154204
  49 C :   -0.175136
  50 N :    0.053629
  51 C :    0.127645
  52 C :    0.127885
  53 C :   -0.124390
  54 S :    0.235317
  55 C :    0.051138
  56 C :   -0.134690
  57 C :    0.321981
  58 C :   -0.337280
  59 C :   -0.186146
  60 N :    0.134613
  61 C :   -0.216056
  62 N :    0.163544
  63 C :    0.015339
  64 C :    0.001060
  65 C :    0.130635
  66 O :   -0.149267
  67 C :   -0.077596
  68 C :    0.115614
  69 C :   -0.084669
  70 C :   -0.038697
  71 S :    0.177015
  72 C :   -0.124001
  73 C :    0.036969
  74 Br:    0.016836
  75 H :   -0.016244
  76 H :   -0.006845
  77 H :   -0.006063
  78 H :    0.021942
  79 H :    0.025277
  80 H :    0.048144
  81 H :    0.025487
  82 H :    0.018132
  83 H :    0.024519
  84 H :    0.026741
  85 H :    0.024215
  86 H :    0.027631
  87 H :    0.031782
  88 H :    0.020397
  89 H :    0.025912
  90 H :    0.025656
  91 H :    0.047736
  92 H :    0.020770
  93 H :    0.012777
  94 H :   -0.011667
  95 H :   -0.009726
  96 H :   -0.005126
Sum of atomic charges:    0.0000000

LOEWDIN ATOMIC CHARGES
----------------------
   0 C :    0.074767
   1 C :   -0.144673
   2 C :   -0.017792
   3 N :   -0.060604
   4 C :   -0.023623
   5 N :   -0.050403
   6 C :   -0.018857
   7 C :   -0.050348
   8 C :    0.018037
   9 C :   -0.034917
  10 C :   -0.144850
  11 C :   -0.010862
  12 S :    0.431725
  13 C :   -0.273084
  14 C :   -0.071202
  15 Br:    0.134318
  16 C :    0.082377
  17 O :   -0.175895
  18 C :   -0.111561
  19 C :    0.059656
  20 C :   -0.206665
  21 C :   -0.026171
  22 C :   -0.046315
  23 N :   -0.025151
  24 C :   -0.005363
  25 C :    0.011565
  26 N :   -0.045158
  27 C :   -0.052153
  28 C :   -0.052500
  29 C :   -0.159721
  30 S :    0.607594
  31 C :   -0.038722
  32 C :   -0.010700
  33 C :   -0.012021
  34 N :   -0.047748
  35 C :    0.025127
  36 C :    0.022698
  37 N :   -0.037915
  38 C :   -0.038173
  39 C :   -0.039945
  40 C :   -0.040873
  41 N :   -0.260639
  42 S :    0.660788
  43 N :   -0.260977
  44 C :   -0.149253
  45 C :   -0.034697
  46 C :   -0.034036
  47 N :   -0.048463
  48 C :    0.018824
  49 C :   -0.003041
  50 N :   -0.015194
  51 C :   -0.052225
  52 C :   -0.053231
  53 C :   -0.198226
  54 S :    0.555268
  55 C :    0.040452
  56 C :   -0.087708
  57 C :    0.073536
  58 C :   -0.142506
  59 C :   -0.016176
  60 N :   -0.072250
  61 C :   -0.018647
  62 N :   -0.062537
  63 C :   -0.011553
  64 C :   -0.053137
  65 C :    0.082701
  66 O :   -0.148831
  67 C :    0.020983
  68 C :   -0.037368
  69 C :   -0.143369
  70 C :   -0.019788
  71 S :    0.426046
  72 C :   -0.274988
  73 C :   -0.070005
  74 Br:    0.131464
  75 H :    0.038428
  76 H :    0.040895
  77 H :    0.037723
  78 H :    0.051317
  79 H :    0.038468
  80 H :    0.046827
  81 H :    0.038789
  82 H :    0.035236
  83 H :    0.037675
  84 H :    0.037663
  85 H :    0.032187
  86 H :    0.033674
  87 H :    0.040082
  88 H :    0.036453
  89 H :    0.037863
  90 H :    0.038415
  91 H :    0.047391
  92 H :    0.035900
  93 H :    0.043009
  94 H :    0.040123
  95 H :    0.038693
  96 H :    0.038078

  Mayer bond orders larger than 0.100000
B(  0-C ,  1-C ) :   1.6117 B(  0-C ,  6-C ) :   0.9910 B(  0-C , 18-C ) :   1.0931
B(  1-C ,  2-C ) :   1.1491 B(  1-C ,  4-C ) :   1.1459 B(  2-C ,  3-N ) :   2.9647
B(  4-C ,  5-N ) :   2.9699 B(  6-C ,  7-C ) :   1.2762 B(  6-C , 11-C ) :   1.4169
B(  7-C ,  8-C ) :   1.4234 B(  7-C , 16-C ) :   0.9537 B(  8-C ,  9-C ) :   1.2404
B(  8-C , 75-H ) :   1.0172 B(  9-C , 10-C ) :   1.3106 B(  9-C , 14-C ) :   1.1631
B( 10-C , 11-C ) :   1.3219 B( 10-C , 12-S ) :   1.0864 B( 11-C , 76-H ) :   0.9800
B( 12-S , 13-C ) :   1.0868 B( 13-C , 14-C ) :   1.6185 B( 13-C , 15-Br) :   1.0168
B( 14-C , 77-H ) :   1.0002 B( 16-C , 17-O ) :   2.1249 B( 16-C , 18-C ) :   0.9866
B( 18-C , 19-C ) :   1.4281 B( 19-C , 20-C ) :   1.3395 B( 19-C , 78-H ) :   0.9356
B( 20-C , 21-C ) :   1.2397 B( 20-C , 29-C ) :   0.1215 B( 20-C , 30-S ) :   1.0797
B( 21-C , 22-C ) :   1.2653 B( 21-C , 26-N ) :   1.4386 B( 22-C , 23-N ) :   1.4332
B( 22-C , 29-C ) :   1.2174 B( 23-N , 24-C ) :   1.7024 B( 24-C , 25-C ) :   1.1414
B( 24-C , 28-C ) :   1.0939 B( 25-C , 26-N ) :   1.7017 B( 25-C , 27-C ) :   1.0968
B( 27-C , 79-H ) :   0.9393 B( 27-C , 80-H ) :   0.9403 B( 27-C , 81-H ) :   0.9385
B( 28-C , 82-H ) :   0.9424 B( 28-C , 83-H ) :   0.9395 B( 28-C , 84-H ) :   0.9436
B( 29-C , 30-S ) :   1.2080 B( 29-C , 31-C ) :   1.1907 B( 31-C , 32-C ) :   1.2520
B( 31-C , 38-C ) :   0.1263 B( 31-C , 40-C ) :   1.2045 B( 32-C , 33-C ) :   1.1608
B( 32-C , 37-N ) :   1.4310 B( 33-C , 34-N ) :   1.4121 B( 33-C , 38-C ) :   1.2471
B( 34-N , 35-C ) :   1.6475 B( 35-C , 36-C ) :   1.2041 B( 35-C , 85-H ) :   0.9740
B( 36-C , 37-N ) :   1.6586 B( 36-C , 86-H ) :   0.9759 B( 38-C , 39-C ) :   1.1993
B( 38-C , 44-C ) :   1.1840 B( 39-C , 40-C ) :   1.0789 B( 39-C , 43-N ) :   1.5282
B( 40-C , 41-N ) :   1.5268 B( 41-N , 42-S ) :   1.2835 B( 41-N , 43-N ) :   0.1539
B( 42-S , 43-N ) :   1.2805 B( 44-C , 45-C ) :   1.2709 B( 44-C , 53-C ) :   0.1171
B( 44-C , 54-S ) :   1.2316 B( 45-C , 46-C ) :   1.2467 B( 45-C , 50-N ) :   1.4328
B( 46-C , 47-N ) :   1.4117 B( 46-C , 53-C ) :   1.3067 B( 47-N , 48-C ) :   1.6681
B( 48-C , 49-C ) :   1.1306 B( 48-C , 52-C ) :   1.1000 B( 49-C , 50-N ) :   1.7029
B( 49-C , 51-C ) :   1.0958 B( 51-C , 87-H ) :   0.9433 B( 51-C , 88-H ) :   0.9421
B( 51-C , 89-H ) :   0.9393 B( 52-C , 90-H ) :   0.9414 B( 52-C , 91-H ) :   0.9313
B( 52-C , 92-H ) :   0.9386 B( 53-C , 54-S ) :   1.0749 B( 53-C , 55-C ) :   1.1991
B( 55-C , 56-C ) :   1.5953 B( 55-C , 93-H ) :   0.9295 B( 56-C , 57-C ) :   1.0825
B( 56-C , 65-C ) :   0.9510 B( 57-C , 58-C ) :   1.6032 B( 57-C , 63-C ) :   1.0158
B( 58-C , 59-C ) :   1.1603 B( 58-C , 61-C ) :   1.1720 B( 59-C , 60-N ) :   2.9379
B( 61-C , 62-N ) :   3.0038 B( 63-C , 64-C ) :   1.2727 B( 63-C , 70-C ) :   1.4182
B( 64-C , 65-C ) :   0.9166 B( 64-C , 67-C ) :   1.4282 B( 65-C , 66-O ) :   2.2638
B( 67-C , 68-C ) :   1.2480 B( 67-C , 94-H ) :   1.0162 B( 68-C , 69-C ) :   1.3133
B( 68-C , 73-C ) :   1.1602 B( 69-C , 70-C ) :   1.3180 B( 69-C , 71-S ) :   1.0831
B( 70-C , 95-H ) :   0.9843 B( 71-S , 72-C ) :   1.0831 B( 72-C , 73-C ) :   1.6231
B( 72-C , 74-Br) :   1.0145 B( 73-C , 96-H ) :   1.0007

-----------------------------------------------------------------------------
         ABSORPTION SPECTRUM VIA TRANSITION ELECTRIC DIPOLE MOMENTS
-----------------------------------------------------------------------------
State   Energy  Wavelength   fosc         T2         TX        TY        TZ
        (cm-1)    (nm)                  (au**2)     (au)      (au)      (au)
-----------------------------------------------------------------------------
   0    8982.7   1113.3   1.056400275  38.71672  -3.95487   4.50486   1.66792
   1   17413.0    574.3   0.033149787   0.62673   0.20713   0.43429  -0.62867
   2   18125.9    551.7   0.017520051   0.31821   0.05156   0.55324  -0.09737
   3   18785.4    532.3   0.125504838   2.19945   0.66790   0.01079  -1.32410
   4   19340.6    517.0   0.391514207   6.66427  -1.48541   2.10367  -0.18005
   5   20031.4    499.2   0.034262332   0.56309   0.57208  -0.41142  -0.25797
   6   20802.0    480.7   0.052747231   0.83478  -0.42374   0.80932  -0.01482
   7   21707.5    460.7   0.005970923   0.09055   0.24991  -0.10046   0.13419
   8   23341.3    428.4   0.027022876   0.38114   0.08953   0.07943  -0.60565
   9   23857.6    419.2   0.019749241   0.27252   0.35701  -0.06241   0.37572
  10   24220.0    412.9   0.011703863   0.15909   0.21174  -0.00700  -0.33794
  11   24948.3    400.8   0.059612986   0.78664   0.04672   0.50806  -0.72549
  12   25380.2    394.0   0.031216724   0.40492  -0.36140  -0.30677  -0.42451
  13   25903.8    386.0   0.053695558   0.68242   0.30343  -0.56000   0.52607
  14   26292.2    380.3   0.030351293   0.38004  -0.41180   0.36800   0.27393
  15   26347.4    379.5   0.053703015   0.67102   0.24688  -0.59001  -0.51182
  16   27040.4    369.8   0.020462014   0.24912  -0.15806   0.45893  -0.11631
  17   27380.1    365.2   0.053268847   0.64049   0.16195  -0.64221   0.44926
  18   27595.4    362.4   0.093185082   1.11169   0.58707  -0.86191   0.15542
  19   27696.0    361.1   0.142906645   1.69868  -0.65312   1.10729   0.21454
  20   28235.9    354.2   0.031646735   0.36898   0.27272  -0.29938  -0.45274
  21   28543.6    350.3   0.045261627   0.52203  -0.43622   0.02083   0.57560
  22   28689.3    348.6   0.018123282   0.20797   0.01960  -0.16123  -0.42613
  23   29405.6    340.1   0.019766151   0.22129  -0.13834   0.31035   0.32533
  24   29545.0    338.5   0.238093512   2.65301  -0.48774   0.61683  -1.42641
  25   29715.0    336.5   0.018534922   0.20535  -0.10069  -0.43040   0.09982
  26   30465.5    328.2   0.106871465   1.15486   0.21967  -0.76797  -0.71891
  27   31212.6    320.4   0.615371256   6.49056   0.00941  -1.73078   1.86946
  28   31331.3    319.2   0.318450413   3.34610   0.45879  -1.17437  -1.32532
  29   31606.9    316.4   0.096602118   1.00619   0.41063  -0.78876  -0.46415
  30   31872.7    313.7   0.104690043   1.08134  -0.31663   0.36251   0.92177
  31   32094.6    311.6   0.054432491   0.55834  -0.16831  -0.04949   0.72634
  32   32343.4    309.2   0.016303802   0.16595  -0.06689   0.28469   0.28360
  33   32449.5    308.2   0.043373853   0.44004   0.51779  -0.36899   0.18917
  34   32579.2    306.9   0.027185735   0.27471  -0.28582   0.39264  -0.19712
  35   32888.2    304.1   0.008793056   0.08802   0.03889  -0.13804   0.25971
  36   33206.6    301.1   0.003159868   0.03133  -0.09399  -0.09522  -0.11588
  37   33518.6    298.3   0.014515393   0.14257   0.31706   0.15047   0.13928
  38   33887.5    295.1   0.034242862   0.33266  -0.44670  -0.24022  -0.27462
  39   34131.5    293.0   0.052097120   0.50250  -0.12429  -0.47074   0.51522
  40   34543.5    289.5   0.030716732   0.29274  -0.09660   0.45187  -0.28147
  41   34565.4    289.3   0.045008843   0.42868  -0.00639  -0.12920   0.64183
  42   35146.7    284.5   0.028520052   0.26714   0.21325  -0.21965   0.41644
  43   35202.1    284.1   0.061962627   0.57948   0.23617   0.16910  -0.70364
  44   35320.7    283.1   0.032090790   0.29911   0.37119  -0.40073   0.02725
  45   35448.7    282.1   0.081120475   0.75337  -0.60579   0.52733   0.32910
  46   35610.0    280.8   0.072546125   0.67068   0.73987   0.29849   0.18490
  47   35948.8    278.2   0.031330686   0.28692  -0.51905   0.12509   0.04313
  48   36035.7    277.5   0.582491163   5.32148   0.09086  -0.52090  -2.24541
  49   36187.6    276.3   0.074862974   0.68106  -0.38564  -0.60647   0.40563
  50   36491.4    274.0   0.002226974   0.02009  -0.02659  -0.10443   0.09208
  51   36829.2    271.5   0.074340563   0.66452   0.33906  -0.73274   0.11248
  52   37051.2    269.9   0.003226363   0.02867  -0.12361   0.08798   0.07515
  53   37472.5    266.9   0.137304616   1.20628  -0.80498   0.74623   0.03779
  54   37674.6    265.4   0.044206065   0.38629   0.01309  -0.25990  -0.56442
  55   37888.7    263.9   0.032138889   0.27925  -0.07509   0.16537  -0.49625
  56   38113.7    262.4   0.031478944   0.27190  -0.17212   0.44072  -0.21919
  57   38160.2    262.1   0.085701523   0.73936   0.56164  -0.58682  -0.28206
  58   38512.0    259.7   0.017351324   0.14832   0.21120   0.06871   0.31464
  59   38576.4    259.2   0.031628493   0.26992   0.43100  -0.28156  -0.06985
  60   38873.1    257.2   0.006384502   0.05407  -0.21857  -0.07618  -0.02220
  61   39064.5    256.0   0.124062029   1.04552  -0.53188   0.86550   0.11632
  62   39196.0    255.1   0.058759420   0.49353   0.21494  -0.65013   0.15704
  63   39349.0    254.1   0.016911901   0.14149   0.06981  -0.13821  -0.34281
  64   39394.0    253.8   0.010431367   0.08717   0.04872   0.23952  -0.16562
  65   39570.3    252.7   0.016145680   0.13433  -0.23499  -0.08654   0.26761
  66   39587.0    252.6   0.150051252   1.24785  -0.34820   0.63675  -0.84921
  67   39852.8    250.9   0.006505211   0.05374   0.11963   0.17127   0.10046
  68   39887.0    250.7   0.038224734   0.31549   0.28024   0.00820  -0.48671
  69   40037.0    249.8   0.001241221   0.01021   0.02893  -0.05833  -0.07724

FINAL SINGLE POINT ENERGY    -10013.016219500418

DIPOLE MOMENT
-------------
                                X             Y             Z
Electronic contribution:    -28.08841      -7.00672     122.54164
Nuclear contribution   :     27.79676       9.23284    -122.64153
                        -----------------------------------------
Total Dipole Moment    :     -0.29165       2.22612      -0.09990
                        -----------------------------------------
Magnitude (a.u.)       :      2.24737
Magnitude (Debye)      :      5.71236

Rotational constants in cm-1:     0.001233     0.000194     0.000172
Rotational constants in MHz :    36.953435     5.807747     5.155630

                             ****ORCA TERMINATED NORMALLY****
TOTAL RUN TIME: 0 days 0 hours 11 minutes 58 seconds 184 msec
