                         Program Version 4.2.0 -  RELEASE  -
|  1> # ORCA input file
|  2> # SCF done       -167.714075629590          0.000968237442
|  3> ! CAM-B3LYP def2-SVP def2/J RIJCOSX Grid4 TightSCF
|  4> %maxcore 5000
|  5> %tddft
|  6>     Mode sTDDFT
|  7>     Ethresh 5.0
|  8>     maxcore 5000
|  9> end
| 10>
| 11> %pal
| 12>   nprocs 6
| 13>   end
| 14> * xyz 0 1
| 15>    C       -2.43248         1.43072        -3.37776
| 16>    C       -2.00600         0.12769        -3.33910
| 17>    C       -1.05816        -0.42071        -4.22875
| 18>    N       -0.29380        -0.92789        -4.91917
| 19>    C       -2.44467        -0.86037        -2.43303
| 20>    N       -2.74620        -1.72581        -1.74007
| 21>    C       -1.98164         2.43304        -4.33903
| 22>    C       -2.68321         3.64018        -4.10043
| 23>    C       -2.48307         4.77650        -4.84518
| 24>    C       -1.53905         4.72202        -5.87609
| 25>    C       -0.83837         3.51419        -6.10506
| 26>    C       -1.04415         2.36407        -5.35272
| 27>    S        0.28524         3.66721        -7.42165
| 28>    C       -0.19552         5.32806        -7.64385
| 29>    C       -1.14817         5.74887        -6.77804
| 30>   Br        0.60531         6.35050        -8.99671
| 31>    C       -3.60123         3.44890        -2.96307
| 32>    O       -4.35566         4.28547        -2.50051
| 33>    C       -3.40944         2.06500        -2.51204
| 34>    C       -4.02974         1.48207        -1.43751
| 35>    C       -4.97585         2.00470        -0.54186
| 36>    C       -5.48665         1.25287         0.51805
| 37>    C       -6.39763         1.92264         1.32180
| 38>    C       -7.10586         1.27217         2.46097
| 39>    C       -6.60565         3.22440         0.86858
| 40>    S       -5.69055         3.59199        -0.55384
| 41>    C       -7.45666         4.25243         1.40096
| 42>    C       -7.55785         4.56113         2.77580
| 43>    C       -8.40720         5.61446         3.26678
| 44>    N       -8.46156         5.85113         4.59513
| 45>    C       -7.71487         5.14591         5.39466
| 46>    C       -6.83625         4.15699         4.90386
| 47>    N       -6.77206         3.87581         3.63593
| 48>    C       -9.17769         6.42063         2.39049
| 49>    C       -9.04097         6.12976         1.01868
| 50>    C       -8.19520         5.07187         0.53163
| 51>    N       -8.25092         4.97053        -0.80106
| 52>    S       -9.23911         6.08475        -1.37361
| 53>    N       -9.66279         6.76105         0.01897
| 54>    C      -10.06371         7.45479         2.80949
| 55>    C      -10.41336         7.85244         4.09005
| 56>    C      -11.34218         8.88731         4.13244
| 57>    C      -11.89459         9.45792         5.39194
| 58>    C      -11.74794         9.28821         2.85760
| 59>    S      -10.91294         8.38671         1.61937
| 60>    C      -12.64565        10.33268         2.55297
| 61>    C      -13.31049        10.56573         1.38529
| 62>    C      -13.55219         9.72285         0.23458
| 63>    C      -13.73084         8.36364         0.25431
| 64>    C      -13.99682         7.58757        -0.88903
| 65>    N      -14.18857         6.90804        -1.79466
| 66>    C      -13.74706         7.61189         1.44775
| 67>    N      -13.83867         6.98058         2.40229
| 68>    C      -13.87045        10.60115        -0.88483
| 69>    C      -14.06975        11.91375        -0.38602
| 70>    C      -13.80705        11.92836         1.06957
| 71>    O      -13.91975        12.85964         1.83437
| 72>    C      -14.44036        12.95874        -1.19680
| 73>    C      -14.61076        12.69862        -2.56110
| 74>    C      -14.39366        11.38808        -3.04944
| 75>    C      -14.02777        10.32775        -2.22941
| 76>    S      -14.65116        11.29423        -4.76519
| 77>    C      -15.04873        12.99181        -4.80230
| 78>    C      -14.98880        13.60000        -3.59422
| 79>   Br      -15.50323        13.79928        -6.43299
| 80>    H       -3.03546         5.67941        -4.63782
| 81>    H       -0.48275         1.47062        -5.56772
| 82>    H       -1.55899         6.74190        -6.77408
| 83>    H       -3.75738         0.45766        -1.21329
| 84>    H       -5.19118         0.23079         0.68280
| 85>    H       -7.21453         0.20716         2.26923
| 86>    H       -8.08887         1.71128         2.60931
| 87>    H       -6.53601         1.40368         3.37872
| 88>    H       -7.79516         5.36157         6.45155
| 89>    H       -6.18449         3.59907         5.56253
| 90>    H       -9.99204         7.38236         4.95868
| 91>    H      -11.34240         9.08151         6.24820
| 92>    H      -12.94148         9.17773         5.50149
| 93>    H      -11.83876        10.54540         5.38319
| 94>    H      -12.76556        11.10083         3.31147
| 95>    H      -14.59718        13.94657        -0.79290
| 96>    H      -13.86928         9.34483        -2.64159
| 97>    H      -15.20243        14.64121        -3.43555
| 98> *
| 99>
|100>                          ****END OF INPUT****

CARTESIAN COORDINATES (ANGSTROEM)
---------------------------------
  C     -2.432480    1.430720   -3.377760
  C     -2.006000    0.127690   -3.339100
  C     -1.058160   -0.420710   -4.228750
  N     -0.293800   -0.927890   -4.919170
  C     -2.444670   -0.860370   -2.433030
  N     -2.746200   -1.725810   -1.740070
  C     -1.981640    2.433040   -4.339030
  C     -2.683210    3.640180   -4.100430
  C     -2.483070    4.776500   -4.845180
  C     -1.539050    4.722020   -5.876090
  C     -0.838370    3.514190   -6.105060
  C     -1.044150    2.364070   -5.352720
  S      0.285240    3.667210   -7.421650
  C     -0.195520    5.328060   -7.643850
  C     -1.148170    5.748870   -6.778040
  Br     0.605310    6.350500   -8.996710
  C     -3.601230    3.448900   -2.963070
  O     -4.355660    4.285470   -2.500510
  C     -3.409440    2.065000   -2.512040
  C     -4.029740    1.482070   -1.437510
  C     -4.975850    2.004700   -0.541860
  C     -5.486650    1.252870    0.518050
  C     -6.397630    1.922640    1.321800
  C     -7.105860    1.272170    2.460970
  C     -6.605650    3.224400    0.868580
  S     -5.690550    3.591990   -0.553840
  C     -7.456660    4.252430    1.400960
  C     -7.557850    4.561130    2.775800
  C     -8.407200    5.614460    3.266780
  N     -8.461560    5.851130    4.595130
  C     -7.714870    5.145910    5.394660
  C     -6.836250    4.156990    4.903860
  N     -6.772060    3.875810    3.635930
  C     -9.177690    6.420630    2.390490
  C     -9.040970    6.129760    1.018680
  C     -8.195200    5.071870    0.531630
  N     -8.250920    4.970530   -0.801060
  S     -9.239110    6.084750   -1.373610
  N     -9.662790    6.761050    0.018970
  C    -10.063710    7.454790    2.809490
  C    -10.413360    7.852440    4.090050
  C    -11.342180    8.887310    4.132440
  C    -11.894590    9.457920    5.391940
  C    -11.747940    9.288210    2.857600
  S    -10.912940    8.386710    1.619370
  C    -12.645650   10.332680    2.552970
  C    -13.310490   10.565730    1.385290
  C    -13.552190    9.722850    0.234580
  C    -13.730840    8.363640    0.254310
  C    -13.996820    7.587570   -0.889030
  N    -14.188570    6.908040   -1.794660
  C    -13.747060    7.611890    1.447750
  N    -13.838670    6.980580    2.402290
  C    -13.870450   10.601150   -0.884830
  C    -14.069750   11.913750   -0.386020
  C    -13.807050   11.928360    1.069570
  O    -13.919750   12.859640    1.834370
  C    -14.440360   12.958740   -1.196800
  C    -14.610760   12.698620   -2.561100
  C    -14.393660   11.388080   -3.049440
  C    -14.027770   10.327750   -2.229410
  S    -14.651160   11.294230   -4.765190
  C    -15.048730   12.991810   -4.802300
  C    -14.988800   13.600000   -3.594220
  Br   -15.503230   13.799280   -6.432990
  H     -3.035460    5.679410   -4.637820
  H     -0.482750    1.470620   -5.567720
  H     -1.558990    6.741900   -6.774080
  H     -3.757380    0.457660   -1.213290
  H     -5.191180    0.230790    0.682800
  H     -7.214530    0.207160    2.269230
  H     -8.088870    1.711280    2.609310
  H     -6.536010    1.403680    3.378720
  H     -7.795160    5.361570    6.451550
  H     -6.184490    3.599070    5.562530
  H     -9.992040    7.382360    4.958680
  H    -11.342400    9.081510    6.248200
  H    -12.941480    9.177730    5.501490
  H    -11.838760   10.545400    5.383190
  H    -12.765560   11.100830    3.311470
  H    -14.597180   13.946570   -0.792900
  H    -13.869280    9.344830   -2.641590
  H    -15.202430   14.641210   -3.435550

 Total Charge           Charge          ....    0
 Multiplicity           Mult            ....    1
 Number of Electrons    NEL             ....  528
 Basis Dimension        Dim             .... 1056

ORBITAL ENERGIES
----------------

  NO   OCC          E(Eh)            E(eV)
   0   2.0000    -482.885656    -13139.9867
   1   2.0000    -482.884049    -13139.9430
   2   2.0000     -89.046178     -2423.0697
   3   2.0000     -88.975471     -2421.1457
   4   2.0000     -88.973520     -2421.0926
   5   2.0000     -88.958814     -2420.6924
   6   2.0000     -88.956871     -2420.6395
   7   2.0000     -62.563384     -1702.4362
   8   2.0000     -62.561777     -1702.3925
   9   2.0000     -56.397331     -1534.6494
  10   2.0000     -56.395722     -1534.6056
  11   2.0000     -56.394620     -1534.5756
  12   2.0000     -56.394583     -1534.5746
  13   2.0000     -56.393015     -1534.5319
  14   2.0000     -56.392979     -1534.5310
  15   2.0000     -19.219410      -522.9867
  16   2.0000     -19.209205      -522.7090
  17   2.0000     -14.452151      -393.2630
  18   2.0000     -14.451749      -393.2521
  19   2.0000     -14.441315      -392.9682
  20   2.0000     -14.440879      -392.9563
  21   2.0000     -14.415808      -392.2741
  22   2.0000     -14.412892      -392.1947
  23   2.0000     -14.412262      -392.1776
  24   2.0000     -14.406338      -392.0164
  25   2.0000     -10.367650      -282.1181
  26   2.0000     -10.360814      -281.9321
  27   2.0000     -10.358877      -281.8794
  28   2.0000     -10.356639      -281.8185
  29   2.0000     -10.340738      -281.3858
  30   2.0000     -10.340690      -281.3845
  31   2.0000     -10.339999      -281.3657
  32   2.0000     -10.339846      -281.3615
  33   2.0000     -10.339536      -281.3531
  34   2.0000     -10.339233      -281.3448
  35   2.0000     -10.338529      -281.3257
  36   2.0000     -10.336568      -281.2723
  37   2.0000     -10.336303      -281.2651
  38   2.0000     -10.335543      -281.2444
  39   2.0000     -10.325135      -280.9612
  40   2.0000     -10.323420      -280.9145
  41   2.0000     -10.320839      -280.8443
  42   2.0000     -10.318901      -280.7916
  43   2.0000     -10.317513      -280.7538
  44   2.0000     -10.316790      -280.7341
  45   2.0000     -10.316259      -280.7197
  46   2.0000     -10.315933      -280.7108
  47   2.0000     -10.315302      -280.6936
  48   2.0000     -10.314018      -280.6587
  49   2.0000     -10.309340      -280.5314
  50   2.0000     -10.309226      -280.5283
  51   2.0000     -10.309072      -280.5241
  52   2.0000     -10.307286      -280.4755
  53   2.0000     -10.307210      -280.4734
  54   2.0000     -10.305314      -280.4218
  55   2.0000     -10.304787      -280.4075
  56   2.0000     -10.304630      -280.4032
  57   2.0000     -10.302661      -280.3497
  58   2.0000     -10.300879      -280.3012
  59   2.0000     -10.299041      -280.2511
  60   2.0000     -10.298328      -280.2317
  61   2.0000     -10.296751      -280.1888
  62   2.0000     -10.295023      -280.1418
  63   2.0000     -10.294736      -280.1340
  64   2.0000     -10.291697      -280.0513
  65   2.0000     -10.291529      -280.0467
  66   2.0000     -10.289436      -279.9898
  67   2.0000     -10.289425      -279.9895
  68   2.0000     -10.286633      -279.9135
  69   2.0000     -10.285160      -279.8734
  70   2.0000     -10.272711      -279.5347
  71   2.0000     -10.271655      -279.5059
  72   2.0000     -10.265290      -279.3327
  73   2.0000      -8.792826      -239.2650
  74   2.0000      -8.791218      -239.2212
  75   2.0000      -8.137179      -221.4239
  76   2.0000      -8.071419      -219.6345
  77   2.0000      -8.069521      -219.5828
  78   2.0000      -8.052219      -219.1120
  79   2.0000      -8.050609      -219.0682
  80   2.0000      -6.629132      -180.3879
  81   2.0000      -6.627494      -180.3433
  82   2.0000      -6.614543      -179.9909
  83   2.0000      -6.614371      -179.9862
  84   2.0000      -6.612961      -179.9478
  85   2.0000      -6.612775      -179.9428
  86   2.0000      -6.108090      -166.2096
  87   2.0000      -6.100404      -166.0004
  88   2.0000      -6.100235      -165.9958
  89   2.0000      -6.041098      -164.3866
  90   2.0000      -6.039224      -164.3356
  91   2.0000      -6.036833      -164.2706
  92   2.0000      -6.034951      -164.2194
  93   2.0000      -6.032666      -164.1572
  94   2.0000      -6.030719      -164.1042
  95   2.0000      -6.021545      -163.8546
  96   2.0000      -6.020091      -163.8150
  97   2.0000      -6.016946      -163.7294
  98   2.0000      -6.015606      -163.6930
  99   2.0000      -6.014565      -163.6646
 100   2.0000      -6.012683      -163.6134
 101   2.0000      -2.744999       -74.6952
 102   2.0000      -2.743377       -74.6511
 103   2.0000      -2.740925       -74.5844
 104   2.0000      -2.740755       -74.5797
 105   2.0000      -2.739279       -74.5396
 106   2.0000      -2.739154       -74.5362
 107   2.0000      -2.729182       -74.2648
 108   2.0000      -2.729169       -74.2645
 109   2.0000      -2.727592       -74.2216
 110   2.0000      -2.727578       -74.2212
 111   2.0000      -1.142533       -31.0899
 112   2.0000      -1.134777       -30.8788
 113   2.0000      -1.124154       -30.5898
 114   2.0000      -1.098673       -29.8964
 115   2.0000      -1.024490       -27.8778
 116   2.0000      -1.022430       -27.8217
 117   2.0000      -1.019815       -27.7506
 118   2.0000      -1.012918       -27.5629
 119   2.0000      -1.009545       -27.4711
 120   2.0000      -1.002370       -27.2759
 121   2.0000      -0.996927       -27.1278
 122   2.0000      -0.993214       -27.0267
 123   2.0000      -0.989765       -26.9329
 124   2.0000      -0.988366       -26.8948
 125   2.0000      -0.984477       -26.7890
 126   2.0000      -0.981427       -26.7060
 127   2.0000      -0.965075       -26.2610
 128   2.0000      -0.942040       -25.6342
 129   2.0000      -0.938912       -25.5491
 130   2.0000      -0.909282       -24.7428
 131   2.0000      -0.908068       -24.7098
 132   2.0000      -0.904879       -24.6230
 133   2.0000      -0.900045       -24.4915
 134   2.0000      -0.886526       -24.1236
 135   2.0000      -0.885464       -24.0947
 136   2.0000      -0.884187       -24.0600
 137   2.0000      -0.882853       -24.0236
 138   2.0000      -0.872533       -23.7428
 139   2.0000      -0.862627       -23.4733
 140   2.0000      -0.860435       -23.4136
 141   2.0000      -0.849939       -23.1280
 142   2.0000      -0.829613       -22.5749
 143   2.0000      -0.826792       -22.4981
 144   2.0000      -0.822726       -22.3875
 145   2.0000      -0.806249       -21.9391
 146   2.0000      -0.800972       -21.7956
 147   2.0000      -0.779742       -21.2178
 148   2.0000      -0.776927       -21.1412
 149   2.0000      -0.768851       -20.9215
 150   2.0000      -0.761529       -20.7223
 151   2.0000      -0.759213       -20.6592
 152   2.0000      -0.753962       -20.5164
 153   2.0000      -0.742800       -20.2126
 154   2.0000      -0.727080       -19.7849
 155   2.0000      -0.712783       -19.3958
 156   2.0000      -0.707564       -19.2538
 157   2.0000      -0.695349       -18.9214
 158   2.0000      -0.691013       -18.8034
 159   2.0000      -0.687835       -18.7169
 160   2.0000      -0.684468       -18.6253
 161   2.0000      -0.672687       -18.3047
 162   2.0000      -0.664189       -18.0735
 163   2.0000      -0.658646       -17.9227
 164   2.0000      -0.656568       -17.8661
 165   2.0000      -0.649631       -17.6774
 166   2.0000      -0.644904       -17.5487
 167   2.0000      -0.636868       -17.3301
 168   2.0000      -0.631380       -17.1807
 169   2.0000      -0.622394       -16.9362
 170   2.0000      -0.620293       -16.8790
 171   2.0000      -0.615914       -16.7599
 172   2.0000      -0.613338       -16.6898
 173   2.0000      -0.599446       -16.3117
 174   2.0000      -0.592802       -16.1310
 175   2.0000      -0.591243       -16.0885
 176   2.0000      -0.587084       -15.9754
 177   2.0000      -0.584532       -15.9059
 178   2.0000      -0.575832       -15.6692
 179   2.0000      -0.570255       -15.5174
 180   2.0000      -0.565725       -15.3942
 181   2.0000      -0.564001       -15.3472
 182   2.0000      -0.558403       -15.1949
 183   2.0000      -0.551516       -15.0075
 184   2.0000      -0.545374       -14.8404
 185   2.0000      -0.542518       -14.7627
 186   2.0000      -0.541108       -14.7243
 187   2.0000      -0.539456       -14.6793
 188   2.0000      -0.535743       -14.5783
 189   2.0000      -0.533859       -14.5271
 190   2.0000      -0.531125       -14.4526
 191   2.0000      -0.526912       -14.3380
 192   2.0000      -0.525613       -14.3027
 193   2.0000      -0.519698       -14.1417
 194   2.0000      -0.516441       -14.0531
 195   2.0000      -0.513761       -13.9801
 196   2.0000      -0.511742       -13.9252
 197   2.0000      -0.508803       -13.8452
 198   2.0000      -0.507087       -13.7985
 199   2.0000      -0.506195       -13.7743
 200   2.0000      -0.502942       -13.6857
 201   2.0000      -0.500220       -13.6117
 202   2.0000      -0.497240       -13.5306
 203   2.0000      -0.496288       -13.5047
 204   2.0000      -0.494866       -13.4660
 205   2.0000      -0.492585       -13.4039
 206   2.0000      -0.491835       -13.3835
 207   2.0000      -0.484029       -13.1711
 208   2.0000      -0.482997       -13.1430
 209   2.0000      -0.476266       -12.9599
 210   2.0000      -0.473233       -12.8773
 211   2.0000      -0.470467       -12.8021
 212   2.0000      -0.464532       -12.6405
 213   2.0000      -0.461292       -12.5524
 214   2.0000      -0.458653       -12.4806
 215   2.0000      -0.457779       -12.4568
 216   2.0000      -0.457179       -12.4405
 217   2.0000      -0.453547       -12.3416
 218   2.0000      -0.448676       -12.2091
 219   2.0000      -0.448373       -12.2008
 220   2.0000      -0.447221       -12.1695
 221   2.0000      -0.445869       -12.1327
 222   2.0000      -0.443213       -12.0604
 223   2.0000      -0.442642       -12.0449
 224   2.0000      -0.440923       -11.9981
 225   2.0000      -0.439553       -11.9609
 226   2.0000      -0.438680       -11.9371
 227   2.0000      -0.438330       -11.9276
 228   2.0000      -0.436409       -11.8753
 229   2.0000      -0.434001       -11.8098
 230   2.0000      -0.426616       -11.6088
 231   2.0000      -0.426028       -11.5928
 232   2.0000      -0.421668       -11.4742
 233   2.0000      -0.417836       -11.3699
 234   2.0000      -0.416783       -11.3412
 235   2.0000      -0.415962       -11.3189
 236   2.0000      -0.412699       -11.2301
 237   2.0000      -0.407185       -11.0801
 238   2.0000      -0.405286       -11.0284
 239   2.0000      -0.403445       -10.9783
 240   2.0000      -0.396408       -10.7868
 241   2.0000      -0.394904       -10.7459
 242   2.0000      -0.388691       -10.5768
 243   2.0000      -0.386054       -10.5051
 244   2.0000      -0.381337       -10.3767
 245   2.0000      -0.375212       -10.2100
 246   2.0000      -0.374932       -10.2024
 247   2.0000      -0.373537       -10.1644
 248   2.0000      -0.365425        -9.9437
 249   2.0000      -0.351749        -9.5716
 250   2.0000      -0.348382        -9.4800
 251   2.0000      -0.348253        -9.4764
 252   2.0000      -0.337553        -9.1853
 253   2.0000      -0.333051        -9.0628
 254   2.0000      -0.330645        -8.9973
 255   2.0000      -0.319083        -8.6827
 256   2.0000      -0.315993        -8.5986
 257   2.0000      -0.315248        -8.5783
 258   2.0000      -0.312241        -8.4965
 259   2.0000      -0.310520        -8.4497
 260   2.0000      -0.294574        -8.0158
 261   2.0000      -0.290558        -7.9065
 262   2.0000      -0.283516        -7.7149
 263   2.0000      -0.250688        -6.8216
 264   0.0000      -0.119456        -3.2506
 265   0.0000      -0.085469        -2.3257
 266   0.0000      -0.078411        -2.1337
 267   0.0000      -0.057587        -1.5670
 268   0.0000      -0.050818        -1.3828

MULLIKEN ATOMIC CHARGES
-----------------------
   0 C :    0.327965
   1 C :   -0.353941
   2 C :   -0.186584
   3 N :    0.146851
   4 C :   -0.186878
   5 N :    0.141980
   6 C :    0.008271
   7 C :   -0.013657
   8 C :   -0.070287
   9 C :    0.116316
  10 C :   -0.094346
  11 C :   -0.016353
  12 S :    0.186867
  13 C :   -0.123489
  14 C :    0.040762
  15 Br:    0.023189
  16 C :    0.163633
  17 O :   -0.175604
  18 C :   -0.094759
  19 C :   -0.007906
  20 C :   -0.048192
  21 C :   -0.051104
  22 C :    0.007852
  23 C :    0.156054
  24 C :   -0.203580
  25 S :    0.242660
  26 C :    0.076046
  27 C :   -0.078563
  28 C :   -0.070103
  29 N :   -0.022716
  30 C :    0.041094
  31 C :    0.029507
  32 N :   -0.012387
  33 C :    0.222723
  34 C :   -0.029199
  35 C :    0.001709
  36 N :   -0.260586
  37 S :    0.569517
  38 N :   -0.327068
  39 C :   -0.159898
  40 C :   -0.024778
  41 C :   -0.007368
  42 C :    0.119836
  43 C :   -0.110575
  44 S :    0.165019
  45 C :    0.027380
  46 C :   -0.130008
  47 C :    0.251595
  48 C :   -0.320360
  49 C :   -0.175789
  50 N :    0.144256
  51 C :   -0.204749
  52 N :    0.165094
  53 C :    0.007228
  54 C :   -0.000450
  55 C :    0.136793
  56 O :   -0.148273
  57 C :   -0.074187
  58 C :    0.112958
  59 C :   -0.087517
  60 C :   -0.025006
  61 S :    0.180995
  62 C :   -0.127238
  63 C :    0.043197
  64 Br:    0.020744
  65 H :   -0.012605
  66 H :   -0.006757
  67 H :   -0.004767
  68 H :    0.007319
  69 H :   -0.004192
  70 H :    0.012013
  71 H :    0.009166
  72 H :    0.031996
  73 H :    0.018202
  74 H :    0.020248
  75 H :   -0.014351
  76 H :    0.013070
  77 H :    0.047823
  78 H :    0.034189
  79 H :    0.014963
  80 H :   -0.010743
  81 H :   -0.006056
  82 H :   -0.004105
Sum of atomic charges:   -0.0000000

LOEWDIN ATOMIC CHARGES
----------------------
   0 C :    0.078261
   1 C :   -0.144515
   2 C :   -0.018018
   3 N :   -0.056240
   4 C :   -0.021012
   5 N :   -0.055243
   6 C :   -0.020644
   7 C :   -0.049818
   8 C :    0.020876
   9 C :   -0.033199
  10 C :   -0.144421
  11 C :   -0.009216
  12 S :    0.433279
  13 C :   -0.272018
  14 C :   -0.070537
  15 Br:    0.136447
  16 C :    0.083423
  17 O :   -0.163594
  18 C :   -0.110651
  19 C :    0.061818
  20 C :   -0.188525
  21 C :   -0.019116
  22 C :   -0.042773
  23 C :   -0.046670
  24 C :   -0.154732
  25 S :    0.541310
  26 C :   -0.040187
  27 C :   -0.009700
  28 C :   -0.003572
  29 N :   -0.024789
  30 C :    0.016786
  31 C :    0.010015
  32 N :   -0.019220
  33 C :   -0.036031
  34 C :   -0.047243
  35 C :   -0.048271
  36 N :   -0.281371
  37 S :    0.696506
  38 N :   -0.306299
  39 C :   -0.138119
  40 C :   -0.043096
  41 C :   -0.015526
  42 C :   -0.044118
  43 C :   -0.195490
  44 S :    0.506299
  45 C :    0.054447
  46 C :   -0.102701
  47 C :    0.061896
  48 C :   -0.145790
  49 C :   -0.018987
  50 N :   -0.060822
  51 C :   -0.033786
  52 N :   -0.053703
  53 C :   -0.015616
  54 C :   -0.051826
  55 C :    0.081832
  56 O :   -0.148701
  57 C :    0.021506
  58 C :   -0.034941
  59 C :   -0.143583
  60 C :   -0.015377
  61 S :    0.428489
  62 C :   -0.273521
  63 C :   -0.069694
  64 Br:    0.134374
  65 H :    0.040191
  66 H :    0.041121
  67 H :    0.038405
  68 H :    0.050432
  69 H :    0.035138
  70 H :    0.030971
  71 H :    0.030839
  72 H :    0.037233
  73 H :    0.029124
  74 H :    0.028898
  75 H :    0.027241
  76 H :    0.034417
  77 H :    0.046905
  78 H :    0.038645
  79 H :    0.046684
  80 H :    0.040818
  81 H :    0.039828
  82 H :    0.038563

  Mayer bond orders larger than 0.100000
B(  0-C ,  1-C ) :   1.6169 B(  0-C ,  6-C ) :   0.9975 B(  0-C , 18-C ) :   1.0822
B(  1-C ,  2-C ) :   1.1442 B(  1-C ,  4-C ) :   1.1458 B(  2-C ,  3-N ) :   2.9665
B(  4-C ,  5-N ) :   2.9570 B(  6-C ,  7-C ) :   1.2758 B(  6-C , 11-C ) :   1.4129
B(  7-C ,  8-C ) :   1.4257 B(  7-C , 16-C ) :   0.9545 B(  8-C ,  9-C ) :   1.2418
B(  8-C , 65-H ) :   1.0166 B(  9-C , 10-C ) :   1.3080 B(  9-C , 14-C ) :   1.1642
B( 10-C , 11-C ) :   1.3282 B( 10-C , 12-S ) :   1.0864 B( 11-C , 66-H ) :   0.9788
B( 12-S , 13-C ) :   1.0872 B( 13-C , 14-C ) :   1.6177 B( 13-C , 15-Br) :   1.0181
B( 14-C , 67-H ) :   0.9997 B( 16-C , 17-O ) :   2.1428 B( 16-C , 18-C ) :   0.9712
B( 18-C , 19-C ) :   1.5027 B( 19-C , 20-C ) :   1.2520 B( 19-C , 68-H ) :   0.9391
B( 20-C , 21-C ) :   1.3379 B( 20-C , 25-S ) :   1.1103 B( 21-C , 22-C ) :   1.3299
B( 21-C , 69-H ) :   1.0069 B( 22-C , 23-C ) :   1.1142 B( 22-C , 24-C ) :   1.4282
B( 23-C , 70-H ) :   0.9436 B( 23-C , 71-H ) :   0.9404 B( 23-C , 72-H ) :   0.9298
B( 24-C , 25-S ) :   1.1509 B( 24-C , 26-C ) :   1.0593 B( 26-C , 27-C ) :   1.3325
B( 26-C , 33-C ) :   0.1359 B( 26-C , 35-C ) :   1.2464 B( 27-C , 28-C ) :   1.1077
B( 27-C , 32-N ) :   1.4531 B( 28-C , 29-N ) :   1.4574 B( 28-C , 33-C ) :   1.2797
B( 29-N , 30-C ) :   1.6878 B( 30-C , 31-C ) :   1.1767 B( 30-C , 73-H ) :   0.9731
B( 31-C , 32-N ) :   1.6925 B( 31-C , 74-H ) :   0.9730 B( 33-C , 34-C ) :   1.2004
B( 33-C , 39-C ) :   1.1577 B( 34-C , 35-C ) :   1.1172 B( 34-C , 38-N ) :   1.4628
B( 35-C , 36-N ) :   1.4949 B( 36-N , 37-S ) :   1.3119 B( 36-N , 38-N ) :   0.1574
B( 37-S , 38-N ) :   1.2764 B( 39-C , 40-C ) :   1.4274 B( 39-C , 44-S ) :   1.1573
B( 40-C , 41-C ) :   1.2923 B( 40-C , 75-H ) :   0.9822 B( 41-C , 42-C ) :   1.1125
B( 41-C , 43-C ) :   1.3949 B( 42-C , 76-H ) :   0.9474 B( 42-C , 77-H ) :   0.9423
B( 42-C , 78-H ) :   0.9344 B( 43-C , 44-S ) :   1.0747 B( 43-C , 45-C ) :   1.1637
B( 45-C , 46-C ) :   1.6293 B( 45-C , 79-H ) :   0.9401 B( 46-C , 47-C ) :   1.0388
B( 46-C , 55-C ) :   0.9496 B( 47-C , 48-C ) :   1.6467 B( 47-C , 53-C ) :   1.0183
B( 48-C , 49-C ) :   1.1375 B( 48-C , 51-C ) :   1.1537 B( 49-C , 50-N ) :   2.9849
B( 51-C , 52-N ) :   3.0192 B( 53-C , 54-C ) :   1.2773 B( 53-C , 60-C ) :   1.4160
B( 54-C , 55-C ) :   0.9182 B( 54-C , 57-C ) :   1.4277 B( 55-C , 56-O ) :   2.2612
B( 57-C , 58-C ) :   1.2509 B( 57-C , 80-H ) :   1.0161 B( 58-C , 59-C ) :   1.3114
B( 58-C , 63-C ) :   1.1618 B( 59-C , 60-C ) :   1.3241 B( 59-C , 61-S ) :   1.0819
B( 60-C , 81-H ) :   0.9841 B( 61-S , 62-C ) :   1.0853 B( 62-C , 63-C ) :   1.6215
B( 62-C , 64-Br) :   1.0173 B( 63-C , 82-H ) :   0.9997

-----------------------------------------------------------------------------
         ABSORPTION SPECTRUM VIA TRANSITION ELECTRIC DIPOLE MOMENTS
-----------------------------------------------------------------------------
State   Energy  Wavelength   fosc         T2         TX        TY        TZ
        (cm-1)    (nm)                  (au**2)     (au)      (au)      (au)
-----------------------------------------------------------------------------
   0   12646.1    790.8   0.807086519  21.01055   3.48775  -2.82631  -0.92636
   1   20020.9    499.5   0.200982509   3.30484   0.06165   0.14669   1.81094
   2   20787.1    481.1   0.130838642   2.07213  -1.17342   0.42058  -0.71995
   3   22105.6    452.4   0.446286765   6.64640  -1.63535   0.71415   1.86065
   4   23284.9    429.5   0.026188539   0.37026   0.06858  -0.42064   0.43430
   5   23995.6    416.7   0.012596864   0.17283   0.13715   0.19555  -0.34026
   6   24430.1    409.3   0.060765513   0.81886   0.14025   0.19233  -0.87304
   7   24961.7    400.6   0.014238258   0.18778   0.17375   0.39646  -0.02039
   8   26185.8    381.9   0.042259509   0.53129  -0.00020  -0.63934   0.35005
   9   26651.2    375.2   0.045743431   0.56505  -0.11027  -0.12218   0.73346
  10   27424.0    364.6   0.099380839   1.19302   0.62379   0.69116  -0.57113
  11   27684.3    361.2   0.200028744   2.37867  -0.75988   1.22265  -0.55352
  12   28027.8    356.8   0.012414177   0.14582  -0.13848  -0.01425  -0.35558
  13   28779.6    347.5   0.013409568   0.15339   0.19888   0.13784   0.30796
  14   29004.2    344.8   0.039932756   0.45326  -0.21685  -0.32998   0.54530
  15   29266.9    341.7   0.044911082   0.50519  -0.68094   0.19357   0.06360
  16   29752.1    336.1   0.163561249   1.80983   0.79096  -1.08703  -0.05082
  17   29797.2    335.6   0.185090243   2.04496   0.54530   0.63600  -1.15893
  18   30417.4    328.8   0.017078510   0.18484  -0.09218   0.37322  -0.19250
  19   30645.0    326.3   0.021695501   0.23307  -0.29968  -0.01012  -0.37836
  20   31037.6    322.2   0.341536497   3.62263  -0.53246  -1.51456   1.02236
  21   31145.4    321.1   0.146076040   1.54405   0.05550  -0.35951   1.18816
  22   31523.2    317.2   0.525308632   5.48606   0.38135  -1.32013   1.89681
  23   32030.4    312.2   0.131410051   1.35065  -0.27801  -0.02829  -1.12808
  24   32179.9    310.8   0.038922947   0.39820  -0.14981  -0.42289   0.44375
  25   32407.0    308.6   0.082332027   0.83638  -0.19269   0.76807  -0.45751
  26   32653.4    306.2   0.152399835   1.53650   0.35975   0.88827  -0.78616
  27   32966.9    303.3   0.012018193   0.12002  -0.15170  -0.03677   0.30927
  28   33087.1    302.2   0.007598313   0.07560   0.08556  -0.25236  -0.06777
  29   33567.8    297.9   0.033914415   0.33261   0.52009  -0.21738  -0.12191
  30   34589.4    289.1   0.065588408   0.62425  -0.57693  -0.11625   0.52716
  31   34903.0    286.5   0.169939958   1.60291   0.06929  -0.96932   0.81149
  32   35372.3    282.7   0.225364636   2.09748  -0.02546  -1.37141   0.46484
  33   35659.1    280.4   0.360918603   3.33207   0.34962  -1.74220   0.41783
  34   36429.5    274.5   0.003332008   0.03011  -0.14632   0.08333   0.04193
  35   36617.4    273.1   0.045888066   0.41256  -0.02151   0.59568   0.23929
  36   36736.1    272.2   0.095300720   0.85404   0.62150  -0.45000  -0.51505
  37   36870.3    271.2   0.019886819   0.17757  -0.08506   0.11039   0.39768
  38   37385.6    267.5   0.115257690   1.01494  -0.46757   0.56601   0.68989
  39   37565.7    266.2   0.014523823   0.12728  -0.14114  -0.06608  -0.32093
  40   37703.9    265.2   0.001418780   0.01239  -0.04375   0.10084  -0.01746
  41   38243.0    261.5   0.041279937   0.35536   0.01203  -0.41015  -0.43242
  42   38491.4    259.8   0.029720346   0.25419   0.32916  -0.21966   0.31240
  43   38652.2    258.7   0.469331672   3.99743   0.42721  -0.50328   1.88723
  44   38775.9    257.9   0.029857641   0.25349  -0.14067   0.45134   0.17320
  45   38864.2    257.3   0.026276660   0.22259   0.40088  -0.24456  -0.04548
  46   39249.5    254.8   0.045444389   0.38117  -0.12193  -0.06431   0.60181
  47   39479.3    253.3   0.146262490   1.21966   0.09851  -0.60005   0.92190
  48   39731.2    251.7   0.007012109   0.05810  -0.21209   0.02893   0.11083
  49   39869.0    250.8   0.012894233   0.10647  -0.18321   0.17179  -0.20831
  50   39947.3    250.3   0.209151552   1.72365   0.92059  -0.39284  -0.84961
  51   40036.1    249.8   0.138225519   1.13661  -0.07336  -0.37439  -0.99552
  52   40151.5    249.1   0.008587466   0.07041  -0.14025   0.17338   0.14381
  53   40305.1    248.1   0.016698382   0.13639   0.19444   0.30634   0.06885

FINAL SINGLE POINT ENERGY     -9563.523708391034

DIPOLE MOMENT
-------------
                                X             Y             Z
Electronic contribution:     18.75764      73.28060    -159.22339
Nuclear contribution   :    -18.23145     -70.74166     160.30228
                        -----------------------------------------
Total Dipole Moment    :      0.52618       2.53894       1.07889
                        -----------------------------------------
Magnitude (a.u.)       :      2.80840
Magnitude (Debye)      :      7.13838

Rotational constants in cm-1:     0.000845     0.000345     0.000260
Rotational constants in MHz :    25.331284    10.333544     7.805380

                             ****ORCA TERMINATED NORMALLY****
TOTAL RUN TIME: 0 days 0 hours 9 minutes 7 seconds 946 msec
