                         Program Version 4.2.0 -  RELEASE  -
|  1> # ORCA input file
|  2> # SCF done       -207.282832481933          0.000401340041
|  3> ! CAM-B3LYP def2-SVP def2/J RIJCOSX Grid4 TightSCF
|  4> %maxcore 5000
|  5> %tddft
|  6>     Mode sTDDFT
|  7>     Ethresh 5.0
|  8>     maxcore 5000
|  9> end
| 10>
| 11> %pal
| 12>   nprocs 6
| 13>   end
| 14> * xyz 0 1
| 15>    C       -3.07784         0.25064         8.05617
| 16>    C       -1.87141         0.86445         7.83917
| 17>    C       -0.69016         0.54441         8.54061
| 18>    N        0.30009         0.32959         9.08017
| 19>    C       -1.61605         1.84463         6.85614
| 20>    N       -1.31548         2.62037         6.06453
| 21>    C       -3.30350        -0.85788         8.97543
| 22>    C       -4.60748        -1.36122         8.75518
| 23>    C       -5.12335        -2.41975         9.46248
| 24>    C       -4.31494        -3.00403        10.44287
| 25>    C       -3.01486        -2.48929        10.66162
| 26>    C       -2.49111        -1.42323         9.94018
| 27>    S       -2.19091        -3.35108        11.92537
| 28>    C       -3.58414        -4.37764        12.13894
| 29>    C       -4.61443        -4.09188        11.30794
| 30>   Br       -3.54850        -5.72811        13.43991
| 31>    C       -5.27026        -0.57436         7.69647
| 32>    O       -6.37529        -0.80172         7.24413
| 33>    C       -4.32394         0.50950         7.35350
| 34>    C       -4.56379         1.66575         6.65476
| 35>    C       -5.68146         2.07839         5.91023
| 36>    C       -6.79667         1.38103         5.45945
| 37>    C       -7.65667         2.19852         4.74555
| 38>    C       -7.21264         3.54899         4.63307
| 39>    S       -5.69903         3.77922         5.40881
| 40>    C       -8.18703         4.23381         3.91904
| 41>    C       -9.19712         3.28355         3.60622
| 42>    N       -8.86496         2.05832         4.11764
| 43>    C       -9.62587         0.84687         3.98867
| 44>    C      -10.25813         3.82057         2.89274
| 45>    C      -10.08158         5.17994         2.65995
| 46>    S       -8.57988         5.80874         3.32299
| 47>    C      -10.98254         6.04034         1.98216
| 48>    C      -10.71146         7.42161         1.84903
| 49>    C      -11.62091         8.32992         1.20256
| 50>    N      -11.31247         9.62852         1.12736
| 51>    C      -10.18744        10.06862         1.63481
| 52>    C       -9.27733         9.16245         2.27063
| 53>    N       -9.56552         7.88711         2.35667
| 54>    C       -8.05843         9.63786         2.81480
| 55>    N       -7.08428        10.05739         3.24659
| 56>    C       -9.88097        11.44958         1.55231
| 57>    N       -9.60118        12.55908         1.50588
| 58>    C      -12.84738         7.90720         0.64003
| 59>    C      -13.11452         6.52073         0.75015
| 60>    C      -12.20393         5.60815         1.41001
| 61>    N      -12.66991         4.35913         1.39692
| 62>    S      -14.08615         4.32423         0.64261
| 63>    N      -14.19432         5.88686         0.29223
| 64>    C      -13.72880         8.83464         0.02857
| 65>    C      -14.95426         8.54191        -0.55973
| 66>    C      -15.57314         9.68377        -1.04595
| 67>    C      -14.81765        10.86864        -0.83063
| 68>    S      -13.32550        10.54429        -0.02133
| 69>    C      -15.56568        11.91279        -1.35851
| 70>    C      -16.75919        11.33962        -1.88184
| 71>    N      -16.75067         9.98676        -1.67628
| 72>    C      -17.74923         9.06410        -2.13987
| 73>    C      -17.61236        12.26247        -2.46441
| 74>    C      -17.09204        13.55218        -2.40691
| 75>    S      -15.53425        13.61410        -1.58076
| 76>    C      -17.65395        14.76694        -2.83727
| 77>    C      -18.70992        15.00814        -3.67198
| 78>    C      -19.43554        14.20036        -4.62157
| 79>    C      -18.95251        13.13174        -5.33676
| 80>    C      -19.69861        12.42738        -6.30209
| 81>    N      -20.26574        11.79511        -7.07496
| 82>    C      -17.63255        12.65009        -5.24674
| 83>    N      -16.56684        12.22270        -5.23389
| 84>    C      -20.70165        14.87745        -4.89354
| 85>    C      -20.65956        16.16920        -4.31218
| 86>    C      -19.37989        16.33454        -3.59329
| 87>    O      -18.97386        17.31860        -3.01930
| 88>    C      -21.69421        17.06464        -4.42824
| 89>    C      -22.82893        16.66180        -5.14120
| 90>    C      -22.86645        15.36486        -5.70600
| 91>    C      -21.81538        14.46194        -5.59691
| 92>    S      -24.36600        15.07044        -6.53226
| 93>    C      -24.91387        16.67320        -6.11743
| 94>    C      -24.02173        17.39261        -5.39624
| 95>   Br      -26.61220        17.24221        -6.67346
| 96>    H       -6.12038        -2.78321         9.26868
| 97>    H       -1.49693        -1.06435        10.14725
| 98>    H       -5.54805        -4.62416        11.30468
| 99>    H       -3.78717         2.42050         6.70733
|100>    H       -6.94333         0.33803         5.66648
|101>    H      -10.68776         1.06678         4.10053
|102>    H       -9.32054         0.14906         4.76607
|103>    H       -9.46306         0.38375         3.01127
|104>    H      -11.12499         3.29048         2.54665
|105>    H      -15.33403         7.53890        -0.60696
|106>    H      -17.81215         9.08541        -3.23082
|107>    H      -18.72660         9.32272        -1.72639
|108>    H      -17.48189         8.06034        -1.81866
|109>    H      -18.58171        12.03466        -2.86845
|110>    H      -17.23694        15.66098        -2.38218
|111>    H      -21.63177        18.04524        -3.98336
|112>    H      -21.89146        13.48288        -6.04035
|113>    H      -24.19568        18.39721        -5.05647
|114> *
|115>
|116>                          ****END OF INPUT****

CARTESIAN COORDINATES (ANGSTROEM)
---------------------------------
  C     -3.077840    0.250640    8.056170
  C     -1.871410    0.864450    7.839170
  C     -0.690160    0.544410    8.540610
  N      0.300090    0.329590    9.080170
  C     -1.616050    1.844630    6.856140
  N     -1.315480    2.620370    6.064530
  C     -3.303500   -0.857880    8.975430
  C     -4.607480   -1.361220    8.755180
  C     -5.123350   -2.419750    9.462480
  C     -4.314940   -3.004030   10.442870
  C     -3.014860   -2.489290   10.661620
  C     -2.491110   -1.423230    9.940180
  S     -2.190910   -3.351080   11.925370
  C     -3.584140   -4.377640   12.138940
  C     -4.614430   -4.091880   11.307940
  Br    -3.548500   -5.728110   13.439910
  C     -5.270260   -0.574360    7.696470
  O     -6.375290   -0.801720    7.244130
  C     -4.323940    0.509500    7.353500
  C     -4.563790    1.665750    6.654760
  C     -5.681460    2.078390    5.910230
  C     -6.796670    1.381030    5.459450
  C     -7.656670    2.198520    4.745550
  C     -7.212640    3.548990    4.633070
  S     -5.699030    3.779220    5.408810
  C     -8.187030    4.233810    3.919040
  C     -9.197120    3.283550    3.606220
  N     -8.864960    2.058320    4.117640
  C     -9.625870    0.846870    3.988670
  C    -10.258130    3.820570    2.892740
  C    -10.081580    5.179940    2.659950
  S     -8.579880    5.808740    3.322990
  C    -10.982540    6.040340    1.982160
  C    -10.711460    7.421610    1.849030
  C    -11.620910    8.329920    1.202560
  N    -11.312470    9.628520    1.127360
  C    -10.187440   10.068620    1.634810
  C     -9.277330    9.162450    2.270630
  N     -9.565520    7.887110    2.356670
  C     -8.058430    9.637860    2.814800
  N     -7.084280   10.057390    3.246590
  C     -9.880970   11.449580    1.552310
  N     -9.601180   12.559080    1.505880
  C    -12.847380    7.907200    0.640030
  C    -13.114520    6.520730    0.750150
  C    -12.203930    5.608150    1.410010
  N    -12.669910    4.359130    1.396920
  S    -14.086150    4.324230    0.642610
  N    -14.194320    5.886860    0.292230
  C    -13.728800    8.834640    0.028570
  C    -14.954260    8.541910   -0.559730
  C    -15.573140    9.683770   -1.045950
  C    -14.817650   10.868640   -0.830630
  S    -13.325500   10.544290   -0.021330
  C    -15.565680   11.912790   -1.358510
  C    -16.759190   11.339620   -1.881840
  N    -16.750670    9.986760   -1.676280
  C    -17.749230    9.064100   -2.139870
  C    -17.612360   12.262470   -2.464410
  C    -17.092040   13.552180   -2.406910
  S    -15.534250   13.614100   -1.580760
  C    -17.653950   14.766940   -2.837270
  C    -18.709920   15.008140   -3.671980
  C    -19.435540   14.200360   -4.621570
  C    -18.952510   13.131740   -5.336760
  C    -19.698610   12.427380   -6.302090
  N    -20.265740   11.795110   -7.074960
  C    -17.632550   12.650090   -5.246740
  N    -16.566840   12.222700   -5.233890
  C    -20.701650   14.877450   -4.893540
  C    -20.659560   16.169200   -4.312180
  C    -19.379890   16.334540   -3.593290
  O    -18.973860   17.318600   -3.019300
  C    -21.694210   17.064640   -4.428240
  C    -22.828930   16.661800   -5.141200
  C    -22.866450   15.364860   -5.706000
  C    -21.815380   14.461940   -5.596910
  S    -24.366000   15.070440   -6.532260
  C    -24.913870   16.673200   -6.117430
  C    -24.021730   17.392610   -5.396240
  Br   -26.612200   17.242210   -6.673460
  H     -6.120380   -2.783210    9.268680
  H     -1.496930   -1.064350   10.147250
  H     -5.548050   -4.624160   11.304680
  H     -3.787170    2.420500    6.707330
  H     -6.943330    0.338030    5.666480
  H    -10.687760    1.066780    4.100530
  H     -9.320540    0.149060    4.766070
  H     -9.463060    0.383750    3.011270
  H    -11.124990    3.290480    2.546650
  H    -15.334030    7.538900   -0.606960
  H    -17.812150    9.085410   -3.230820
  H    -18.726600    9.322720   -1.726390
  H    -17.481890    8.060340   -1.818660
  H    -18.581710   12.034660   -2.868450
  H    -17.236940   15.660980   -2.382180
  H    -21.631770   18.045240   -3.983360
  H    -21.891460   13.482880   -6.040350
  H    -24.195680   18.397210   -5.056470

 Total Charge           Charge          ....    0
 Multiplicity           Mult            ....    1
 Number of Electrons    NEL             ....  648
 Basis Dimension        Dim             .... 1288

ORBITAL ENERGIES
----------------

  NO   OCC          E(Eh)            E(eV)
   0   2.0000    -482.886188    -13140.0012
   1   2.0000    -482.885103    -13139.9717
   2   2.0000     -89.056962     -2423.3631
   3   2.0000     -88.976001     -2421.1601
   4   2.0000     -88.974149     -2421.1097
   5   2.0000     -88.968716     -2420.9618
   6   2.0000     -88.965600     -2420.8771
   7   2.0000     -88.963472     -2420.8191
   8   2.0000     -88.963048     -2420.8076
   9   2.0000     -62.563869     -1702.4494
  10   2.0000     -62.562796     -1702.4202
  11   2.0000     -56.397820     -1534.6627
  12   2.0000     -56.396741     -1534.6333
  13   2.0000     -56.395106     -1534.5889
  14   2.0000     -56.395073     -1534.5880
  15   2.0000     -56.394034     -1534.5597
  16   2.0000     -56.394001     -1534.5588
  17   2.0000     -19.217771      -522.9421
  18   2.0000     -19.212496      -522.7986
  19   2.0000     -14.478897      -393.9908
  20   2.0000     -14.477844      -393.9622
  21   2.0000     -14.472830      -393.8257
  22   2.0000     -14.472622      -393.8201
  23   2.0000     -14.467465      -393.6797
  24   2.0000     -14.467046      -393.6683
  25   2.0000     -14.434935      -392.7945
  26   2.0000     -14.434873      -392.7929
  27   2.0000     -14.416515      -392.2933
  28   2.0000     -14.415298      -392.2602
  29   2.0000     -14.410340      -392.1253
  30   2.0000     -14.410252      -392.1229
  31   2.0000     -10.391396      -282.7643
  32   2.0000     -10.391027      -282.7542
  33   2.0000     -10.369002      -282.1549
  34   2.0000     -10.363632      -282.0088
  35   2.0000     -10.359055      -281.8842
  36   2.0000     -10.357873      -281.8520
  37   2.0000     -10.356717      -281.8206
  38   2.0000     -10.356450      -281.8133
  39   2.0000     -10.356086      -281.8034
  40   2.0000     -10.355814      -281.7960
  41   2.0000     -10.342651      -281.4378
  42   2.0000     -10.341482      -281.4060
  43   2.0000     -10.337274      -281.2915
  44   2.0000     -10.336709      -281.2762
  45   2.0000     -10.330932      -281.1190
  46   2.0000     -10.329588      -281.0824
  47   2.0000     -10.328343      -281.0485
  48   2.0000     -10.328140      -281.0430
  49   2.0000     -10.328017      -281.0396
  50   2.0000     -10.327453      -281.0243
  51   2.0000     -10.325901      -280.9821
  52   2.0000     -10.324642      -280.9478
  53   2.0000     -10.323894      -280.9275
  54   2.0000     -10.323769      -280.9240
  55   2.0000     -10.323464      -280.9157
  56   2.0000     -10.323203      -280.9086
  57   2.0000     -10.322931      -280.9012
  58   2.0000     -10.322448      -280.8881
  59   2.0000     -10.320476      -280.8344
  60   2.0000     -10.320090      -280.8239
  61   2.0000     -10.319885      -280.8183
  62   2.0000     -10.319518      -280.8084
  63   2.0000     -10.316841      -280.7355
  64   2.0000     -10.316711      -280.7320
  65   2.0000     -10.313569      -280.6465
  66   2.0000     -10.313526      -280.6453
  67   2.0000     -10.313209      -280.6367
  68   2.0000     -10.313017      -280.6315
  69   2.0000     -10.308702      -280.5140
  70   2.0000     -10.307411      -280.4789
  71   2.0000     -10.305973      -280.4398
  72   2.0000     -10.305958      -280.4394
  73   2.0000     -10.305453      -280.4256
  74   2.0000     -10.304498      -280.3997
  75   2.0000     -10.303387      -280.3694
  76   2.0000     -10.301270      -280.3118
  77   2.0000     -10.301012      -280.3048
  78   2.0000     -10.300928      -280.3025
  79   2.0000     -10.299702      -280.2691
  80   2.0000     -10.296901      -280.1929
  81   2.0000     -10.295835      -280.1639
  82   2.0000     -10.295630      -280.1583
  83   2.0000     -10.294568      -280.1294
  84   2.0000     -10.293107      -280.0897
  85   2.0000     -10.292687      -280.0782
  86   2.0000     -10.292419      -280.0709
  87   2.0000     -10.292211      -280.0653
  88   2.0000     -10.290421      -280.0166
  89   2.0000      -8.793284      -239.2774
  90   2.0000      -8.792228      -239.2487
  91   2.0000      -8.148333      -221.7274
  92   2.0000      -8.072010      -219.6506
  93   2.0000      -8.070207      -219.6015
  94   2.0000      -8.063634      -219.4226
  95   2.0000      -8.060532      -219.3382
  96   2.0000      -8.056280      -219.2225
  97   2.0000      -8.055989      -219.2146
  98   2.0000      -6.629554      -180.3993
  99   2.0000      -6.628479      -180.3701
 100   2.0000      -6.615029      -180.0041
 101   2.0000      -6.614834      -179.9988
 102   2.0000      -6.613979      -179.9755
 103   2.0000      -6.613786      -179.9703
 104   2.0000      -6.119506      -166.5202
 105   2.0000      -6.111610      -166.3054
 106   2.0000      -6.111006      -166.2889
 107   2.0000      -6.041694      -164.4029
 108   2.0000      -6.039895      -164.3539
 109   2.0000      -6.037438      -164.2870
 110   2.0000      -6.035622      -164.2376
 111   2.0000      -6.033234      -164.1726
 112   2.0000      -6.033213      -164.1721
 113   2.0000      -6.031404      -164.1229
 114   2.0000      -6.030085      -164.0870
 115   2.0000      -6.029176      -164.0622
 116   2.0000      -6.026290      -163.9837
 117   2.0000      -6.026085      -163.9781
 118   2.0000      -6.026009      -163.9760
 119   2.0000      -6.025104      -163.9514
 120   2.0000      -6.021998      -163.8669
 121   2.0000      -6.021587      -163.8557
 122   2.0000      -6.021296      -163.8478
 123   2.0000      -6.017649      -163.7485
 124   2.0000      -6.017298      -163.7390
 125   2.0000      -2.745467       -74.7080
 126   2.0000      -2.744403       -74.6790
 127   2.0000      -2.741342       -74.5957
 128   2.0000      -2.741182       -74.5914
 129   2.0000      -2.740264       -74.5664
 130   2.0000      -2.740135       -74.5629
 131   2.0000      -2.729646       -74.2775
 132   2.0000      -2.729629       -74.2770
 133   2.0000      -2.728589       -74.2487
 134   2.0000      -2.728584       -74.2486
 135   2.0000      -1.154732       -31.4218
 136   2.0000      -1.133204       -30.8360
 137   2.0000      -1.132088       -30.8057
 138   2.0000      -1.128156       -30.6987
 139   2.0000      -1.107324       -30.1318
 140   2.0000      -1.106252       -30.1027
 141   2.0000      -1.061097       -28.8739
 142   2.0000      -1.023337       -27.8464
 143   2.0000      -1.020776       -27.7767
 144   2.0000      -1.020734       -27.7756
 145   2.0000      -1.013982       -27.5919
 146   2.0000      -1.012808       -27.5599
 147   2.0000      -1.009950       -27.4821
 148   2.0000      -1.008160       -27.4334
 149   2.0000      -0.998132       -27.1606
 150   2.0000      -0.996031       -27.1034
 151   2.0000      -0.990852       -26.9625
 152   2.0000      -0.989783       -26.9334
 153   2.0000      -0.988787       -26.9063
 154   2.0000      -0.986545       -26.8453
 155   2.0000      -0.984065       -26.7778
 156   2.0000      -0.981867       -26.7180
 157   2.0000      -0.969766       -26.3887
 158   2.0000      -0.942431       -25.6448
 159   2.0000      -0.940826       -25.6012
 160   2.0000      -0.918951       -25.0059
 161   2.0000      -0.918368       -24.9901
 162   2.0000      -0.909443       -24.7472
 163   2.0000      -0.908576       -24.7236
 164   2.0000      -0.906123       -24.6569
 165   2.0000      -0.899912       -24.4879
 166   2.0000      -0.887166       -24.1410
 167   2.0000      -0.886109       -24.1123
 168   2.0000      -0.883932       -24.0530
 169   2.0000      -0.878978       -23.9182
 170   2.0000      -0.861414       -23.4403
 171   2.0000      -0.855503       -23.2794
 172   2.0000      -0.853043       -23.2125
 173   2.0000      -0.849230       -23.1087
 174   2.0000      -0.846094       -23.0234
 175   2.0000      -0.845052       -22.9950
 176   2.0000      -0.843985       -22.9660
 177   2.0000      -0.829403       -22.5692
 178   2.0000      -0.827508       -22.5176
 179   2.0000      -0.815049       -22.1786
 180   2.0000      -0.809938       -22.0395
 181   2.0000      -0.794734       -21.6258
 182   2.0000      -0.794124       -21.6092
 183   2.0000      -0.778569       -21.1859
 184   2.0000      -0.768954       -20.9243
 185   2.0000      -0.762476       -20.7480
 186   2.0000      -0.757258       -20.6060
 187   2.0000      -0.752967       -20.4893
 188   2.0000      -0.749060       -20.3830
 189   2.0000      -0.734361       -19.9830
 190   2.0000      -0.716781       -19.5046
 191   2.0000      -0.716455       -19.4957
 192   2.0000      -0.716013       -19.4837
 193   2.0000      -0.701102       -19.0780
 194   2.0000      -0.694088       -18.8871
 195   2.0000      -0.688355       -18.7311
 196   2.0000      -0.686188       -18.6721
 197   2.0000      -0.685519       -18.6539
 198   2.0000      -0.681686       -18.5496
 199   2.0000      -0.671811       -18.2809
 200   2.0000      -0.663625       -18.0581
 201   2.0000      -0.659496       -17.9458
 202   2.0000      -0.655430       -17.8352
 203   2.0000      -0.653832       -17.7917
 204   2.0000      -0.651113       -17.7177
 205   2.0000      -0.648556       -17.6481
 206   2.0000      -0.642239       -17.4762
 207   2.0000      -0.637806       -17.3556
 208   2.0000      -0.632226       -17.2037
 209   2.0000      -0.629802       -17.1378
 210   2.0000      -0.623610       -16.9693
 211   2.0000      -0.619284       -16.8516
 212   2.0000      -0.610315       -16.6075
 213   2.0000      -0.602580       -16.3970
 214   2.0000      -0.600158       -16.3311
 215   2.0000      -0.599318       -16.3083
 216   2.0000      -0.596155       -16.2222
 217   2.0000      -0.593494       -16.1498
 218   2.0000      -0.591523       -16.0962
 219   2.0000      -0.589697       -16.0465
 220   2.0000      -0.582021       -15.8376
 221   2.0000      -0.577352       -15.7106
 222   2.0000      -0.576404       -15.6848
 223   2.0000      -0.573113       -15.5952
 224   2.0000      -0.568795       -15.4777
 225   2.0000      -0.565264       -15.3816
 226   2.0000      -0.562706       -15.3120
 227   2.0000      -0.556830       -15.1521
 228   2.0000      -0.548562       -14.9271
 229   2.0000      -0.548230       -14.9181
 230   2.0000      -0.539368       -14.6769
 231   2.0000      -0.539267       -14.6742
 232   2.0000      -0.537026       -14.6132
 233   2.0000      -0.535966       -14.5844
 234   2.0000      -0.534064       -14.5326
 235   2.0000      -0.531760       -14.4699
 236   2.0000      -0.528166       -14.3721
 237   2.0000      -0.525844       -14.3089
 238   2.0000      -0.519314       -14.1313
 239   2.0000      -0.518048       -14.0968
 240   2.0000      -0.515100       -14.0166
 241   2.0000      -0.512309       -13.9406
 242   2.0000      -0.511151       -13.9091
 243   2.0000      -0.508975       -13.8499
 244   2.0000      -0.508684       -13.8420
 245   2.0000      -0.506504       -13.7827
 246   2.0000      -0.505785       -13.7631
 247   2.0000      -0.504931       -13.7399
 248   2.0000      -0.501982       -13.6596
 249   2.0000      -0.497929       -13.5493
 250   2.0000      -0.497377       -13.5343
 251   2.0000      -0.495928       -13.4949
 252   2.0000      -0.493972       -13.4417
 253   2.0000      -0.493443       -13.4273
 254   2.0000      -0.492517       -13.4021
 255   2.0000      -0.487910       -13.2767
 256   2.0000      -0.485855       -13.2208
 257   2.0000      -0.483524       -13.1573
 258   2.0000      -0.481140       -13.0925
 259   2.0000      -0.476069       -12.9545
 260   2.0000      -0.473090       -12.8734
 261   2.0000      -0.470831       -12.8120
 262   2.0000      -0.469632       -12.7793
 263   2.0000      -0.467926       -12.7329
 264   2.0000      -0.464594       -12.6422
 265   2.0000      -0.461070       -12.5463
 266   2.0000      -0.460200       -12.5227
 267   2.0000      -0.458479       -12.4759
 268   2.0000      -0.457979       -12.4623
 269   2.0000      -0.455742       -12.4014
 270   2.0000      -0.453981       -12.3534
 271   2.0000      -0.450472       -12.2580
 272   2.0000      -0.449962       -12.2441
 273   2.0000      -0.446723       -12.1559
 274   2.0000      -0.446529       -12.1507
 275   2.0000      -0.445674       -12.1274
 276   2.0000      -0.444066       -12.0837
 277   2.0000      -0.443738       -12.0747
 278   2.0000      -0.439312       -11.9543
 279   2.0000      -0.439147       -11.9498
 280   2.0000      -0.437488       -11.9047
 281   2.0000      -0.436174       -11.8689
 282   2.0000      -0.432675       -11.7737
 283   2.0000      -0.430889       -11.7251
 284   2.0000      -0.428735       -11.6665
 285   2.0000      -0.428024       -11.6471
 286   2.0000      -0.426274       -11.5995
 287   2.0000      -0.423909       -11.5352
 288   2.0000      -0.422543       -11.4980
 289   2.0000      -0.419738       -11.4217
 290   2.0000      -0.418662       -11.3924
 291   2.0000      -0.418480       -11.3874
 292   2.0000      -0.416058       -11.3215
 293   2.0000      -0.410809       -11.1787
 294   2.0000      -0.409484       -11.1426
 295   2.0000      -0.409404       -11.1405
 296   2.0000      -0.403742       -10.9864
 297   2.0000      -0.392794       -10.6885
 298   2.0000      -0.389589       -10.6013
 299   2.0000      -0.389215       -10.5911
 300   2.0000      -0.383419       -10.4334
 301   2.0000      -0.382504       -10.4085
 302   2.0000      -0.381952       -10.3934
 303   2.0000      -0.375472       -10.2171
 304   2.0000      -0.374421       -10.1885
 305   2.0000      -0.366368        -9.9694
 306   2.0000      -0.359894        -9.7932
 307   2.0000      -0.359044        -9.7701
 308   2.0000      -0.351103        -9.5540
 309   2.0000      -0.347103        -9.4452
 310   2.0000      -0.341773        -9.3001
 311   2.0000      -0.338689        -9.2162
 312   2.0000      -0.337046        -9.1715
 313   2.0000      -0.334755        -9.1091
 314   2.0000      -0.326217        -8.8768
 315   2.0000      -0.315549        -8.5865
 316   2.0000      -0.314423        -8.5559
 317   2.0000      -0.302678        -8.2363
 318   2.0000      -0.294817        -8.0224
 319   2.0000      -0.291643        -7.9360
 320   2.0000      -0.283898        -7.7253
 321   2.0000      -0.282747        -7.6939
 322   2.0000      -0.266309        -7.2466
 323   2.0000      -0.233159        -6.3446
 324   0.0000      -0.138639        -3.7726
 325   0.0000      -0.090832        -2.4717
 326   0.0000      -0.086941        -2.3658
 327   0.0000      -0.062983        -1.7139
 328   0.0000      -0.059574        -1.6211

MULLIKEN ATOMIC CHARGES
-----------------------
   0 C :    0.291271
   1 C :   -0.344769
   2 C :   -0.185572
   3 N :    0.148069
   4 C :   -0.205729
   5 N :    0.159971
   6 C :    0.014472
   7 C :   -0.008714
   8 C :   -0.072911
   9 C :    0.115457
  10 C :   -0.090874
  11 C :   -0.017711
  12 S :    0.186357
  13 C :   -0.123989
  14 C :    0.038347
  15 Br:    0.022034
  16 C :    0.155649
  17 O :   -0.170729
  18 C :   -0.094967
  19 C :    0.036201
  20 C :   -0.115930
  21 C :   -0.046740
  22 C :    0.146635
  23 C :   -0.109085
  24 S :    0.166637
  25 C :   -0.080227
  26 C :    0.196200
  27 N :   -0.164856
  28 C :    0.123353
  29 C :   -0.121987
  30 C :   -0.164632
  31 S :    0.170596
  32 C :    0.184150
  33 C :   -0.061283
  34 C :   -0.058969
  35 N :    0.007462
  36 C :   -0.104425
  37 C :   -0.104724
  38 N :    0.006322
  39 C :   -0.238673
  40 N :    0.254038
  41 C :   -0.234986
  42 N :    0.249448
  43 C :    0.182532
  44 C :   -0.010039
  45 C :   -0.007167
  46 N :   -0.295523
  47 S :    0.549034
  48 N :   -0.291984
  49 C :   -0.165013
  50 C :   -0.120554
  51 C :    0.197739
  52 C :   -0.085989
  53 S :    0.170242
  54 C :   -0.097575
  55 C :    0.146652
  56 N :   -0.165557
  57 C :    0.125165
  58 C :   -0.036080
  59 C :   -0.114786
  60 S :    0.173910
  61 C :    0.083615
  62 C :   -0.144157
  63 C :    0.275679
  64 C :   -0.350590
  65 C :   -0.179266
  66 N :    0.149187
  67 C :   -0.212007
  68 N :    0.174210
  69 C :   -0.000807
  70 C :    0.006797
  71 C :    0.132697
  72 O :   -0.144800
  73 C :   -0.071266
  74 C :    0.111233
  75 C :   -0.089340
  76 C :   -0.023985
  77 S :    0.182937
  78 C :   -0.125263
  79 C :    0.042333
  80 Br:    0.022962
  81 H :   -0.014899
  82 H :   -0.005466
  83 H :   -0.005084
  84 H :    0.018794
  85 H :    0.007193
  86 H :    0.040992
  87 H :    0.053117
  88 H :    0.043890
  89 H :   -0.010837
  90 H :   -0.007189
  91 H :    0.054479
  92 H :    0.040263
  93 H :    0.040278
  94 H :   -0.005168
  95 H :    0.023867
  96 H :   -0.009966
  97 H :   -0.006365
  98 H :   -0.003263
Sum of atomic charges:    0.0000000

LOEWDIN ATOMIC CHARGES
----------------------
   0 C :    0.075459
   1 C :   -0.144651
   2 C :   -0.018366
   3 N :   -0.056578
   4 C :   -0.027863
   5 N :   -0.050518
   6 C :   -0.020009
   7 C :   -0.049875
   8 C :    0.019433
   9 C :   -0.034110
  10 C :   -0.144306
  11 C :   -0.010089
  12 S :    0.432540
  13 C :   -0.272423
  14 C :   -0.071239
  15 Br:    0.135426
  16 C :    0.088100
  17 O :   -0.154271
  18 C :   -0.103234
  19 C :    0.045599
  20 C :   -0.167985
  21 C :   -0.027282
  22 C :   -0.011502
  23 C :   -0.200371
  24 S :    0.437721
  25 C :   -0.219407
  26 C :   -0.005130
  27 N :    0.026991
  28 C :    0.041335
  29 C :   -0.056835
  30 C :   -0.150923
  31 S :    0.455902
  32 C :   -0.042789
  33 C :   -0.012300
  34 C :   -0.013051
  35 N :   -0.011489
  36 C :   -0.021378
  37 C :   -0.020080
  38 N :   -0.012309
  39 C :   -0.038631
  40 N :    0.003191
  41 C :   -0.038326
  42 N :    0.001855
  43 C :   -0.039984
  44 C :   -0.035128
  45 C :   -0.034325
  46 N :   -0.277967
  47 S :    0.669994
  48 N :   -0.277158
  49 C :   -0.151967
  50 C :   -0.054644
  51 C :   -0.003467
  52 C :   -0.217657
  53 S :    0.455542
  54 C :   -0.197752
  55 C :   -0.003476
  56 N :    0.027590
  57 C :    0.040937
  58 C :   -0.029318
  59 C :   -0.170757
  60 S :    0.446419
  61 C :    0.047566
  62 C :   -0.103747
  63 C :    0.066469
  64 C :   -0.152279
  65 C :   -0.022042
  66 N :   -0.059329
  67 C :   -0.021245
  68 N :   -0.045515
  69 C :   -0.018573
  70 C :   -0.051666
  71 C :    0.082015
  72 O :   -0.144945
  73 C :    0.022482
  74 C :   -0.034242
  75 C :   -0.144197
  76 C :   -0.014990
  77 S :    0.430031
  78 C :   -0.272703
  79 C :   -0.069632
  80 Br:    0.136017
  81 H :    0.038961
  82 H :    0.041066
  83 H :    0.038036
  84 H :    0.044552
  85 H :    0.034027
  86 H :    0.033889
  87 H :    0.040846
  88 H :    0.030577
  89 H :    0.029111
  90 H :    0.028876
  91 H :    0.036316
  92 H :    0.031257
  93 H :    0.037608
  94 H :    0.035430
  95 H :    0.046525
  96 H :    0.041472
  97 H :    0.039896
  98 H :    0.038965

  Mayer bond orders larger than 0.100000
B(  0-C ,  1-C ) :   1.6272 B(  0-C ,  6-C ) :   0.9968 B(  0-C , 18-C ) :   1.0821
B(  1-C ,  2-C ) :   1.1441 B(  1-C ,  4-C ) :   1.1353 B(  2-C ,  3-N ) :   2.9727
B(  4-C ,  5-N ) :   2.9973 B(  6-C ,  7-C ) :   1.2743 B(  6-C , 11-C ) :   1.4165
B(  7-C ,  8-C ) :   1.4242 B(  7-C , 16-C ) :   0.9543 B(  8-C ,  9-C ) :   1.2468
B(  8-C , 81-H ) :   1.0157 B(  9-C , 10-C ) :   1.3071 B(  9-C , 14-C ) :   1.1621
B( 10-C , 11-C ) :   1.3262 B( 10-C , 12-S ) :   1.0856 B( 11-C , 82-H ) :   0.9800
B( 12-S , 13-C ) :   1.0863 B( 13-C , 14-C ) :   1.6210 B( 13-C , 15-Br) :   1.0185
B( 14-C , 83-H ) :   0.9994 B( 16-C , 17-O ) :   2.1506 B( 16-C , 18-C ) :   0.9549
B( 18-C , 19-C ) :   1.5556 B( 19-C , 20-C ) :   1.2515 B( 19-C , 84-H ) :   0.9217
B( 20-C , 21-C ) :   1.3962 B( 20-C , 24-S ) :   1.0666 B( 21-C , 22-C ) :   1.2650
B( 21-C , 85-H ) :   0.9847 B( 22-C , 23-C ) :   1.3185 B( 22-C , 27-N ) :   1.1399
B( 23-C , 24-S ) :   1.0595 B( 23-C , 25-C ) :   1.4261 B( 25-C , 26-C ) :   1.3433
B( 25-C , 31-S ) :   0.9827 B( 26-C , 27-N ) :   1.1530 B( 26-C , 29-C ) :   1.2203
B( 27-N , 28-C ) :   0.9638 B( 28-C , 86-H ) :   0.9708 B( 28-C , 87-H ) :   0.9719
B( 28-C , 88-H ) :   0.9740 B( 29-C , 30-C ) :   1.4110 B( 29-C , 89-H ) :   1.0012
B( 30-C , 31-S ) :   1.0895 B( 30-C , 32-C ) :   1.2346 B( 32-C , 33-C ) :   1.2460
B( 32-C , 43-C ) :   0.1172 B( 32-C , 45-C ) :   1.1864 B( 33-C , 34-C ) :   1.1089
B( 33-C , 38-N ) :   1.4090 B( 34-C , 35-N ) :   1.4091 B( 34-C , 43-C ) :   1.2416
B( 35-N , 36-C ) :   1.6980 B( 36-C , 37-C ) :   1.2177 B( 36-C , 41-C ) :   1.1623
B( 37-C , 38-N ) :   1.6984 B( 37-C , 39-C ) :   1.1668 B( 39-C , 40-N ) :   3.0396
B( 41-C , 42-N ) :   3.0388 B( 43-C , 44-C ) :   1.1869 B( 43-C , 49-C ) :   1.2407
B( 44-C , 45-C ) :   1.0990 B( 44-C , 48-N ) :   1.5191 B( 45-C , 46-N ) :   1.5162
B( 46-N , 47-S ) :   1.2715 B( 46-N , 48-N ) :   0.1478 B( 47-S , 48-N ) :   1.2725
B( 49-C , 50-C ) :   1.4111 B( 49-C , 53-S ) :   1.0865 B( 50-C , 51-C ) :   1.2199
B( 50-C , 90-H ) :   0.9973 B( 51-C , 52-C ) :   1.3453 B( 51-C , 56-N ) :   1.1422
B( 52-C , 53-S ) :   0.9820 B( 52-C , 54-C ) :   1.4272 B( 54-C , 55-C ) :   1.3321
B( 54-C , 60-S ) :   1.0554 B( 55-C , 56-N ) :   1.1495 B( 55-C , 58-C ) :   1.3215
B( 56-N , 57-C ) :   0.9647 B( 57-C , 91-H ) :   0.9714 B( 57-C , 92-H ) :   0.9713
B( 57-C , 93-H ) :   0.9737 B( 58-C , 59-C ) :   1.3738 B( 58-C , 94-H ) :   0.9942
B( 59-C , 60-S ) :   1.0798 B( 59-C , 61-C ) :   1.1868 B( 61-C , 62-C ) :   1.6114
B( 61-C , 95-H ) :   0.9263 B( 62-C , 63-C ) :   1.0624 B( 62-C , 71-C ) :   0.9515
B( 63-C , 64-C ) :   1.6188 B( 63-C , 69-C ) :   1.0077 B( 64-C , 65-C ) :   1.1302
B( 64-C , 67-C ) :   1.1704 B( 65-C , 66-N ) :   2.9854 B( 67-C , 68-N ) :   2.9980
B( 69-C , 70-C ) :   1.2788 B( 69-C , 76-C ) :   1.4173 B( 70-C , 71-C ) :   0.9180
B( 70-C , 73-C ) :   1.4283 B( 71-C , 72-O ) :   2.2606 B( 73-C , 74-C ) :   1.2482
B( 73-C , 96-H ) :   1.0158 B( 74-C , 75-C ) :   1.3138 B( 74-C , 79-C ) :   1.1619
B( 75-C , 76-C ) :   1.3231 B( 75-C , 77-S ) :   1.0835 B( 76-C , 97-H ) :   0.9821
B( 77-S , 78-C ) :   1.0865 B( 78-C , 79-C ) :   1.6199 B( 78-C , 80-Br) :   1.0187
B( 79-C , 98-H ) :   0.9998

-----------------------------------------------------------------------------
         ABSORPTION SPECTRUM VIA TRANSITION ELECTRIC DIPOLE MOMENTS
-----------------------------------------------------------------------------
State   Energy  Wavelength   fosc         T2         TX        TY        TZ
        (cm-1)    (nm)                  (au**2)     (au)      (au)      (au)
-----------------------------------------------------------------------------
   0    6256.7   1598.3   0.787764398  41.44991   4.09672  -3.85804   3.12768
   1   14756.2    677.7   0.001896192   0.04230   0.19437   0.06711   0.00466
   2   15595.9    641.2   0.067010418   1.41452  -0.77544   0.64944  -0.62565
   3   15799.8    632.9   0.014091084   0.29361   0.25739   0.47532   0.03775
   4   17598.7    568.2   1.100545727  20.58752   3.00525  -2.22215   2.57255
   5   18936.1    528.1   0.850083850  14.77908  -2.35650   2.31900  -1.96169
   6   22275.1    448.9   0.146936770   2.17164   1.02987  -0.74851   0.74212
   7   22647.4    441.6   0.067326429   0.97869  -0.94632  -0.08430  -0.27580
   8   23174.3    431.5   0.024931691   0.35418   0.47429   0.08801   0.34854
   9   24000.2    416.7   0.000602306   0.00826  -0.02982   0.02706   0.08149
  10   24533.0    407.6   0.035936296   0.48223   0.35869  -0.56736   0.17800
  11   24583.5    406.8   0.019263285   0.25797   0.02900   0.00844   0.50700
  12   24824.6    402.8   0.073758295   0.97815   0.67935   0.71658  -0.05608
  13   25249.8    396.0   0.242148377   3.15718   0.68589  -1.34304   0.93967
  14   25636.1    390.1   0.236434628   3.03623   1.04613  -1.37823   0.20578
  15   26041.4    384.0   0.068071094   0.86055   0.12170   0.82588  -0.40455
  16   27051.4    369.7   0.041332065   0.50301  -0.36479   0.29797  -0.53023
  17   27498.6    363.7   0.014020530   0.16785   0.27508   0.17753   0.24631
  18   27899.1    358.4   0.031818053   0.37546   0.60629   0.08107   0.03597
  19   28078.2    356.1   0.008745603   0.10254   0.28291   0.13108   0.07296
  20   28567.1    350.1   0.000334171   0.00385   0.05276  -0.00714  -0.03188
  21   28749.4    347.8   0.005289223   0.06057  -0.00838  -0.08900  -0.22929
  22   29023.8    344.5   0.003997914   0.04535  -0.08118   0.17996  -0.07984
  23   29274.5    341.6   0.122904718   1.38215   0.84708  -0.73215   0.35854
  24   29671.5    337.0   0.050734274   0.56291  -0.25529   0.17126   0.68440
  25   30008.4    333.2   0.490474832   5.38084  -1.59358   1.52093  -0.72673
  26   30347.1    329.5   0.322861811   3.50247  -1.04810  -1.20303   0.97809
  27   31091.2    321.6   0.009791895   0.10368   0.10867  -0.07724  -0.29310
  28   31442.8    318.0   0.378560641   3.96361   1.10747   1.60417   0.40467
  29   31560.9    316.8   0.052154457   0.54402   0.64583   0.11660   0.33665
  30   31611.2    316.3   0.005827342   0.06069   0.17666   0.16711   0.03942
  31   32067.5    311.8   0.095576714   0.98121   0.15166   0.70388  -0.68026
  32   32176.1    310.8   0.037696079   0.38569  -0.52168  -0.30748  -0.13784
  33   32278.1    309.8   0.003745619   0.03820  -0.00129  -0.19544   0.00146
  34   32312.3    309.5   0.036622466   0.37313  -0.51565   0.30562   0.11758
  35   32422.7    308.4   0.039520684   0.40128   0.49138  -0.24982   0.31212
  36   32573.1    307.0   0.004137352   0.04182   0.05972   0.14300  -0.13342
  37   32747.5    305.4   0.145399920   1.46171  -0.44956  -1.08307  -0.29423
  38   32868.9    304.2   0.016188804   0.16215  -0.37088   0.08910   0.12905
  39   33336.7    300.0   0.003206663   0.03167   0.03122  -0.08109   0.15529
  40   33661.5    297.1   0.022935798   0.22431   0.44869   0.09893   0.11491
  41   33803.9    295.8   0.151368167   1.47416  -0.78826  -0.91249   0.14199
  42   34438.4    290.4   0.019558724   0.18697  -0.33422   0.16475  -0.21938
  43   34517.3    289.7   0.027707776   0.26427  -0.34393   0.32913  -0.19404
  44   34747.6    287.8   0.300747212   2.84939   1.19026   0.87787  -0.81364
  45   34807.6    287.3   0.208556569   1.97254   0.63390  -1.22096   0.28280
  46   34856.0    286.9   0.118744071   1.12153   0.48962  -0.93891  -0.01553
  47   35059.4    285.2   0.005137692   0.04824   0.05199   0.02019  -0.21244
  48   35292.9    283.3   0.077129857   0.71947   0.66819  -0.30971   0.42079
  49   35340.3    283.0   0.067179689   0.62581  -0.09671   0.78047   0.08560
  50   35507.4    281.6   0.018466410   0.17121   0.15882   0.36732  -0.10519
  51   35700.8    280.1   0.051821300   0.47787  -0.50281   0.44612   0.16133
  52   36126.5    276.8   0.019860357   0.18098  -0.40109   0.05603  -0.13028
  53   36230.0    276.0   0.059730675   0.54276  -0.59540  -0.11785   0.41758
  54   36354.5    275.1   0.140365994   1.27110   1.05787   0.38779   0.04036
  55   36917.4    270.9   0.044919958   0.40058  -0.10530  -0.62015  -0.06997
  56   37137.5    269.3   0.025995077   0.23044   0.41199   0.02813   0.24477
  57   37636.0    265.7   0.022138172   0.19365   0.06583  -0.43495  -0.01159
  58   38220.9    261.6   0.064008527   0.55133  -0.20537  -0.70973   0.07368
  59   38474.9    259.9   0.008045599   0.06884  -0.17082  -0.08930  -0.17801
  60   38683.4    258.5   0.000067420   0.00057   0.01253  -0.00688   0.01922
  61   39186.9    255.2   0.051032817   0.42873  -0.34214  -0.52985  -0.17586
  62   39428.0    253.6   0.298769351   2.49463  -1.30913  -0.50915  -0.72221
  63   39706.5    251.8   0.078692996   0.65245  -0.12592   0.75402  -0.26087
  64   40020.3    249.9   0.223522666   1.83873  -0.77672  -1.04394  -0.38162
  65   40277.4    248.3   0.017686190   0.14456  -0.23407  -0.10700  -0.27986

FINAL SINGLE POINT ENERGY    -10958.950558025750

DIPOLE MOMENT
-------------
                                X             Y             Z
Electronic contribution:    -42.79387     -12.39663      32.19597
Nuclear contribution   :     36.87002       8.95264     -31.64432
                        -----------------------------------------
Total Dipole Moment    :     -5.92385      -3.44399       0.55166
                        -----------------------------------------
Magnitude (a.u.)       :      6.87440
Magnitude (Debye)      :     17.47333

Rotational constants in cm-1:     0.002014     0.000095     0.000092
Rotational constants in MHz :    60.373411     2.834624     2.755997

                             ****ORCA TERMINATED NORMALLY****
TOTAL RUN TIME: 0 days 0 hours 12 minutes 7 seconds 759 msec
