                         Program Version 4.2.0 -  RELEASE  -
|  1> # ORCA input file
|  2> # SCF done       -221.534910259601          0.000886273643
|  3> ! CAM-B3LYP def2-SVP def2/J RIJCOSX Grid4 TightSCF
|  4> %maxcore 5000
|  5> %tddft
|  6>     Mode sTDDFT
|  7>     Ethresh 5.0
|  8>     maxcore 5000
|  9> end
| 10>
| 11> %pal
| 12>   nprocs 6
| 13>   end
| 14> * xyz 0 1
| 15>    C       -2.28207         4.72480         4.72489
| 16>    C       -1.19274         5.31076         4.13894
| 17>    C       -0.02660         5.68716         4.84299
| 18>    N        0.94963         6.01062         5.35131
| 19>    C       -1.05298         5.66269         2.77789
| 20>    N       -0.84956         6.00519         1.70126
| 21>    C       -2.42544         4.47578         6.15261
| 22>    C       -3.72241         3.96061         6.39436
| 23>    C       -4.19161         3.68640         7.65895
| 24>    C       -3.33924         3.92737         8.74039
| 25>    C       -2.02888         4.40775         8.48541
| 26>    C       -1.55827         4.68869         7.20892
| 27>    S       -1.12832         4.61985         9.95316
| 28>    C       -2.50888         4.08884        10.88101
| 29>    C       -3.58918         3.76264        10.13054
| 30>   Br       -2.38915         4.00740        12.74935
| 31>    C       -4.44454         3.82873         5.12327
| 32>    O       -5.57251         3.37455         5.00877
| 33>    C       -3.52187         4.30962         4.06809
| 34>    C       -3.68342         4.30090         2.71086
| 35>    C       -4.81133         3.98605         1.91362
| 36>    C       -6.12997         3.82591         2.25530
| 37>    C       -6.94665         3.43776         1.17669
| 38>    C       -8.30781         3.07705         1.17500
| 39>    C       -8.86512         2.74558        -0.06018
| 40>    C       -8.03590         2.81399        -1.21623
| 41>    N       -6.75598         3.11359        -1.22129
| 42>    C       -6.22591         3.40066        -0.05004
| 43>    S       -4.55249         3.76473         0.17782
| 44>    S       -8.88328         2.38770        -2.67243
| 45>    C      -10.31606         2.05662        -1.73307
| 46>    C      -10.16747         2.27121        -0.40318
| 47>    F      -11.12929         2.01895         0.49298
| 48>    F      -11.40875         1.62123        -2.34347
| 49>    C       -9.02369         3.03482         2.44451
| 50>    C      -10.22443         3.71405         2.67903
| 51>    C      -10.82324         3.73741         3.98337
| 52>    N      -12.00682         4.36479         4.15703
| 53>    C      -12.56022         4.95660         3.15344
| 54>    C      -11.91766         5.00572         1.87822
| 55>    N      -10.79489         4.41104         1.66547
| 56>    F      -12.45863         5.69058         0.87895
| 57>    F      -13.73469         5.54091         3.34030
| 58>    C      -10.19481         3.17209         5.11201
| 59>    C       -9.00022         2.46753         4.86889
| 60>    C       -8.45471         2.36848         3.53693
| 61>    N       -7.34902         1.61143         3.50518
| 62>    S       -7.00064         1.15194         4.98126
| 63>    N       -8.23663         1.80704         5.75349
| 64>    C      -10.73323         3.31579         6.43211
| 65>    C      -10.04232         3.06461         7.59117
| 66>    C      -10.82011         3.22370         8.75231
| 67>    C      -10.47577         3.03389        10.10700
| 68>    C      -11.48160         3.32641        11.04226
| 69>    C      -12.76009         3.72744        10.57236
| 70>    N      -13.08910         3.89190         9.31151
| 71>    C      -12.14200         3.64992         8.43107
| 72>    S      -12.37816         3.82466         6.72110
| 73>    S      -13.90001         3.97664        11.86345
| 74>    C      -12.67664         3.52898        13.01858
| 75>    C      -11.47920         3.21457        12.46124
| 76>    F      -10.40552         2.84119        13.17000
| 77>    F      -12.96402         3.52526        14.31221
| 78>    C       -9.15935         2.62048        10.52031
| 79>    C       -8.32759         1.71319         9.95388
| 80>    C       -8.51595         0.72320         8.90533
| 81>    C       -9.70629         0.19370         8.48486
| 82>    C       -9.83121        -0.66716         7.37525
| 83>    N       -9.98331        -1.32593         6.44798
| 84>    C      -10.93617         0.40481         9.14145
| 85>    N      -11.94300         0.48583         9.68590
| 86>    C       -7.19348         0.30256         8.46262
| 87>    C       -6.21393         0.89333         9.30058
| 88>    C       -6.87869         1.75228        10.29655
| 89>    O       -6.35313         2.43043        11.15065
| 90>    C       -4.86722         0.67047         9.13641
| 91>    C       -4.46486        -0.14742         8.07683
| 92>    C       -5.44935        -0.74598         7.25462
| 93>    C       -6.81220        -0.54911         7.44193
| 94>    S       -4.73283        -1.71247         6.00210
| 95>    C       -3.14095        -1.29922         6.58687
| 96>    C       -3.14602        -0.48554         7.67012
| 97>   Br       -1.62850        -1.96992         5.70679
| 98>    H       -5.19292         3.31300         7.80947
| 99>    H       -0.55820         5.06435         7.07474
|100>    H       -4.52410         3.43328        10.55136
|101>    H       -2.80811         4.54678         2.12187
|102>    H       -6.49061         3.99355         3.25022
|103>    H       -9.00032         2.80760         7.58011
|104>    H       -8.74568         3.14277        11.37858
|105>    H       -4.14149         1.11125         9.80118
|106>    H       -7.52676        -1.04587         6.80817
|107>    H       -2.25622        -0.13641         8.16143
|108> *
|109>
|110>                          ****END OF INPUT****

CARTESIAN COORDINATES (ANGSTROEM)
---------------------------------
  C     -2.282070    4.724800    4.724890
  C     -1.192740    5.310760    4.138940
  C     -0.026600    5.687160    4.842990
  N      0.949630    6.010620    5.351310
  C     -1.052980    5.662690    2.777890
  N     -0.849560    6.005190    1.701260
  C     -2.425440    4.475780    6.152610
  C     -3.722410    3.960610    6.394360
  C     -4.191610    3.686400    7.658950
  C     -3.339240    3.927370    8.740390
  C     -2.028880    4.407750    8.485410
  C     -1.558270    4.688690    7.208920
  S     -1.128320    4.619850    9.953160
  C     -2.508880    4.088840   10.881010
  C     -3.589180    3.762640   10.130540
  Br    -2.389150    4.007400   12.749350
  C     -4.444540    3.828730    5.123270
  O     -5.572510    3.374550    5.008770
  C     -3.521870    4.309620    4.068090
  C     -3.683420    4.300900    2.710860
  C     -4.811330    3.986050    1.913620
  C     -6.129970    3.825910    2.255300
  C     -6.946650    3.437760    1.176690
  C     -8.307810    3.077050    1.175000
  C     -8.865120    2.745580   -0.060180
  C     -8.035900    2.813990   -1.216230
  N     -6.755980    3.113590   -1.221290
  C     -6.225910    3.400660   -0.050040
  S     -4.552490    3.764730    0.177820
  S     -8.883280    2.387700   -2.672430
  C    -10.316060    2.056620   -1.733070
  C    -10.167470    2.271210   -0.403180
  F    -11.129290    2.018950    0.492980
  F    -11.408750    1.621230   -2.343470
  C     -9.023690    3.034820    2.444510
  C    -10.224430    3.714050    2.679030
  C    -10.823240    3.737410    3.983370
  N    -12.006820    4.364790    4.157030
  C    -12.560220    4.956600    3.153440
  C    -11.917660    5.005720    1.878220
  N    -10.794890    4.411040    1.665470
  F    -12.458630    5.690580    0.878950
  F    -13.734690    5.540910    3.340300
  C    -10.194810    3.172090    5.112010
  C     -9.000220    2.467530    4.868890
  C     -8.454710    2.368480    3.536930
  N     -7.349020    1.611430    3.505180
  S     -7.000640    1.151940    4.981260
  N     -8.236630    1.807040    5.753490
  C    -10.733230    3.315790    6.432110
  C    -10.042320    3.064610    7.591170
  C    -10.820110    3.223700    8.752310
  C    -10.475770    3.033890   10.107000
  C    -11.481600    3.326410   11.042260
  C    -12.760090    3.727440   10.572360
  N    -13.089100    3.891900    9.311510
  C    -12.142000    3.649920    8.431070
  S    -12.378160    3.824660    6.721100
  S    -13.900010    3.976640   11.863450
  C    -12.676640    3.528980   13.018580
  C    -11.479200    3.214570   12.461240
  F    -10.405520    2.841190   13.170000
  F    -12.964020    3.525260   14.312210
  C     -9.159350    2.620480   10.520310
  C     -8.327590    1.713190    9.953880
  C     -8.515950    0.723200    8.905330
  C     -9.706290    0.193700    8.484860
  C     -9.831210   -0.667160    7.375250
  N     -9.983310   -1.325930    6.447980
  C    -10.936170    0.404810    9.141450
  N    -11.943000    0.485830    9.685900
  C     -7.193480    0.302560    8.462620
  C     -6.213930    0.893330    9.300580
  C     -6.878690    1.752280   10.296550
  O     -6.353130    2.430430   11.150650
  C     -4.867220    0.670470    9.136410
  C     -4.464860   -0.147420    8.076830
  C     -5.449350   -0.745980    7.254620
  C     -6.812200   -0.549110    7.441930
  S     -4.732830   -1.712470    6.002100
  C     -3.140950   -1.299220    6.586870
  C     -3.146020   -0.485540    7.670120
  Br    -1.628500   -1.969920    5.706790
  H     -5.192920    3.313000    7.809470
  H     -0.558200    5.064350    7.074740
  H     -4.524100    3.433280   10.551360
  H     -2.808110    4.546780    2.121870
  H     -6.490610    3.993550    3.250220
  H     -9.000320    2.807600    7.580110
  H     -8.745680    3.142770   11.378580
  H     -4.141490    1.111250    9.801180
  H     -7.526760   -1.045870    6.808170
  H     -2.256220   -0.136410    8.161430

 Total Charge           Charge          ....    0
 Multiplicity           Mult            ....    1
 Number of Electrons    NEL             ....  668
 Basis Dimension        Dim             .... 1276

ORBITAL ENERGIES
----------------

  NO   OCC          E(Eh)            E(eV)
   0   2.0000    -482.898115    -13140.3258
   1   2.0000    -482.890145    -13140.1089
   2   2.0000     -89.052867     -2423.2517
   3   2.0000     -88.992236     -2421.6018
   4   2.0000     -88.984225     -2421.3839
   5   2.0000     -88.977050     -2421.1886
   6   2.0000     -88.973372     -2421.0885
   7   2.0000     -88.967565     -2420.9305
   8   2.0000     -88.960781     -2420.7459
   9   2.0000     -62.575786     -1702.7737
  10   2.0000     -62.567840     -1702.5575
  11   2.0000     -56.409757     -1534.9875
  12   2.0000     -56.407000     -1534.9125
  13   2.0000     -56.406981     -1534.9120
  14   2.0000     -56.401802     -1534.7711
  15   2.0000     -56.399058     -1534.6964
  16   2.0000     -56.399039     -1534.6959
  17   2.0000     -24.823802      -675.4900
  18   2.0000     -24.821509      -675.4276
  19   2.0000     -24.816261      -675.2848
  20   2.0000     -24.814913      -675.2481
  21   2.0000     -24.805100      -674.9811
  22   2.0000     -24.804739      -674.9713
  23   2.0000     -19.240738      -523.5671
  24   2.0000     -19.238617      -523.5094
  25   2.0000     -14.463956      -393.5842
  26   2.0000     -14.460807      -393.4986
  27   2.0000     -14.455643      -393.3580
  28   2.0000     -14.452254      -393.2658
  29   2.0000     -14.436650      -392.8412
  30   2.0000     -14.433197      -392.7472
  31   2.0000     -14.428785      -392.6272
  32   2.0000     -14.427406      -392.5897
  33   2.0000     -14.425889      -392.5484
  34   2.0000     -14.425427      -392.5358
  35   2.0000     -10.440853      -284.1101
  36   2.0000     -10.438355      -284.0421
  37   2.0000     -10.396706      -282.9087
  38   2.0000     -10.395871      -282.8860
  39   2.0000     -10.391303      -282.7617
  40   2.0000     -10.387671      -282.6629
  41   2.0000     -10.375380      -282.3284
  42   2.0000     -10.373646      -282.2813
  43   2.0000     -10.372980      -282.2631
  44   2.0000     -10.366077      -282.0753
  45   2.0000     -10.362266      -281.9716
  46   2.0000     -10.358118      -281.8587
  47   2.0000     -10.355862      -281.7973
  48   2.0000     -10.355529      -281.7883
  49   2.0000     -10.355208      -281.7795
  50   2.0000     -10.354984      -281.7734
  51   2.0000     -10.354720      -281.7663
  52   2.0000     -10.354173      -281.7514
  53   2.0000     -10.353544      -281.7342
  54   2.0000     -10.347728      -281.5760
  55   2.0000     -10.345715      -281.5212
  56   2.0000     -10.343234      -281.4537
  57   2.0000     -10.341446      -281.4051
  58   2.0000     -10.338615      -281.3280
  59   2.0000     -10.336933      -281.2822
  60   2.0000     -10.331615      -281.1375
  61   2.0000     -10.331534      -281.1353
  62   2.0000     -10.331166      -281.1253
  63   2.0000     -10.329621      -281.0833
  64   2.0000     -10.328957      -281.0652
  65   2.0000     -10.328909      -281.0639
  66   2.0000     -10.328525      -281.0535
  67   2.0000     -10.327903      -281.0365
  68   2.0000     -10.326914      -281.0096
  69   2.0000     -10.326789      -281.0062
  70   2.0000     -10.324058      -280.9319
  71   2.0000     -10.323881      -280.9271
  72   2.0000     -10.322155      -280.8801
  73   2.0000     -10.321582      -280.8645
  74   2.0000     -10.321164      -280.8532
  75   2.0000     -10.319575      -280.8099
  76   2.0000     -10.318820      -280.7894
  77   2.0000     -10.318536      -280.7816
  78   2.0000     -10.317261      -280.7470
  79   2.0000     -10.317074      -280.7419
  80   2.0000     -10.316897      -280.7370
  81   2.0000     -10.315024      -280.6861
  82   2.0000     -10.313714      -280.6504
  83   2.0000     -10.311407      -280.5876
  84   2.0000     -10.311073      -280.5785
  85   2.0000     -10.307346      -280.4771
  86   2.0000     -10.306619      -280.4574
  87   2.0000     -10.304279      -280.3937
  88   2.0000     -10.303868      -280.3825
  89   2.0000     -10.298682      -280.2414
  90   2.0000     -10.290400      -280.0160
  91   2.0000      -8.805206      -239.6018
  92   2.0000      -8.797282      -239.3862
  93   2.0000      -8.141982      -221.5546
  94   2.0000      -8.088017      -220.0861
  95   2.0000      -8.080323      -219.8768
  96   2.0000      -8.074294      -219.7127
  97   2.0000      -8.070585      -219.6118
  98   2.0000      -8.064099      -219.4353
  99   2.0000      -8.055827      -219.2102
 100   2.0000      -6.641596      -180.7270
 101   2.0000      -6.633638      -180.5105
 102   2.0000      -6.626923      -180.3278
 103   2.0000      -6.626648      -180.3202
 104   2.0000      -6.619060      -180.1138
 105   2.0000      -6.618713      -180.1043
 106   2.0000      -6.112695      -166.3349
 107   2.0000      -6.105815      -166.1477
 108   2.0000      -6.104903      -166.1229
 109   2.0000      -6.057713      -164.8387
 110   2.0000      -6.053387      -164.7210
 111   2.0000      -6.049953      -164.6276
 112   2.0000      -6.049317      -164.6103
 113   2.0000      -6.045717      -164.5123
 114   2.0000      -6.043829      -164.4609
 115   2.0000      -6.041577      -164.3997
 116   2.0000      -6.040145      -164.3607
 117   2.0000      -6.040031      -164.3576
 118   2.0000      -6.036289      -164.2558
 119   2.0000      -6.035013      -164.2210
 120   2.0000      -6.033507      -164.1801
 121   2.0000      -6.031322      -164.1206
 122   2.0000      -6.029614      -164.0741
 123   2.0000      -6.025381      -163.9589
 124   2.0000      -6.025379      -163.9589
 125   2.0000      -6.021037      -163.8408
 126   2.0000      -6.017328      -163.7398
 127   2.0000      -2.757439       -75.0337
 128   2.0000      -2.753329       -74.9219
 129   2.0000      -2.753179       -74.9178
 130   2.0000      -2.749490       -74.8174
 131   2.0000      -2.745451       -74.7075
 132   2.0000      -2.745175       -74.7000
 133   2.0000      -2.741484       -74.5996
 134   2.0000      -2.741470       -74.5992
 135   2.0000      -2.733595       -74.3849
 136   2.0000      -2.733565       -74.3841
 137   2.0000      -1.352699       -36.8088
 138   2.0000      -1.338198       -36.4142
 139   2.0000      -1.335279       -36.3348
 140   2.0000      -1.333941       -36.2984
 141   2.0000      -1.316120       -35.8135
 142   2.0000      -1.315465       -35.7956
 143   2.0000      -1.154935       -31.4274
 144   2.0000      -1.153855       -31.3980
 145   2.0000      -1.146209       -31.1899
 146   2.0000      -1.122109       -30.5341
 147   2.0000      -1.084727       -29.5169
 148   2.0000      -1.078817       -29.3561
 149   2.0000      -1.048524       -28.5318
 150   2.0000      -1.039123       -28.2760
 151   2.0000      -1.034838       -28.1594
 152   2.0000      -1.026935       -27.9443
 153   2.0000      -1.024048       -27.8658
 154   2.0000      -1.006951       -27.4005
 155   2.0000      -1.006550       -27.3896
 156   2.0000      -1.005374       -27.3576
 157   2.0000      -1.004566       -27.3356
 158   2.0000      -1.004056       -27.3218
 159   2.0000      -1.000908       -27.2361
 160   2.0000      -0.998889       -27.1811
 161   2.0000      -0.989161       -26.9164
 162   2.0000      -0.978959       -26.6388
 163   2.0000      -0.972053       -26.4509
 164   2.0000      -0.958650       -26.0862
 165   2.0000      -0.953039       -25.9335
 166   2.0000      -0.941173       -25.6106
 167   2.0000      -0.932858       -25.3843
 168   2.0000      -0.923400       -25.1270
 169   2.0000      -0.919250       -25.0141
 170   2.0000      -0.908812       -24.7300
 171   2.0000      -0.903531       -24.5863
 172   2.0000      -0.901012       -24.5178
 173   2.0000      -0.896693       -24.4003
 174   2.0000      -0.891517       -24.2594
 175   2.0000      -0.883559       -24.0429
 176   2.0000      -0.874548       -23.7977
 177   2.0000      -0.863110       -23.4864
 178   2.0000      -0.862133       -23.4598
 179   2.0000      -0.855166       -23.2703
 180   2.0000      -0.845100       -22.9963
 181   2.0000      -0.839837       -22.8531
 182   2.0000      -0.832868       -22.6635
 183   2.0000      -0.828922       -22.5561
 184   2.0000      -0.822590       -22.3838
 185   2.0000      -0.818662       -22.2769
 186   2.0000      -0.816763       -22.2253
 187   2.0000      -0.793691       -21.5974
 188   2.0000      -0.789266       -21.4770
 189   2.0000      -0.776652       -21.1338
 190   2.0000      -0.776314       -21.1246
 191   2.0000      -0.773689       -21.0531
 192   2.0000      -0.767861       -20.8946
 193   2.0000      -0.749333       -20.3904
 194   2.0000      -0.740489       -20.1497
 195   2.0000      -0.728817       -19.8321
 196   2.0000      -0.723372       -19.6839
 197   2.0000      -0.722330       -19.6556
 198   2.0000      -0.714621       -19.4458
 199   2.0000      -0.711376       -19.3575
 200   2.0000      -0.706760       -19.2319
 201   2.0000      -0.701308       -19.0836
 202   2.0000      -0.699027       -19.0215
 203   2.0000      -0.694736       -18.9047
 204   2.0000      -0.693017       -18.8580
 205   2.0000      -0.686360       -18.6768
 206   2.0000      -0.680866       -18.5273
 207   2.0000      -0.678380       -18.4597
 208   2.0000      -0.672404       -18.2970
 209   2.0000      -0.669584       -18.2203
 210   2.0000      -0.667880       -18.1739
 211   2.0000      -0.663351       -18.0507
 212   2.0000      -0.656430       -17.8624
 213   2.0000      -0.653448       -17.7812
 214   2.0000      -0.646642       -17.5960
 215   2.0000      -0.641594       -17.4587
 216   2.0000      -0.637152       -17.3378
 217   2.0000      -0.636121       -17.3097
 218   2.0000      -0.629891       -17.1402
 219   2.0000      -0.628411       -17.0999
 220   2.0000      -0.626398       -17.0451
 221   2.0000      -0.623910       -16.9774
 222   2.0000      -0.619184       -16.8488
 223   2.0000      -0.616431       -16.7740
 224   2.0000      -0.608527       -16.5589
 225   2.0000      -0.605607       -16.4794
 226   2.0000      -0.598930       -16.2977
 227   2.0000      -0.597579       -16.2610
 228   2.0000      -0.596684       -16.2366
 229   2.0000      -0.594560       -16.1788
 230   2.0000      -0.592950       -16.1350
 231   2.0000      -0.587657       -15.9910
 232   2.0000      -0.585559       -15.9339
 233   2.0000      -0.581154       -15.8140
 234   2.0000      -0.578791       -15.7497
 235   2.0000      -0.573489       -15.6054
 236   2.0000      -0.569138       -15.4870
 237   2.0000      -0.565491       -15.3878
 238   2.0000      -0.561552       -15.2806
 239   2.0000      -0.561329       -15.2745
 240   2.0000      -0.558999       -15.2111
 241   2.0000      -0.557641       -15.1742
 242   2.0000      -0.557208       -15.1624
 243   2.0000      -0.556417       -15.1409
 244   2.0000      -0.554995       -15.1022
 245   2.0000      -0.552305       -15.0290
 246   2.0000      -0.547685       -14.9033
 247   2.0000      -0.543831       -14.7984
 248   2.0000      -0.541479       -14.7344
 249   2.0000      -0.540958       -14.7202
 250   2.0000      -0.539400       -14.6778
 251   2.0000      -0.536959       -14.6114
 252   2.0000      -0.532569       -14.4919
 253   2.0000      -0.530257       -14.4290
 254   2.0000      -0.527473       -14.3533
 255   2.0000      -0.527161       -14.3448
 256   2.0000      -0.525758       -14.3066
 257   2.0000      -0.523888       -14.2557
 258   2.0000      -0.519672       -14.1410
 259   2.0000      -0.518722       -14.1151
 260   2.0000      -0.518056       -14.0970
 261   2.0000      -0.515783       -14.0352
 262   2.0000      -0.513494       -13.9729
 263   2.0000      -0.511013       -13.9054
 264   2.0000      -0.509275       -13.8581
 265   2.0000      -0.507606       -13.8127
 266   2.0000      -0.501678       -13.6514
 267   2.0000      -0.499629       -13.5956
 268   2.0000      -0.499170       -13.5831
 269   2.0000      -0.496397       -13.5076
 270   2.0000      -0.487004       -13.2521
 271   2.0000      -0.485607       -13.2140
 272   2.0000      -0.483988       -13.1700
 273   2.0000      -0.481980       -13.1153
 274   2.0000      -0.480562       -13.0767
 275   2.0000      -0.474840       -12.9211
 276   2.0000      -0.471320       -12.8253
 277   2.0000      -0.468085       -12.7372
 278   2.0000      -0.466472       -12.6933
 279   2.0000      -0.463314       -12.6074
 280   2.0000      -0.462158       -12.5760
 281   2.0000      -0.460037       -12.5183
 282   2.0000      -0.458664       -12.4809
 283   2.0000      -0.457606       -12.4521
 284   2.0000      -0.456604       -12.4248
 285   2.0000      -0.455390       -12.3918
 286   2.0000      -0.453810       -12.3488
 287   2.0000      -0.453171       -12.3314
 288   2.0000      -0.449054       -12.2194
 289   2.0000      -0.447746       -12.1838
 290   2.0000      -0.446505       -12.1500
 291   2.0000      -0.444447       -12.0940
 292   2.0000      -0.443606       -12.0711
 293   2.0000      -0.438611       -11.9352
 294   2.0000      -0.438186       -11.9236
 295   2.0000      -0.434921       -11.8348
 296   2.0000      -0.433408       -11.7936
 297   2.0000      -0.432451       -11.7676
 298   2.0000      -0.430979       -11.7275
 299   2.0000      -0.423959       -11.5365
 300   2.0000      -0.422738       -11.5033
 301   2.0000      -0.420766       -11.4496
 302   2.0000      -0.418264       -11.3815
 303   2.0000      -0.416939       -11.3455
 304   2.0000      -0.412035       -11.2120
 305   2.0000      -0.407872       -11.0988
 306   2.0000      -0.405206       -11.0262
 307   2.0000      -0.403303       -10.9744
 308   2.0000      -0.399074       -10.8594
 309   2.0000      -0.393246       -10.7008
 310   2.0000      -0.387204       -10.5364
 311   2.0000      -0.384106       -10.4521
 312   2.0000      -0.382670       -10.4130
 313   2.0000      -0.379637       -10.3304
 314   2.0000      -0.378935       -10.3113
 315   2.0000      -0.375679       -10.2227
 316   2.0000      -0.366315        -9.9679
 317   2.0000      -0.361765        -9.8441
 318   2.0000      -0.360051        -9.7975
 319   2.0000      -0.352859        -9.6018
 320   2.0000      -0.351298        -9.5593
 321   2.0000      -0.343783        -9.3548
 322   2.0000      -0.341397        -9.2899
 323   2.0000      -0.338945        -9.2232
 324   2.0000      -0.334682        -9.1072
 325   2.0000      -0.332466        -9.0469
 326   2.0000      -0.330484        -8.9929
 327   2.0000      -0.326383        -8.8813
 328   2.0000      -0.307781        -8.3751
 329   2.0000      -0.304296        -8.2803
 330   2.0000      -0.298772        -8.1300
 331   2.0000      -0.293448        -7.9851
 332   2.0000      -0.285190        -7.7604
 333   2.0000      -0.271864        -7.3978
 334   0.0000      -0.119007        -3.2384
 335   0.0000      -0.107422        -2.9231
 336   0.0000      -0.101315        -2.7569
 337   0.0000      -0.080410        -2.1881
 338   0.0000      -0.076984        -2.0948

MULLIKEN ATOMIC CHARGES
-----------------------
   0 C :    0.311389
   1 C :   -0.352769
   2 C :   -0.185449
   3 N :    0.155260
   4 C :   -0.193171
   5 N :    0.167038
   6 C :    0.014527
   7 C :   -0.005808
   8 C :   -0.064300
   9 C :    0.115199
  10 C :   -0.094689
  11 C :   -0.016626
  12 S :    0.190010
  13 C :   -0.137449
  14 C :    0.033267
  15 Br:    0.038672
  16 C :    0.167635
  17 O :   -0.196953
  18 C :   -0.073339
  19 C :    0.049987
  20 C :   -0.118879
  21 C :    0.035250
  22 C :    0.047804
  23 C :    0.062220
  24 C :    0.064769
  25 C :   -0.164108
  26 N :   -0.004452
  27 C :   -0.132024
  28 S :    0.154102
  29 S :    0.140777
  30 C :    0.058215
  31 C :    0.234405
  32 F :   -0.175337
  33 F :   -0.145707
  34 C :    0.025424
  35 C :   -0.053207
  36 C :   -0.062284
  37 N :   -0.018921
  38 C :    0.145058
  39 C :    0.134718
  40 N :    0.032491
  41 F :   -0.133412
  42 F :   -0.128547
  43 C :    0.158087
  44 C :    0.030371
  45 C :   -0.059493
  46 N :   -0.220380
  47 S :    0.553100
  48 N :   -0.307746
  49 C :   -0.172729
  50 C :   -0.025795
  51 C :    0.075251
  52 C :    0.036149
  53 C :    0.085418
  54 C :   -0.163718
  55 N :    0.010720
  56 C :   -0.121580
  57 S :    0.184015
  58 S :    0.142613
  59 C :    0.065528
  60 C :    0.220664
  61 F :   -0.175771
  62 F :   -0.145213
  63 C :   -0.006148
  64 C :   -0.114333
  65 C :    0.283038
  66 C :   -0.314531
  67 C :   -0.182170
  68 N :    0.155575
  69 C :   -0.188064
  70 N :    0.179405
  71 C :    0.039080
  72 C :    0.004308
  73 C :    0.156763
  74 O :   -0.149963
  75 C :   -0.100353
  76 C :    0.125063
  77 C :   -0.084825
  78 C :   -0.082251
  79 S :    0.188925
  80 C :   -0.125579
  81 C :    0.040419
  82 Br:    0.036437
  83 H :   -0.024831
  84 H :   -0.005937
  85 H :   -0.003880
  86 H :    0.013276
  87 H :    0.020146
  88 H :    0.013710
  89 H :    0.042013
  90 H :   -0.005992
  91 H :   -0.001158
  92 H :    0.001580
Sum of atomic charges:    0.0000000

LOEWDIN ATOMIC CHARGES
----------------------
   0 C :    0.074635
   1 C :   -0.133954
   2 C :   -0.017399
   3 N :   -0.046829
   4 C :   -0.027157
   5 N :   -0.040073
   6 C :   -0.021630
   7 C :   -0.055372
   8 C :    0.020135
   9 C :   -0.034644
  10 C :   -0.143365
  11 C :   -0.008338
  12 S :    0.434743
  13 C :   -0.270825
  14 C :   -0.076047
  15 Br:    0.146078
  16 C :    0.097624
  17 O :   -0.179306
  18 C :   -0.089748
  19 C :    0.058890
  20 C :   -0.171188
  21 C :    0.013271
  22 C :   -0.058895
  23 C :    0.031725
  24 C :   -0.069730
  25 C :   -0.119044
  26 N :   -0.093000
  27 C :   -0.123964
  28 S :    0.427233
  29 S :    0.421330
  30 C :   -0.094275
  31 C :    0.003727
  32 F :   -0.048322
  33 F :   -0.036035
  34 C :   -0.029908
  35 C :   -0.003039
  36 C :   -0.010005
  37 N :   -0.051963
  38 C :    0.064276
  39 C :    0.060235
  40 N :   -0.036112
  41 F :   -0.022568
  42 F :   -0.018335
  43 C :   -0.029605
  44 C :   -0.034301
  45 C :   -0.041414
  46 N :   -0.276007
  47 S :    0.753919
  48 N :   -0.292474
  49 C :   -0.143653
  50 C :   -0.043510
  51 C :   -0.056895
  52 C :   -0.016218
  53 C :   -0.063567
  54 C :   -0.125374
  55 N :   -0.075597
  56 C :   -0.132120
  57 S :    0.462242
  58 S :    0.424610
  59 C :   -0.091600
  60 C :    0.000599
  61 F :   -0.049061
  62 F :   -0.035403
  63 C :    0.079099
  64 C :   -0.081200
  65 C :    0.063789
  66 C :   -0.116281
  67 C :   -0.014258
  68 N :   -0.048888
  69 C :   -0.014873
  70 N :   -0.037250
  71 C :   -0.011741
  72 C :   -0.061074
  73 C :    0.092185
  74 O :   -0.138667
  75 C :    0.024791
  76 C :   -0.034453
  77 C :   -0.149161
  78 C :   -0.036207
  79 S :    0.432930
  80 C :   -0.270026
  81 C :   -0.068170
  82 Br:    0.146619
  83 H :    0.036109
  84 H :    0.041686
  85 H :    0.034544
  86 H :    0.045696
  87 H :    0.030420
  88 H :    0.028340
  89 H :    0.050676
  90 H :    0.042043
  91 H :    0.034823
  92 H :    0.041099

  Mayer bond orders larger than 0.100000
B(  0-C ,  1-C ) :   1.6368 B(  0-C ,  6-C ) :   1.0002 B(  0-C , 18-C ) :   1.0639
B(  1-C ,  2-C ) :   1.1457 B(  1-C ,  4-C ) :   1.1353 B(  2-C ,  3-N ) :   2.9685
B(  4-C ,  5-N ) :   2.9749 B(  6-C ,  7-C ) :   1.2680 B(  6-C , 11-C ) :   1.4061
B(  7-C ,  8-C ) :   1.4048 B(  7-C , 16-C ) :   0.9745 B(  8-C ,  9-C ) :   1.2551
B(  8-C , 83-H ) :   1.0123 B(  9-C , 10-C ) :   1.2928 B(  9-C , 14-C ) :   1.1545
B( 10-C , 11-C ) :   1.3321 B( 10-C , 12-S ) :   1.0947 B( 11-C , 84-H ) :   0.9792
B( 12-S , 13-C ) :   1.0804 B( 13-C , 14-C ) :   1.6111 B( 13-C , 15-Br) :   1.0349
B( 14-C , 85-H ) :   0.9753 B( 16-C , 17-O ) :   2.0685 B( 16-C , 18-C ) :   0.9569
B( 18-C , 19-C ) :   1.6071 B( 19-C , 20-C ) :   1.1899 B( 19-C , 86-H ) :   0.9168
B( 20-C , 21-C ) :   1.5125 B( 20-C , 28-S ) :   1.0596 B( 21-C , 22-C ) :   1.1985
B( 21-C , 87-H ) :   0.9658 B( 22-C , 23-C ) :   1.3524 B( 22-C , 27-C ) :   1.1851
B( 23-C , 24-C ) :   1.4434 B( 23-C , 34-C ) :   0.9267 B( 24-C , 25-C ) :   1.1510
B( 24-C , 31-C ) :   1.0637 B( 25-C , 26-N ) :   1.5689 B( 25-C , 29-S ) :   1.0833
B( 26-N , 27-C ) :   1.5291 B( 27-C , 28-S ) :   1.0984 B( 29-S , 30-C ) :   1.0738
B( 30-C , 31-C ) :   1.5165 B( 30-C , 33-F ) :   1.1455 B( 31-C , 32-F ) :   1.1338
B( 34-C , 35-C ) :   1.4032 B( 34-C , 43-C ) :   0.1397 B( 34-C , 45-C ) :   1.2924
B( 35-C , 36-C ) :   1.1189 B( 35-C , 40-N ) :   1.4101 B( 36-C , 37-N ) :   1.3923
B( 36-C , 43-C ) :   1.3001 B( 37-N , 38-C ) :   1.6840 B( 38-C , 39-C ) :   1.0840
B( 38-C , 42-F ) :   1.1915 B( 39-C , 40-N ) :   1.6982 B( 39-C , 41-F ) :   1.1837
B( 43-C , 44-C ) :   1.2210 B( 43-C , 49-C ) :   1.1369 B( 44-C , 45-C ) :   1.0974
B( 44-C , 48-N ) :   1.4477 B( 45-C , 46-N ) :   1.5026 B( 46-N , 47-S ) :   1.3616
B( 46-N , 48-N ) :   0.1425 B( 47-S , 48-N ) :   1.3077 B( 49-C , 50-C ) :   1.5344
B( 49-C , 57-S ) :   1.0922 B( 50-C , 51-C ) :   1.1915 B( 50-C , 88-H ) :   0.9751
B( 51-C , 52-C ) :   1.2970 B( 51-C , 56-C ) :   1.1777 B( 52-C , 53-C ) :   1.3733
B( 52-C , 63-C ) :   1.0282 B( 53-C , 54-C ) :   1.1690 B( 53-C , 60-C ) :   1.0918
B( 54-C , 55-N ) :   1.5634 B( 54-C , 58-S ) :   1.0757 B( 55-N , 56-C ) :   1.5532
B( 56-C , 57-S ) :   1.0570 B( 58-S , 59-C ) :   1.0885 B( 59-C , 60-C ) :   1.5006
B( 59-C , 62-F ) :   1.1466 B( 60-C , 61-F ) :   1.1254 B( 63-C , 64-C ) :   1.7193
B( 63-C , 89-H ) :   0.9332 B( 64-C , 65-C ) :   1.0152 B( 64-C , 73-C ) :   0.9472
B( 65-C , 66-C ) :   1.6693 B( 65-C , 71-C ) :   1.0259 B( 66-C , 67-C ) :   1.1337
B( 66-C , 69-C ) :   1.1670 B( 67-C , 68-N ) :   2.9681 B( 69-C , 70-N ) :   2.9888
B( 71-C , 72-C ) :   1.2817 B( 71-C , 78-C ) :   1.4085 B( 72-C , 73-C ) :   0.9237
B( 72-C , 75-C ) :   1.3965 B( 73-C , 74-O ) :   2.1618 B( 75-C , 76-C ) :   1.2540
B( 75-C , 90-H ) :   1.0148 B( 76-C , 77-C ) :   1.3051 B( 76-C , 81-C ) :   1.1620
B( 77-C , 78-C ) :   1.3036 B( 77-C , 79-S ) :   1.0896 B( 78-C , 91-H ) :   0.9788
B( 79-S , 80-C ) :   1.0788 B( 80-C , 81-C ) :   1.6182 B( 80-C , 82-Br) :   1.0262
B( 81-C , 92-H ) :   1.0010

-----------------------------------------------------------------------------
         ABSORPTION SPECTRUM VIA TRANSITION ELECTRIC DIPOLE MOMENTS
-----------------------------------------------------------------------------
State   Energy  Wavelength   fosc         T2         TX        TY        TZ
        (cm-1)    (nm)                  (au**2)     (au)      (au)      (au)
-----------------------------------------------------------------------------
   0   16205.3    617.1   0.267925961   5.44293  -0.30969  -0.76167   2.18332
   1   19211.3    520.5   0.259538152   4.44755   1.63175  -0.87916  -1.00599
   2   20396.7    490.3   0.051172529   0.82595  -0.90161  -0.10000   0.05529
   3   20706.4    482.9   0.151669258   2.41140  -1.51517  -0.10092  -0.32478
   4   21558.3    463.9   0.179192542   2.73640   0.43561  -0.39527  -1.54609
   5   23276.9    429.6   0.041410663   0.58568  -0.75822  -0.00846  -0.10349
   6   23623.0    423.3   0.032942823   0.45909  -0.23052  -0.42174  -0.47759
   7   24343.1    410.8   0.590119654   7.98067  -1.75213  -0.66602  -2.11355
   8   25012.3    399.8   0.057722709   0.75975  -0.81917   0.15901   0.25184
   9   25094.6    398.5   0.160009354   2.09914  -0.83198  -0.41290  -1.11197
  10   25663.2    389.7   0.015729836   0.20179   0.40730  -0.06409   0.17828
  11   26196.2    381.7   0.197419419   2.48100  -0.24530   0.04138  -1.55535
  12   27237.5    367.1   0.123568914   1.49354  -0.07760  -0.18024   1.20625
  13   27612.1    362.2   0.009279152   0.11063  -0.28099  -0.17785  -0.00691
  14   28303.5    353.3   0.023798563   0.27681   0.26126   0.11841  -0.44106
  15   28392.4    352.2   0.021945126   0.25446  -0.37870  -0.32930   0.05101
  16   28451.3    351.5   0.003434688   0.03974  -0.07033  -0.08870  -0.16410
  17   28786.5    347.4   0.141403552   1.61714   1.11402  -0.46888  -0.39529
  18   29046.5    344.3   0.008299854   0.09407   0.12111   0.13864  -0.24532
  19   29181.2    342.7   0.022750086   0.25666  -0.16885  -0.06184   0.47363
  20   29428.8    339.8   0.025324812   0.28330   0.43406   0.06783  -0.30049
  21   29600.4    337.8   0.000398953   0.00444   0.04771   0.04247   0.01891
  22   29759.6    336.0   0.064383816   0.71224  -0.61614  -0.13535   0.56061
  23   30054.2    332.7   0.012840783   0.14066   0.05087   0.05968   0.36675
  24   30238.2    330.7   0.131773113   1.43465  -0.45877   0.41287   1.02651
  25   30377.4    329.2   0.238183486   2.58129  -1.29709   0.31006  -0.89595
  26   30465.5    328.2   0.205764135   2.22350  -1.18356   0.36797  -0.82902
  27   30727.9    325.4   0.079355071   0.85019   0.06502  -0.36011   0.84634
  28   30856.0    324.1   0.018028375   0.19235   0.39591   0.12587  -0.14057
  29   31165.7    320.9   0.017367635   0.18346   0.36513  -0.19267   0.11408
  30   31363.7    318.8   0.021048848   0.22094   0.30314  -0.16639   0.31838
  31   31525.5    317.2   0.203728306   2.12748  -1.45423   0.06714   0.09049
  32   31864.5    313.8   0.372711735   3.85071  -0.96718  -0.63679   1.58423
  33   32076.8    311.8   0.147997904   1.51894   0.25092  -0.51205   1.09260
  34   32494.2    307.7   0.015450082   0.15653  -0.34721   0.17708   0.06798
  35   32722.1    305.6   0.014266401   0.14353   0.03680  -0.08026  -0.36842
  36   32787.3    305.0   0.095936473   0.96328  -0.28303   0.15491   0.92692
  37   32907.8    303.9   0.133897154   1.33952  -0.59964   0.84339   0.51830
  38   33075.9    302.3   0.062305313   0.62014   0.72108  -0.03719  -0.31433
  39   33156.8    301.6   0.017058578   0.16937  -0.30234   0.26539   0.08680
  40   33357.2    299.8   0.081992329   0.80921   0.20178   0.42343   0.76760
  41   33551.1    298.1   0.069789945   0.68480   0.81423  -0.13313   0.06399
  42   33623.6    297.4   0.057149417   0.55956  -0.55925   0.19326   0.45765
  43   33876.9    295.2   0.058209256   0.56567   0.73645  -0.10049   0.11493
  44   33995.3    294.2   0.361269938   3.49855  -1.85815   0.20896  -0.04639
  45   34264.0    291.9   0.055509983   0.53335   0.39386   0.08146  -0.60958
  46   34395.5    290.7   0.028899279   0.27661   0.43561  -0.25209   0.15264
  47   34448.9    290.3   0.034927851   0.33379   0.41355  -0.06164  -0.39870
  48   34553.5    289.4   0.009429238   0.08984   0.01754  -0.21775   0.20522
  49   34893.7    286.6   0.120167126   1.13374   1.04604   0.01897   0.19794
  50   35004.5    285.7   0.112156803   1.05482  -0.12168   0.00381  -1.01980
  51   35123.7    284.7   0.337848317   3.16662  -0.45593   0.16438   1.71223
  52   35213.0    284.0   0.008606432   0.08046   0.18795  -0.08538  -0.19455
  53   35403.1    282.5   0.054127896   0.50333   0.69517   0.13536  -0.04189
  54   35545.8    281.3   0.033757557   0.31265   0.42258   0.34204  -0.13073
  55   35734.9    279.8   0.048924949   0.45073   0.29147   0.25679   0.54757
  56   35885.9    278.7   0.015826119   0.14519   0.15806   0.28506   0.19733
  57   36124.8    276.8   0.061328265   0.55890  -0.52633  -0.16569   0.50440
  58   36180.4    276.4   0.021301168   0.19382   0.39880   0.11154   0.14948
  59   36743.9    272.2   0.011756991   0.10534  -0.02207  -0.21937   0.23818
  60   37010.0    270.2   0.021068550   0.18741  -0.35772  -0.19849  -0.14157
  61   37092.4    269.6   0.021949262   0.19481   0.33003   0.00761   0.29297
  62   37164.6    269.1   0.014748019   0.13064   0.32762   0.02241   0.15100
  63   37237.0    268.6   0.035523400   0.31406  -0.55993   0.00596   0.02245
  64   37290.9    268.2   0.034995213   0.30895  -0.37150   0.25741  -0.32353
  65   37543.9    266.4   0.057716969   0.50610  -0.62006  -0.10957  -0.33110
  66   37703.5    265.2   0.036062434   0.31488  -0.36900   0.42210  -0.02346
  67   37808.7    264.5   0.112953732   0.98352   0.67109   0.40693   0.60628
  68   38314.6    261.0   0.117580691   1.01029   0.71231  -0.62876  -0.32797
  69   38619.1    258.9   0.062276853   0.53088   0.59663  -0.40750  -0.09411
  70   38650.9    258.7   0.046878946   0.39929  -0.27221   0.35523  -0.44610
  71   38925.4    256.9   0.010366143   0.08767  -0.15953  -0.21145  -0.13233
  72   39007.2    256.4   0.342436887   2.89009   0.04394   0.40114   1.65144
  73   39227.1    254.9   0.097337269   0.81690   0.35835  -0.04832  -0.82834
  74   39468.0    253.4   0.000043383   0.00036  -0.00487   0.01232   0.01365
  75   39528.9    253.0   0.010452681   0.08705   0.09487   0.27938  -0.00079
  76   39744.9    251.6   0.012738707   0.10552   0.01915  -0.11776   0.30213
  77   39956.6    250.3   0.151028450   1.24436   0.28677  -0.16353   1.06554
  78   39969.4    250.2   0.110541717   0.91049  -0.43376   0.17672  -0.83133
  79   40247.2    248.5   0.070844696   0.57949   0.20253  -0.13551  -0.72119

FINAL SINGLE POINT ENERGY    -11367.150328418586

DIPOLE MOMENT
-------------
                                X             Y             Z
Electronic contribution:     48.49721     -25.80574      39.13396
Nuclear contribution   :    -47.77785      25.19541     -38.29297
                        -----------------------------------------
Total Dipole Moment    :      0.71936      -0.61033       0.84099
                        -----------------------------------------
Magnitude (a.u.)       :      1.26383
Magnitude (Debye)      :      3.21239

Rotational constants in cm-1:     0.000599     0.000538     0.000354
Rotational constants in MHz :    17.949532    16.121027    10.624545

                             ****ORCA TERMINATED NORMALLY****
TOTAL RUN TIME: 0 days 0 hours 12 minutes 13 seconds 828 msec
