                         Program Version 4.2.0 -  RELEASE  -
|  1> # ORCA input file
|  2> # SCF done       -194.622388341564          0.000474882005
|  3> ! CAM-B3LYP def2-SVP def2/J RIJCOSX Grid4 TightSCF
|  4> %maxcore 5000
|  5> %tddft
|  6>     Mode sTDDFT
|  7>     Ethresh 5.0
|  8>     maxcore 5000
|  9> end
| 10>
| 11> %pal
| 12>   nprocs 6
| 13>   end
| 14> * xyz 0 1
| 15>    C       -5.08363        -2.46378         2.01927
| 16>    C       -5.72230        -3.45057         1.31115
| 17>    C       -5.48223        -4.82870         1.48388
| 18>    N       -5.32821        -5.96270         1.57820
| 19>    C       -6.72121        -3.23024         0.34037
| 20>    N       -7.55500        -3.13504        -0.44360
| 21>    C       -4.11543        -2.67862         3.08971
| 22>    C       -3.76980        -1.42316         3.64517
| 23>    C       -2.87371        -1.29207         4.67713
| 24>    C       -2.29309        -2.45685         5.19069
| 25>    C       -2.64188        -3.70649         4.62713
| 26>    C       -3.54638        -3.83884         3.58040
| 27>    S       -1.79995        -5.01449         5.40266
| 28>    C       -1.00447        -3.87964         6.46047
| 29>    C       -1.34900        -2.58791         6.24588
| 30>   Br        0.20770        -4.50595         7.74769
| 31>    C       -4.48765        -0.35015         2.92443
| 32>    O       -4.33444         0.84237         3.08786
| 33>    C       -5.30523        -1.03945         1.90192
| 34>    C       -5.98944        -0.40447         0.89765
| 35>    C       -6.32327         0.95886         0.87684
| 36>    C       -6.62646         1.80855         1.93592
| 37>    O       -6.83166         1.38320         3.19937
| 38>    C       -7.41758         2.36238         4.03541
| 39>    C       -6.80948         3.74214         3.76600
| 40>    C       -7.37183         4.82229         4.67309
| 41>    O       -7.09787         4.11908         2.42386
| 42>    C       -6.82078         3.14515         1.53382
| 43>    C       -6.71440         3.33396         0.15562
| 44>    S       -6.47401         1.81195        -0.65162
| 45>    C       -6.75765         4.53091        -0.61184
| 46>    C       -6.93029         4.43357        -2.01628
| 47>    C       -6.99059         5.57592        -2.87216
| 48>    N       -7.21022         5.40971        -4.18827
| 49>    C       -7.32638         4.20569        -4.67253
| 50>    C       -7.23176         3.07465        -3.83326
| 51>    N       -7.04958         3.20712        -2.55023
| 52>    C       -6.78270         6.88799        -2.38449
| 53>    C       -6.64387         7.00409        -0.98726
| 54>    C       -6.61738         5.84435        -0.11101
| 55>    N       -6.43675         6.20642         1.15845
| 56>    S       -6.36512         7.80104         1.25251
| 57>    N       -6.53665         8.14158        -0.30161
| 58>    C       -6.68546         7.97190        -3.29870
| 59>    C       -6.07498         9.21245        -3.14023
| 60>    O       -5.35110         9.58716        -2.05759
| 61>    C       -4.51602        10.69629        -2.33100
| 62>    C       -5.28326        11.79914        -3.07134
| 63>    C       -6.45913        12.30973        -2.24220
| 64>    O       -5.72383        11.29993        -4.33105
| 65>    C       -6.20574        10.04057        -4.27056
| 66>    C       -6.85886         9.42974        -5.33821
| 67>    S       -7.33050         7.80264        -4.89935
| 68>    C       -7.16086        10.05732        -6.55932
| 69>    C       -7.63111         9.49786        -7.71269
| 70>    C       -7.70617         8.11824        -8.13604
| 71>    C       -6.79700         7.13498        -7.83737
| 72>    C       -6.93252         5.79046        -8.22338
| 73>    N       -7.02883         4.67045        -8.46120
| 74>    C       -5.58935         7.39608        -7.15597
| 75>    N       -4.56060         7.59034        -6.68472
| 76>    C       -8.74526         8.03450        -9.15555
| 77>    C       -9.11618         9.35203        -9.52757
| 78>    C       -8.37598        10.32462        -8.69239
| 79>    O       -8.41540        11.53260        -8.75597
| 80>    C      -10.03970         9.60469       -10.51189
| 81>    C      -10.63310         8.50868       -11.14823
| 82>    C      -10.26332         7.19876       -10.76098
| 83>    C       -9.31955         6.94121        -9.77391
| 84>    S      -11.12807         5.99617       -11.67000
| 85>    C      -11.95973         7.25219       -12.54848
| 86>    C      -11.61064         8.50754       -12.18115
| 87>   Br      -13.21227         6.78703       -13.86475
| 88>    H       -2.62717        -0.32114         5.07751
| 89>    H       -3.77334        -4.81272         3.18002
| 90>    H       -0.95322        -1.76046         6.80601
| 91>    H       -6.24748        -0.96053         0.00492
| 92>    H       -7.22948         2.03785         5.05962
| 93>    H       -8.50081         2.40286         3.85397
| 94>    H       -5.71813         3.66214         3.88103
| 95>    H       -8.45339         4.86567         4.57537
| 96>    H       -6.95874         5.78249         4.37896
| 97>    H       -7.11185         4.61756         5.70709
| 98>    H       -7.49605         4.11608        -5.73620
| 99>    H       -7.31411         2.06820        -4.21617
|100>    H       -3.66434        10.37540        -2.94650
|101>    H       -4.15806        11.04908        -1.36363
|102>    H       -4.60498        12.62125        -3.32044
|103>    H       -7.07753        11.47964        -1.90680
|104>    H       -7.06630        12.98254        -2.84237
|105>    H       -6.08978        12.84522        -1.37241
|106>    H       -7.09668        11.14118        -6.54907
|107>    H      -10.29744        10.61589       -10.78510
|108>    H       -9.06679         5.92806        -9.50724
|109>    H      -12.02458         9.39777       -12.61834
|110> *
|111>
|112>                          ****END OF INPUT****

CARTESIAN COORDINATES (ANGSTROEM)
---------------------------------
  C     -5.083630   -2.463780    2.019270
  C     -5.722300   -3.450570    1.311150
  C     -5.482230   -4.828700    1.483880
  N     -5.328210   -5.962700    1.578200
  C     -6.721210   -3.230240    0.340370
  N     -7.555000   -3.135040   -0.443600
  C     -4.115430   -2.678620    3.089710
  C     -3.769800   -1.423160    3.645170
  C     -2.873710   -1.292070    4.677130
  C     -2.293090   -2.456850    5.190690
  C     -2.641880   -3.706490    4.627130
  C     -3.546380   -3.838840    3.580400
  S     -1.799950   -5.014490    5.402660
  C     -1.004470   -3.879640    6.460470
  C     -1.349000   -2.587910    6.245880
  Br     0.207700   -4.505950    7.747690
  C     -4.487650   -0.350150    2.924430
  O     -4.334440    0.842370    3.087860
  C     -5.305230   -1.039450    1.901920
  C     -5.989440   -0.404470    0.897650
  C     -6.323270    0.958860    0.876840
  C     -6.626460    1.808550    1.935920
  O     -6.831660    1.383200    3.199370
  C     -7.417580    2.362380    4.035410
  C     -6.809480    3.742140    3.766000
  C     -7.371830    4.822290    4.673090
  O     -7.097870    4.119080    2.423860
  C     -6.820780    3.145150    1.533820
  C     -6.714400    3.333960    0.155620
  S     -6.474010    1.811950   -0.651620
  C     -6.757650    4.530910   -0.611840
  C     -6.930290    4.433570   -2.016280
  C     -6.990590    5.575920   -2.872160
  N     -7.210220    5.409710   -4.188270
  C     -7.326380    4.205690   -4.672530
  C     -7.231760    3.074650   -3.833260
  N     -7.049580    3.207120   -2.550230
  C     -6.782700    6.887990   -2.384490
  C     -6.643870    7.004090   -0.987260
  C     -6.617380    5.844350   -0.111010
  N     -6.436750    6.206420    1.158450
  S     -6.365120    7.801040    1.252510
  N     -6.536650    8.141580   -0.301610
  C     -6.685460    7.971900   -3.298700
  C     -6.074980    9.212450   -3.140230
  O     -5.351100    9.587160   -2.057590
  C     -4.516020   10.696290   -2.331000
  C     -5.283260   11.799140   -3.071340
  C     -6.459130   12.309730   -2.242200
  O     -5.723830   11.299930   -4.331050
  C     -6.205740   10.040570   -4.270560
  C     -6.858860    9.429740   -5.338210
  S     -7.330500    7.802640   -4.899350
  C     -7.160860   10.057320   -6.559320
  C     -7.631110    9.497860   -7.712690
  C     -7.706170    8.118240   -8.136040
  C     -6.797000    7.134980   -7.837370
  C     -6.932520    5.790460   -8.223380
  N     -7.028830    4.670450   -8.461200
  C     -5.589350    7.396080   -7.155970
  N     -4.560600    7.590340   -6.684720
  C     -8.745260    8.034500   -9.155550
  C     -9.116180    9.352030   -9.527570
  C     -8.375980   10.324620   -8.692390
  O     -8.415400   11.532600   -8.755970
  C    -10.039700    9.604690  -10.511890
  C    -10.633100    8.508680  -11.148230
  C    -10.263320    7.198760  -10.760980
  C     -9.319550    6.941210   -9.773910
  S    -11.128070    5.996170  -11.670000
  C    -11.959730    7.252190  -12.548480
  C    -11.610640    8.507540  -12.181150
  Br   -13.212270    6.787030  -13.864750
  H     -2.627170   -0.321140    5.077510
  H     -3.773340   -4.812720    3.180020
  H     -0.953220   -1.760460    6.806010
  H     -6.247480   -0.960530    0.004920
  H     -7.229480    2.037850    5.059620
  H     -8.500810    2.402860    3.853970
  H     -5.718130    3.662140    3.881030
  H     -8.453390    4.865670    4.575370
  H     -6.958740    5.782490    4.378960
  H     -7.111850    4.617560    5.707090
  H     -7.496050    4.116080   -5.736200
  H     -7.314110    2.068200   -4.216170
  H     -3.664340   10.375400   -2.946500
  H     -4.158060   11.049080   -1.363630
  H     -4.604980   12.621250   -3.320440
  H     -7.077530   11.479640   -1.906800
  H     -7.066300   12.982540   -2.842370
  H     -6.089780   12.845220   -1.372410
  H     -7.096680   11.141180   -6.549070
  H    -10.297440   10.615890  -10.785100
  H     -9.066790    5.928060   -9.507240
  H    -12.024580    9.397770  -12.618340

 Total Charge           Charge          ....    0
 Multiplicity           Mult            ....    1
 Number of Electrons    NEL             ....  588
 Basis Dimension        Dim             .... 1188

ORBITAL ENERGIES
----------------

  NO   OCC          E(Eh)            E(eV)
   0   2.0000    -482.881710    -13139.8793
   1   2.0000    -482.881574    -13139.8756
   2   2.0000     -89.035624     -2422.7825
   3   2.0000     -88.971084     -2421.0263
   4   2.0000     -88.969897     -2420.9940
   5   2.0000     -88.956511     -2420.6297
   6   2.0000     -88.955470     -2420.6014
   7   2.0000     -62.559438     -1702.3289
   8   2.0000     -62.559305     -1702.3252
   9   2.0000     -56.393385     -1534.5420
  10   2.0000     -56.393249     -1534.5383
  11   2.0000     -56.390676     -1534.4683
  12   2.0000     -56.390641     -1534.4674
  13   2.0000     -56.390543     -1534.4647
  14   2.0000     -56.390511     -1534.4638
  15   2.0000     -19.267475      -524.2946
  16   2.0000     -19.261065      -524.1202
  17   2.0000     -19.258688      -524.0556
  18   2.0000     -19.253956      -523.9268
  19   2.0000     -19.204153      -522.5716
  20   2.0000     -19.203890      -522.5644
  21   2.0000     -14.443915      -393.0389
  22   2.0000     -14.441441      -392.9716
  23   2.0000     -14.440232      -392.9387
  24   2.0000     -14.440092      -392.9349
  25   2.0000     -14.413837      -392.2205
  26   2.0000     -14.405972      -392.0064
  27   2.0000     -14.405552      -391.9950
  28   2.0000     -14.401751      -391.8916
  29   2.0000     -10.355969      -281.8002
  30   2.0000     -10.354318      -281.7553
  31   2.0000     -10.353920      -281.7445
  32   2.0000     -10.353637      -281.7368
  33   2.0000     -10.350228      -281.6440
  34   2.0000     -10.346800      -281.5507
  35   2.0000     -10.345433      -281.5135
  36   2.0000     -10.345014      -281.5021
  37   2.0000     -10.345006      -281.5019
  38   2.0000     -10.339499      -281.3521
  39   2.0000     -10.339041      -281.3396
  40   2.0000     -10.336881      -281.2808
  41   2.0000     -10.336781      -281.2781
  42   2.0000     -10.336269      -281.2642
  43   2.0000     -10.335500      -281.2432
  44   2.0000     -10.335369      -281.2397
  45   2.0000     -10.335229      -281.2359
  46   2.0000     -10.334674      -281.2208
  47   2.0000     -10.333080      -281.1774
  48   2.0000     -10.332207      -281.1536
  49   2.0000     -10.331295      -281.1288
  50   2.0000     -10.330713      -281.1130
  51   2.0000     -10.320523      -280.8357
  52   2.0000     -10.318602      -280.7834
  53   2.0000     -10.318510      -280.7809
  54   2.0000     -10.317688      -280.7586
  55   2.0000     -10.317171      -280.7445
  56   2.0000     -10.316802      -280.7345
  57   2.0000     -10.312594      -280.6200
  58   2.0000     -10.310721      -280.5690
  59   2.0000     -10.310433      -280.5611
  60   2.0000     -10.309374      -280.5323
  61   2.0000     -10.308846      -280.5180
  62   2.0000     -10.305572      -280.4289
  63   2.0000     -10.302115      -280.3348
  64   2.0000     -10.301538      -280.3191
  65   2.0000     -10.300878      -280.3011
  66   2.0000     -10.300075      -280.2793
  67   2.0000     -10.299483      -280.2632
  68   2.0000     -10.298371      -280.2329
  69   2.0000     -10.297967      -280.2219
  70   2.0000     -10.295316      -280.1498
  71   2.0000     -10.294895      -280.1383
  72   2.0000     -10.293267      -280.0940
  73   2.0000     -10.292011      -280.0598
  74   2.0000     -10.291668      -280.0505
  75   2.0000     -10.285821      -279.8914
  76   2.0000     -10.285773      -279.8901
  77   2.0000     -10.283622      -279.8316
  78   2.0000     -10.282951      -279.8133
  79   2.0000     -10.276283      -279.6319
  80   2.0000     -10.273371      -279.5526
  81   2.0000      -8.788873      -239.1574
  82   2.0000      -8.788738      -239.1537
  83   2.0000      -8.127083      -221.1492
  84   2.0000      -8.067004      -219.5143
  85   2.0000      -8.065828      -219.4823
  86   2.0000      -8.049470      -219.0372
  87   2.0000      -8.048429      -219.0089
  88   2.0000      -6.625167      -180.2799
  89   2.0000      -6.625024      -180.2761
  90   2.0000      -6.610613      -179.8839
  91   2.0000      -6.610487      -179.8805
  92   2.0000      -6.610418      -179.8786
  93   2.0000      -6.610284      -179.8750
  94   2.0000      -6.098033      -165.9359
  95   2.0000      -6.090243      -165.7239
  96   2.0000      -6.090161      -165.7217
  97   2.0000      -6.036733      -164.2679
  98   2.0000      -6.035538      -164.2353
  99   2.0000      -6.032405      -164.1501
 100   2.0000      -6.031240      -164.1184
 101   2.0000      -6.028235      -164.0366
 102   2.0000      -6.027058      -164.0046
 103   2.0000      -6.019220      -163.7913
 104   2.0000      -6.018371      -163.7682
 105   2.0000      -6.014865      -163.6728
 106   2.0000      -6.013865      -163.6456
 107   2.0000      -6.010873      -163.5642
 108   2.0000      -6.009682      -163.5318
 109   2.0000      -2.740996       -74.5863
 110   2.0000      -2.740864       -74.5827
 111   2.0000      -2.736929       -74.4756
 112   2.0000      -2.736870       -74.4740
 113   2.0000      -2.736794       -74.4719
 114   2.0000      -2.736719       -74.4699
 115   2.0000      -2.725258       -74.1580
 116   2.0000      -2.725226       -74.1572
 117   2.0000      -2.725136       -74.1547
 118   2.0000      -2.725106       -74.1539
 119   2.0000      -1.193147       -32.4672
 120   2.0000      -1.189270       -32.3617
 121   2.0000      -1.153208       -31.3804
 122   2.0000      -1.149743       -31.2861
 123   2.0000      -1.132867       -30.8269
 124   2.0000      -1.119007       -30.4497
 125   2.0000      -1.117573       -30.4107
 126   2.0000      -1.101879       -29.9837
 127   2.0000      -1.029578       -28.0162
 128   2.0000      -1.017066       -27.6758
 129   2.0000      -1.015187       -27.6246
 130   2.0000      -1.007815       -27.4241
 131   2.0000      -1.005038       -27.3485
 132   2.0000      -0.995140       -27.0791
 133   2.0000      -0.990986       -26.9661
 134   2.0000      -0.986910       -26.8552
 135   2.0000      -0.984697       -26.7950
 136   2.0000      -0.981377       -26.7046
 137   2.0000      -0.980630       -26.6843
 138   2.0000      -0.978682       -26.6313
 139   2.0000      -0.960961       -26.1491
 140   2.0000      -0.936266       -25.4771
 141   2.0000      -0.935296       -25.4507
 142   2.0000      -0.905926       -24.6515
 143   2.0000      -0.902304       -24.5529
 144   2.0000      -0.901042       -24.5186
 145   2.0000      -0.897128       -24.4121
 146   2.0000      -0.893153       -24.3039
 147   2.0000      -0.891133       -24.2490
 148   2.0000      -0.880074       -23.9480
 149   2.0000      -0.879229       -23.9250
 150   2.0000      -0.878316       -23.9002
 151   2.0000      -0.877926       -23.8896
 152   2.0000      -0.864006       -23.5108
 153   2.0000      -0.852668       -23.2023
 154   2.0000      -0.830109       -22.5884
 155   2.0000      -0.824651       -22.4399
 156   2.0000      -0.822293       -22.3757
 157   2.0000      -0.821269       -22.3479
 158   2.0000      -0.815549       -22.1922
 159   2.0000      -0.807324       -21.9684
 160   2.0000      -0.798677       -21.7331
 161   2.0000      -0.785545       -21.3758
 162   2.0000      -0.785088       -21.3633
 163   2.0000      -0.767702       -20.8902
 164   2.0000      -0.766038       -20.8449
 165   2.0000      -0.754382       -20.5278
 166   2.0000      -0.749415       -20.3926
 167   2.0000      -0.747678       -20.3454
 168   2.0000      -0.741000       -20.1636
 169   2.0000      -0.720487       -19.6055
 170   2.0000      -0.716193       -19.4886
 171   2.0000      -0.710528       -19.3345
 172   2.0000      -0.701754       -19.0957
 173   2.0000      -0.690171       -18.7805
 174   2.0000      -0.685166       -18.6443
 175   2.0000      -0.681750       -18.5514
 176   2.0000      -0.677828       -18.4446
 177   2.0000      -0.669716       -18.2239
 178   2.0000      -0.665264       -18.1027
 179   2.0000      -0.661192       -17.9920
 180   2.0000      -0.658043       -17.9063
 181   2.0000      -0.651251       -17.7214
 182   2.0000      -0.648092       -17.6355
 183   2.0000      -0.640452       -17.4276
 184   2.0000      -0.635958       -17.3053
 185   2.0000      -0.633066       -17.2266
 186   2.0000      -0.630985       -17.1700
 187   2.0000      -0.620420       -16.8825
 188   2.0000      -0.617274       -16.7969
 189   2.0000      -0.616738       -16.7823
 190   2.0000      -0.608819       -16.5668
 191   2.0000      -0.604246       -16.4424
 192   2.0000      -0.601234       -16.3604
 193   2.0000      -0.592046       -16.1104
 194   2.0000      -0.589868       -16.0511
 195   2.0000      -0.586741       -15.9660
 196   2.0000      -0.582507       -15.8508
 197   2.0000      -0.578878       -15.7521
 198   2.0000      -0.571456       -15.5501
 199   2.0000      -0.566336       -15.4108
 200   2.0000      -0.564969       -15.3736
 201   2.0000      -0.556958       -15.1556
 202   2.0000      -0.548528       -14.9262
 203   2.0000      -0.546105       -14.8603
 204   2.0000      -0.545123       -14.8336
 205   2.0000      -0.544902       -14.8276
 206   2.0000      -0.539125       -14.6703
 207   2.0000      -0.538702       -14.6588
 208   2.0000      -0.536528       -14.5997
 209   2.0000      -0.534697       -14.5498
 210   2.0000      -0.531584       -14.4651
 211   2.0000      -0.528577       -14.3833
 212   2.0000      -0.528311       -14.3761
 213   2.0000      -0.527120       -14.3437
 214   2.0000      -0.523429       -14.2432
 215   2.0000      -0.521545       -14.1920
 216   2.0000      -0.516708       -14.0603
 217   2.0000      -0.514301       -13.9948
 218   2.0000      -0.506597       -13.7852
 219   2.0000      -0.505969       -13.7681
 220   2.0000      -0.503339       -13.6966
 221   2.0000      -0.502686       -13.6788
 222   2.0000      -0.500494       -13.6191
 223   2.0000      -0.499435       -13.5903
 224   2.0000      -0.498424       -13.5628
 225   2.0000      -0.496095       -13.4994
 226   2.0000      -0.494536       -13.4570
 227   2.0000      -0.491648       -13.3784
 228   2.0000      -0.491502       -13.3745
 229   2.0000      -0.486049       -13.2261
 230   2.0000      -0.485029       -13.1983
 231   2.0000      -0.483230       -13.1494
 232   2.0000      -0.480202       -13.0670
 233   2.0000      -0.479381       -13.0446
 234   2.0000      -0.477333       -12.9889
 235   2.0000      -0.475202       -12.9309
 236   2.0000      -0.472401       -12.8547
 237   2.0000      -0.468628       -12.7520
 238   2.0000      -0.465882       -12.6773
 239   2.0000      -0.462404       -12.5827
 240   2.0000      -0.460325       -12.5261
 241   2.0000      -0.454101       -12.3567
 242   2.0000      -0.453419       -12.3382
 243   2.0000      -0.452976       -12.3261
 244   2.0000      -0.451419       -12.2837
 245   2.0000      -0.446299       -12.1444
 246   2.0000      -0.441848       -12.0233
 247   2.0000      -0.440368       -11.9830
 248   2.0000      -0.440056       -11.9745
 249   2.0000      -0.438584       -11.9345
 250   2.0000      -0.436957       -11.8902
 251   2.0000      -0.436721       -11.8838
 252   2.0000      -0.435010       -11.8372
 253   2.0000      -0.432982       -11.7820
 254   2.0000      -0.432135       -11.7590
 255   2.0000      -0.429914       -11.6986
 256   2.0000      -0.421777       -11.4771
 257   2.0000      -0.419842       -11.4245
 258   2.0000      -0.417854       -11.3704
 259   2.0000      -0.416847       -11.3430
 260   2.0000      -0.414703       -11.2846
 261   2.0000      -0.414388       -11.2761
 262   2.0000      -0.410433       -11.1684
 263   2.0000      -0.407709       -11.0943
 264   2.0000      -0.403662       -10.9842
 265   2.0000      -0.402499       -10.9525
 266   2.0000      -0.400408       -10.8957
 267   2.0000      -0.400004       -10.8847
 268   2.0000      -0.394605       -10.7378
 269   2.0000      -0.391239       -10.6461
 270   2.0000      -0.386321       -10.5123
 271   2.0000      -0.382298       -10.4029
 272   2.0000      -0.379709       -10.3324
 273   2.0000      -0.372851       -10.1458
 274   2.0000      -0.371289       -10.1033
 275   2.0000      -0.371165       -10.0999
 276   2.0000      -0.368295       -10.0218
 277   2.0000      -0.361819        -9.8456
 278   2.0000      -0.353236        -9.6120
 279   2.0000      -0.346448        -9.4273
 280   2.0000      -0.343573        -9.3491
 281   2.0000      -0.337642        -9.1877
 282   2.0000      -0.330097        -8.9824
 283   2.0000      -0.325587        -8.8597
 284   2.0000      -0.325319        -8.8524
 285   2.0000      -0.309808        -8.4303
 286   2.0000      -0.308246        -8.3878
 287   2.0000      -0.306892        -8.3510
 288   2.0000      -0.289276        -7.8716
 289   2.0000      -0.287404        -7.8207
 290   2.0000      -0.284596        -7.7442
 291   2.0000      -0.282387        -7.6841
 292   2.0000      -0.275665        -7.5012
 293   2.0000      -0.237880        -6.4731
 294   0.0000      -0.117948        -3.2095
 295   0.0000      -0.078244        -2.1291
 296   0.0000      -0.072843        -1.9822
 297   0.0000      -0.046848        -1.2748
 298   0.0000      -0.046690        -1.2705

MULLIKEN ATOMIC CHARGES
-----------------------
   0 C :    0.299449
   1 C :   -0.348242
   2 C :   -0.187508
   3 N :    0.144565
   4 C :   -0.203577
   5 N :    0.155793
   6 C :    0.015675
   7 C :   -0.016697
   8 C :   -0.074021
   9 C :    0.118675
  10 C :   -0.092190
  11 C :   -0.021701
  12 S :    0.182075
  13 C :   -0.123639
  14 C :    0.037362
  15 Br:    0.017660
  16 C :    0.144880
  17 O :   -0.155274
  18 C :   -0.091270
  19 C :    0.027001
  20 C :   -0.151907
  21 C :    0.189175
  22 O :   -0.274023
  23 C :    0.238588
  24 C :    0.031815
  25 C :    0.064006
  26 O :   -0.266977
  27 C :    0.163836
  28 C :   -0.248206
  29 S :    0.182209
  30 C :    0.184726
  31 C :   -0.046493
  32 C :   -0.036099
  33 N :   -0.060838
  34 C :    0.044418
  35 C :    0.051649
  36 N :   -0.077407
  37 C :    0.166948
  38 C :   -0.041890
  39 C :   -0.022987
  40 N :   -0.262377
  41 S :    0.519452
  42 N :   -0.260461
  43 C :   -0.238300
  44 C :    0.187622
  45 O :   -0.282217
  46 C :    0.233550
  47 C :    0.020500
  48 C :    0.059266
  49 O :   -0.271999
  50 C :    0.183709
  51 C :   -0.163324
  52 S :    0.179683
  53 C :    0.047104
  54 C :   -0.133480
  55 C :    0.253880
  56 C :   -0.325915
  57 C :   -0.138936
  58 N :    0.107706
  59 C :   -0.209150
  60 N :    0.159086
  61 C :    0.013866
  62 C :   -0.006405
  63 C :    0.138361
  64 O :   -0.149902
  65 C :   -0.070264
  66 C :    0.111414
  67 C :   -0.086009
  68 C :   -0.026564
  69 S :    0.178643
  70 C :   -0.126793
  71 C :    0.042744
  72 Br:    0.018947
  73 H :   -0.018747
  74 H :   -0.007812
  75 H :   -0.007461
  76 H :    0.021104
  77 H :    0.028089
  78 H :    0.022808
  79 H :    0.037285
  80 H :    0.021478
  81 H :    0.026203
  82 H :    0.019846
  83 H :    0.028802
  84 H :    0.027411
  85 H :    0.038959
  86 H :    0.023538
  87 H :    0.026994
  88 H :    0.034975
  89 H :    0.034115
  90 H :    0.019131
  91 H :    0.024971
  92 H :   -0.011095
  93 H :   -0.008887
  94 H :   -0.004703
Sum of atomic charges:   -0.0000000

LOEWDIN ATOMIC CHARGES
----------------------
   0 C :    0.075657
   1 C :   -0.146402
   2 C :   -0.018457
   3 N :   -0.060252
   4 C :   -0.023570
   5 N :   -0.056777
   6 C :   -0.020986
   7 C :   -0.046619
   8 C :    0.015896
   9 C :   -0.034388
  10 C :   -0.146050
  11 C :   -0.011066
  12 S :    0.429201
  13 C :   -0.273417
  14 C :   -0.071704
  15 Br:    0.132386
  16 C :    0.078564
  17 O :   -0.147015
  18 C :   -0.099104
  19 C :    0.053397
  20 C :   -0.209946
  21 C :    0.019409
  22 O :   -0.069031
  23 C :    0.078075
  24 C :    0.059016
  25 C :   -0.049677
  26 O :   -0.072094
  27 C :    0.000730
  28 C :   -0.174045
  29 S :    0.480114
  30 C :   -0.033156
  31 C :   -0.014178
  32 C :   -0.008417
  33 N :   -0.044068
  34 C :    0.030574
  35 C :    0.027614
  36 N :   -0.042822
  37 C :   -0.044712
  38 C :   -0.043738
  39 C :   -0.043952
  40 N :   -0.272373
  41 S :    0.659594
  42 N :   -0.274472
  43 C :   -0.160922
  44 C :   -0.009482
  45 O :   -0.079388
  46 C :    0.079171
  47 C :    0.054689
  48 C :   -0.058882
  49 O :   -0.078928
  50 C :    0.021863
  51 C :   -0.219289
  52 S :    0.513823
  53 C :    0.064008
  54 C :   -0.110653
  55 C :    0.066166
  56 C :   -0.157006
  57 C :   -0.011982
  58 N :   -0.074604
  59 C :   -0.038597
  60 N :   -0.058102
  61 C :   -0.016225
  62 C :   -0.050556
  63 C :    0.081461
  64 O :   -0.150435
  65 C :    0.020553
  66 C :   -0.035382
  67 C :   -0.144315
  68 C :   -0.016526
  69 S :    0.427377
  70 C :   -0.273905
  71 C :   -0.069889
  72 Br:    0.133329
  73 H :    0.037575
  74 H :    0.040415
  75 H :    0.037255
  76 H :    0.044021
  77 H :    0.032270
  78 H :    0.021810
  79 H :    0.027816
  80 H :    0.030177
  81 H :    0.033547
  82 H :    0.032572
  83 H :    0.033144
  84 H :    0.034085
  85 H :    0.025551
  86 H :    0.031229
  87 H :    0.033281
  88 H :    0.033886
  89 H :    0.034514
  90 H :    0.032673
  91 H :    0.051284
  92 H :    0.040477
  93 H :    0.038964
  94 H :    0.038341

  Mayer bond orders larger than 0.100000
B(  0-C ,  1-C ) :   1.6225 B(  0-C ,  6-C ) :   1.0021 B(  0-C , 18-C ) :   1.0916
B(  1-C ,  2-C ) :   1.1435 B(  1-C ,  4-C ) :   1.1452 B(  2-C ,  3-N ) :   2.9686
B(  4-C ,  5-N ) :   2.9903 B(  6-C ,  7-C ) :   1.2781 B(  6-C , 11-C ) :   1.4102
B(  7-C ,  8-C ) :   1.4315 B(  7-C , 16-C ) :   0.9367 B(  8-C ,  9-C ) :   1.2414
B(  8-C , 73-H ) :   1.0165 B(  9-C , 10-C ) :   1.3114 B(  9-C , 14-C ) :   1.1614
B( 10-C , 11-C ) :   1.3287 B( 10-C , 12-S ) :   1.0824 B( 11-C , 74-H ) :   0.9805
B( 12-S , 13-C ) :   1.0870 B( 13-C , 14-C ) :   1.6185 B( 13-C , 15-Br) :   1.0144
B( 14-C , 75-H ) :   1.0004 B( 16-C , 17-O ) :   2.2042 B( 16-C , 18-C ) :   0.9647
B( 18-C , 19-C ) :   1.5578 B( 19-C , 20-C ) :   1.2193 B( 19-C , 76-H ) :   0.9281
B( 20-C , 21-C ) :   1.4272 B( 20-C , 28-C ) :   0.1076 B( 20-C , 29-S ) :   1.0071
B( 21-C , 22-O ) :   1.1753 B( 21-C , 27-C ) :   1.1995 B( 22-O , 23-C ) :   0.9521
B( 23-C , 24-C ) :   1.0377 B( 23-C , 77-H ) :   0.9508 B( 23-C , 78-H ) :   0.9375
B( 24-C , 25-C ) :   1.0803 B( 24-C , 26-O ) :   0.9242 B( 24-C , 79-H ) :   0.9313
B( 25-C , 80-H ) :   0.9609 B( 25-C , 81-H ) :   0.9592 B( 25-C , 82-H ) :   0.9599
B( 26-O , 27-C ) :   1.1955 B( 27-C , 28-C ) :   1.4244 B( 28-C , 29-S ) :   1.1341
B( 28-C , 30-C ) :   1.1609 B( 30-C , 31-C ) :   1.2648 B( 30-C , 37-C ) :   0.1279
B( 30-C , 39-C ) :   1.1986 B( 31-C , 32-C ) :   1.1596 B( 31-C , 36-N ) :   1.3849
B( 32-C , 33-N ) :   1.4002 B( 32-C , 37-C ) :   1.2776 B( 33-N , 34-C ) :   1.6585
B( 34-C , 35-C ) :   1.1993 B( 34-C , 83-H ) :   0.9658 B( 35-C , 36-N ) :   1.6522
B( 35-C , 84-H ) :   0.9742 B( 37-C , 38-C ) :   1.2112 B( 37-C , 43-C ) :   1.1339
B( 38-C , 39-C ) :   1.0861 B( 38-C , 42-N ) :   1.5361 B( 39-C , 40-N ) :   1.5317
B( 40-N , 41-S ) :   1.2894 B( 40-N , 42-N ) :   0.1564 B( 41-S , 42-N ) :   1.2855
B( 43-C , 44-C ) :   1.4360 B( 43-C , 51-C ) :   0.1104 B( 43-C , 52-S ) :   1.1551
B( 44-C , 45-O ) :   1.1609 B( 44-C , 50-C ) :   1.2056 B( 45-O , 46-C ) :   0.9584
B( 46-C , 47-C ) :   1.0372 B( 46-C , 85-H ) :   0.9440 B( 46-C , 86-H ) :   0.9510
B( 47-C , 48-C ) :   1.0648 B( 47-C , 49-O ) :   0.9267 B( 47-C , 87-H ) :   0.9346
B( 48-C , 88-H ) :   0.9578 B( 48-C , 89-H ) :   0.9592 B( 48-C , 90-H ) :   0.9616
B( 49-O , 50-C ) :   1.1922 B( 50-C , 51-C ) :   1.4140 B( 51-C , 52-S ) :   1.0242
B( 51-C , 53-C ) :   1.2032 B( 53-C , 54-C ) :   1.5567 B( 53-C , 91-H ) :   0.9534
B( 54-C , 55-C ) :   1.0598 B( 54-C , 63-C ) :   0.9546 B( 55-C , 56-C ) :   1.6231
B( 55-C , 61-C ) :   1.0261 B( 56-C , 57-C ) :   1.1483 B( 56-C , 59-C ) :   1.1449
B( 57-C , 58-N ) :   2.8957 B( 59-C , 60-N ) :   3.0304 B( 61-C , 62-C ) :   1.2761
B( 61-C , 68-C ) :   1.4163 B( 62-C , 63-C ) :   0.9161 B( 62-C , 65-C ) :   1.4348
B( 63-C , 64-O ) :   2.2655 B( 65-C , 66-C ) :   1.2480 B( 65-C , 92-H ) :   1.0162
B( 66-C , 67-C ) :   1.3123 B( 66-C , 71-C ) :   1.1629 B( 67-C , 68-C ) :   1.3245
B( 67-C , 69-S ) :   1.0810 B( 68-C , 93-H ) :   0.9853 B( 69-S , 70-C ) :   1.0865
B( 70-C , 71-C ) :   1.6190 B( 70-C , 72-Br) :   1.0157 B( 71-C , 94-H ) :   1.0006

-----------------------------------------------------------------------------
         ABSORPTION SPECTRUM VIA TRANSITION ELECTRIC DIPOLE MOMENTS
-----------------------------------------------------------------------------
State   Energy  Wavelength   fosc         T2         TX        TY        TZ
        (cm-1)    (nm)                  (au**2)     (au)      (au)      (au)
-----------------------------------------------------------------------------
   0   10531.6    949.5   0.854266452  26.70397   0.74648  -3.66526   3.56547
   1   17851.4    560.2   0.017216436   0.31750  -0.45550   0.21401   0.25342
   2   18614.2    537.2   0.028985571   0.51264   0.01085   0.54492   0.46431
   3   19001.5    526.3   0.220789231   3.82530  -0.06737   1.56696   1.16850
   4   19460.9    513.9   0.130160350   2.20187   0.48308  -0.48892   1.31509
   5   20974.3    476.8   0.382870612   6.00953  -0.67693   2.25416  -0.68561
   6   22459.8    445.2   0.004743315   0.06953   0.04749   0.13165   0.22347
   7   24269.1    412.0   0.066302672   0.89940   0.68085   0.26934   0.60275
   8   25266.5    395.8   0.007696080   0.10028   0.11508   0.29087   0.04929
   9   25790.0    387.7   0.021651674   0.27639  -0.04248   0.52394  -0.00819
  10   26052.3    383.8   0.182783595   2.30976  -0.59924   0.62967  -1.24667
  11   26309.7    380.1   0.034376714   0.43015  -0.63071  -0.11102  -0.14152
  12   26846.1    372.5   0.094188298   1.15503   0.34630  -0.43486   0.91978
  13   27520.2    363.4   0.092494817   1.10647  -0.33860  -0.13727  -0.98640
  14   27550.4    363.0   0.080311074   0.95967   0.69425  -0.26734   0.63735
  15   28263.6    353.8   0.011899519   0.13860  -0.27230  -0.15769  -0.19898
  16   28492.3    351.0   0.045916658   0.53054   0.35753  -0.37482   0.51208
  17   28818.8    347.0   0.063377784   0.72400   0.13456  -0.83663  -0.07709
  18   29084.9    343.8   0.036658851   0.41494  -0.33151   0.54114  -0.11051
  19   29245.7    341.9   0.139698020   1.57255  -0.79342   0.47090  -0.84929
  20   29395.5    340.2   0.022070706   0.24718   0.12373  -0.47827  -0.05589
  21   30112.0    332.1   0.158547677   1.73339   0.35680   0.75120   1.02068
  22   30804.5    324.6   0.134395078   1.43630   0.76081   0.38408   0.84259
  23   30948.4    323.1   0.065782835   0.69976   0.58534  -0.54576   0.24349
  24   31271.8    319.8   0.377976744   3.97912  -1.41428   0.08102  -1.40442
  25   31531.4    317.1   0.140700308   1.46902   0.51480   0.09789   1.09289
  26   31961.7    312.9   0.261418263   2.69266   1.30758  -0.34784   0.92838
  27   32118.6    311.3   0.075614834   0.77504   0.61653  -0.34706   0.52392
  28   32819.4    304.7   0.006285153   0.06305   0.18517  -0.16207  -0.04995
  29   33027.5    302.8   0.048348955   0.48193  -0.47159  -0.16020  -0.48361
  30   33333.0    300.0   0.001947351   0.01923   0.05351  -0.12229  -0.03761
  31   33560.8    298.0   0.007202593   0.07065  -0.16520   0.20797  -0.01048
  32   33982.2    294.3   0.073641847   0.71343   0.35332   0.75127   0.15548
  33   34415.7    290.6   0.075767740   0.72477  -0.67201  -0.08204  -0.51618
  34   34506.5    289.8   0.050774172   0.48442  -0.31540  -0.62032  -0.01177
  35   34818.6    287.2   0.011991531   0.11338   0.22794   0.16042   0.18892
  36   35337.9    283.0   0.047489013   0.44241   0.38694   0.09158   0.53320
  37   35426.2    282.3   0.120466556   1.11948  -0.50386  -0.86310  -0.34738
  38   35615.9    280.8   0.295175511   2.72842  -0.76116  -0.34575  -1.42461
  39   35910.5    278.5   0.062743465   0.57521  -0.12325   0.12973   0.73701
  40   35975.0    278.0   0.313092798   2.86515   1.32771  -0.77934   0.70353
  41   36034.3    277.5   0.264503023   2.41652   0.79832   0.95292   0.93335
  42   36406.3    274.7   0.095674777   0.86516   0.05763   0.88428   0.28265
  43   36967.8    270.5   0.085692027   0.76312  -0.24072  -0.67090  -0.50504
  44   37337.8    267.8   0.025402511   0.22398  -0.21394   0.27310  -0.32190
  45   37503.9    266.6   0.054169619   0.47550   0.09741  -0.16634   0.66208
  46   38046.9    262.8   0.027865050   0.24111   0.21261  -0.27754   0.34479
  47   38239.1    261.5   0.121506101   1.04608   0.13338   0.50643   0.87853
  48   38474.6    259.9   0.068131080   0.58297  -0.17980   0.73940  -0.06273
  49   38608.5    259.0   0.013982764   0.11923   0.09868   0.32274   0.07300
  50   38892.6    257.1   0.060040691   0.50822  -0.07496   0.70867   0.01962
  51   39231.2    254.9   0.088642829   0.74385  -0.00348  -0.42122  -0.75260
  52   39506.3    253.1   0.058719378   0.48932  -0.01046   0.53907   0.44566
  53   39923.4    250.5   0.137782348   1.13617   0.44389   0.59863   0.76208
  54   40040.4    249.7   0.071399994   0.58705   0.21304   0.71504   0.17431
  55   40227.1    248.6   0.024631967   0.20158   0.06029   0.24570   0.37092

FINAL SINGLE POINT ENERGY    -10018.692386377141

DIPOLE MOMENT
-------------
                                X             Y             Z
Electronic contribution:      0.12643     -89.38971     -39.27120
Nuclear contribution   :     -0.43070      93.17078      42.12339
                        -----------------------------------------
Total Dipole Moment    :     -0.30427       3.78107       2.85219
                        -----------------------------------------
Magnitude (a.u.)       :      4.74595
Magnitude (Debye)      :     12.06324

Rotational constants in cm-1:     0.001243     0.000214     0.000192
Rotational constants in MHz :    37.249954     6.417316     5.756037

                             ****ORCA TERMINATED NORMALLY****
TOTAL RUN TIME: 0 days 0 hours 11 minutes 27 seconds 904 msec
