                         Program Version 4.2.0 -  RELEASE  -
|  1> # ORCA input file
|  2> # SCF done       -182.361882862595          0.000319474001
|  3> ! CAM-B3LYP def2-SVP def2/J RIJCOSX Grid4 TightSCF
|  4> %maxcore 5000
|  5> %tddft
|  6>     Mode sTDDFT
|  7>     Ethresh 5.0
|  8>     maxcore 5000
|  9> end
| 10>
| 11> %pal
| 12>   nprocs 6
| 13>   end
| 14> * xyz 0 1
| 15>    C       -1.79869         0.26953        -1.67356
| 16>    C       -1.33599        -0.66976        -0.78577
| 17>    C       -0.19198        -1.46480        -0.99957
| 18>    N        0.73426        -2.13381        -1.11363
| 19>    C       -1.94882        -0.98614         0.44405
| 20>    N       -2.39942        -1.31152         1.44927
| 21>    C       -1.23314         0.54928        -2.98891
| 22>    C       -2.04797         1.50846        -3.63818
| 23>    C       -1.77404         1.97977        -4.89823
| 24>    C       -0.64575         1.47437        -5.55386
| 25>    C        0.16278         0.51735        -4.89669
| 26>    C       -0.11121         0.04466        -3.61903
| 27>    S        1.50964         0.03303        -5.88253
| 28>    C        0.97393         1.10663        -7.14743
| 29>    C       -0.15431         1.79361        -6.84927
| 30>   Br        1.95487         1.21985        -8.74207
| 31>    C       -3.15637         1.90032        -2.74179
| 32>    O       -3.96262         2.78396        -2.93877
| 33>    C       -2.97400         1.09513        -1.51428
| 34>    C       -3.68655         1.27483        -0.35645
| 35>    C       -4.93786         1.89958        -0.23620
| 36>    C       -6.01078         1.97438        -1.15032
| 37>    O       -5.94887         1.32699        -2.31221
| 38>    C       -7.04749         1.45430        -3.19412
| 39>    C       -7.10729         2.67658        -0.64136
| 40>    C       -6.91670         3.12810         0.65470
| 41>    S       -5.37025         2.64857         1.27862
| 42>    C       -7.83781         3.87784         1.41034
| 43>    C       -9.12345         4.26884         1.00778
| 44>    C       -9.80488         5.01868         2.02250
| 45>    N      -11.02013         5.52016         1.84112
| 46>    C      -11.59266         5.29732         0.67535
| 47>    C      -12.93539         5.87808         0.45315
| 48>    O      -13.53367         6.49692         1.31264
| 49>    C      -13.49675         5.64459        -0.88613
| 50>    C      -12.88835         4.91329        -1.82713
| 51>    C      -11.58215         4.26079        -1.63967
| 52>    O      -11.06899         3.56825        -2.49460
| 53>    C      -10.93213         4.52293        -0.33063
| 54>    N       -9.72560         4.02459        -0.16006
| 55>    C       -9.04053         5.21211         3.18316
| 56>    S       -7.49621         4.46278         3.02017
| 57>    C       -9.47816         6.01044         4.24348
| 58>    C       -8.73696         6.51486         5.32208
| 59>    O       -7.46626         6.10438         5.46685
| 60>    C       -6.69679         6.70586         6.48805
| 61>    C       -9.46948         7.42310         6.09014
| 62>    C      -10.74968         7.63271         5.60328
| 63>    S      -11.08803         6.63636         4.21693
| 64>    C      -11.74196         8.50122         6.12682
| 65>    C      -12.82714         8.97622         5.46230
| 66>    C      -13.17563         8.96690         4.05022
| 67>    C      -12.32609         9.17581         2.99909
| 68>    C      -12.74150         9.29417         1.65737
| 69>    N      -13.01128         9.40704         0.54771
| 70>    C      -10.93719         9.36588         3.15869
| 71>    N       -9.81131         9.56582         3.26136
| 72>    C      -14.62742         9.01650         3.97666
| 73>    C      -15.13625         9.36707         5.25393
| 74>    C      -14.02003         9.46128         6.21628
| 75>    O      -14.05803         9.79109         7.37801
| 76>    C      -16.48120         9.53663         5.48149
| 77>    C      -17.35426         9.33280         4.40739
| 78>    C      -16.83240         8.95093         3.14654
| 79>    C      -15.47321         8.79084         2.90931
| 80>    S      -18.09496         8.72319         1.97622
| 81>    C      -19.28942         9.14730         3.17412
| 82>    C      -18.77225         9.44026         4.39070
| 83>   Br      -21.10521         9.16066         2.70688
| 84>    H       -2.41052         2.71443        -5.36601
| 85>    H        0.53941        -0.67900        -3.15712
| 86>    H       -0.62126         2.49769        -7.51352
| 87>    H       -3.24011         0.95274         0.57702
| 88>    H       -6.78763         0.86674        -4.07237
| 89>    H       -7.19726         2.49700        -3.48248
| 90>    H       -7.96496         1.06355        -2.74579
| 91>    H       -8.02283         2.87550        -1.16772
| 92>    H      -14.45780         6.10597        -1.06808
| 93>    H      -13.34138         4.75883        -2.79715
| 94>    H       -5.70465         6.26680         6.40641
| 95>    H       -7.11355         6.48816         7.47537
| 96>    H       -6.63341         7.78803         6.34646
| 97>    H       -9.08406         7.95612         6.94007
| 98>    H      -11.67489         8.75236         7.18021
| 99>    H      -16.85104         9.81258         6.45651
|100>    H      -15.10420         8.47050         1.94911
|101>    H      -19.36423         9.72031         5.24286
|102> *
|103>
|104>                          ****END OF INPUT****

CARTESIAN COORDINATES (ANGSTROEM)
---------------------------------
  C     -1.798690    0.269530   -1.673560
  C     -1.335990   -0.669760   -0.785770
  C     -0.191980   -1.464800   -0.999570
  N      0.734260   -2.133810   -1.113630
  C     -1.948820   -0.986140    0.444050
  N     -2.399420   -1.311520    1.449270
  C     -1.233140    0.549280   -2.988910
  C     -2.047970    1.508460   -3.638180
  C     -1.774040    1.979770   -4.898230
  C     -0.645750    1.474370   -5.553860
  C      0.162780    0.517350   -4.896690
  C     -0.111210    0.044660   -3.619030
  S      1.509640    0.033030   -5.882530
  C      0.973930    1.106630   -7.147430
  C     -0.154310    1.793610   -6.849270
  Br     1.954870    1.219850   -8.742070
  C     -3.156370    1.900320   -2.741790
  O     -3.962620    2.783960   -2.938770
  C     -2.974000    1.095130   -1.514280
  C     -3.686550    1.274830   -0.356450
  C     -4.937860    1.899580   -0.236200
  C     -6.010780    1.974380   -1.150320
  O     -5.948870    1.326990   -2.312210
  C     -7.047490    1.454300   -3.194120
  C     -7.107290    2.676580   -0.641360
  C     -6.916700    3.128100    0.654700
  S     -5.370250    2.648570    1.278620
  C     -7.837810    3.877840    1.410340
  C     -9.123450    4.268840    1.007780
  C     -9.804880    5.018680    2.022500
  N    -11.020130    5.520160    1.841120
  C    -11.592660    5.297320    0.675350
  C    -12.935390    5.878080    0.453150
  O    -13.533670    6.496920    1.312640
  C    -13.496750    5.644590   -0.886130
  C    -12.888350    4.913290   -1.827130
  C    -11.582150    4.260790   -1.639670
  O    -11.068990    3.568250   -2.494600
  C    -10.932130    4.522930   -0.330630
  N     -9.725600    4.024590   -0.160060
  C     -9.040530    5.212110    3.183160
  S     -7.496210    4.462780    3.020170
  C     -9.478160    6.010440    4.243480
  C     -8.736960    6.514860    5.322080
  O     -7.466260    6.104380    5.466850
  C     -6.696790    6.705860    6.488050
  C     -9.469480    7.423100    6.090140
  C    -10.749680    7.632710    5.603280
  S    -11.088030    6.636360    4.216930
  C    -11.741960    8.501220    6.126820
  C    -12.827140    8.976220    5.462300
  C    -13.175630    8.966900    4.050220
  C    -12.326090    9.175810    2.999090
  C    -12.741500    9.294170    1.657370
  N    -13.011280    9.407040    0.547710
  C    -10.937190    9.365880    3.158690
  N     -9.811310    9.565820    3.261360
  C    -14.627420    9.016500    3.976660
  C    -15.136250    9.367070    5.253930
  C    -14.020030    9.461280    6.216280
  O    -14.058030    9.791090    7.378010
  C    -16.481200    9.536630    5.481490
  C    -17.354260    9.332800    4.407390
  C    -16.832400    8.950930    3.146540
  C    -15.473210    8.790840    2.909310
  S    -18.094960    8.723190    1.976220
  C    -19.289420    9.147300    3.174120
  C    -18.772250    9.440260    4.390700
  Br   -21.105210    9.160660    2.706880
  H     -2.410520    2.714430   -5.366010
  H      0.539410   -0.679000   -3.157120
  H     -0.621260    2.497690   -7.513520
  H     -3.240110    0.952740    0.577020
  H     -6.787630    0.866740   -4.072370
  H     -7.197260    2.497000   -3.482480
  H     -7.964960    1.063550   -2.745790
  H     -8.022830    2.875500   -1.167720
  H    -14.457800    6.105970   -1.068080
  H    -13.341380    4.758830   -2.797150
  H     -5.704650    6.266800    6.406410
  H     -7.113550    6.488160    7.475370
  H     -6.633410    7.788030    6.346460
  H     -9.084060    7.956120    6.940070
  H    -11.674890    8.752360    7.180210
  H    -16.851040    9.812580    6.456510
  H    -15.104200    8.470500    1.949110
  H    -19.364230    9.720310    5.242860

 Total Charge           Charge          ....    0
 Multiplicity           Mult            ....    1
 Number of Electrons    NEL             ....  558
 Basis Dimension        Dim             .... 1112

ORBITAL ENERGIES
----------------

  NO   OCC          E(Eh)            E(eV)
   0   2.0000    -482.886505    -13140.0098
   1   2.0000    -482.879408    -13139.8167
   2   2.0000     -89.003530     -2421.9092
   3   2.0000     -88.976121     -2421.1633
   4   2.0000     -88.971464     -2421.0366
   5   2.0000     -88.967869     -2420.9388
   6   2.0000     -88.967158     -2420.9194
   7   2.0000     -62.564257     -1702.4600
   8   2.0000     -62.557117     -1702.2657
   9   2.0000     -56.398203     -1534.6731
  10   2.0000     -56.395493     -1534.5994
  11   2.0000     -56.395454     -1534.5983
  12   2.0000     -56.391058     -1534.4787
  13   2.0000     -56.388359     -1534.4053
  14   2.0000     -56.388326     -1534.4044
  15   2.0000     -19.280190      -524.6406
  16   2.0000     -19.259961      -524.0902
  17   2.0000     -19.238373      -523.5027
  18   2.0000     -19.236132      -523.4418
  19   2.0000     -19.217634      -522.9384
  20   2.0000     -19.199812      -522.4535
  21   2.0000     -14.460219      -393.4826
  22   2.0000     -14.455661      -393.3585
  23   2.0000     -14.414273      -392.2323
  24   2.0000     -14.414056      -392.2264
  25   2.0000     -14.403481      -391.9386
  26   2.0000     -14.403257      -391.9326
  27   2.0000     -10.386359      -282.6272
  28   2.0000     -10.384440      -282.5750
  29   2.0000     -10.369788      -282.1763
  30   2.0000     -10.362857      -281.9877
  31   2.0000     -10.359230      -281.8890
  32   2.0000     -10.354615      -281.7634
  33   2.0000     -10.351141      -281.6689
  34   2.0000     -10.350215      -281.6437
  35   2.0000     -10.349903      -281.6352
  36   2.0000     -10.348727      -281.6032
  37   2.0000     -10.345027      -281.5025
  38   2.0000     -10.343257      -281.4543
  39   2.0000     -10.342638      -281.4375
  40   2.0000     -10.341278      -281.4005
  41   2.0000     -10.341260      -281.4000
  42   2.0000     -10.338276      -281.3188
  43   2.0000     -10.333969      -281.2016
  44   2.0000     -10.332595      -281.1642
  45   2.0000     -10.328280      -281.0468
  46   2.0000     -10.327629      -281.0291
  47   2.0000     -10.326252      -280.9916
  48   2.0000     -10.324242      -280.9369
  49   2.0000     -10.323977      -280.9297
  50   2.0000     -10.322777      -280.8970
  51   2.0000     -10.322342      -280.8852
  52   2.0000     -10.317219      -280.7458
  53   2.0000     -10.316694      -280.7315
  54   2.0000     -10.316469      -280.7254
  55   2.0000     -10.315782      -280.7067
  56   2.0000     -10.315767      -280.7063
  57   2.0000     -10.310167      -280.5539
  58   2.0000     -10.308095      -280.4975
  59   2.0000     -10.307940      -280.4933
  60   2.0000     -10.307138      -280.4715
  61   2.0000     -10.306927      -280.4658
  62   2.0000     -10.305850      -280.4364
  63   2.0000     -10.303528      -280.3732
  64   2.0000     -10.303428      -280.3705
  65   2.0000     -10.302222      -280.3377
  66   2.0000     -10.301576      -280.3201
  67   2.0000     -10.298223      -280.2289
  68   2.0000     -10.297342      -280.2049
  69   2.0000     -10.296729      -280.1882
  70   2.0000     -10.295398      -280.1520
  71   2.0000     -10.294440      -280.1260
  72   2.0000     -10.290401      -280.0161
  73   2.0000     -10.289193      -279.9832
  74   2.0000     -10.281556      -279.7754
  75   2.0000     -10.280860      -279.7564
  76   2.0000     -10.280432      -279.7448
  77   2.0000      -8.793716      -239.2892
  78   2.0000      -8.786537      -239.0938
  79   2.0000      -8.097342      -220.3399
  80   2.0000      -8.072167      -219.6548
  81   2.0000      -8.065152      -219.4640
  82   2.0000      -8.063650      -219.4231
  83   2.0000      -8.063236      -219.4118
  84   2.0000      -6.630019      -180.4120
  85   2.0000      -6.622804      -180.2157
  86   2.0000      -6.615438      -180.0152
  87   2.0000      -6.615261      -180.0104
  88   2.0000      -6.608290      -179.8207
  89   2.0000      -6.608094      -179.8154
  90   2.0000      -6.066413      -165.0755
  91   2.0000      -6.062167      -164.9600
  92   2.0000      -6.060159      -164.9053
  93   2.0000      -6.041868      -164.4076
  94   2.0000      -6.037578      -164.2909
  95   2.0000      -6.034683      -164.2121
  96   2.0000      -6.033380      -164.1766
  97   2.0000      -6.033091      -164.1688
  98   2.0000      -6.032928      -164.1643
  99   2.0000      -6.030300      -164.0928
 100   2.0000      -6.029086      -164.0598
 101   2.0000      -6.028662      -164.0482
 102   2.0000      -6.026917      -164.0008
 103   2.0000      -6.025280      -163.9562
 104   2.0000      -6.024427      -163.9330
 105   2.0000      -2.745875       -74.7191
 106   2.0000      -2.741827       -74.6089
 107   2.0000      -2.741646       -74.6040
 108   2.0000      -2.738667       -74.5229
 109   2.0000      -2.734577       -74.4116
 110   2.0000      -2.734510       -74.4098
 111   2.0000      -2.730080       -74.2893
 112   2.0000      -2.730070       -74.2890
 113   2.0000      -2.722936       -74.0949
 114   2.0000      -2.722917       -74.0943
 115   2.0000      -1.184743       -32.2385
 116   2.0000      -1.168659       -31.8008
 117   2.0000      -1.152892       -31.3718
 118   2.0000      -1.148217       -31.2446
 119   2.0000      -1.133207       -30.8361
 120   2.0000      -1.113835       -30.3090
 121   2.0000      -1.109422       -30.1889
 122   2.0000      -1.037720       -28.2378
 123   2.0000      -1.024494       -27.8779
 124   2.0000      -1.019076       -27.7305
 125   2.0000      -1.013231       -27.5714
 126   2.0000      -1.012490       -27.5513
 127   2.0000      -1.002750       -27.2862
 128   2.0000      -1.000673       -27.2297
 129   2.0000      -0.992173       -26.9984
 130   2.0000      -0.990711       -26.9586
 131   2.0000      -0.985910       -26.8280
 132   2.0000      -0.982482       -26.7347
 133   2.0000      -0.977378       -26.5958
 134   2.0000      -0.947279       -25.7768
 135   2.0000      -0.943753       -25.6808
 136   2.0000      -0.933360       -25.3980
 137   2.0000      -0.915496       -24.9119
 138   2.0000      -0.909040       -24.7362
 139   2.0000      -0.901568       -24.5329
 140   2.0000      -0.898210       -24.4416
 141   2.0000      -0.886041       -24.1104
 142   2.0000      -0.885066       -24.0839
 143   2.0000      -0.882331       -24.0095
 144   2.0000      -0.876161       -23.8415
 145   2.0000      -0.869364       -23.6566
 146   2.0000      -0.861941       -23.4546
 147   2.0000      -0.851243       -23.1635
 148   2.0000      -0.845748       -23.0140
 149   2.0000      -0.835429       -22.7332
 150   2.0000      -0.829504       -22.5719
 151   2.0000      -0.820076       -22.3154
 152   2.0000      -0.815748       -22.1976
 153   2.0000      -0.804937       -21.9034
 154   2.0000      -0.797127       -21.6909
 155   2.0000      -0.794590       -21.6219
 156   2.0000      -0.782636       -21.2966
 157   2.0000      -0.772114       -21.0103
 158   2.0000      -0.762454       -20.7474
 159   2.0000      -0.758501       -20.6399
 160   2.0000      -0.746562       -20.3150
 161   2.0000      -0.735675       -20.0187
 162   2.0000      -0.720325       -19.6010
 163   2.0000      -0.707256       -19.2454
 164   2.0000      -0.695700       -18.9310
 165   2.0000      -0.693117       -18.8607
 166   2.0000      -0.688977       -18.7480
 167   2.0000      -0.683986       -18.6122
 168   2.0000      -0.679639       -18.4939
 169   2.0000      -0.673200       -18.3187
 170   2.0000      -0.670383       -18.2420
 171   2.0000      -0.665041       -18.0967
 172   2.0000      -0.659604       -17.9487
 173   2.0000      -0.653254       -17.7759
 174   2.0000      -0.650382       -17.6978
 175   2.0000      -0.647175       -17.6105
 176   2.0000      -0.638393       -17.3716
 177   2.0000      -0.626107       -17.0372
 178   2.0000      -0.624868       -17.0035
 179   2.0000      -0.620793       -16.8926
 180   2.0000      -0.614176       -16.7126
 181   2.0000      -0.610010       -16.5992
 182   2.0000      -0.605220       -16.4689
 183   2.0000      -0.596834       -16.2407
 184   2.0000      -0.589470       -16.0403
 185   2.0000      -0.587832       -15.9957
 186   2.0000      -0.584744       -15.9117
 187   2.0000      -0.582656       -15.8549
 188   2.0000      -0.579582       -15.7712
 189   2.0000      -0.574919       -15.6443
 190   2.0000      -0.573253       -15.5990
 191   2.0000      -0.568544       -15.4709
 192   2.0000      -0.562947       -15.3186
 193   2.0000      -0.562323       -15.3016
 194   2.0000      -0.555810       -15.1244
 195   2.0000      -0.549002       -14.9391
 196   2.0000      -0.547495       -14.8981
 197   2.0000      -0.545587       -14.8462
 198   2.0000      -0.535945       -14.5838
 199   2.0000      -0.535496       -14.5716
 200   2.0000      -0.535161       -14.5625
 201   2.0000      -0.532010       -14.4767
 202   2.0000      -0.530961       -14.4482
 203   2.0000      -0.527680       -14.3589
 204   2.0000      -0.526147       -14.3172
 205   2.0000      -0.524860       -14.2822
 206   2.0000      -0.521144       -14.1811
 207   2.0000      -0.519503       -14.1364
 208   2.0000      -0.517106       -14.0712
 209   2.0000      -0.513359       -13.9692
 210   2.0000      -0.512346       -13.9417
 211   2.0000      -0.508074       -13.8254
 212   2.0000      -0.506892       -13.7932
 213   2.0000      -0.504282       -13.7222
 214   2.0000      -0.502103       -13.6629
 215   2.0000      -0.501239       -13.6394
 216   2.0000      -0.499487       -13.5917
 217   2.0000      -0.496472       -13.5097
 218   2.0000      -0.493563       -13.4305
 219   2.0000      -0.492413       -13.3992
 220   2.0000      -0.488289       -13.2870
 221   2.0000      -0.483222       -13.1491
 222   2.0000      -0.482568       -13.1314
 223   2.0000      -0.481113       -13.0918
 224   2.0000      -0.474658       -12.9161
 225   2.0000      -0.471195       -12.8219
 226   2.0000      -0.467418       -12.7191
 227   2.0000      -0.464300       -12.6342
 228   2.0000      -0.458534       -12.4774
 229   2.0000      -0.458104       -12.4657
 230   2.0000      -0.453420       -12.3382
 231   2.0000      -0.450655       -12.2630
 232   2.0000      -0.449691       -12.2367
 233   2.0000      -0.448846       -12.2137
 234   2.0000      -0.446575       -12.1519
 235   2.0000      -0.443557       -12.0698
 236   2.0000      -0.442352       -12.0370
 237   2.0000      -0.439980       -11.9725
 238   2.0000      -0.439490       -11.9591
 239   2.0000      -0.438092       -11.9211
 240   2.0000      -0.437060       -11.8930
 241   2.0000      -0.433068       -11.7844
 242   2.0000      -0.429978       -11.7003
 243   2.0000      -0.426351       -11.6016
 244   2.0000      -0.424624       -11.5546
 245   2.0000      -0.422190       -11.4884
 246   2.0000      -0.420630       -11.4459
 247   2.0000      -0.416761       -11.3406
 248   2.0000      -0.415357       -11.3025
 249   2.0000      -0.410389       -11.1672
 250   2.0000      -0.408547       -11.1171
 251   2.0000      -0.404287       -11.0012
 252   2.0000      -0.402898       -10.9634
 253   2.0000      -0.399768       -10.8782
 254   2.0000      -0.397430       -10.8146
 255   2.0000      -0.389475       -10.5981
 256   2.0000      -0.385513       -10.4903
 257   2.0000      -0.380064       -10.3421
 258   2.0000      -0.378443       -10.2980
 259   2.0000      -0.376002       -10.2315
 260   2.0000      -0.373087       -10.1522
 261   2.0000      -0.372400       -10.1335
 262   2.0000      -0.368950       -10.0396
 263   2.0000      -0.359781        -9.7901
 264   2.0000      -0.357191        -9.7197
 265   2.0000      -0.354953        -9.6588
 266   2.0000      -0.348722        -9.4892
 267   2.0000      -0.342940        -9.3319
 268   2.0000      -0.338038        -9.1985
 269   2.0000      -0.324942        -8.8421
 270   2.0000      -0.324232        -8.8228
 271   2.0000      -0.318197        -8.6586
 272   2.0000      -0.315188        -8.5767
 273   2.0000      -0.313199        -8.5226
 274   2.0000      -0.304699        -8.2913
 275   2.0000      -0.293328        -7.9819
 276   2.0000      -0.286303        -7.7907
 277   2.0000      -0.279341        -7.6013
 278   2.0000      -0.240636        -6.5480
 279   0.0000      -0.118114        -3.2141
 280   0.0000      -0.100976        -2.7477
 281   0.0000      -0.080601        -2.1933
 282   0.0000      -0.073090        -1.9889
 283   0.0000      -0.056666        -1.5420

MULLIKEN ATOMIC CHARGES
-----------------------
   0 C :    0.302018
   1 C :   -0.350766
   2 C :   -0.189170
   3 N :    0.140647
   4 C :   -0.204595
   5 N :    0.153245
   6 C :    0.017763
   7 C :   -0.012099
   8 C :   -0.080329
   9 C :    0.122099
  10 C :   -0.089414
  11 C :   -0.028634
  12 S :    0.180340
  13 C :   -0.122044
  14 C :    0.033448
  15 Br:    0.016516
  16 C :    0.139406
  17 O :   -0.152971
  18 C :   -0.096000
  19 C :    0.014271
  20 C :   -0.145023
  21 C :    0.299018
  22 O :   -0.275460
  23 C :    0.176493
  24 C :   -0.148168
  25 C :   -0.058886
  26 S :    0.141412
  27 C :   -0.118641
  28 C :    0.052067
  29 C :    0.004863
  30 N :    0.033467
  31 C :   -0.112533
  32 C :    0.168519
  33 O :   -0.126184
  34 C :   -0.012284
  35 C :   -0.011474
  36 C :    0.140997
  37 O :   -0.111290
  38 C :   -0.113050
  39 N :    0.062671
  40 C :   -0.078561
  41 S :    0.262468
  42 C :   -0.150733
  43 C :    0.233968
  44 O :   -0.307794
  45 C :    0.170507
  46 C :   -0.051238
  47 C :   -0.073135
  48 S :    0.197100
  49 C :    0.070651
  50 C :   -0.127876
  51 C :    0.232671
  52 C :   -0.298821
  53 C :   -0.171264
  54 N :    0.154467
  55 C :   -0.206137
  56 N :    0.165207
  57 C :   -0.008051
  58 C :    0.002741
  59 C :    0.137151
  60 O :   -0.140337
  61 C :   -0.072597
  62 C :    0.108797
  63 C :   -0.082241
  64 C :   -0.001005
  65 S :    0.181637
  66 C :   -0.126881
  67 C :    0.042691
  68 Br:    0.022035
  69 H :   -0.016688
  70 H :   -0.008522
  71 H :   -0.006318
  72 H :    0.024637
  73 H :    0.041192
  74 H :    0.042152
  75 H :    0.035458
  76 H :    0.003773
  77 H :    0.019114
  78 H :    0.019897
  79 H :    0.050400
  80 H :    0.033183
  81 H :    0.041893
  82 H :   -0.013525
  83 H :    0.022155
  84 H :   -0.008968
  85 H :   -0.002375
  86 H :   -0.003123
Sum of atomic charges:   -0.0000000

LOEWDIN ATOMIC CHARGES
----------------------
   0 C :    0.075880
   1 C :   -0.150274
   2 C :   -0.018862
   3 N :   -0.062916
   4 C :   -0.023718
   5 N :   -0.060835
   6 C :   -0.021046
   7 C :   -0.046230
   8 C :    0.015631
   9 C :   -0.034351
  10 C :   -0.146605
  11 C :   -0.011926
  12 S :    0.427917
  13 C :   -0.273915
  14 C :   -0.071486
  15 Br:    0.131589
  16 C :    0.075420
  17 O :   -0.147075
  18 C :   -0.103885
  19 C :    0.046416
  20 C :   -0.208303
  21 C :    0.061783
  22 O :   -0.056736
  23 C :    0.086636
  24 C :   -0.084951
  25 C :   -0.156323
  26 S :    0.433955
  27 C :   -0.205302
  28 C :   -0.032373
  29 C :   -0.051982
  30 N :   -0.006447
  31 C :   -0.044488
  32 C :    0.067835
  33 O :   -0.111266
  34 C :   -0.005417
  35 C :   -0.009593
  36 C :    0.058895
  37 O :   -0.104654
  38 C :   -0.034500
  39 N :    0.006129
  40 C :   -0.174390
  41 S :    0.538117
  42 C :   -0.206030
  43 C :    0.030064
  44 O :   -0.092675
  45 C :    0.085290
  46 C :   -0.065775
  47 C :   -0.167303
  48 S :    0.537183
  49 C :    0.040901
  50 C :   -0.081370
  51 C :    0.059648
  52 C :   -0.134225
  53 C :   -0.015831
  54 N :   -0.060091
  55 C :   -0.033450
  56 N :   -0.054042
  57 C :   -0.013649
  58 C :   -0.053917
  59 C :    0.083850
  60 O :   -0.141055
  61 C :    0.021404
  62 C :   -0.033903
  63 C :   -0.142080
  64 C :   -0.003812
  65 S :    0.429609
  66 C :   -0.272909
  67 C :   -0.069740
  68 Br:    0.135589
  69 H :    0.038324
  70 H :    0.040242
  71 H :    0.037553
  72 H :    0.042948
  73 H :    0.031432
  74 H :    0.026216
  75 H :    0.022098
  76 H :    0.034597
  77 H :    0.047334
  78 H :    0.046984
  79 H :    0.034790
  80 H :    0.020491
  81 H :    0.024186
  82 H :    0.034707
  83 H :    0.049908
  84 H :    0.041154
  85 H :    0.040086
  86 H :    0.038913

  Mayer bond orders larger than 0.100000
B(  0-C ,  1-C ) :   1.6151 B(  0-C ,  6-C ) :   0.9978 B(  0-C , 18-C ) :   1.0984
B(  1-C ,  2-C ) :   1.1445 B(  1-C ,  4-C ) :   1.1449 B(  2-C ,  3-N ) :   2.9680
B(  4-C ,  5-N ) :   2.9897 B(  6-C ,  7-C ) :   1.2783 B(  6-C , 11-C ) :   1.4123
B(  7-C ,  8-C ) :   1.4280 B(  7-C , 16-C ) :   0.9319 B(  8-C ,  9-C ) :   1.2404
B(  8-C , 69-H ) :   1.0177 B(  9-C , 10-C ) :   1.3124 B(  9-C , 14-C ) :   1.1595
B( 10-C , 11-C ) :   1.3251 B( 10-C , 12-S ) :   1.0819 B( 11-C , 70-H ) :   0.9813
B( 12-S , 13-C ) :   1.0862 B( 13-C , 14-C ) :   1.6190 B( 13-C , 15-Br) :   1.0145
B( 14-C , 71-H ) :   1.0012 B( 16-C , 17-O ) :   2.2185 B( 16-C , 18-C ) :   0.9680
B( 18-C , 19-C ) :   1.5458 B( 19-C , 20-C ) :   1.2325 B( 19-C , 72-H ) :   0.9288
B( 20-C , 21-C ) :   1.3690 B( 20-C , 26-S ) :   1.0702 B( 21-C , 22-O ) :   1.2259
B( 21-C , 24-C ) :   1.2001 B( 22-O , 23-C ) :   0.9357 B( 23-C , 73-H ) :   0.9785
B( 23-C , 74-H ) :   0.9715 B( 23-C , 75-H ) :   0.9709 B( 24-C , 25-C ) :   1.4439
B( 24-C , 76-H ) :   0.9893 B( 25-C , 26-S ) :   1.1334 B( 25-C , 27-C ) :   1.1973
B( 27-C , 28-C ) :   1.3655 B( 27-C , 40-C ) :   0.1225 B( 27-C , 41-S ) :   1.1231
B( 28-C , 29-C ) :   1.1979 B( 28-C , 39-N ) :   1.4323 B( 29-C , 30-N ) :   1.4324
B( 29-C , 40-C ) :   1.2784 B( 30-N , 31-C ) :   1.6793 B( 31-C , 32-C ) :   0.9157
B( 31-C , 38-C ) :   1.1062 B( 32-C , 33-O ) :   2.1576 B( 32-C , 34-C ) :   1.0279
B( 34-C , 35-C ) :   1.6788 B( 34-C , 77-H ) :   0.9990 B( 35-C , 36-C ) :   1.0292
B( 35-C , 78-H ) :   0.9978 B( 36-C , 37-O ) :   2.2258 B( 36-C , 38-C ) :   0.8963
B( 38-C , 39-N ) :   1.7122 B( 40-C , 41-S ) :   1.1836 B( 40-C , 42-C ) :   1.2605
B( 42-C , 43-C ) :   1.3631 B( 42-C , 47-C ) :   0.1025 B( 42-C , 48-S ) :   1.1434
B( 43-C , 44-O ) :   1.1965 B( 43-C , 46-C ) :   1.2441 B( 44-O , 45-C ) :   0.9362
B( 45-C , 79-H ) :   0.9804 B( 45-C , 80-H ) :   0.9722 B( 45-C , 81-H ) :   0.9719
B( 46-C , 47-C ) :   1.3935 B( 46-C , 82-H ) :   1.0087 B( 47-C , 48-S ) :   1.1121
B( 47-C , 49-C ) :   1.1177 B( 49-C , 50-C ) :   1.6781 B( 49-C , 83-H ) :   0.9529
B( 50-C , 51-C ) :   1.0133 B( 50-C , 59-C ) :   0.9343 B( 51-C , 52-C ) :   1.6781
B( 51-C , 57-C ) :   1.0189 B( 52-C , 53-C ) :   1.1442 B( 52-C , 55-C ) :   1.1493
B( 53-C , 54-N ) :   2.9810 B( 55-C , 56-N ) :   3.0202 B( 57-C , 58-C ) :   1.2683
B( 57-C , 64-C ) :   1.4285 B( 58-C , 59-C ) :   0.9228 B( 58-C , 61-C ) :   1.4213
B( 59-C , 60-O ) :   2.2744 B( 61-C , 62-C ) :   1.2596 B( 61-C , 84-H ) :   1.0159
B( 62-C , 63-C ) :   1.3037 B( 62-C , 67-C ) :   1.1644 B( 63-C , 64-C ) :   1.3188
B( 63-C , 65-S ) :   1.0828 B( 64-C , 85-H ) :   0.9794 B( 65-S , 66-C ) :   1.0859
B( 66-C , 67-C ) :   1.6209 B( 66-C , 68-Br) :   1.0180 B( 67-C , 86-H ) :   0.9994

-----------------------------------------------------------------------------
         ABSORPTION SPECTRUM VIA TRANSITION ELECTRIC DIPOLE MOMENTS
-----------------------------------------------------------------------------
State   Energy  Wavelength   fosc         T2         TX        TY        TZ
        (cm-1)    (nm)                  (au**2)     (au)      (au)      (au)
-----------------------------------------------------------------------------
   0   10848.4    921.8   0.727403102  22.07412  -3.03998   2.67921   2.37792
   1   15029.5    665.4   0.170371642   3.73189  -1.88628   0.40264  -0.10820
   2   18863.9    530.1   0.331979754   5.79371   2.00151  -1.33222  -0.11342
   3   19927.7    501.8   0.105652071   1.74540  -1.31430   0.02442   0.13205
   4   20959.5    477.1   0.387518620   6.08677   1.80310  -1.13969  -1.23963
   5   22667.1    441.2   0.030221758   0.43893   0.52656   0.10138  -0.38910
   6   24163.6    413.8   0.002748138   0.03744   0.17114  -0.00797  -0.08995
   7   24515.8    407.9   0.027667277   0.37153  -0.57389   0.01345  -0.20493
   8   25134.6    397.9   0.037272982   0.48820  -0.45062   0.47761   0.23881
   9   25535.2    391.6   0.021785885   0.28087   0.42067  -0.06763  -0.31517
  10   25586.6    390.8   0.063897937   0.82215  -0.41533   0.05697   0.80399
  11   26078.5    383.5   0.151142777   1.90801   0.78375  -0.38030  -1.07197
  12   26387.8    379.0   0.034598865   0.43165  -0.21396  -0.46363   0.41342
  13   26469.0    377.8   0.024012659   0.29866  -0.13239  -0.13084   0.51382
  14   26865.9    372.2   0.073996422   0.90674  -0.89290   0.32128   0.07910
  15   27359.7    365.5   0.033748094   0.40608  -0.18785   0.07718  -0.60402
  16   27723.3    360.7   0.026791283   0.31814   0.31047   0.10004  -0.46016
  17   28064.0    356.3   0.025135918   0.29486   0.14078   0.06308  -0.52064
  18   28507.1    350.8   0.050002729   0.57745   0.73585  -0.14119   0.12668
  19   28809.7    347.1   0.165067997   1.88625  -1.04067   0.17882   0.87823
  20   28894.0    346.1   0.009901262   0.11281  -0.15713  -0.24708   0.16455
  21   29937.6    334.0   0.134815728   1.48252  -1.16745   0.26601   0.22093
  22   30248.9    330.6   0.084172039   0.91608   0.83887  -0.04199  -0.45894
  23   30604.5    326.7   0.065629795   0.70598   0.59562   0.06187   0.58940
  24   30756.9    325.1   0.172793790   1.84953   0.47320  -0.47498   1.18322
  25   30893.4    323.7   0.056989349   0.60730   0.58944   0.04210   0.50803
  26   31368.9    318.8   0.220358283   2.31263  -1.39995  -0.43455   0.40489
  27   31985.0    312.6   0.149573631   1.53952   0.49250   0.20258  -1.12068
  28   32069.5    311.8   0.128924117   1.32348  -0.18043  -0.54730   0.99568
  29   32226.6    310.3   0.105164663   1.07431   1.01270  -0.12167  -0.18426
  30   32950.7    303.5   0.032465555   0.32436   0.51127   0.07298  -0.24008
  31   33045.1    302.6   0.077021340   0.76733   0.71579  -0.02122   0.50450
  32   33318.8    300.1   0.063501918   0.62744   0.56711  -0.37190   0.40929
  33   33593.3    297.7   0.089510763   0.87720  -0.78388  -0.12946  -0.49595
  34   33698.4    296.8   0.063393038   0.61931  -0.71195   0.24536   0.22855
  35   33767.9    296.1   0.042430915   0.41367  -0.21895  -0.60253  -0.05182
  36   33887.1    295.1   0.030164851   0.29305   0.45211   0.06570  -0.29041
  37   33986.2    294.2   0.004203224   0.04072  -0.03125   0.00082  -0.19934
  38   34224.1    292.2   0.026567821   0.25556  -0.31876  -0.10764  -0.37732
  39   34614.9    288.9   0.033846278   0.32190  -0.14652   0.28993   0.46516
  40   35148.1    284.5   0.001894169   0.01774  -0.12268   0.02152  -0.04720
  41   35190.8    284.2   0.181021019   1.69346  -1.27387   0.25087   0.08821
  42   35312.9    283.2   0.095459176   0.88994   0.32568  -0.64104   0.61069
  43   35488.2    281.8   0.118590918   1.10013   0.78897   0.10795  -0.68264
  44   35562.2    281.2   0.010585465   0.09799   0.13672  -0.28066   0.02303
  45   35707.1    280.1   0.140004429   1.29081  -0.78084   0.03265   0.82464
  46   36188.9    276.3   0.331468044   3.01538  -0.78984   0.11294  -1.54233
  47   36298.5    275.5   0.082421494   0.74753   0.76282  -0.08449   0.39812
  48   36593.0    273.3   0.228697354   2.05750  -0.73354   0.72489  -0.99697
  49   36620.4    273.1   0.016943754   0.15232   0.33848   0.17727   0.07953
  50   36913.3    270.9   0.054445101   0.48557  -0.68194   0.12171   0.07555
  51   37328.5    267.9   0.006183974   0.05454   0.00989  -0.11872  -0.20086
  52   37478.8    266.8   0.038417383   0.33746   0.52623  -0.22497  -0.09966
  53   37528.1    266.5   0.005706350   0.05006   0.18529  -0.10000   0.07566
  54   37630.7    265.7   0.011146625   0.09752  -0.23075   0.05855  -0.20209
  55   38170.6    262.0   0.051637027   0.44536   0.55577  -0.04513  -0.36666
  56   38710.9    258.3   0.024921845   0.21194   0.39334   0.04252   0.23542
  57   38929.9    256.9   0.019482596   0.16476  -0.10567   0.06220  -0.38694
  58   39168.5    255.3   0.050261257   0.42245  -0.11982   0.12265  -0.62693
  59   39574.1    252.7   0.008727488   0.07260   0.18901   0.08708   0.17116
  60   39778.0    251.4   0.118616786   0.98170  -0.50865  -0.04510  -0.84908
  61   39869.3    250.8   0.047750971   0.39429   0.36278  -0.08195   0.50593
  62   40217.0    248.7   0.041159956   0.33693   0.06963   0.06317   0.57279
  63   40279.8    248.3   0.005593326   0.04571   0.03864  -0.00201   0.21028

FINAL SINGLE POINT ENERGY     -9830.808617695280

DIPOLE MOMENT
-------------
                                X             Y             Z
Electronic contribution:    -20.62482       6.37390     -72.17521
Nuclear contribution   :     17.73306      -4.83779      72.74497
                        -----------------------------------------
Total Dipole Moment    :     -2.89175       1.53610       0.56975
                        -----------------------------------------
Magnitude (a.u.)       :      3.32362
Magnitude (Debye)      :      8.44798

Rotational constants in cm-1:     0.001746     0.000216     0.000203
Rotational constants in MHz :    52.349913     6.489725     6.073084

                             ****ORCA TERMINATED NORMALLY****
TOTAL RUN TIME: 0 days 0 hours 10 minutes 6 seconds 915 msec
