                         Program Version 4.2.0 -  RELEASE  -
|  1> # ORCA input file
|  2> # SCF done       -215.311693005979          0.000834077191
|  3> ! CAM-B3LYP def2-SVP def2/J RIJCOSX Grid4 TightSCF
|  4> %maxcore 5000
|  5> %tddft
|  6>     Mode sTDDFT
|  7>     Ethresh 5.0
|  8>     maxcore 5000
|  9> end
| 10>
| 11> %pal
| 12>   nprocs 6
| 13>   end
| 14> * xyz 0 1
| 15>    C       -0.80722         1.54752         5.17752
| 16>    C       -0.16246         0.52582         4.53018
| 17>    C        1.08432        -0.00047         4.93041
| 18>    N        2.09484        -0.47124         5.20378
| 19>    C       -0.62184        -0.13644         3.37197
| 20>    N       -0.91954        -0.71907         2.42806
| 21>    C       -0.30006         2.25370         6.35021
| 22>    C       -1.20791         3.28838         6.68716
| 23>    C       -1.00990         4.13661         7.74944
| 24>    C        0.14199         3.95428         8.52151
| 25>    C        1.04374         2.91773         8.18013
| 26>    C        0.84259         2.06153         7.10397
| 27>    S        2.39870         2.86680         9.26556
| 28>    C        1.74541         4.21917        10.15144
| 29>    C        0.57261         4.68691         9.66088
| 30>   Br        2.67225         4.88555        11.63890
| 31>    C       -2.33118         3.26964         5.73765
| 32>    O       -3.28217         4.03322         5.72905
| 33>    C       -2.07981         2.15116         4.82297
| 34>    C       -2.93256         1.72007         3.83948
| 35>    C       -4.17052         2.23237         3.42170
| 36>    C       -4.92273         1.60973         2.41726
| 37>    C       -6.10135         2.27695         2.14764
| 38>    C       -6.25402         3.43770         2.94551
| 39>    S       -4.96652         3.68414         4.03092
| 40>    C       -7.48360         4.04985         2.59743
| 41>    C       -8.10421         3.28256         1.59237
| 42>    C       -7.25873         2.14500         1.27599
| 43>    C       -7.51288         1.16516         0.36174
| 44>    C       -6.62477         0.09105         0.14074
| 45>    N       -5.91127        -0.78711        -0.04288
| 46>    C       -8.68868         1.15994        -0.41857
| 47>    N       -9.64566         1.15217        -1.05076
| 48>    C       -9.32871         3.80411         1.18999
| 49>    C       -9.64539         4.96502         1.87601
| 50>    S       -8.40604         5.41559         3.03408
| 51>    C      -10.83975         5.72942         1.69661
| 52>    C      -11.12116         6.92038         2.35682
| 53>    F      -10.22442         7.41864         3.22845
| 54>    C      -12.29963         7.65204         2.17166
| 55>    F      -12.42905         8.78930         2.88085
| 56>    C      -13.32321         7.26612         1.31304
| 57>    C      -13.06700         6.05258         0.62530
| 58>    C      -11.86310         5.31142         0.80831
| 59>    N      -11.94222         4.23192         0.01761
| 60>    N      -13.09591         4.33900        -0.57455
| 61>    N      -13.81049         5.38246        -0.26629
| 62>    C      -13.55639         3.35202        -1.50067
| 63>    C      -14.53583         7.99725         1.11945
| 64>    C      -15.58018         7.61588         0.29289
| 65>    C      -16.62436         8.53378         0.32022
| 66>    C      -16.37185         9.62672         1.17188
| 67>    S      -14.85345         9.51678         1.93753
| 68>    C      -17.48603        10.50209         1.12045
| 69>    C      -18.44304         9.95423         0.24071
| 70>    C      -17.92871         8.70640        -0.29593
| 71>    C      -18.53381         7.89281        -1.20860
| 72>    C      -17.93172         6.70452        -1.67288
| 73>    N      -17.44662         5.73521        -2.04688
| 74>    C      -19.80432         8.20331        -1.73783
| 75>    N      -20.84007         8.46918        -2.15215
| 76>    C      -19.56566        10.75672         0.09342
| 77>    C      -19.48120        11.92121         0.84393
| 78>    S      -17.98828        11.98838         1.77599
| 79>    C      -20.41814        12.96907         0.96834
| 80>    C      -21.46483        13.28430         0.15540
| 81>    C      -21.84264        12.88876        -1.18547
| 82>    C      -21.00191        12.53926        -2.21081
| 83>    C      -21.43212        12.29914        -3.53291
| 84>    N      -21.72800        12.10060        -4.62334
| 85>    C      -19.60006        12.47682        -2.09479
| 86>    N      -18.45316        12.43910        -2.05496
| 87>    C      -23.25874        13.20494        -1.34498
| 88>    C      -23.67722        13.99410        -0.24373
| 89>    C      -22.55306        14.14653         0.69889
| 90>    O      -22.51885        14.78941         1.72234
| 91>    C      -24.95437        14.48888        -0.13529
| 92>    C      -25.86256        14.17890        -1.15319
| 93>    C      -25.43997        13.37117        -2.23691
| 94>    C      -24.14596        12.87788        -2.35203
| 95>    S      -26.72648        13.09881        -3.37093
| 96>    C      -27.79850        14.06620        -2.39344
| 97>    C      -27.22548        14.56537        -1.27232
| 98>   Br      -29.57247        14.32320        -2.94312
| 99>    H       -1.72095         4.91491         7.97807
|100>    H        1.55937         1.28715         6.88859
|101>    H        0.03244         5.51394        10.08419
|102>    H       -2.63549         0.83740         3.28596
|103>    H       -4.59156         0.71041         1.92837
|104>    H       -9.97942         3.38761         0.44425
|105>    H      -12.71089         2.72735        -1.78042
|106>    H      -13.98359         3.84576        -2.37215
|107>    H      -14.32962         2.73802        -1.03617
|108>    H      -15.54879         6.71101        -0.28498
|109>    H      -20.42844        10.49884        -0.49320
|110>    H      -20.34208        13.57658         1.86532
|111>    H      -25.24453        15.09634         0.70746
|112>    H      -23.86977        12.25907        -3.18969
|113>    H      -27.74096        15.18088        -0.55796
|114> *
|115>
|116>                          ****END OF INPUT****

CARTESIAN COORDINATES (ANGSTROEM)
---------------------------------
  C     -0.807220    1.547520    5.177520
  C     -0.162460    0.525820    4.530180
  C      1.084320   -0.000470    4.930410
  N      2.094840   -0.471240    5.203780
  C     -0.621840   -0.136440    3.371970
  N     -0.919540   -0.719070    2.428060
  C     -0.300060    2.253700    6.350210
  C     -1.207910    3.288380    6.687160
  C     -1.009900    4.136610    7.749440
  C      0.141990    3.954280    8.521510
  C      1.043740    2.917730    8.180130
  C      0.842590    2.061530    7.103970
  S      2.398700    2.866800    9.265560
  C      1.745410    4.219170   10.151440
  C      0.572610    4.686910    9.660880
  Br     2.672250    4.885550   11.638900
  C     -2.331180    3.269640    5.737650
  O     -3.282170    4.033220    5.729050
  C     -2.079810    2.151160    4.822970
  C     -2.932560    1.720070    3.839480
  C     -4.170520    2.232370    3.421700
  C     -4.922730    1.609730    2.417260
  C     -6.101350    2.276950    2.147640
  C     -6.254020    3.437700    2.945510
  S     -4.966520    3.684140    4.030920
  C     -7.483600    4.049850    2.597430
  C     -8.104210    3.282560    1.592370
  C     -7.258730    2.145000    1.275990
  C     -7.512880    1.165160    0.361740
  C     -6.624770    0.091050    0.140740
  N     -5.911270   -0.787110   -0.042880
  C     -8.688680    1.159940   -0.418570
  N     -9.645660    1.152170   -1.050760
  C     -9.328710    3.804110    1.189990
  C     -9.645390    4.965020    1.876010
  S     -8.406040    5.415590    3.034080
  C    -10.839750    5.729420    1.696610
  C    -11.121160    6.920380    2.356820
  F    -10.224420    7.418640    3.228450
  C    -12.299630    7.652040    2.171660
  F    -12.429050    8.789300    2.880850
  C    -13.323210    7.266120    1.313040
  C    -13.067000    6.052580    0.625300
  C    -11.863100    5.311420    0.808310
  N    -11.942220    4.231920    0.017610
  N    -13.095910    4.339000   -0.574550
  N    -13.810490    5.382460   -0.266290
  C    -13.556390    3.352020   -1.500670
  C    -14.535830    7.997250    1.119450
  C    -15.580180    7.615880    0.292890
  C    -16.624360    8.533780    0.320220
  C    -16.371850    9.626720    1.171880
  S    -14.853450    9.516780    1.937530
  C    -17.486030   10.502090    1.120450
  C    -18.443040    9.954230    0.240710
  C    -17.928710    8.706400   -0.295930
  C    -18.533810    7.892810   -1.208600
  C    -17.931720    6.704520   -1.672880
  N    -17.446620    5.735210   -2.046880
  C    -19.804320    8.203310   -1.737830
  N    -20.840070    8.469180   -2.152150
  C    -19.565660   10.756720    0.093420
  C    -19.481200   11.921210    0.843930
  S    -17.988280   11.988380    1.775990
  C    -20.418140   12.969070    0.968340
  C    -21.464830   13.284300    0.155400
  C    -21.842640   12.888760   -1.185470
  C    -21.001910   12.539260   -2.210810
  C    -21.432120   12.299140   -3.532910
  N    -21.728000   12.100600   -4.623340
  C    -19.600060   12.476820   -2.094790
  N    -18.453160   12.439100   -2.054960
  C    -23.258740   13.204940   -1.344980
  C    -23.677220   13.994100   -0.243730
  C    -22.553060   14.146530    0.698890
  O    -22.518850   14.789410    1.722340
  C    -24.954370   14.488880   -0.135290
  C    -25.862560   14.178900   -1.153190
  C    -25.439970   13.371170   -2.236910
  C    -24.145960   12.877880   -2.352030
  S    -26.726480   13.098810   -3.370930
  C    -27.798500   14.066200   -2.393440
  C    -27.225480   14.565370   -1.272320
  Br   -29.572470   14.323200   -2.943120
  H     -1.720950    4.914910    7.978070
  H      1.559370    1.287150    6.888590
  H      0.032440    5.513940   10.084190
  H     -2.635490    0.837400    3.285960
  H     -4.591560    0.710410    1.928370
  H     -9.979420    3.387610    0.444250
  H    -12.710890    2.727350   -1.780420
  H    -13.983590    3.845760   -2.372150
  H    -14.329620    2.738020   -1.036170
  H    -15.548790    6.711010   -0.284980
  H    -20.428440   10.498840   -0.493200
  H    -20.342080   13.576580    1.865320
  H    -25.244530   15.096340    0.707460
  H    -23.869770   12.259070   -3.189690
  H    -27.740960   15.180880   -0.557960

 Total Charge           Charge          ....    0
 Multiplicity           Mult            ....    1
 Number of Electrons    NEL             ....  658
 Basis Dimension        Dim             .... 1311

ORBITAL ENERGIES
----------------

  NO   OCC          E(Eh)            E(eV)
   0   2.0000    -482.888829    -13140.0731
   1   2.0000    -482.886433    -13140.0079
   2   2.0000     -88.998569     -2421.7742
   3   2.0000     -88.996040     -2421.7054
   4   2.0000     -88.995656     -2421.6949
   5   2.0000     -88.992722     -2421.6151
   6   2.0000     -88.979523     -2421.2559
   7   2.0000     -88.976964     -2421.1863
   8   2.0000     -62.566549     -1702.5223
   9   2.0000     -62.564165     -1702.4575
  10   2.0000     -56.400503     -1534.7357
  11   2.0000     -56.398116     -1534.6708
  12   2.0000     -56.397779     -1534.6616
  13   2.0000     -56.397746     -1534.6607
  14   2.0000     -56.395396     -1534.5968
  15   2.0000     -56.395363     -1534.5959
  16   2.0000     -24.819561      -675.3746
  17   2.0000     -24.819434      -675.3711
  18   2.0000     -19.228905      -523.2451
  19   2.0000     -19.218091      -522.9509
  20   2.0000     -14.563140      -396.2832
  21   2.0000     -14.465446      -393.6248
  22   2.0000     -14.464659      -393.6034
  23   2.0000     -14.434976      -392.7957
  24   2.0000     -14.434616      -392.7859
  25   2.0000     -14.434226      -392.7753
  26   2.0000     -14.431986      -392.7143
  27   2.0000     -14.419846      -392.3840
  28   2.0000     -14.419586      -392.3769
  29   2.0000     -14.417204      -392.3121
  30   2.0000     -14.415708      -392.2713
  31   2.0000     -10.394741      -282.8553
  32   2.0000     -10.394299      -282.8433
  33   2.0000     -10.376481      -282.3584
  34   2.0000     -10.369275      -282.1623
  35   2.0000     -10.369077      -282.1569
  36   2.0000     -10.367876      -282.1242
  37   2.0000     -10.362615      -281.9811
  38   2.0000     -10.360039      -281.9110
  39   2.0000     -10.356494      -281.8145
  40   2.0000     -10.356148      -281.8051
  41   2.0000     -10.346333      -281.5380
  42   2.0000     -10.345885      -281.5258
  43   2.0000     -10.345798      -281.5235
  44   2.0000     -10.345712      -281.5211
  45   2.0000     -10.345244      -281.5084
  46   2.0000     -10.337518      -281.2982
  47   2.0000     -10.336822      -281.2792
  48   2.0000     -10.336464      -281.2695
  49   2.0000     -10.335710      -281.2490
  50   2.0000     -10.335272      -281.2371
  51   2.0000     -10.334961      -281.2286
  52   2.0000     -10.334884      -281.2265
  53   2.0000     -10.334421      -281.2139
  54   2.0000     -10.332923      -281.1731
  55   2.0000     -10.332336      -281.1572
  56   2.0000     -10.331789      -281.1423
  57   2.0000     -10.331530      -281.1352
  58   2.0000     -10.331203      -281.1263
  59   2.0000     -10.330393      -281.1043
  60   2.0000     -10.330128      -281.0971
  61   2.0000     -10.329764      -281.0872
  62   2.0000     -10.329590      -281.0824
  63   2.0000     -10.329376      -281.0766
  64   2.0000     -10.327537      -281.0266
  65   2.0000     -10.327368      -281.0220
  66   2.0000     -10.322010      -280.8762
  67   2.0000     -10.321234      -280.8551
  68   2.0000     -10.320201      -280.8270
  69   2.0000     -10.318111      -280.7701
  70   2.0000     -10.316136      -280.7163
  71   2.0000     -10.315003      -280.6855
  72   2.0000     -10.312558      -280.6190
  73   2.0000     -10.311811      -280.5986
  74   2.0000     -10.310925      -280.5745
  75   2.0000     -10.310324      -280.5582
  76   2.0000     -10.309924      -280.5473
  77   2.0000     -10.309478      -280.5352
  78   2.0000     -10.309473      -280.5350
  79   2.0000     -10.309177      -280.5270
  80   2.0000     -10.308370      -280.5050
  81   2.0000     -10.307389      -280.4783
  82   2.0000     -10.306403      -280.4515
  83   2.0000     -10.303560      -280.3741
  84   2.0000     -10.302796      -280.3533
  85   2.0000     -10.302671      -280.3499
  86   2.0000     -10.301710      -280.3238
  87   2.0000     -10.301299      -280.3126
  88   2.0000     -10.300529      -280.2916
  89   2.0000     -10.297873      -280.2194
  90   2.0000     -10.297508      -280.2094
  91   2.0000     -10.295297      -280.1493
  92   2.0000      -8.795986      -239.3510
  93   2.0000      -8.793611      -239.2863
  94   2.0000      -8.093241      -220.2283
  95   2.0000      -8.090125      -220.1435
  96   2.0000      -8.089744      -220.1331
  97   2.0000      -8.085033      -220.0049
  98   2.0000      -8.075489      -219.7452
  99   2.0000      -8.072886      -219.6744
 100   2.0000      -6.632318      -180.4745
 101   2.0000      -6.629920      -180.4093
 102   2.0000      -6.617698      -180.0767
 103   2.0000      -6.617506      -180.0715
 104   2.0000      -6.615337      -180.0125
 105   2.0000      -6.615145      -180.0072
 106   2.0000      -6.062394      -164.9661
 107   2.0000      -6.059439      -164.8857
 108   2.0000      -6.059020      -164.8743
 109   2.0000      -6.058237      -164.8530
 110   2.0000      -6.055761      -164.7856
 111   2.0000      -6.055012      -164.7652
 112   2.0000      -6.054626      -164.7548
 113   2.0000      -6.054449      -164.7499
 114   2.0000      -6.052575      -164.6989
 115   2.0000      -6.052227      -164.6895
 116   2.0000      -6.049687      -164.6203
 117   2.0000      -6.047607      -164.5638
 118   2.0000      -6.045187      -164.4979
 119   2.0000      -6.042579      -164.4269
 120   2.0000      -6.040873      -164.3805
 121   2.0000      -6.038293      -164.3103
 122   2.0000      -6.036733      -164.2679
 123   2.0000      -6.034140      -164.1973
 124   2.0000      -2.748163       -74.7813
 125   2.0000      -2.745793       -74.7168
 126   2.0000      -2.744104       -74.6709
 127   2.0000      -2.743934       -74.6662
 128   2.0000      -2.741703       -74.6055
 129   2.0000      -2.741548       -74.6013
 130   2.0000      -2.732317       -74.3501
 131   2.0000      -2.732311       -74.3500
 132   2.0000      -2.729958       -74.2859
 133   2.0000      -2.729946       -74.2856
 134   2.0000      -1.341852       -36.5137
 135   2.0000      -1.324688       -36.0466
 136   2.0000      -1.243323       -33.8325
 137   2.0000      -1.144384       -31.1403
 138   2.0000      -1.133715       -30.8500
 139   2.0000      -1.051918       -28.6242
 140   2.0000      -1.049593       -28.5609
 141   2.0000      -1.027181       -27.9510
 142   2.0000      -1.026788       -27.9403
 143   2.0000      -1.025539       -27.9063
 144   2.0000      -1.025254       -27.8986
 145   2.0000      -1.018719       -27.7208
 146   2.0000      -1.017618       -27.6908
 147   2.0000      -1.016777       -27.6679
 148   2.0000      -1.015090       -27.6220
 149   2.0000      -1.011947       -27.5365
 150   2.0000      -1.010401       -27.4944
 151   2.0000      -1.003246       -27.2997
 152   2.0000      -0.998213       -27.1628
 153   2.0000      -0.997272       -27.1372
 154   2.0000      -0.995994       -27.1024
 155   2.0000      -0.993710       -27.0402
 156   2.0000      -0.991411       -26.9777
 157   2.0000      -0.966617       -26.3030
 158   2.0000      -0.964136       -26.2355
 159   2.0000      -0.946656       -25.7598
 160   2.0000      -0.945932       -25.7401
 161   2.0000      -0.944993       -25.7146
 162   2.0000      -0.929486       -25.2926
 163   2.0000      -0.922052       -25.0903
 164   2.0000      -0.912745       -24.8370
 165   2.0000      -0.910700       -24.7814
 166   2.0000      -0.907539       -24.6954
 167   2.0000      -0.897604       -24.4250
 168   2.0000      -0.890590       -24.2342
 169   2.0000      -0.889974       -24.2174
 170   2.0000      -0.887818       -24.1588
 171   2.0000      -0.876940       -23.8628
 172   2.0000      -0.875312       -23.8184
 173   2.0000      -0.864829       -23.5332
 174   2.0000      -0.862708       -23.4755
 175   2.0000      -0.861073       -23.4310
 176   2.0000      -0.854770       -23.2595
 177   2.0000      -0.838537       -22.8178
 178   2.0000      -0.833576       -22.6827
 179   2.0000      -0.831146       -22.6166
 180   2.0000      -0.816119       -22.2077
 181   2.0000      -0.802953       -21.8495
 182   2.0000      -0.792747       -21.5717
 183   2.0000      -0.783987       -21.3334
 184   2.0000      -0.778580       -21.1862
 185   2.0000      -0.770223       -20.9588
 186   2.0000      -0.766091       -20.8464
 187   2.0000      -0.760997       -20.7078
 188   2.0000      -0.756757       -20.5924
 189   2.0000      -0.751875       -20.4596
 190   2.0000      -0.730434       -19.8761
 191   2.0000      -0.724683       -19.7196
 192   2.0000      -0.714818       -19.4512
 193   2.0000      -0.708957       -19.2917
 194   2.0000      -0.704271       -19.1642
 195   2.0000      -0.698970       -19.0200
 196   2.0000      -0.696869       -18.9628
 197   2.0000      -0.693044       -18.8587
 198   2.0000      -0.689835       -18.7714
 199   2.0000      -0.687702       -18.7133
 200   2.0000      -0.682886       -18.5823
 201   2.0000      -0.679685       -18.4952
 202   2.0000      -0.669098       -18.2071
 203   2.0000      -0.665611       -18.1122
 204   2.0000      -0.661790       -18.0082
 205   2.0000      -0.656211       -17.8564
 206   2.0000      -0.652019       -17.7424
 207   2.0000      -0.646716       -17.5980
 208   2.0000      -0.642382       -17.4801
 209   2.0000      -0.638432       -17.3726
 210   2.0000      -0.636230       -17.3127
 211   2.0000      -0.629683       -17.1346
 212   2.0000      -0.626916       -17.0593
 213   2.0000      -0.625393       -17.0178
 214   2.0000      -0.624235       -16.9863
 215   2.0000      -0.621221       -16.9043
 216   2.0000      -0.620222       -16.8771
 217   2.0000      -0.607289       -16.5252
 218   2.0000      -0.603770       -16.4294
 219   2.0000      -0.602931       -16.4066
 220   2.0000      -0.600018       -16.3273
 221   2.0000      -0.598069       -16.2743
 222   2.0000      -0.591136       -16.0856
 223   2.0000      -0.586846       -15.9689
 224   2.0000      -0.580404       -15.7936
 225   2.0000      -0.576911       -15.6986
 226   2.0000      -0.568538       -15.4707
 227   2.0000      -0.567830       -15.4514
 228   2.0000      -0.560533       -15.2529
 229   2.0000      -0.555256       -15.1093
 230   2.0000      -0.553549       -15.0628
 231   2.0000      -0.552912       -15.0455
 232   2.0000      -0.550503       -14.9799
 233   2.0000      -0.546544       -14.8722
 234   2.0000      -0.545633       -14.8474
 235   2.0000      -0.543135       -14.7795
 236   2.0000      -0.541344       -14.7307
 237   2.0000      -0.537521       -14.6267
 238   2.0000      -0.536043       -14.5865
 239   2.0000      -0.531209       -14.4549
 240   2.0000      -0.529117       -14.3980
 241   2.0000      -0.526109       -14.3161
 242   2.0000      -0.523438       -14.2435
 243   2.0000      -0.521687       -14.1958
 244   2.0000      -0.517750       -14.0887
 245   2.0000      -0.516059       -14.0427
 246   2.0000      -0.514405       -13.9977
 247   2.0000      -0.513795       -13.9811
 248   2.0000      -0.511635       -13.9223
 249   2.0000      -0.509647       -13.8682
 250   2.0000      -0.507865       -13.8197
 251   2.0000      -0.507370       -13.8063
 252   2.0000      -0.505160       -13.7461
 253   2.0000      -0.503876       -13.7112
 254   2.0000      -0.502064       -13.6618
 255   2.0000      -0.501259       -13.6400
 256   2.0000      -0.500420       -13.6171
 257   2.0000      -0.498802       -13.5731
 258   2.0000      -0.497198       -13.5294
 259   2.0000      -0.491597       -13.3770
 260   2.0000      -0.490992       -13.3606
 261   2.0000      -0.489393       -13.3170
 262   2.0000      -0.485270       -13.2049
 263   2.0000      -0.481837       -13.1114
 264   2.0000      -0.479264       -13.0414
 265   2.0000      -0.477296       -12.9879
 266   2.0000      -0.471948       -12.8424
 267   2.0000      -0.465847       -12.6763
 268   2.0000      -0.465167       -12.6579
 269   2.0000      -0.463996       -12.6260
 270   2.0000      -0.462448       -12.5838
 271   2.0000      -0.460472       -12.5301
 272   2.0000      -0.459110       -12.4930
 273   2.0000      -0.458090       -12.4653
 274   2.0000      -0.455337       -12.3904
 275   2.0000      -0.453476       -12.3397
 276   2.0000      -0.452586       -12.3155
 277   2.0000      -0.451688       -12.2911
 278   2.0000      -0.448876       -12.2145
 279   2.0000      -0.447755       -12.1840
 280   2.0000      -0.446657       -12.1541
 281   2.0000      -0.446328       -12.1452
 282   2.0000      -0.444662       -12.0999
 283   2.0000      -0.443868       -12.0783
 284   2.0000      -0.443252       -12.0615
 285   2.0000      -0.443176       -12.0594
 286   2.0000      -0.442651       -12.0451
 287   2.0000      -0.442238       -12.0339
 288   2.0000      -0.441610       -12.0168
 289   2.0000      -0.439871       -11.9695
 290   2.0000      -0.437061       -11.8930
 291   2.0000      -0.430612       -11.7175
 292   2.0000      -0.430342       -11.7102
 293   2.0000      -0.429662       -11.6917
 294   2.0000      -0.429431       -11.6854
 295   2.0000      -0.428254       -11.6534
 296   2.0000      -0.424920       -11.5627
 297   2.0000      -0.419975       -11.4281
 298   2.0000      -0.419404       -11.4126
 299   2.0000      -0.414281       -11.2732
 300   2.0000      -0.412672       -11.2294
 301   2.0000      -0.412246       -11.2178
 302   2.0000      -0.411008       -11.1841
 303   2.0000      -0.410041       -11.1578
 304   2.0000      -0.395883       -10.7725
 305   2.0000      -0.392575       -10.6825
 306   2.0000      -0.392266       -10.6741
 307   2.0000      -0.391065       -10.6414
 308   2.0000      -0.386266       -10.5108
 309   2.0000      -0.378173       -10.2906
 310   2.0000      -0.375811       -10.2263
 311   2.0000      -0.371509       -10.1093
 312   2.0000      -0.365273        -9.9396
 313   2.0000      -0.354246        -9.6395
 314   2.0000      -0.352657        -9.5963
 315   2.0000      -0.352439        -9.5904
 316   2.0000      -0.345173        -9.3926
 317   2.0000      -0.343284        -9.3412
 318   2.0000      -0.341573        -9.2947
 319   2.0000      -0.334858        -9.1120
 320   2.0000      -0.327593        -8.9143
 321   2.0000      -0.325970        -8.8701
 322   2.0000      -0.320088        -8.7100
 323   2.0000      -0.316973        -8.6253
 324   2.0000      -0.310732        -8.4555
 325   2.0000      -0.297711        -8.1011
 326   2.0000      -0.295752        -8.0478
 327   2.0000      -0.278268        -7.5720
 328   2.0000      -0.254084        -6.9140
 329   0.0000      -0.118654        -3.2287
 330   0.0000      -0.110477        -3.0062
 331   0.0000      -0.091716        -2.4957
 332   0.0000      -0.090243        -2.4556
 333   0.0000      -0.072544        -1.9740

MULLIKEN ATOMIC CHARGES
-----------------------
   0 C :    0.322270
   1 C :   -0.354227
   2 C :   -0.184904
   3 N :    0.155037
   4 C :   -0.193355
   5 N :    0.155379
   6 C :    0.014237
   7 C :   -0.013248
   8 C :   -0.070917
   9 C :    0.119476
  10 C :   -0.093637
  11 C :   -0.020812
  12 S :    0.190937
  13 C :   -0.122525
  14 C :    0.036833
  15 Br:    0.026571
  16 C :    0.162119
  17 O :   -0.189256
  18 C :   -0.089332
  19 C :   -0.029364
  20 C :   -0.054487
  21 C :   -0.058420
  22 C :    0.046964
  23 C :   -0.075894
  24 S :    0.243955
  25 C :   -0.096117
  26 C :    0.039833
  27 C :    0.310647
  28 C :   -0.300811
  29 C :   -0.195967
  30 N :    0.183842
  31 C :   -0.186160
  32 N :    0.172331
  33 C :   -0.073115
  34 C :   -0.126603
  35 S :    0.220048
  36 C :    0.094041
  37 C :    0.114420
  38 F :   -0.177378
  39 C :    0.110158
  40 F :   -0.177352
  41 C :    0.097952
  42 C :   -0.031692
  43 C :   -0.033528
  44 N :   -0.059692
  45 N :   -0.053524
  46 N :   -0.062260
  47 C :    0.137992
  48 C :   -0.131312
  49 C :   -0.064781
  50 C :    0.038623
  51 C :   -0.094367
  52 S :    0.215984
  53 C :   -0.077540
  54 C :   -0.004483
  55 C :    0.310357
  56 C :   -0.295171
  57 C :   -0.184248
  58 N :    0.173780
  59 C :   -0.187091
  60 N :    0.172571
  61 C :   -0.001906
  62 C :   -0.113100
  63 S :    0.216089
  64 C :    0.082360
  65 C :   -0.132960
  66 C :    0.267454
  67 C :   -0.333050
  68 C :   -0.168672
  69 N :    0.160619
  70 C :   -0.202167
  71 N :    0.164969
  72 C :   -0.003831
  73 C :    0.009369
  74 C :    0.131456
  75 O :   -0.144990
  76 C :   -0.073229
  77 C :    0.111879
  78 C :   -0.087933
  79 C :   -0.018920
  80 S :    0.189643
  81 C :   -0.126350
  82 C :    0.041699
  83 Br:    0.025300
  84 H :   -0.010136
  85 H :   -0.004984
  86 H :   -0.002606
  87 H :    0.016160
  88 H :    0.027747
  89 H :    0.022426
  90 H :    0.069617
  91 H :    0.065795
  92 H :    0.061920
  93 H :    0.018830
  94 H :    0.024649
  95 H :    0.021308
  96 H :   -0.008642
  97 H :    0.003370
  98 H :   -0.001970
Sum of atomic charges:   -0.0000000

LOEWDIN ATOMIC CHARGES
----------------------
   0 C :    0.076313
   1 C :   -0.140786
   2 C :   -0.018163
   3 N :   -0.052113
   4 C :   -0.023514
   5 N :   -0.047007
   6 C :   -0.019521
   7 C :   -0.051712
   8 C :    0.022533
   9 C :   -0.032895
  10 C :   -0.143501
  11 C :   -0.008698
  12 S :    0.436149
  13 C :   -0.271102
  14 C :   -0.070467
  15 Br:    0.138938
  16 C :    0.085749
  17 O :   -0.174989
  18 C :   -0.112052
  19 C :    0.056556
  20 C :   -0.184522
  21 C :    0.013132
  22 C :   -0.078004
  23 C :   -0.164911
  24 S :    0.548562
  25 C :   -0.189706
  26 C :   -0.058459
  27 C :    0.079435
  28 C :   -0.101933
  29 C :   -0.020778
  30 N :   -0.024933
  31 C :   -0.012528
  32 N :   -0.036470
  33 C :   -0.020089
  34 C :   -0.158822
  35 S :    0.498636
  36 C :   -0.064490
  37 C :    0.058263
  38 F :   -0.052360
  39 C :    0.057153
  40 F :   -0.052778
  41 C :   -0.062727
  42 C :   -0.040771
  43 C :   -0.042622
  44 N :   -0.074743
  45 N :    0.167226
  46 N :   -0.077785
  47 C :    0.036933
  48 C :   -0.162364
  49 C :   -0.016696
  50 C :   -0.060937
  51 C :   -0.186558
  52 S :    0.497974
  53 C :   -0.158020
  54 C :   -0.065821
  55 C :    0.083372
  56 C :   -0.098655
  57 C :   -0.015003
  58 N :   -0.032295
  59 C :   -0.013389
  60 N :   -0.033025
  61 C :    0.009454
  62 C :   -0.181867
  63 S :    0.500707
  64 C :    0.042057
  65 C :   -0.091621
  66 C :    0.065781
  67 C :   -0.137453
  68 C :   -0.019307
  69 N :   -0.045820
  70 C :   -0.015768
  71 N :   -0.046895
  72 C :   -0.017570
  73 C :   -0.053578
  74 C :    0.083520
  75 O :   -0.143912
  76 C :    0.023120
  77 C :   -0.033134
  78 C :   -0.142438
  79 C :   -0.009450
  80 S :    0.435695
  81 C :   -0.271667
  82 C :   -0.070353
  83 Br:    0.138066
  84 H :    0.041008
  85 H :    0.041633
  86 H :    0.039046
  87 H :    0.053674
  88 H :    0.048189
  89 H :    0.037959
  90 H :    0.048952
  91 H :    0.047740
  92 H :    0.045711
  93 H :    0.038067
  94 H :    0.042621
  95 H :    0.045904
  96 H :    0.041645
  97 H :    0.042947
  98 H :    0.039125

  Mayer bond orders larger than 0.100000
B(  0-C ,  1-C ) :   1.6299 B(  0-C ,  6-C ) :   1.0006 B(  0-C , 18-C ) :   1.0752
B(  1-C ,  2-C ) :   1.1442 B(  1-C ,  4-C ) :   1.1439 B(  2-C ,  3-N ) :   2.9686
B(  4-C ,  5-N ) :   2.9639 B(  6-C ,  7-C ) :   1.2735 B(  6-C , 11-C ) :   1.4136
B(  7-C ,  8-C ) :   1.4216 B(  7-C , 16-C ) :   0.9648 B(  8-C ,  9-C ) :   1.2434
B(  8-C , 84-H ) :   1.0174 B(  9-C , 10-C ) :   1.3054 B(  9-C , 14-C ) :   1.1641
B( 10-C , 11-C ) :   1.3275 B( 10-C , 12-S ) :   1.0898 B( 11-C , 85-H ) :   0.9796
B( 12-S , 13-C ) :   1.0868 B( 13-C , 14-C ) :   1.6171 B( 13-C , 15-Br) :   1.0203
B( 14-C , 86-H ) :   1.0002 B( 16-C , 17-O ) :   2.1129 B( 16-C , 18-C ) :   0.9836
B( 18-C , 19-C ) :   1.4912 B( 19-C , 20-C ) :   1.2678 B( 19-C , 87-H ) :   0.9412
B( 20-C , 21-C ) :   1.3274 B( 20-C , 24-S ) :   1.0689 B( 21-C , 22-C ) :   1.3314
B( 21-C , 88-H ) :   1.0091 B( 22-C , 23-C ) :   1.3582 B( 22-C , 27-C ) :   0.9807
B( 23-C , 24-S ) :   1.1298 B( 23-C , 25-C ) :   1.2031 B( 25-C , 26-C ) :   1.4207
B( 25-C , 35-S ) :   1.1052 B( 26-C , 27-C ) :   1.0031 B( 26-C , 33-C ) :   1.2539
B( 27-C , 28-C ) :   1.7135 B( 28-C , 29-C ) :   1.1335 B( 28-C , 31-C ) :   1.1382
B( 29-C , 30-N ) :   2.9963 B( 31-C , 32-N ) :   2.9895 B( 33-C , 34-C ) :   1.4671
B( 33-C , 89-H ) :   0.9790 B( 34-C , 35-S ) :   1.1026 B( 34-C , 36-C ) :   1.1449
B( 36-C , 37-C ) :   1.3623 B( 36-C , 41-C ) :   0.1280 B( 36-C , 43-C ) :   1.1766
B( 37-C , 38-F ) :   1.1358 B( 37-C , 39-C ) :   1.2049 B( 39-C , 40-F ) :   1.1348
B( 39-C , 41-C ) :   1.3610 B( 41-C , 42-C ) :   1.1758 B( 41-C , 48-C ) :   1.1448
B( 42-C , 43-C ) :   1.2221 B( 42-C , 46-N ) :   1.4699 B( 43-C , 44-N ) :   1.4696
B( 44-N , 45-N ) :   1.2456 B( 44-N , 46-N ) :   0.1566 B( 45-N , 46-N ) :   1.2326
B( 45-N , 47-C ) :   0.9458 B( 47-C , 90-H ) :   0.9635 B( 47-C , 91-H ) :   0.9666
B( 47-C , 92-H ) :   0.9685 B( 48-C , 49-C ) :   1.4688 B( 48-C , 52-S ) :   1.1012
B( 49-C , 50-C ) :   1.2566 B( 49-C , 93-H ) :   0.9780 B( 50-C , 51-C ) :   1.4276
B( 50-C , 55-C ) :   0.9981 B( 51-C , 52-S ) :   1.1070 B( 51-C , 53-C ) :   1.1943
B( 53-C , 54-C ) :   1.4130 B( 53-C , 63-S ) :   1.1569 B( 54-C , 55-C ) :   0.9955
B( 54-C , 61-C ) :   1.3593 B( 55-C , 56-C ) :   1.7148 B( 56-C , 57-C ) :   1.1383
B( 56-C , 59-C ) :   1.1355 B( 57-C , 58-N ) :   2.9867 B( 59-C , 60-N ) :   2.9836
B( 61-C , 62-C ) :   1.3962 B( 61-C , 94-H ) :   0.9794 B( 62-C , 63-S ) :   1.0882
B( 62-C , 64-C ) :   1.1346 B( 64-C , 65-C ) :   1.6723 B( 64-C , 95-H ) :   0.9283
B( 65-C , 66-C ) :   1.0367 B( 65-C , 74-C ) :   0.9437 B( 66-C , 67-C ) :   1.6487
B( 66-C , 72-C ) :   1.0117 B( 67-C , 68-C ) :   1.1237 B( 67-C , 70-C ) :   1.1736
B( 68-C , 69-N ) :   2.9936 B( 70-C , 71-N ) :   2.9953 B( 72-C , 73-C ) :   1.2750
B( 72-C , 79-C ) :   1.4164 B( 73-C , 74-C ) :   0.9217 B( 73-C , 76-C ) :   1.4230
B( 74-C , 75-O ) :   2.2628 B( 76-C , 77-C ) :   1.2525 B( 76-C , 96-H ) :   1.0164
B( 77-C , 78-C ) :   1.3066 B( 77-C , 82-C ) :   1.1636 B( 78-C , 79-C ) :   1.3266
B( 78-C , 80-S ) :   1.0857 B( 79-C , 97-H ) :   0.9834 B( 80-S , 81-C ) :   1.0883
B( 81-C , 82-C ) :   1.6175 B( 81-C , 83-Br) :   1.0204 B( 82-C , 98-H ) :   1.0001

-----------------------------------------------------------------------------
         ABSORPTION SPECTRUM VIA TRANSITION ELECTRIC DIPOLE MOMENTS
-----------------------------------------------------------------------------
State   Energy  Wavelength   fosc         T2         TX        TY        TZ
        (cm-1)    (nm)                  (au**2)     (au)      (au)      (au)
-----------------------------------------------------------------------------
   0   13349.7    749.1   0.819956103  20.22064  -3.80888   2.14266  -1.05927
   1   14472.6    691.0   0.121017189   2.75280   1.48842  -0.41408   0.60493
   2   19376.5    516.1   1.960971634  33.31739  -4.84430   2.62327  -1.72296
   3   21214.3    471.4   0.276497680   4.29080  -1.95302  -0.00994  -0.69022
   4   22331.2    447.8   0.001041409   0.01535  -0.01585  -0.11216   0.05021
   5   23774.3    420.6   0.072508029   1.00405  -0.56361  -0.08712  -0.82390
   6   25214.9    396.6   0.103797930   1.35521   0.76451  -0.86601  -0.14411
   7   25842.9    387.0   0.146893564   1.87128  -1.30405   0.39553   0.11954
   8   26479.4    377.7   0.116532170   1.44882  -1.10545   0.44652  -0.16559
   9   27330.2    365.9   0.228208188   2.74893   0.12584   1.00562   1.31218
  10   28123.2    355.6   0.010423848   0.12202   0.07440   0.32963   0.08848
  11   28874.2    346.3   0.101777491   1.16042  -0.76807   0.68132   0.32603
  12   28910.3    345.9   0.072649959   0.82729  -0.45661  -0.39943  -0.67768
  13   29103.2    343.6   0.004572805   0.05173   0.02578  -0.13197  -0.18343
  14   29393.4    340.2   0.029934646   0.33527   0.20377   0.02470  -0.54142
  15   29559.3    338.3   0.064375318   0.71697   0.52954   0.41201   0.51653
  16   29897.7    334.5   0.030788996   0.33903   0.16538  -0.32058  -0.45706
  17   30089.7    332.3   0.184508489   2.01871  -0.02753  -0.91348  -1.08789
  18   30265.3    330.4   0.309235738   3.36373   1.60000  -0.79189   0.42029
  19   30305.0    330.0   0.404641445   4.39574  -1.61277  -0.82144  -1.05828
  20   30727.5    325.4   0.058507984   0.62685   0.60451   0.11092   0.49911
  21   31082.0    321.7   0.145569328   1.54183  -0.09812  -0.92698  -0.82031
  22   31846.6    314.0   0.236975004   2.44971   0.82859   0.37596   1.27350
  23   32273.9    309.8   0.064796718   0.66096   0.43386   0.40159   0.55808
  24   32423.5    308.4   0.537889436   5.46146   1.11448  -1.81003  -0.97118
  25   32634.0    306.4   0.385577785   3.88971   1.86074  -0.01329   0.65358
  26   32790.3    305.0   0.103966469   1.04381  -0.10104   0.42396   0.92405
  27   33123.9    301.9   0.257870928   2.56293  -0.93255  -0.67493  -1.11254
  28   33396.9    299.4   0.016668000   0.16431  -0.03243   0.40150   0.04529
  29   33657.5    297.1   0.020683229   0.20231   0.32262  -0.18136  -0.25560
  30   33738.9    296.4   0.007490310   0.07309  -0.10718   0.11874   0.21795
  31   34219.0    292.2   0.044763576   0.43066   0.58278  -0.28894  -0.08682
  32   34422.2    290.5   0.070315235   0.67249   0.08056   0.46793   0.66861
  33   34643.9    288.7   0.017509667   0.16639  -0.32961   0.06355   0.23175
  34   34696.9    288.2   0.442610436   4.19959  -1.23968  -1.12654  -1.18054
  35   34800.4    287.4   0.253164002   2.39493   0.69316  -1.02692  -0.92730
  36   35222.5    283.9   0.084538312   0.79015   0.47321  -0.53759  -0.52652
  37   35302.7    283.3   0.045210191   0.42160  -0.21681  -0.28899  -0.53952
  38   35544.1    281.3   0.033968224   0.31462   0.51093  -0.16408   0.16322
  39   35921.2    278.4   0.013484939   0.12359   0.29103  -0.19654   0.01611
  40   36199.6    276.2   0.042585571   0.38729   0.11958  -0.50940  -0.33690
  41   36280.4    275.6   0.049262054   0.44701   0.04707   0.45614   0.48655
  42   36636.7    273.0   0.068025047   0.61126   0.13458   0.42164   0.64449
  43   36650.2    272.8   0.003869846   0.03476  -0.13504   0.12778  -0.01407
  44   36956.0    270.6   0.070293943   0.62619  -0.59846   0.41860   0.30465
  45   37090.4    269.6   0.019624713   0.17419   0.34094  -0.20384  -0.12806
  46   37566.1    266.2   0.047947851   0.42019   0.60092   0.05133   0.23761
  47   37691.0    265.3   0.066626261   0.58195  -0.63518   0.16602  -0.38850
  48   38543.6    259.4   0.077414997   0.66122  -0.12411   0.62442   0.50588
  49   38784.6    257.8   0.244019343   2.07129  -1.24016   0.64414  -0.34407
  50   39029.5    256.2   0.009335194   0.07874  -0.22024  -0.15288   0.08285
  51   39119.0    255.6   0.102245804   0.86046  -0.85053   0.24330  -0.27906
  52   39299.4    254.5   0.030297004   0.25380  -0.38676   0.32274   0.00736
  53   39401.3    253.8   0.169963073   1.42010  -0.40432   1.02000   0.46500
  54   39563.7    252.8   0.039369372   0.32759  -0.39255   0.25345  -0.33054
  55   39709.0    251.8   0.089777983   0.74431  -0.75074   0.33764  -0.25827
  56   39782.4    251.4   0.130214831   1.07757   0.56841   0.27788   0.82296
  57   39916.6    250.5   0.008326421   0.06867   0.00927  -0.01614   0.26139
  58   40166.6    249.0   0.010162751   0.08330   0.20894  -0.05422  -0.19157
  59   40188.3    248.8   0.050993371   0.41772   0.43838  -0.40538  -0.24741

FINAL SINGLE POINT ENERGY    -10817.969401000260

DIPOLE MOMENT
-------------
                                X             Y             Z
Electronic contribution:    -14.88276      57.15384      54.98153
Nuclear contribution   :     13.30792     -54.86970     -51.72972
                        -----------------------------------------
Total Dipole Moment    :     -1.57484       2.28414       3.25181
                        -----------------------------------------
Magnitude (a.u.)       :      4.27454
Magnitude (Debye)      :     10.86502

Rotational constants in cm-1:     0.001451     0.000099     0.000093
Rotational constants in MHz :    43.502622     2.975395     2.801520

                             ****ORCA TERMINATED NORMALLY****
TOTAL RUN TIME: 0 days 0 hours 11 minutes 8 seconds 922 msec
