                         Program Version 4.2.0 -  RELEASE  -
|  1> # ORCA input file
|  2> # SCF done       -205.558284816539          0.000925952818
|  3> ! CAM-B3LYP def2-SVP def2/J RIJCOSX Grid4 TightSCF
|  4> %maxcore 5000
|  5> %tddft
|  6>     Mode sTDDFT
|  7>     Ethresh 5.0
|  8>     maxcore 5000
|  9> end
| 10>
| 11> %pal
| 12>   nprocs 6
| 13>   end
| 14> * xyz 0 1
| 15>    C       -0.53799        -0.63425         0.33383
| 16>    C       -0.75772        -1.89390         0.82993
| 17>    C        0.19633        -2.93300         0.79625
| 18>    N        0.92470        -3.82027         0.79832
| 19>    C       -1.93590        -2.33591         1.46787
| 20>    N       -2.84815        -2.76908         2.01527
| 21>    C        0.71959        -0.16275        -0.23268
| 22>    C        0.60004         1.22016        -0.50934
| 23>    C        1.62414         1.96439        -1.04235
| 24>    C        2.82897         1.30998        -1.31726
| 25>    C        2.93961        -0.07458        -1.04277
| 26>    C        1.90283        -0.82564        -0.50321
| 27>    S        4.51109        -0.68499        -1.46311
| 28>    C        4.99193         0.90564        -1.99194
| 29>    C        4.02688         1.84699        -1.86232
| 30>   Br        6.72108         1.17239        -2.66619
| 31>    C       -0.75162         1.68436        -0.14572
| 32>    O       -1.17473         2.81151        -0.28787
| 33>    C       -1.46823         0.48284         0.34685
| 34>    C       -2.80331         0.36598         0.62448
| 35>    C       -3.79497         1.35562         0.76795
| 36>    C       -3.72562         2.73453         0.92893
| 37>    C       -4.97927         3.30812         1.08157
| 38>    C       -6.03248         2.36578         1.03218
| 39>    S       -5.46821         0.77689         0.82933
| 40>    C       -7.25982         3.05788         1.16107
| 41>    C       -6.98990         4.43120         1.29900
| 42>    C       -5.54977         4.63320         1.26732
| 43>    C       -4.88513         5.81551         1.40270
| 44>    C       -3.47585         5.90927         1.40822
| 45>    N       -2.33520         6.01711         1.43491
| 46>    C       -5.56520         7.04119         1.57363
| 47>    N       -6.10792         8.04233         1.70660
| 48>    C       -8.14264         5.20258         1.42601
| 49>    C       -9.29483         4.44000         1.38263
| 50>    S       -8.93252         2.72511         1.18469
| 51>    C      -10.66125         4.87065         1.45928
| 52>    C      -11.69910         3.96771         1.26874
| 53>    C      -13.02974         4.34629         1.31254
| 54>    C      -13.42450         5.65634         1.55131
| 55>    C      -12.38960         6.62081         1.76651
| 56>    N      -12.70771         7.90612         2.00209
| 57>    C      -11.75191         8.77197         2.20436
| 58>    C      -10.40189         8.38253         2.18492
| 59>    N      -10.05947         7.14535         1.94790
| 60>    C      -11.01936         6.23009         1.72529
| 61>    C      -14.81538         6.00720         1.57229
| 62>    C      -15.39961         7.22558         1.86280
| 63>    C      -16.78919         7.18244         1.77487
| 64>    C      -17.27954         5.91493         1.41234
| 65>    S      -16.02646         4.78307         1.18507
| 66>    C      -18.69422         5.97395         1.35615
| 67>    C      -19.09547         7.28587         1.68263
| 68>    C      -17.91357         8.08298         1.96498
| 69>    C      -17.88253         9.38852         2.35820
| 70>    C      -16.67546        10.07281         2.61452
| 71>    N      -15.69974        10.63813         2.82068
| 72>    C      -19.07142        10.12919         2.52893
| 73>    N      -20.04792        10.71684         2.65595
| 74>    C      -20.47391         7.44430         1.68780
| 75>    C      -21.13980         6.26754         1.37413
| 76>    S      -20.01714         4.95498         1.03273
| 77>    C      -22.52794         6.03803         1.26387
| 78>    C      -23.55557         6.77856         1.76492
| 79>    C      -23.63301         7.83249         2.75520
| 80>    C      -22.82217         7.99817         3.84837
| 81>    C      -23.04437         8.96410         4.85249
| 82>    N      -23.18323         9.72655         5.69837
| 83>    C      -21.73158         7.16218         4.15589
| 84>    N      -20.85183         6.49108         4.46296
| 85>    C      -24.90209         8.52335         2.55019
| 86>    C      -25.68892         7.77286         1.63999
| 87>    C      -24.91436         6.60634         1.17627
| 88>    O      -25.27227         5.71757         0.43880
| 89>    C      -26.96054         8.14990         1.28148
| 90>    C      -27.47255         9.32757         1.83638
| 91>    C      -26.66983        10.08007         2.72796
| 92>    C      -25.38705         9.69494         3.09813
| 93>    S      -27.49265        11.50553         3.28119
| 94>    C      -28.88746        11.07562         2.32714
| 95>    C      -28.74519         9.92531         1.62651
| 96>   Br      -30.39788        12.18612         2.34434
| 97>    H        1.49852         3.01778        -1.23765
| 98>    H        2.03730        -1.87783        -0.31694
| 99>    H        4.15246         2.87782        -2.13900
|100>    H       -3.18497        -0.64189         0.74023
|101>    H       -2.79627         3.27343         0.92222
|102>    H       -8.17503         6.26923         1.54566
|103>    H      -11.46377         2.93155         1.07233
|104>    H      -13.78614         3.59156         1.15207
|105>    H      -12.05657         9.79276         2.38844
|106>    H       -9.59564         9.08078         2.36114
|107>    H      -14.81343         8.08746         2.12165
|108>    H      -20.98216         8.37429         1.86611
|109>    H      -22.83032         5.19811         0.64568
|110>    H      -27.54271         7.55608         0.59455
|111>    H      -24.80707        10.30296         3.77249
|112>    H      -29.50512         9.51399         0.98762
|113> *
|114>
|115>                          ****END OF INPUT****

CARTESIAN COORDINATES (ANGSTROEM)
---------------------------------
  C     -0.537990   -0.634250    0.333830
  C     -0.757720   -1.893900    0.829930
  C      0.196330   -2.933000    0.796250
  N      0.924700   -3.820270    0.798320
  C     -1.935900   -2.335910    1.467870
  N     -2.848150   -2.769080    2.015270
  C      0.719590   -0.162750   -0.232680
  C      0.600040    1.220160   -0.509340
  C      1.624140    1.964390   -1.042350
  C      2.828970    1.309980   -1.317260
  C      2.939610   -0.074580   -1.042770
  C      1.902830   -0.825640   -0.503210
  S      4.511090   -0.684990   -1.463110
  C      4.991930    0.905640   -1.991940
  C      4.026880    1.846990   -1.862320
  Br     6.721080    1.172390   -2.666190
  C     -0.751620    1.684360   -0.145720
  O     -1.174730    2.811510   -0.287870
  C     -1.468230    0.482840    0.346850
  C     -2.803310    0.365980    0.624480
  C     -3.794970    1.355620    0.767950
  C     -3.725620    2.734530    0.928930
  C     -4.979270    3.308120    1.081570
  C     -6.032480    2.365780    1.032180
  S     -5.468210    0.776890    0.829330
  C     -7.259820    3.057880    1.161070
  C     -6.989900    4.431200    1.299000
  C     -5.549770    4.633200    1.267320
  C     -4.885130    5.815510    1.402700
  C     -3.475850    5.909270    1.408220
  N     -2.335200    6.017110    1.434910
  C     -5.565200    7.041190    1.573630
  N     -6.107920    8.042330    1.706600
  C     -8.142640    5.202580    1.426010
  C     -9.294830    4.440000    1.382630
  S     -8.932520    2.725110    1.184690
  C    -10.661250    4.870650    1.459280
  C    -11.699100    3.967710    1.268740
  C    -13.029740    4.346290    1.312540
  C    -13.424500    5.656340    1.551310
  C    -12.389600    6.620810    1.766510
  N    -12.707710    7.906120    2.002090
  C    -11.751910    8.771970    2.204360
  C    -10.401890    8.382530    2.184920
  N    -10.059470    7.145350    1.947900
  C    -11.019360    6.230090    1.725290
  C    -14.815380    6.007200    1.572290
  C    -15.399610    7.225580    1.862800
  C    -16.789190    7.182440    1.774870
  C    -17.279540    5.914930    1.412340
  S    -16.026460    4.783070    1.185070
  C    -18.694220    5.973950    1.356150
  C    -19.095470    7.285870    1.682630
  C    -17.913570    8.082980    1.964980
  C    -17.882530    9.388520    2.358200
  C    -16.675460   10.072810    2.614520
  N    -15.699740   10.638130    2.820680
  C    -19.071420   10.129190    2.528930
  N    -20.047920   10.716840    2.655950
  C    -20.473910    7.444300    1.687800
  C    -21.139800    6.267540    1.374130
  S    -20.017140    4.954980    1.032730
  C    -22.527940    6.038030    1.263870
  C    -23.555570    6.778560    1.764920
  C    -23.633010    7.832490    2.755200
  C    -22.822170    7.998170    3.848370
  C    -23.044370    8.964100    4.852490
  N    -23.183230    9.726550    5.698370
  C    -21.731580    7.162180    4.155890
  N    -20.851830    6.491080    4.462960
  C    -24.902090    8.523350    2.550190
  C    -25.688920    7.772860    1.639990
  C    -24.914360    6.606340    1.176270
  O    -25.272270    5.717570    0.438800
  C    -26.960540    8.149900    1.281480
  C    -27.472550    9.327570    1.836380
  C    -26.669830   10.080070    2.727960
  C    -25.387050    9.694940    3.098130
  S    -27.492650   11.505530    3.281190
  C    -28.887460   11.075620    2.327140
  C    -28.745190    9.925310    1.626510
  Br   -30.397880   12.186120    2.344340
  H      1.498520    3.017780   -1.237650
  H      2.037300   -1.877830   -0.316940
  H      4.152460    2.877820   -2.139000
  H     -3.184970   -0.641890    0.740230
  H     -2.796270    3.273430    0.922220
  H     -8.175030    6.269230    1.545660
  H    -11.463770    2.931550    1.072330
  H    -13.786140    3.591560    1.152070
  H    -12.056570    9.792760    2.388440
  H     -9.595640    9.080780    2.361140
  H    -14.813430    8.087460    2.121650
  H    -20.982160    8.374290    1.866110
  H    -22.830320    5.198110    0.645680
  H    -27.542710    7.556080    0.594550
  H    -24.807070   10.302960    3.772490
  H    -29.505120    9.513990    0.987620

 Total Charge           Charge          ....    0
 Multiplicity           Mult            ....    1
 Number of Electrons    NEL             ....  640
 Basis Dimension        Dim             .... 1288

ORBITAL ENERGIES
----------------

  NO   OCC          E(Eh)            E(eV)
   0   2.0000    -482.886504    -13140.0098
   1   2.0000    -482.886148    -13140.0001
   2   2.0000     -88.998603     -2421.7751
   3   2.0000     -88.998041     -2421.7598
   4   2.0000     -88.995563     -2421.6924
   5   2.0000     -88.994659     -2421.6678
   6   2.0000     -88.976585     -2421.1760
   7   2.0000     -88.976580     -2421.1758
   8   2.0000     -62.564200     -1702.4584
   9   2.0000     -62.563846     -1702.4488
  10   2.0000     -56.398153     -1534.6718
  11   2.0000     -56.397801     -1534.6622
  12   2.0000     -56.395435     -1534.5978
  13   2.0000     -56.395402     -1534.5969
  14   2.0000     -56.395078     -1534.5881
  15   2.0000     -56.395048     -1534.5873
  16   2.0000     -19.220045      -523.0040
  17   2.0000     -19.218029      -522.9492
  18   2.0000     -14.441472      -392.9724
  19   2.0000     -14.441310      -392.9680
  20   2.0000     -14.434918      -392.7941
  21   2.0000     -14.434078      -392.7712
  22   2.0000     -14.433628      -392.7590
  23   2.0000     -14.430809      -392.6823
  24   2.0000     -14.419749      -392.3813
  25   2.0000     -14.418508      -392.3476
  26   2.0000     -14.415767      -392.2730
  27   2.0000     -14.415511      -392.2660
  28   2.0000     -10.371458      -282.2217
  29   2.0000     -10.369466      -282.1675
  30   2.0000     -10.369331      -282.1638
  31   2.0000     -10.369060      -282.1565
  32   2.0000     -10.359916      -281.9076
  33   2.0000     -10.359713      -281.9021
  34   2.0000     -10.355903      -281.7985
  35   2.0000     -10.355700      -281.7929
  36   2.0000     -10.348659      -281.6013
  37   2.0000     -10.346089      -281.5314
  38   2.0000     -10.345605      -281.5182
  39   2.0000     -10.345468      -281.5145
  40   2.0000     -10.343865      -281.4709
  41   2.0000     -10.343194      -281.4526
  42   2.0000     -10.340723      -281.3854
  43   2.0000     -10.340358      -281.3754
  44   2.0000     -10.338114      -281.3144
  45   2.0000     -10.338027      -281.3120
  46   2.0000     -10.335217      -281.2356
  47   2.0000     -10.334891      -281.2267
  48   2.0000     -10.334595      -281.2186
  49   2.0000     -10.334178      -281.2073
  50   2.0000     -10.333805      -281.1971
  51   2.0000     -10.332601      -281.1644
  52   2.0000     -10.330269      -281.1009
  53   2.0000     -10.330194      -281.0989
  54   2.0000     -10.330114      -281.0967
  55   2.0000     -10.330092      -281.0961
  56   2.0000     -10.329533      -281.0809
  57   2.0000     -10.327450      -281.0242
  58   2.0000     -10.327367      -281.0219
  59   2.0000     -10.326630      -281.0019
  60   2.0000     -10.321628      -280.8658
  61   2.0000     -10.321138      -280.8524
  62   2.0000     -10.319052      -280.7957
  63   2.0000     -10.318837      -280.7898
  64   2.0000     -10.318597      -280.7833
  65   2.0000     -10.317972      -280.7663
  66   2.0000     -10.314656      -280.6761
  67   2.0000     -10.310779      -280.5706
  68   2.0000     -10.310523      -280.5636
  69   2.0000     -10.310388      -280.5599
  70   2.0000     -10.309797      -280.5438
  71   2.0000     -10.309254      -280.5291
  72   2.0000     -10.309208      -280.5278
  73   2.0000     -10.309075      -280.5242
  74   2.0000     -10.308514      -280.5089
  75   2.0000     -10.308072      -280.4969
  76   2.0000     -10.308007      -280.4951
  77   2.0000     -10.307283      -280.4754
  78   2.0000     -10.307273      -280.4752
  79   2.0000     -10.306732      -280.4604
  80   2.0000     -10.303512      -280.3728
  81   2.0000     -10.303050      -280.3603
  82   2.0000     -10.302780      -280.3529
  83   2.0000     -10.301659      -280.3224
  84   2.0000     -10.297744      -280.2159
  85   2.0000     -10.297226      -280.2018
  86   2.0000     -10.296867      -280.1920
  87   2.0000     -10.296225      -280.1745
  88   2.0000     -10.295186      -280.1463
  89   2.0000     -10.293193      -280.0920
  90   2.0000      -8.793617      -239.2865
  91   2.0000      -8.793264      -239.2769
  92   2.0000      -8.093356      -220.2314
  93   2.0000      -8.092887      -220.2187
  94   2.0000      -8.090053      -220.1415
  95   2.0000      -8.089123      -220.1162
  96   2.0000      -8.072667      -219.6684
  97   2.0000      -8.072440      -219.6622
  98   2.0000      -6.629915      -180.4092
  99   2.0000      -6.629576      -180.3999
 100   2.0000      -6.615355      -180.0130
 101   2.0000      -6.615148      -180.0073
 102   2.0000      -6.615006      -180.0035
 103   2.0000      -6.614781      -179.9974
 104   2.0000      -6.062516      -164.9694
 105   2.0000      -6.061984      -164.9550
 106   2.0000      -6.059303      -164.8820
 107   2.0000      -6.058357      -164.8563
 108   2.0000      -6.058342      -164.8559
 109   2.0000      -6.057858      -164.8427
 110   2.0000      -6.055846      -164.7880
 111   2.0000      -6.055413      -164.7762
 112   2.0000      -6.055123      -164.7683
 113   2.0000      -6.054196      -164.7431
 114   2.0000      -6.052438      -164.6952
 115   2.0000      -6.051549      -164.6710
 116   2.0000      -6.042347      -164.4206
 117   2.0000      -6.042153      -164.4153
 118   2.0000      -6.038074      -164.3043
 119   2.0000      -6.037838      -164.2979
 120   2.0000      -6.033874      -164.1901
 121   2.0000      -6.033710      -164.1856
 122   2.0000      -2.745825       -74.7177
 123   2.0000      -2.745447       -74.7074
 124   2.0000      -2.741685       -74.6050
 125   2.0000      -2.741537       -74.6010
 126   2.0000      -2.741359       -74.5962
 127   2.0000      -2.741196       -74.5917
 128   2.0000      -2.729980       -74.2865
 129   2.0000      -2.729951       -74.2857
 130   2.0000      -2.729614       -74.2766
 131   2.0000      -2.729603       -74.2763
 132   2.0000      -1.135867       -30.9085
 133   2.0000      -1.133694       -30.8494
 134   2.0000      -1.100201       -29.9380
 135   2.0000      -1.051500       -28.6128
 136   2.0000      -1.051329       -28.6081
 137   2.0000      -1.026511       -27.9328
 138   2.0000      -1.025444       -27.9037
 139   2.0000      -1.025107       -27.8946
 140   2.0000      -1.024458       -27.8769
 141   2.0000      -1.023044       -27.8384
 142   2.0000      -1.015802       -27.6414
 143   2.0000      -1.015160       -27.6239
 144   2.0000      -1.011667       -27.5289
 145   2.0000      -1.009488       -27.4696
 146   2.0000      -1.007054       -27.4033
 147   2.0000      -1.003416       -27.3043
 148   2.0000      -0.996043       -27.1037
 149   2.0000      -0.995996       -27.1024
 150   2.0000      -0.991755       -26.9870
 151   2.0000      -0.991195       -26.9718
 152   2.0000      -0.980260       -26.6742
 153   2.0000      -0.966003       -26.2863
 154   2.0000      -0.958588       -26.0845
 155   2.0000      -0.944971       -25.7140
 156   2.0000      -0.944547       -25.7024
 157   2.0000      -0.927273       -25.2324
 158   2.0000      -0.921048       -25.0630
 159   2.0000      -0.910557       -24.7775
 160   2.0000      -0.909718       -24.7547
 161   2.0000      -0.903646       -24.5894
 162   2.0000      -0.896255       -24.3883
 163   2.0000      -0.887796       -24.1582
 164   2.0000      -0.886913       -24.1341
 165   2.0000      -0.886369       -24.1193
 166   2.0000      -0.881874       -23.9970
 167   2.0000      -0.874748       -23.8031
 168   2.0000      -0.873634       -23.7728
 169   2.0000      -0.862620       -23.4731
 170   2.0000      -0.861101       -23.4317
 171   2.0000      -0.857497       -23.3337
 172   2.0000      -0.852997       -23.2112
 173   2.0000      -0.831183       -22.6176
 174   2.0000      -0.830370       -22.5955
 175   2.0000      -0.816094       -22.2070
 176   2.0000      -0.801019       -21.7968
 177   2.0000      -0.790397       -21.5078
 178   2.0000      -0.785708       -21.3802
 179   2.0000      -0.780298       -21.2330
 180   2.0000      -0.772305       -21.0155
 181   2.0000      -0.767856       -20.8944
 182   2.0000      -0.763229       -20.7685
 183   2.0000      -0.761844       -20.7308
 184   2.0000      -0.757546       -20.6139
 185   2.0000      -0.738675       -20.1004
 186   2.0000      -0.722520       -19.6608
 187   2.0000      -0.716031       -19.4842
 188   2.0000      -0.705046       -19.1853
 189   2.0000      -0.702967       -19.1287
 190   2.0000      -0.696699       -18.9581
 191   2.0000      -0.694609       -18.9013
 192   2.0000      -0.692281       -18.8379
 193   2.0000      -0.691163       -18.8075
 194   2.0000      -0.684951       -18.6385
 195   2.0000      -0.681298       -18.5391
 196   2.0000      -0.671421       -18.2703
 197   2.0000      -0.668270       -18.1845
 198   2.0000      -0.661277       -17.9943
 199   2.0000      -0.659358       -17.9420
 200   2.0000      -0.649894       -17.6845
 201   2.0000      -0.644389       -17.5347
 202   2.0000      -0.642694       -17.4886
 203   2.0000      -0.639388       -17.3986
 204   2.0000      -0.632769       -17.2185
 205   2.0000      -0.628061       -17.0904
 206   2.0000      -0.625175       -17.0119
 207   2.0000      -0.624105       -16.9828
 208   2.0000      -0.619656       -16.8617
 209   2.0000      -0.618043       -16.8178
 210   2.0000      -0.611358       -16.6359
 211   2.0000      -0.602618       -16.3981
 212   2.0000      -0.599905       -16.3243
 213   2.0000      -0.591564       -16.0973
 214   2.0000      -0.588884       -16.0243
 215   2.0000      -0.587134       -15.9767
 216   2.0000      -0.583243       -15.8709
 217   2.0000      -0.574428       -15.6310
 218   2.0000      -0.567037       -15.4298
 219   2.0000      -0.557139       -15.1605
 220   2.0000      -0.556807       -15.1515
 221   2.0000      -0.553541       -15.0626
 222   2.0000      -0.551842       -15.0164
 223   2.0000      -0.550575       -14.9819
 224   2.0000      -0.548749       -14.9322
 225   2.0000      -0.544353       -14.8126
 226   2.0000      -0.543328       -14.7847
 227   2.0000      -0.542389       -14.7591
 228   2.0000      -0.540735       -14.7142
 229   2.0000      -0.538993       -14.6668
 230   2.0000      -0.537934       -14.6379
 231   2.0000      -0.532971       -14.5029
 232   2.0000      -0.528635       -14.3849
 233   2.0000      -0.523506       -14.2453
 234   2.0000      -0.518322       -14.1043
 235   2.0000      -0.517565       -14.0837
 236   2.0000      -0.515435       -14.0257
 237   2.0000      -0.514565       -14.0020
 238   2.0000      -0.511406       -13.9161
 239   2.0000      -0.510958       -13.9039
 240   2.0000      -0.509325       -13.8594
 241   2.0000      -0.508272       -13.8308
 242   2.0000      -0.507029       -13.7970
 243   2.0000      -0.504202       -13.7200
 244   2.0000      -0.502022       -13.6607
 245   2.0000      -0.500335       -13.6148
 246   2.0000      -0.499672       -13.5968
 247   2.0000      -0.495408       -13.4807
 248   2.0000      -0.493436       -13.4271
 249   2.0000      -0.492592       -13.4041
 250   2.0000      -0.490357       -13.3433
 251   2.0000      -0.488049       -13.2805
 252   2.0000      -0.482971       -13.1423
 253   2.0000      -0.482117       -13.1191
 254   2.0000      -0.477769       -13.0007
 255   2.0000      -0.475209       -12.9311
 256   2.0000      -0.472372       -12.8539
 257   2.0000      -0.471107       -12.8195
 258   2.0000      -0.465401       -12.6642
 259   2.0000      -0.464476       -12.6390
 260   2.0000      -0.463927       -12.6241
 261   2.0000      -0.461969       -12.5708
 262   2.0000      -0.459747       -12.5104
 263   2.0000      -0.459388       -12.5006
 264   2.0000      -0.457717       -12.4551
 265   2.0000      -0.455407       -12.3923
 266   2.0000      -0.453132       -12.3304
 267   2.0000      -0.452337       -12.3087
 268   2.0000      -0.452080       -12.3017
 269   2.0000      -0.450885       -12.2692
 270   2.0000      -0.448798       -12.2124
 271   2.0000      -0.448147       -12.1947
 272   2.0000      -0.445659       -12.1270
 273   2.0000      -0.444780       -12.1031
 274   2.0000      -0.444290       -12.0897
 275   2.0000      -0.443815       -12.0768
 276   2.0000      -0.442235       -12.0338
 277   2.0000      -0.441902       -12.0248
 278   2.0000      -0.441045       -12.0014
 279   2.0000      -0.440138       -11.9768
 280   2.0000      -0.440033       -11.9739
 281   2.0000      -0.438396       -11.9294
 282   2.0000      -0.430096       -11.7035
 283   2.0000      -0.429549       -11.6886
 284   2.0000      -0.429354       -11.6833
 285   2.0000      -0.429073       -11.6757
 286   2.0000      -0.427986       -11.6461
 287   2.0000      -0.426026       -11.5928
 288   2.0000      -0.424351       -11.5472
 289   2.0000      -0.422950       -11.5091
 290   2.0000      -0.413400       -11.2492
 291   2.0000      -0.412156       -11.2153
 292   2.0000      -0.411404       -11.1949
 293   2.0000      -0.409472       -11.1423
 294   2.0000      -0.397230       -10.8092
 295   2.0000      -0.394733       -10.7412
 296   2.0000      -0.392787       -10.6883
 297   2.0000      -0.388141       -10.5619
 298   2.0000      -0.386565       -10.5190
 299   2.0000      -0.376865       -10.2550
 300   2.0000      -0.375820       -10.2266
 301   2.0000      -0.375471       -10.2171
 302   2.0000      -0.364906        -9.9296
 303   2.0000      -0.356955        -9.7132
 304   2.0000      -0.354962        -9.6590
 305   2.0000      -0.353597        -9.6219
 306   2.0000      -0.350070        -9.5259
 307   2.0000      -0.344034        -9.3616
 308   2.0000      -0.340850        -9.2750
 309   2.0000      -0.335321        -9.1246
 310   2.0000      -0.333894        -9.0857
 311   2.0000      -0.327445        -8.9102
 312   2.0000      -0.325464        -8.8563
 313   2.0000      -0.316918        -8.6238
 314   2.0000      -0.316771        -8.6198
 315   2.0000      -0.310762        -8.4563
 316   2.0000      -0.295811        -8.0494
 317   2.0000      -0.294827        -8.0227
 318   2.0000      -0.277941        -7.5632
 319   2.0000      -0.253710        -6.9038
 320   0.0000      -0.119957        -3.2642
 321   0.0000      -0.111659        -3.0384
 322   0.0000      -0.091403        -2.4872
 323   0.0000      -0.090104        -2.4518
 324   0.0000      -0.075362        -2.0507

MULLIKEN ATOMIC CHARGES
-----------------------
   0 C :    0.306882
   1 C :   -0.357692
   2 C :   -0.181075
   3 N :    0.148726
   4 C :   -0.199779
   5 N :    0.154989
   6 C :    0.016591
   7 C :   -0.013261
   8 C :   -0.071229
   9 C :    0.118650
  10 C :   -0.091305
  11 C :   -0.021449
  12 S :    0.186802
  13 C :   -0.123114
  14 C :    0.040742
  15 Br:    0.024734
  16 C :    0.150897
  17 O :   -0.151808
  18 C :   -0.087431
  19 C :    0.031977
  20 C :   -0.114769
  21 C :    0.013641
  22 C :   -0.016018
  23 C :   -0.080759
  24 S :    0.205030
  25 C :   -0.089874
  26 C :    0.035644
  27 C :    0.315126
  28 C :   -0.298502
  29 C :   -0.192702
  30 N :    0.190165
  31 C :   -0.187807
  32 N :    0.173459
  33 C :   -0.055181
  34 C :   -0.108736
  35 S :    0.163003
  36 C :    0.164040
  37 C :   -0.069686
  38 C :   -0.073460
  39 C :    0.170146
  40 C :   -0.041401
  41 N :   -0.030075
  42 C :    0.044819
  43 C :    0.044980
  44 N :   -0.034558
  45 C :   -0.041483
  46 C :   -0.114409
  47 C :   -0.051786
  48 C :    0.036458
  49 C :   -0.090229
  50 S :    0.160172
  51 C :   -0.070866
  52 C :   -0.005069
  53 C :    0.313890
  54 C :   -0.291748
  55 C :   -0.183105
  56 N :    0.174624
  57 C :   -0.186976
  58 N :    0.168637
  59 C :   -0.003272
  60 C :   -0.111732
  61 S :    0.214266
  62 C :    0.079965
  63 C :   -0.132575
  64 C :    0.266863
  65 C :   -0.331278
  66 C :   -0.173778
  67 N :    0.162612
  68 C :   -0.200248
  69 N :    0.164056
  70 C :   -0.001948
  71 C :    0.006420
  72 C :    0.133102
  73 O :   -0.145454
  74 C :   -0.074002
  75 C :    0.113588
  76 C :   -0.086897
  77 C :   -0.019856
  78 S :    0.189358
  79 C :   -0.124450
  80 C :    0.039403
  81 Br:    0.025119
  82 H :   -0.005973
  83 H :   -0.005504
  84 H :   -0.001232
  85 H :    0.014991
  86 H :    0.036566
  87 H :    0.025795
  88 H :   -0.003561
  89 H :   -0.003680
  90 H :    0.031348
  91 H :    0.032586
  92 H :    0.023137
  93 H :    0.024551
  94 H :    0.021141
  95 H :   -0.008238
  96 H :    0.004268
  97 H :   -0.002937
Sum of atomic charges:   -0.0000000

LOEWDIN ATOMIC CHARGES
----------------------
   0 C :    0.076696
   1 C :   -0.144241
   2 C :   -0.018114
   3 N :   -0.054030
   4 C :   -0.024595
   5 N :   -0.054317
   6 C :   -0.021849
   7 C :   -0.050308
   8 C :    0.023919
   9 C :   -0.031887
  10 C :   -0.143548
  11 C :   -0.009613
  12 S :    0.433319
  13 C :   -0.271003
  14 C :   -0.069735
  15 Br:    0.138084
  16 C :    0.085695
  17 O :   -0.137844
  18 C :   -0.097470
  19 C :    0.042372
  20 C :   -0.177858
  21 C :    0.021316
  22 C :   -0.074329
  23 C :   -0.157849
  24 S :    0.494749
  25 C :   -0.188640
  26 C :   -0.057171
  27 C :    0.076792
  28 C :   -0.093547
  29 C :   -0.021536
  30 N :   -0.018082
  31 C :   -0.013244
  32 N :   -0.032701
  33 C :   -0.020861
  34 C :   -0.145951
  35 S :    0.474804
  36 C :   -0.036605
  37 C :   -0.016488
  38 C :   -0.018856
  39 C :   -0.032691
  40 C :    0.002333
  41 N :   -0.023939
  42 C :    0.021144
  43 C :    0.021585
  44 N :   -0.024719
  45 C :    0.003153
  46 C :   -0.150710
  47 C :   -0.017422
  48 C :   -0.061941
  49 C :   -0.181739
  50 S :    0.475663
  51 C :   -0.158622
  52 C :   -0.065122
  53 C :    0.083027
  54 C :   -0.097163
  55 C :   -0.014626
  56 N :   -0.031124
  57 C :   -0.012774
  58 N :   -0.033220
  59 C :    0.008727
  60 C :   -0.182034
  61 S :    0.499148
  62 C :    0.042097
  63 C :   -0.091234
  64 C :    0.065545
  65 C :   -0.137364
  66 C :   -0.019615
  67 N :   -0.045612
  68 C :   -0.015782
  69 N :   -0.047300
  70 C :   -0.017586
  71 C :   -0.053570
  72 C :    0.083531
  73 O :   -0.144111
  74 C :    0.022998
  75 C :   -0.033104
  76 C :   -0.142324
  77 C :   -0.009321
  78 S :    0.435600
  79 C :   -0.271445
  80 C :   -0.070308
  81 Br:    0.138122
  82 H :    0.042644
  83 H :    0.041116
  84 H :    0.039655
  85 H :    0.043072
  86 H :    0.044332
  87 H :    0.038081
  88 H :    0.024823
  89 H :    0.024660
  90 H :    0.034823
  91 H :    0.035091
  92 H :    0.037920
  93 H :    0.042561
  94 H :    0.045846
  95 H :    0.041628
  96 H :    0.043134
  97 H :    0.038991

  Mayer bond orders larger than 0.100000
B(  0-C ,  1-C ) :   1.6233 B(  0-C ,  6-C ) :   1.0022 B(  0-C , 18-C ) :   1.0820
B(  1-C ,  2-C ) :   1.1432 B(  1-C ,  4-C ) :   1.1434 B(  2-C ,  3-N ) :   2.9700
B(  4-C ,  5-N ) :   2.9816 B(  6-C ,  7-C ) :   1.2743 B(  6-C , 11-C ) :   1.4070
B(  7-C ,  8-C ) :   1.4249 B(  7-C , 16-C ) :   0.9480 B(  8-C ,  9-C ) :   1.2423
B(  8-C , 82-H ) :   1.0171 B(  9-C , 10-C ) :   1.3046 B(  9-C , 14-C ) :   1.1649
B( 10-C , 11-C ) :   1.3334 B( 10-C , 12-S ) :   1.0864 B( 11-C , 83-H ) :   0.9797
B( 12-S , 13-C ) :   1.0872 B( 13-C , 14-C ) :   1.6158 B( 13-C , 15-Br) :   1.0192
B( 14-C , 84-H ) :   1.0001 B( 16-C , 17-O ) :   2.1814 B( 16-C , 18-C ) :   0.9433
B( 18-C , 19-C ) :   1.5892 B( 19-C , 20-C ) :   1.2108 B( 19-C , 85-H ) :   0.9182
B( 20-C , 21-C ) :   1.3967 B( 20-C , 24-S ) :   1.0737 B( 21-C , 22-C ) :   1.3302
B( 21-C , 86-H ) :   0.9732 B( 22-C , 23-C ) :   1.3797 B( 22-C , 27-C ) :   0.9906
B( 23-C , 24-S ) :   1.1659 B( 23-C , 25-C ) :   1.1974 B( 25-C , 26-C ) :   1.4296
B( 25-C , 35-S ) :   1.1170 B( 26-C , 27-C ) :   1.0022 B( 26-C , 33-C ) :   1.2308
B( 27-C , 28-C ) :   1.7132 B( 28-C , 29-C ) :   1.1353 B( 28-C , 31-C ) :   1.1395
B( 29-C , 30-N ) :   2.9953 B( 31-C , 32-N ) :   2.9881 B( 33-C , 34-C ) :   1.4752
B( 33-C , 87-H ) :   0.9799 B( 34-C , 35-S ) :   1.1002 B( 34-C , 36-C ) :   1.1163
B( 36-C , 37-C ) :   1.3864 B( 36-C , 39-C ) :   0.1207 B( 36-C , 45-C ) :   1.2115
B( 37-C , 38-C ) :   1.3121 B( 37-C , 88-H ) :   0.9853 B( 38-C , 39-C ) :   1.3854
B( 38-C , 89-H ) :   0.9852 B( 39-C , 40-C ) :   1.2118 B( 39-C , 46-C ) :   1.1196
B( 40-C , 41-N ) :   1.4772 B( 40-C , 45-C ) :   1.2379 B( 41-N , 42-C ) :   1.6285
B( 42-C , 43-C ) :   1.2300 B( 42-C , 90-H ) :   0.9753 B( 43-C , 44-N ) :   1.6280
B( 43-C , 91-H ) :   0.9750 B( 44-N , 45-C ) :   1.4757 B( 46-C , 47-C ) :   1.4794
B( 46-C , 50-S ) :   1.0953 B( 47-C , 48-C ) :   1.2292 B( 47-C , 92-H ) :   0.9792
B( 48-C , 49-C ) :   1.4320 B( 48-C , 53-C ) :   1.0009 B( 49-C , 50-S ) :   1.1244
B( 49-C , 51-C ) :   1.1890 B( 51-C , 52-C ) :   1.4098 B( 51-C , 61-S ) :   1.1538
B( 52-C , 53-C ) :   0.9944 B( 52-C , 59-C ) :   1.3590 B( 53-C , 54-C ) :   1.7133
B( 54-C , 55-C ) :   1.1366 B( 54-C , 57-C ) :   1.1351 B( 55-C , 56-N ) :   2.9899
B( 57-C , 58-N ) :   2.9812 B( 59-C , 60-C ) :   1.3942 B( 59-C , 93-H ) :   0.9808
B( 60-C , 61-S ) :   1.0891 B( 60-C , 62-C ) :   1.1340 B( 62-C , 63-C ) :   1.6729
B( 62-C , 94-H ) :   0.9293 B( 63-C , 64-C ) :   1.0364 B( 63-C , 72-C ) :   0.9438
B( 64-C , 65-C ) :   1.6473 B( 64-C , 70-C ) :   1.0112 B( 65-C , 66-C ) :   1.1269
B( 65-C , 68-C ) :   1.1719 B( 66-C , 67-N ) :   2.9943 B( 68-C , 69-N ) :   2.9952
B( 70-C , 71-C ) :   1.2736 B( 70-C , 77-C ) :   1.4174 B( 71-C , 72-C ) :   0.9230
B( 71-C , 74-C ) :   1.4221 B( 72-C , 73-O ) :   2.2631 B( 74-C , 75-C ) :   1.2532
B( 74-C , 95-H ) :   1.0168 B( 75-C , 76-C ) :   1.3042 B( 75-C , 80-C ) :   1.1640
B( 76-C , 77-C ) :   1.3260 B( 76-C , 78-S ) :   1.0867 B( 77-C , 96-H ) :   0.9833
B( 78-S , 79-C ) :   1.0872 B( 79-C , 80-C ) :   1.6182 B( 79-C , 81-Br) :   1.0201
B( 80-C , 97-H ) :   1.0004

-----------------------------------------------------------------------------
         ABSORPTION SPECTRUM VIA TRANSITION ELECTRIC DIPOLE MOMENTS
-----------------------------------------------------------------------------
State   Energy  Wavelength   fosc         T2         TX        TY        TZ
        (cm-1)    (nm)                  (au**2)     (au)      (au)      (au)
-----------------------------------------------------------------------------
   0   13038.4    767.0   0.881581641  22.25939  -4.48191   1.41776   0.40232
   1   14057.7    711.4   0.061310965   1.43581  -0.82711   0.85503   0.14364
   2   19169.9    521.7   1.793983184  30.80880   5.23190  -1.70759  -0.72123
   3   21074.0    474.5   0.248106855   3.87585   1.32887  -1.44489   0.14923
   4   21879.4    457.1   0.017936614   0.26989  -0.30894   0.41767  -0.00041
   5   23386.5    427.6   0.104560716   1.47190  -0.47389   0.99550   0.50627
   6   23899.2    418.4   0.027303896   0.37611  -0.60469  -0.09783  -0.02987
   7   25639.0    390.0   0.066128225   0.84911   0.67217  -0.47454   0.41486
   8   25849.1    386.9   0.085714003   1.09165  -0.91917  -0.34473   0.35769
   9   27586.0    362.5   0.064236306   0.76660   0.68820  -0.08969  -0.53379
  10   27693.7    361.1   0.005217881   0.06203   0.15766  -0.04452   0.18759
  11   27924.4    358.1   0.052118656   0.61445   0.73914   0.19765  -0.17043
  12   28038.8    356.6   0.030785207   0.36146  -0.46176  -0.36888  -0.11031
  13   28681.5    348.7   0.242444299   2.78282  -1.60411   0.44758  -0.09652
  14   28793.3    347.3   0.029402262   0.33617  -0.25603  -0.33872  -0.39483
  15   29091.3    343.7   0.066788652   0.75581   0.81454   0.28168  -0.11403
  16   29234.3    342.1   0.025078497   0.28241   0.32683   0.40385  -0.11181
  17   29500.4    339.0   0.041480510   0.46290  -0.45265   0.20760  -0.46359
  18   29912.7    334.3   0.120760786   1.32906  -0.81342  -0.53924  -0.61370
  19   30148.2    331.7   0.339833615   3.71091  -1.13812   1.55322   0.05584
  20   30331.6    329.7   0.329878598   3.58042   1.73222  -0.64227  -0.40904
  21   30547.2    327.4   0.134112320   1.44535  -0.30275  -1.16294  -0.03548
  22   30746.4    325.2   0.649896171   6.95865   2.21315   1.36505  -0.44414
  23   30926.7    323.3   0.104952508   1.11721   0.04642  -0.73006  -0.76293
  24   31351.1    319.0   0.010655420   0.11189  -0.08003   0.19378   0.26064
  25   32367.6    309.0   0.344842199   3.50741   1.67440  -0.74766   0.38053
  26   32495.3    307.7   0.097831324   0.99113   0.18565  -0.92573  -0.31573
  27   32565.9    307.1   0.404004351   4.08412   1.91953   0.32981  -0.53921
  28   32621.5    306.5   0.141180698   1.42478   0.80887  -0.81383   0.32894
  29   32832.7    304.6   0.014519461   0.14559  -0.16959   0.32857  -0.09416
  30   33141.5    301.7   0.065439991   0.65005  -0.42309   0.68388   0.05795
  31   33299.1    300.3   0.008213014   0.08120  -0.25297   0.00775   0.13093
  32   33465.6    298.8   0.000395823   0.00389   0.00889  -0.02525   0.05637
  33   33667.4    297.0   0.024378546   0.23838  -0.38718   0.01139  -0.29722
  34   33784.4    296.0   0.046997884   0.45797  -0.52117   0.37748  -0.20943
  35   34006.6    294.1   0.007483033   0.07244   0.04352   0.25081  -0.08742
  36   34110.5    293.2   0.005209567   0.05028  -0.20469  -0.08912  -0.02091
  37   34288.2    291.6   0.119574771   1.14807  -0.98616   0.40194   0.11837
  38   34609.5    288.9   0.262402698   2.49602  -0.36418  -1.37190   0.69375
  39   34663.3    288.5   0.377890816   3.58899   1.51672   0.96297   0.60102
  40   34797.9    287.4   0.081471616   0.77078   0.06438  -0.86936   0.10412
  41   35092.6    285.0   0.025291076   0.23726   0.31433  -0.28489   0.23936
  42   35427.3    282.3   0.079240710   0.73635  -0.29160   0.78765   0.17588
  43   35564.7    281.2   0.045710813   0.42313  -0.49480  -0.39116  -0.15906
  44   36159.1    276.6   0.028240194   0.25711   0.36956  -0.25058  -0.24031
  45   36292.3    275.5   0.036334422   0.32959   0.02343  -0.52032  -0.24147
  46   36602.5    273.2   0.133483116   1.20058  -0.56103  -0.92379   0.18007
  47   36852.1    271.4   0.041143687   0.36755  -0.16898   0.49758   0.30234
  48   37059.6    269.8   0.071064113   0.63128  -0.45147   0.65231  -0.04416
  49   37207.3    268.8   0.210895899   1.86602   1.32886   0.11057   0.29652
  50   37442.0    267.1   0.015049238   0.13232  -0.16160   0.29854   0.13070
  51   37618.2    265.8   0.017969450   0.15726   0.28290   0.27288   0.05253
  52   37935.5    263.6   0.128660648   1.11654  -0.33548   0.99342   0.13081
  53   38298.1    261.1   0.048225822   0.41455  -0.43027  -0.36560  -0.30945
  54   38636.5    258.8   0.006811691   0.05804   0.16939  -0.14957   0.08354
  55   38694.9    258.4   0.024560443   0.20896  -0.33429  -0.29822   0.09094
  56   38966.5    256.6   0.028503080   0.24081   0.22131  -0.41379  -0.14356
  57   39194.1    255.1   0.088878009   0.74653   0.75427  -0.38252  -0.17690
  58   39336.4    254.2   0.006778564   0.05673  -0.15427   0.13478   0.12152
  59   39535.5    252.9   0.092025776   0.76630   0.34329  -0.80191  -0.07339
  60   39652.7    252.2   0.119454242   0.99175   0.34900   0.90126  -0.24017
  61   39729.0    251.7   0.040349690   0.33436  -0.25227  -0.37526  -0.36041
  62   39867.1    250.8   0.132418767   1.09348   0.18003  -0.98097  -0.31428
  63   40188.3    248.8   0.018242028   0.14943   0.21292  -0.18309   0.26566
  64   40262.6    248.4   0.030424378   0.24877   0.31518   0.37287   0.10197

FINAL SINGLE POINT ENERGY    -10602.476268281622

DIPOLE MOMENT
-------------
                                X             Y             Z
Electronic contribution:      3.29426      23.19500     -25.48302
Nuclear contribution   :     -4.60738     -23.26980      22.79344
                        -----------------------------------------
Total Dipole Moment    :     -1.31312      -0.07480      -2.68957
                        -----------------------------------------
Magnitude (a.u.)       :      2.99394
Magnitude (Debye)      :      7.60999

Rotational constants in cm-1:     0.002558     0.000091     0.000089
Rotational constants in MHz :    76.697827     2.730728     2.675524

                             ****ORCA TERMINATED NORMALLY****
TOTAL RUN TIME: 0 days 0 hours 10 minutes 38 seconds 578 msec
