                         Program Version 4.2.0 -  RELEASE  -
|  1> # ORCA input file
|  2> # SCF done       -203.784515816129          0.000803243066
|  3> ! CAM-B3LYP def2-SVP def2/J RIJCOSX Grid4 TightSCF
|  4> %maxcore 5000
|  5> %tddft
|  6>     Mode sTDDFT
|  7>     Ethresh 5.0
|  8>     maxcore 5000
|  9> end
| 10>
| 11> %pal
| 12>   nprocs 6
| 13>   end
| 14> * xyz 0 1
| 15>    C        0.89156         4.20217         1.95064
| 16>    C        1.39363         5.06315         2.89222
| 17>    C        2.76863         5.21329         3.16953
| 18>    N        3.87261         5.38268         3.43410
| 19>    C        0.61784         5.88018         3.74155
| 20>    N        0.05251         6.55439         4.47963
| 21>    C        1.67526         3.27135         1.14965
| 22>    C        0.78659         2.43384         0.43290
| 23>    C        1.22039         1.44152        -0.41220
| 24>    C        2.60046         1.27017        -0.56062
| 25>    C        3.48230         2.11644         0.15441
| 26>    C        3.04242         3.11724         1.01185
| 27>    S        5.14389         1.73987        -0.18443
| 28>    C        4.63951         0.46767        -1.26530
| 29>    C        3.29608         0.32995        -1.36851
| 30>   Br        5.93348        -0.55498        -2.15695
| 31>    C       -0.60698         2.81327         0.73441
| 32>    O       -1.60113         2.30043         0.26836
| 33>    C       -0.51113         3.98214         1.64380
| 34>    C       -1.51859         4.84143         1.98577
| 35>    C       -2.91205         4.69356         1.83616
| 36>    C       -3.70829         3.57250         1.63706
| 37>    C       -5.05887         3.89016         1.59988
| 38>    C       -5.30918         5.27149         1.76235
| 39>    S       -3.88354         6.16372         1.99966
| 40>    C       -6.70436         5.48885         1.67087
| 41>    C       -7.34096         4.25121         1.46560
| 42>    C       -6.33014         3.20515         1.42553
| 43>    C       -6.53932         1.86703         1.27312
| 44>    C       -5.49094         0.92076         1.29269
| 45>    N       -4.66173         0.13038         1.32643
| 46>    C       -7.83274         1.32550         1.10637
| 47>    N       -8.87893         0.87775         0.96784
| 48>    C       -8.72567         4.36543         1.36004
| 49>    C       -9.14773         5.67764         1.47205
| 50>    S       -7.81024         6.78874         1.72312
| 51>    C      -10.48904         6.16280         1.38810
| 52>    C      -10.80217         7.52163         1.40584
| 53>    N      -12.01373         8.03616         1.29768
| 54>    C      -13.08075         7.26063         1.17105
| 55>    C      -12.92582         5.84774         1.16153
| 56>    C      -11.60471         5.29283         1.26395
| 57>    N      -11.62836         3.96094         1.22961
| 58>    S      -13.14792         3.46429         1.08450
| 59>    N      -13.85792         4.90317         1.05691
| 60>    C      -14.34325         7.90638         1.02891
| 61>    C      -15.60104         7.34395         0.90841
| 62>    C      -16.58264         8.32172         0.76782
| 63>    C      -16.05481         9.63022         0.77740
| 64>    S      -14.36053         9.65510         0.96994
| 65>    C      -17.12310        10.54554         0.60354
| 66>    C      -18.32430         9.81569         0.49337
| 67>    C      -18.02242         8.39682         0.58717
| 68>    C      -18.91045         7.36630         0.48838
| 69>    C      -18.51555         6.01490         0.58215
| 70>    N      -18.19918         4.91626         0.66775
| 71>    C      -20.28675         7.60304         0.28597
| 72>    N      -21.40217         7.81476         0.12523
| 73>    C      -19.43178        10.62440         0.27887
| 74>    C      -19.09408        11.96920         0.21201
| 75>    S      -17.37029        12.22196         0.46421
| 76>    C      -19.92997        13.08998         0.01728
| 77>    C      -21.19643        13.14330        -0.48010
| 78>    C      -22.03184        12.20231        -1.19747
| 79>    C      -21.61632        11.22075        -2.05974
| 80>    C      -22.49397        10.43121        -2.83286
| 81>    N      -23.16387         9.76631        -3.48507
| 82>    C      -20.26625        10.95210        -2.35611
| 83>    N      -19.18076        10.71794        -2.64822
| 84>    C      -23.41026        12.66463        -1.06733
| 85>    C      -23.40389        13.97015        -0.51361
| 86>    C      -22.01600        14.35846        -0.20236
| 87>    O      -21.61418        15.41304         0.23096
| 88>    C      -24.55624        14.69072        -0.31208
| 89>    C      -25.77042        14.08965        -0.66013
| 90>    C      -25.76680        12.77715        -1.19233
| 91>    C      -24.60108        12.05125        -1.40514
| 92>    S      -27.37589        12.22252        -1.53599
| 93>    C      -28.02375        13.74163        -0.97617
| 94>    C      -27.08483        14.61955        -0.54926
| 95>   Br      -29.87691        14.02376        -1.00434
| 96>    H        0.51660         0.81813        -0.94096
| 97>    H        3.75316         3.73921         1.52977
| 98>    H        2.81367        -0.40293        -1.98905
| 99>    H       -1.22440         5.79473         2.41008
|100>    H       -3.30446         2.58375         1.52549
|101>    H       -9.41603         3.55631         1.20641
|102>    H      -10.00965         8.25262         1.50458
|103>    H      -15.76012         6.28097         0.92276
|104>    H      -20.44457        10.27082         0.21499
|105>    H      -19.54118        14.04234         0.36584
|106>    H      -24.52286        15.68659         0.10089
|107>    H      -24.64544        11.05121        -1.80367
|108>    H      -27.30808        15.60045        -0.17128
|109> *
|110>
|111>                          ****END OF INPUT****

CARTESIAN COORDINATES (ANGSTROEM)
---------------------------------
  C      0.891560    4.202170    1.950640
  C      1.393630    5.063150    2.892220
  C      2.768630    5.213290    3.169530
  N      3.872610    5.382680    3.434100
  C      0.617840    5.880180    3.741550
  N      0.052510    6.554390    4.479630
  C      1.675260    3.271350    1.149650
  C      0.786590    2.433840    0.432900
  C      1.220390    1.441520   -0.412200
  C      2.600460    1.270170   -0.560620
  C      3.482300    2.116440    0.154410
  C      3.042420    3.117240    1.011850
  S      5.143890    1.739870   -0.184430
  C      4.639510    0.467670   -1.265300
  C      3.296080    0.329950   -1.368510
  Br     5.933480   -0.554980   -2.156950
  C     -0.606980    2.813270    0.734410
  O     -1.601130    2.300430    0.268360
  C     -0.511130    3.982140    1.643800
  C     -1.518590    4.841430    1.985770
  C     -2.912050    4.693560    1.836160
  C     -3.708290    3.572500    1.637060
  C     -5.058870    3.890160    1.599880
  C     -5.309180    5.271490    1.762350
  S     -3.883540    6.163720    1.999660
  C     -6.704360    5.488850    1.670870
  C     -7.340960    4.251210    1.465600
  C     -6.330140    3.205150    1.425530
  C     -6.539320    1.867030    1.273120
  C     -5.490940    0.920760    1.292690
  N     -4.661730    0.130380    1.326430
  C     -7.832740    1.325500    1.106370
  N     -8.878930    0.877750    0.967840
  C     -8.725670    4.365430    1.360040
  C     -9.147730    5.677640    1.472050
  S     -7.810240    6.788740    1.723120
  C    -10.489040    6.162800    1.388100
  C    -10.802170    7.521630    1.405840
  N    -12.013730    8.036160    1.297680
  C    -13.080750    7.260630    1.171050
  C    -12.925820    5.847740    1.161530
  C    -11.604710    5.292830    1.263950
  N    -11.628360    3.960940    1.229610
  S    -13.147920    3.464290    1.084500
  N    -13.857920    4.903170    1.056910
  C    -14.343250    7.906380    1.028910
  C    -15.601040    7.343950    0.908410
  C    -16.582640    8.321720    0.767820
  C    -16.054810    9.630220    0.777400
  S    -14.360530    9.655100    0.969940
  C    -17.123100   10.545540    0.603540
  C    -18.324300    9.815690    0.493370
  C    -18.022420    8.396820    0.587170
  C    -18.910450    7.366300    0.488380
  C    -18.515550    6.014900    0.582150
  N    -18.199180    4.916260    0.667750
  C    -20.286750    7.603040    0.285970
  N    -21.402170    7.814760    0.125230
  C    -19.431780   10.624400    0.278870
  C    -19.094080   11.969200    0.212010
  S    -17.370290   12.221960    0.464210
  C    -19.929970   13.089980    0.017280
  C    -21.196430   13.143300   -0.480100
  C    -22.031840   12.202310   -1.197470
  C    -21.616320   11.220750   -2.059740
  C    -22.493970   10.431210   -2.832860
  N    -23.163870    9.766310   -3.485070
  C    -20.266250   10.952100   -2.356110
  N    -19.180760   10.717940   -2.648220
  C    -23.410260   12.664630   -1.067330
  C    -23.403890   13.970150   -0.513610
  C    -22.016000   14.358460   -0.202360
  O    -21.614180   15.413040    0.230960
  C    -24.556240   14.690720   -0.312080
  C    -25.770420   14.089650   -0.660130
  C    -25.766800   12.777150   -1.192330
  C    -24.601080   12.051250   -1.405140
  S    -27.375890   12.222520   -1.535990
  C    -28.023750   13.741630   -0.976170
  C    -27.084830   14.619550   -0.549260
  Br   -29.876910   14.023760   -1.004340
  H      0.516600    0.818130   -0.940960
  H      3.753160    3.739210    1.529770
  H      2.813670   -0.402930   -1.989050
  H     -1.224400    5.794730    2.410080
  H     -3.304460    2.583750    1.525490
  H     -9.416030    3.556310    1.206410
  H    -10.009650    8.252620    1.504580
  H    -15.760120    6.280970    0.922760
  H    -20.444570   10.270820    0.214990
  H    -19.541180   14.042340    0.365840
  H    -24.522860   15.686590    0.100890
  H    -24.645440   11.051210   -1.803670
  H    -27.308080   15.600450   -0.171280

 Total Charge           Charge          ....    0
 Multiplicity           Mult            ....    1
 Number of Electrons    NEL             ....  642
 Basis Dimension        Dim             .... 1263

ORBITAL ENERGIES
----------------

  NO   OCC          E(Eh)            E(eV)
   0   2.0000    -482.887462    -13140.0359
   1   2.0000    -482.886771    -13140.0171
   2   2.0000     -89.050856     -2423.1970
   3   2.0000     -89.000602     -2421.8295
   4   2.0000     -88.999417     -2421.7973
   5   2.0000     -88.999120     -2421.7892
   6   2.0000     -88.995820     -2421.6994
   7   2.0000     -88.978166     -2421.2190
   8   2.0000     -88.977201     -2421.1927
   9   2.0000     -62.565164     -1702.4847
  10   2.0000     -62.564470     -1702.4658
  11   2.0000     -56.399119     -1534.6981
  12   2.0000     -56.398423     -1534.6791
  13   2.0000     -56.396396     -1534.6240
  14   2.0000     -56.396364     -1534.6231
  15   2.0000     -56.395700     -1534.6050
  16   2.0000     -56.395672     -1534.6043
  17   2.0000     -19.220866      -523.0263
  18   2.0000     -19.220225      -523.0089
  19   2.0000     -14.467007      -393.6673
  20   2.0000     -14.461326      -393.5127
  21   2.0000     -14.436061      -392.8252
  22   2.0000     -14.435889      -392.8205
  23   2.0000     -14.434347      -392.7785
  24   2.0000     -14.434032      -392.7700
  25   2.0000     -14.432332      -392.7237
  26   2.0000     -14.421791      -392.4369
  27   2.0000     -14.418404      -392.3447
  28   2.0000     -14.417381      -392.3169
  29   2.0000     -14.416782      -392.3006
  30   2.0000     -10.372611      -282.2531
  31   2.0000     -10.371215      -282.2151
  32   2.0000     -10.371121      -282.2126
  33   2.0000     -10.370293      -282.1900
  34   2.0000     -10.361215      -281.9430
  35   2.0000     -10.360417      -281.9213
  36   2.0000     -10.357639      -281.8457
  37   2.0000     -10.357308      -281.8367
  38   2.0000     -10.356479      -281.8141
  39   2.0000     -10.351829      -281.6876
  40   2.0000     -10.349442      -281.6226
  41   2.0000     -10.348489      -281.5967
  42   2.0000     -10.348465      -281.5960
  43   2.0000     -10.347760      -281.5769
  44   2.0000     -10.346499      -281.5426
  45   2.0000     -10.344594      -281.4907
  46   2.0000     -10.343944      -281.4730
  47   2.0000     -10.341084      -281.3952
  48   2.0000     -10.340926      -281.3909
  49   2.0000     -10.336793      -281.2784
  50   2.0000     -10.336274      -281.2643
  51   2.0000     -10.336135      -281.2605
  52   2.0000     -10.334144      -281.2064
  53   2.0000     -10.333967      -281.2015
  54   2.0000     -10.333268      -281.1825
  55   2.0000     -10.331567      -281.1362
  56   2.0000     -10.331219      -281.1268
  57   2.0000     -10.330645      -281.1111
  58   2.0000     -10.329401      -281.0773
  59   2.0000     -10.329020      -281.0669
  60   2.0000     -10.328104      -281.0420
  61   2.0000     -10.327517      -281.0260
  62   2.0000     -10.323284      -280.9108
  63   2.0000     -10.323022      -280.9037
  64   2.0000     -10.321452      -280.8610
  65   2.0000     -10.319692      -280.8131
  66   2.0000     -10.319683      -280.8128
  67   2.0000     -10.316800      -280.7344
  68   2.0000     -10.314057      -280.6597
  69   2.0000     -10.312936      -280.6292
  70   2.0000     -10.312592      -280.6199
  71   2.0000     -10.311890      -280.6008
  72   2.0000     -10.311721      -280.5962
  73   2.0000     -10.311252      -280.5834
  74   2.0000     -10.310592      -280.5655
  75   2.0000     -10.310163      -280.5538
  76   2.0000     -10.309359      -280.5319
  77   2.0000     -10.308836      -280.5177
  78   2.0000     -10.308176      -280.4997
  79   2.0000     -10.307765      -280.4885
  80   2.0000     -10.305549      -280.4282
  81   2.0000     -10.304997      -280.4132
  82   2.0000     -10.304092      -280.3886
  83   2.0000     -10.303758      -280.3795
  84   2.0000     -10.302746      -280.3520
  85   2.0000     -10.299075      -280.2521
  86   2.0000     -10.297940      -280.2212
  87   2.0000     -10.296906      -280.1931
  88   2.0000     -10.294436      -280.1258
  89   2.0000      -8.794587      -239.3129
  90   2.0000      -8.793893      -239.2940
  91   2.0000      -8.142329      -221.5640
  92   2.0000      -8.095306      -220.2845
  93   2.0000      -8.094217      -220.2549
  94   2.0000      -8.093504      -220.2354
  95   2.0000      -8.089744      -220.1331
  96   2.0000      -8.074097      -219.7073
  97   2.0000      -8.073166      -219.6820
  98   2.0000      -6.630909      -180.4362
  99   2.0000      -6.630200      -180.4169
 100   2.0000      -6.616314      -180.0390
 101   2.0000      -6.616104      -180.0333
 102   2.0000      -6.615638      -180.0207
 103   2.0000      -6.615408      -180.0144
 104   2.0000      -6.113514      -166.3572
 105   2.0000      -6.105542      -166.1402
 106   2.0000      -6.104945      -166.1240
 107   2.0000      -6.064429      -165.0215
 108   2.0000      -6.063333      -164.9917
 109   2.0000      -6.062802      -164.9772
 110   2.0000      -6.060302      -164.9092
 111   2.0000      -6.059195      -164.8791
 112   2.0000      -6.058967      -164.8729
 113   2.0000      -6.058573      -164.8622
 114   2.0000      -6.057835      -164.8421
 115   2.0000      -6.056736      -164.8122
 116   2.0000      -6.055890      -164.7891
 117   2.0000      -6.054660      -164.7557
 118   2.0000      -6.052333      -164.6924
 119   2.0000      -6.043773      -164.4594
 120   2.0000      -6.042869      -164.4348
 121   2.0000      -6.039511      -164.3434
 122   2.0000      -6.038563      -164.3176
 123   2.0000      -6.035359      -164.2305
 124   2.0000      -6.034397      -164.2043
 125   2.0000      -2.746765       -74.7433
 126   2.0000      -2.746084       -74.7248
 127   2.0000      -2.742700       -74.6327
 128   2.0000      -2.742521       -74.6278
 129   2.0000      -2.741951       -74.6123
 130   2.0000      -2.741849       -74.6095
 131   2.0000      -2.730927       -74.3123
 132   2.0000      -2.730914       -74.3120
 133   2.0000      -2.730237       -74.2935
 134   2.0000      -2.730226       -74.2932
 135   2.0000      -1.151620       -31.3372
 136   2.0000      -1.136766       -30.9330
 137   2.0000      -1.135877       -30.9088
 138   2.0000      -1.073008       -29.1980
 139   2.0000      -1.053628       -28.6707
 140   2.0000      -1.052419       -28.6378
 141   2.0000      -1.027699       -27.9651
 142   2.0000      -1.026496       -27.9324
 143   2.0000      -1.026043       -27.9200
 144   2.0000      -1.025208       -27.8973
 145   2.0000      -1.017553       -27.6890
 146   2.0000      -1.015726       -27.6393
 147   2.0000      -1.013247       -27.5719
 148   2.0000      -1.012228       -27.5441
 149   2.0000      -1.010000       -27.4835
 150   2.0000      -1.005038       -27.3485
 151   2.0000      -1.000548       -27.2263
 152   2.0000      -0.997814       -27.1519
 153   2.0000      -0.996481       -27.1156
 154   2.0000      -0.993092       -27.0234
 155   2.0000      -0.992042       -26.9948
 156   2.0000      -0.968382       -26.3510
 157   2.0000      -0.965817       -26.2812
 158   2.0000      -0.946524       -25.7562
 159   2.0000      -0.945527       -25.7291
 160   2.0000      -0.934350       -25.4249
 161   2.0000      -0.926256       -25.2047
 162   2.0000      -0.918272       -24.9875
 163   2.0000      -0.912226       -24.8229
 164   2.0000      -0.910499       -24.7759
 165   2.0000      -0.905484       -24.6395
 166   2.0000      -0.898160       -24.4402
 167   2.0000      -0.889961       -24.2171
 168   2.0000      -0.889288       -24.1988
 169   2.0000      -0.887750       -24.1569
 170   2.0000      -0.877522       -23.8786
 171   2.0000      -0.876340       -23.8464
 172   2.0000      -0.866255       -23.5720
 173   2.0000      -0.863758       -23.5040
 174   2.0000      -0.861326       -23.4379
 175   2.0000      -0.857090       -23.3226
 176   2.0000      -0.832863       -22.6634
 177   2.0000      -0.831267       -22.6199
 178   2.0000      -0.826862       -22.5001
 179   2.0000      -0.804481       -21.8910
 180   2.0000      -0.796946       -21.6860
 181   2.0000      -0.784556       -21.3489
 182   2.0000      -0.782007       -21.2795
 183   2.0000      -0.772082       -21.0094
 184   2.0000      -0.768594       -20.9145
 185   2.0000      -0.761836       -20.7306
 186   2.0000      -0.760607       -20.6972
 187   2.0000      -0.743476       -20.2310
 188   2.0000      -0.737524       -20.0691
 189   2.0000      -0.724143       -19.7049
 190   2.0000      -0.717904       -19.5352
 191   2.0000      -0.708378       -19.2759
 192   2.0000      -0.705208       -19.1897
 193   2.0000      -0.697633       -18.9836
 194   2.0000      -0.696006       -18.9393
 195   2.0000      -0.693522       -18.8717
 196   2.0000      -0.691442       -18.8151
 197   2.0000      -0.684949       -18.6384
 198   2.0000      -0.683795       -18.6070
 199   2.0000      -0.675702       -18.3868
 200   2.0000      -0.664535       -18.0829
 201   2.0000      -0.661463       -17.9993
 202   2.0000      -0.654160       -17.8006
 203   2.0000      -0.650201       -17.6929
 204   2.0000      -0.644182       -17.5291
 205   2.0000      -0.641369       -17.4525
 206   2.0000      -0.634010       -17.2523
 207   2.0000      -0.628752       -17.1092
 208   2.0000      -0.626302       -17.0426
 209   2.0000      -0.623139       -16.9565
 210   2.0000      -0.622627       -16.9425
 211   2.0000      -0.621279       -16.9059
 212   2.0000      -0.617378       -16.7997
 213   2.0000      -0.604558       -16.4509
 214   2.0000      -0.602258       -16.3883
 215   2.0000      -0.595941       -16.2164
 216   2.0000      -0.591126       -16.0854
 217   2.0000      -0.588013       -16.0006
 218   2.0000      -0.585495       -15.9321
 219   2.0000      -0.578576       -15.7439
 220   2.0000      -0.573174       -15.5969
 221   2.0000      -0.568914       -15.4810
 222   2.0000      -0.555688       -15.1210
 223   2.0000      -0.554923       -15.1002
 224   2.0000      -0.553960       -15.0740
 225   2.0000      -0.552339       -15.0299
 226   2.0000      -0.548676       -14.9302
 227   2.0000      -0.544593       -14.8191
 228   2.0000      -0.544231       -14.8093
 229   2.0000      -0.543474       -14.7887
 230   2.0000      -0.539894       -14.6913
 231   2.0000      -0.538407       -14.6508
 232   2.0000      -0.534092       -14.5334
 233   2.0000      -0.528921       -14.3927
 234   2.0000      -0.525901       -14.3105
 235   2.0000      -0.519321       -14.1315
 236   2.0000      -0.518966       -14.1218
 237   2.0000      -0.518185       -14.1005
 238   2.0000      -0.516153       -14.0452
 239   2.0000      -0.513042       -13.9606
 240   2.0000      -0.512411       -13.9434
 241   2.0000      -0.511355       -13.9147
 242   2.0000      -0.510146       -13.8818
 243   2.0000      -0.509370       -13.8607
 244   2.0000      -0.505165       -13.7462
 245   2.0000      -0.504234       -13.7209
 246   2.0000      -0.502026       -13.6608
 247   2.0000      -0.500785       -13.6271
 248   2.0000      -0.498828       -13.5738
 249   2.0000      -0.495177       -13.4745
 250   2.0000      -0.494931       -13.4677
 251   2.0000      -0.493030       -13.4160
 252   2.0000      -0.491741       -13.3810
 253   2.0000      -0.488139       -13.2829
 254   2.0000      -0.483173       -13.1478
 255   2.0000      -0.481384       -13.0991
 256   2.0000      -0.477784       -13.0012
 257   2.0000      -0.475909       -12.9501
 258   2.0000      -0.473650       -12.8887
 259   2.0000      -0.466046       -12.6817
 260   2.0000      -0.464326       -12.6349
 261   2.0000      -0.462823       -12.5941
 262   2.0000      -0.461347       -12.5539
 263   2.0000      -0.460710       -12.5366
 264   2.0000      -0.460231       -12.5235
 265   2.0000      -0.459636       -12.5073
 266   2.0000      -0.457953       -12.4615
 267   2.0000      -0.454726       -12.3737
 268   2.0000      -0.453784       -12.3481
 269   2.0000      -0.451170       -12.2770
 270   2.0000      -0.450485       -12.2583
 271   2.0000      -0.450189       -12.2503
 272   2.0000      -0.449240       -12.2244
 273   2.0000      -0.448944       -12.2164
 274   2.0000      -0.445802       -12.1309
 275   2.0000      -0.445543       -12.1238
 276   2.0000      -0.444772       -12.1029
 277   2.0000      -0.443326       -12.0635
 278   2.0000      -0.442759       -12.0481
 279   2.0000      -0.441978       -12.0268
 280   2.0000      -0.441614       -12.0169
 281   2.0000      -0.440847       -11.9960
 282   2.0000      -0.432348       -11.7648
 283   2.0000      -0.431360       -11.7379
 284   2.0000      -0.431124       -11.7315
 285   2.0000      -0.429846       -11.6967
 286   2.0000      -0.429546       -11.6885
 287   2.0000      -0.426788       -11.6135
 288   2.0000      -0.425362       -11.5747
 289   2.0000      -0.423482       -11.5235
 290   2.0000      -0.420249       -11.4356
 291   2.0000      -0.414422       -11.2770
 292   2.0000      -0.414101       -11.2683
 293   2.0000      -0.413077       -11.2404
 294   2.0000      -0.410699       -11.1757
 295   2.0000      -0.397946       -10.8287
 296   2.0000      -0.394460       -10.7338
 297   2.0000      -0.392355       -10.6765
 298   2.0000      -0.388893       -10.5823
 299   2.0000      -0.388282       -10.5657
 300   2.0000      -0.380056       -10.3418
 301   2.0000      -0.376820       -10.2538
 302   2.0000      -0.376065       -10.2333
 303   2.0000      -0.373350       -10.1594
 304   2.0000      -0.366133        -9.9630
 305   2.0000      -0.364248        -9.9117
 306   2.0000      -0.357874        -9.7382
 307   2.0000      -0.356378        -9.6975
 308   2.0000      -0.353876        -9.6294
 309   2.0000      -0.346251        -9.4220
 310   2.0000      -0.342770        -9.3272
 311   2.0000      -0.336017        -9.1435
 312   2.0000      -0.328960        -8.9515
 313   2.0000      -0.327172        -8.9028
 314   2.0000      -0.318341        -8.6625
 315   2.0000      -0.317589        -8.6420
 316   2.0000      -0.313039        -8.5182
 317   2.0000      -0.297235        -8.0882
 318   2.0000      -0.295690        -8.0461
 319   2.0000      -0.281216        -7.6523
 320   2.0000      -0.257062        -6.9950
 321   0.0000      -0.124041        -3.3753
 322   0.0000      -0.113364        -3.0848
 323   0.0000      -0.095362        -2.5949
 324   0.0000      -0.090948        -2.4748
 325   0.0000      -0.087077        -2.3695

MULLIKEN ATOMIC CHARGES
-----------------------
   0 C :    0.297345
   1 C :   -0.345121
   2 C :   -0.185236
   3 N :    0.150878
   4 C :   -0.204262
   5 N :    0.158535
   6 C :    0.015740
   7 C :   -0.018378
   8 C :   -0.065701
   9 C :    0.117174
  10 C :   -0.093001
  11 C :   -0.017949
  12 S :    0.187548
  13 C :   -0.124386
  14 C :    0.040595
  15 Br:    0.025660
  16 C :    0.148641
  17 O :   -0.149378
  18 C :   -0.090774
  19 C :    0.027755
  20 C :   -0.112849
  21 C :    0.030232
  22 C :   -0.020840
  23 C :   -0.083859
  24 S :    0.207250
  25 C :   -0.094082
  26 C :    0.034453
  27 C :    0.308296
  28 C :   -0.293618
  29 C :   -0.190922
  30 N :    0.192542
  31 C :   -0.188763
  32 N :    0.175330
  33 C :   -0.059111
  34 C :   -0.094875
  35 S :    0.177851
  36 C :    0.079470
  37 C :   -0.057034
  38 N :   -0.055436
  39 C :    0.032062
  40 C :   -0.002104
  41 C :    0.046466
  42 N :   -0.283002
  43 S :    0.566655
  44 N :   -0.254557
  45 C :   -0.121458
  46 C :   -0.046400
  47 C :    0.016263
  48 C :   -0.090458
  49 S :    0.244316
  50 C :   -0.079638
  51 C :    0.000091
  52 C :    0.306556
  53 C :   -0.285542
  54 C :   -0.188232
  55 N :    0.178435
  56 C :   -0.184397
  57 N :    0.167773
  58 C :   -0.003493
  59 C :   -0.108496
  60 S :    0.218031
  61 C :    0.077225
  62 C :   -0.125594
  63 C :    0.264906
  64 C :   -0.331616
  65 C :   -0.172205
  66 N :    0.162490
  67 C :   -0.201593
  68 N :    0.168662
  69 C :   -0.003195
  70 C :    0.002863
  71 C :    0.130836
  72 O :   -0.143123
  73 C :   -0.065899
  74 C :    0.109996
  75 C :   -0.091261
  76 C :   -0.013134
  77 S :    0.190960
  78 C :   -0.126149
  79 C :    0.044082
  80 Br:    0.025900
  81 H :   -0.005711
  82 H :   -0.005651
  83 H :   -0.000625
  84 H :    0.020707
  85 H :    0.033782
  86 H :    0.023692
  87 H :    0.011718
  88 H :    0.021995
  89 H :    0.024835
  90 H :    0.021991
  91 H :   -0.009014
  92 H :    0.002359
  93 H :   -0.002822
Sum of atomic charges:   -0.0000000

LOEWDIN ATOMIC CHARGES
----------------------
   0 C :    0.075811
   1 C :   -0.142653
   2 C :   -0.018642
   3 N :   -0.052664
   4 C :   -0.025323
   5 N :   -0.053385
   6 C :   -0.021619
   7 C :   -0.050494
   8 C :    0.024242
   9 C :   -0.031799
  10 C :   -0.143597
  11 C :   -0.009309
  12 S :    0.433757
  13 C :   -0.270887
  14 C :   -0.069763
  15 Br:    0.138643
  16 C :    0.084757
  17 O :   -0.137208
  18 C :   -0.095413
  19 C :    0.042491
  20 C :   -0.177507
  21 C :    0.023161
  22 C :   -0.073401
  23 C :   -0.159701
  24 S :    0.494434
  25 C :   -0.186210
  26 C :   -0.055366
  27 C :    0.075773
  28 C :   -0.091678
  29 C :   -0.020567
  30 N :   -0.017927
  31 C :   -0.016294
  32 N :   -0.027420
  33 C :   -0.021417
  34 C :   -0.150767
  35 S :    0.479493
  36 C :   -0.070303
  37 C :    0.012642
  38 N :   -0.082613
  39 C :    0.001341
  40 C :   -0.061463
  41 C :   -0.030001
  42 N :   -0.276672
  43 S :    0.689835
  44 N :   -0.263403
  45 C :   -0.174718
  46 C :   -0.007117
  47 C :   -0.064788
  48 C :   -0.174501
  49 S :    0.520183
  50 C :   -0.163060
  51 C :   -0.061089
  52 C :    0.081075
  53 C :   -0.096755
  54 C :   -0.017650
  55 N :   -0.026793
  56 C :   -0.012704
  57 N :   -0.032901
  58 C :    0.008214
  59 C :   -0.178433
  60 S :    0.502851
  61 C :    0.040877
  62 C :   -0.088583
  63 C :    0.065612
  64 C :   -0.136099
  65 C :   -0.019339
  66 N :   -0.044158
  67 C :   -0.015690
  68 N :   -0.046021
  69 C :   -0.017683
  70 C :   -0.054070
  71 C :    0.083591
  72 O :   -0.142281
  73 C :    0.023992
  74 C :   -0.032952
  75 C :   -0.142352
  76 C :   -0.008760
  77 S :    0.436342
  78 C :   -0.271222
  79 C :   -0.069925
  80 Br:    0.138831
  81 H :    0.042573
  82 H :    0.041092
  83 H :    0.039748
  84 H :    0.043698
  85 H :    0.045065
  86 H :    0.040381
  87 H :    0.019565
  88 H :    0.042409
  89 H :    0.042652
  90 H :    0.046143
  91 H :    0.041775
  92 H :    0.042962
  93 H :    0.039098

  Mayer bond orders larger than 0.100000
B(  0-C ,  1-C ) :   1.6319 B(  0-C ,  6-C ) :   1.0056 B(  0-C , 18-C ) :   1.0727
B(  1-C ,  2-C ) :   1.1430 B(  1-C ,  4-C ) :   1.1411 B(  2-C ,  3-N ) :   2.9726
B(  4-C ,  5-N ) :   2.9925 B(  6-C ,  7-C ) :   1.2728 B(  6-C , 11-C ) :   1.4118
B(  7-C ,  8-C ) :   1.4257 B(  7-C , 16-C ) :   0.9471 B(  8-C ,  9-C ) :   1.2468
B(  8-C , 81-H ) :   1.0165 B(  9-C , 10-C ) :   1.3040 B(  9-C , 14-C ) :   1.1642
B( 10-C , 11-C ) :   1.3319 B( 10-C , 12-S ) :   1.0863 B( 11-C , 82-H ) :   0.9803
B( 12-S , 13-C ) :   1.0864 B( 13-C , 14-C ) :   1.6170 B( 13-C , 15-Br) :   1.0202
B( 14-C , 83-H ) :   0.9999 B( 16-C , 17-O ) :   2.1941 B( 16-C , 18-C ) :   0.9446
B( 18-C , 19-C ) :   1.6008 B( 19-C , 20-C ) :   1.1987 B( 19-C , 84-H ) :   0.9244
B( 20-C , 21-C ) :   1.4016 B( 20-C , 24-S ) :   1.0750 B( 21-C , 22-C ) :   1.3373
B( 21-C , 85-H ) :   0.9745 B( 22-C , 23-C ) :   1.3834 B( 22-C , 27-C ) :   0.9920
B( 23-C , 24-S ) :   1.1644 B( 23-C , 25-C ) :   1.2018 B( 25-C , 26-C ) :   1.4326
B( 25-C , 35-S ) :   1.1151 B( 26-C , 27-C ) :   0.9967 B( 26-C , 33-C ) :   1.2544
B( 27-C , 28-C ) :   1.7186 B( 28-C , 29-C ) :   1.1337 B( 28-C , 31-C ) :   1.1384
B( 29-C , 30-N ) :   2.9968 B( 31-C , 32-N ) :   2.9858 B( 33-C , 34-C ) :   1.4773
B( 33-C , 86-H ) :   0.9841 B( 34-C , 35-S ) :   1.1026 B( 34-C , 36-C ) :   1.1169
B( 36-C , 37-C ) :   1.4077 B( 36-C , 39-C ) :   0.1082 B( 36-C , 41-C ) :   1.2099
B( 37-C , 38-N ) :   1.4620 B( 37-C , 87-H ) :   0.9755 B( 38-N , 39-C ) :   1.6592
B( 39-C , 40-C ) :   1.1721 B( 39-C , 45-C ) :   1.1334 B( 40-C , 41-C ) :   1.1859
B( 40-C , 44-N ) :   1.5469 B( 41-C , 42-N ) :   1.5131 B( 42-N , 43-S ) :   1.2694
B( 42-N , 44-N ) :   0.1446 B( 43-S , 44-N ) :   1.2848 B( 45-C , 46-C ) :   1.4759
B( 45-C , 49-S ) :   1.0963 B( 46-C , 47-C ) :   1.2700 B( 46-C , 88-H ) :   0.9836
B( 47-C , 48-C ) :   1.4218 B( 47-C , 52-C ) :   0.9982 B( 48-C , 49-S ) :   1.1259
B( 48-C , 50-C ) :   1.1964 B( 50-C , 51-C ) :   1.4143 B( 50-C , 60-S ) :   1.1522
B( 51-C , 52-C ) :   0.9961 B( 51-C , 58-C ) :   1.3578 B( 52-C , 53-C ) :   1.7164
B( 53-C , 54-C ) :   1.1354 B( 53-C , 56-C ) :   1.1332 B( 54-C , 55-N ) :   2.9910
B( 56-C , 57-N ) :   2.9809 B( 58-C , 59-C ) :   1.3955 B( 58-C , 89-H ) :   0.9798
B( 59-C , 60-S ) :   1.0946 B( 59-C , 61-C ) :   1.1301 B( 61-C , 62-C ) :   1.6791
B( 61-C , 90-H ) :   0.9274 B( 62-C , 63-C ) :   1.0325 B( 62-C , 71-C ) :   0.9415
B( 63-C , 64-C ) :   1.6501 B( 63-C , 69-C ) :   1.0124 B( 64-C , 65-C ) :   1.1249
B( 64-C , 67-C ) :   1.1751 B( 65-C , 66-N ) :   2.9945 B( 67-C , 68-N ) :   2.9953
B( 69-C , 70-C ) :   1.2724 B( 69-C , 76-C ) :   1.4159 B( 70-C , 71-C ) :   0.9224
B( 70-C , 73-C ) :   1.4263 B( 71-C , 72-O ) :   2.2644 B( 73-C , 74-C ) :   1.2530
B( 73-C , 91-H ) :   1.0150 B( 74-C , 75-C ) :   1.3036 B( 74-C , 79-C ) :   1.1654
B( 75-C , 76-C ) :   1.3289 B( 75-C , 77-S ) :   1.0871 B( 76-C , 92-H ) :   0.9826
B( 77-S , 78-C ) :   1.0878 B( 78-C , 79-C ) :   1.6192 B( 78-C , 80-Br) :   1.0195
B( 79-C , 93-H ) :   0.9990

-----------------------------------------------------------------------------
         ABSORPTION SPECTRUM VIA TRANSITION ELECTRIC DIPOLE MOMENTS
-----------------------------------------------------------------------------
State   Energy  Wavelength   fosc         T2         TX        TY        TZ
        (cm-1)    (nm)                  (au**2)     (au)      (au)      (au)
-----------------------------------------------------------------------------
   0   13128.5    761.7   1.091443951  27.36917   4.85989  -1.86463   0.52322
   1   14462.3    691.5   0.028919940   0.65832  -0.19998   0.73360  -0.28311
   2   18273.2    547.3   1.293148045  23.29755  -4.44157   1.80487  -0.55899
   3   21276.8    470.0   0.093496308   1.44665  -0.51533  -0.76596   0.77096
   4   21798.2    458.8   0.022381211   0.33802   0.54751  -0.03490  -0.19245
   5   22454.8    445.3   0.418605531   6.13721  -2.44608  -0.12879  -0.37057
   6   23820.2    419.8   0.046271934   0.63951   0.70475   0.14300   0.34984
   7   25381.7    394.0   0.062333664   0.80850  -0.78795   0.32180   0.28996
   8   25725.0    388.7   0.059025924   0.75538   0.42141  -0.50863  -0.56488
   9   27007.8    370.3   0.018588743   0.22659  -0.25425   0.39638  -0.06947
  10   27505.8    363.6   0.091168446   1.09118   0.81421  -0.37010  -0.53969
  11   28071.1    356.2   0.026536528   0.31121   0.08770  -0.53349  -0.13753
  12   28492.7    351.0   0.112542655   1.30035   1.13081  -0.10192  -0.10595
  13   28867.8    346.4   0.162583489   1.85412   0.55318  -1.24119   0.08694
  14   29049.5    344.2   0.062164315   0.70450  -0.61198   0.48036   0.31502
  15   29148.0    343.1   0.070799513   0.79965  -0.11756   0.86661   0.18659
  16   29324.1    341.0   0.117301128   1.31690   0.98543   0.55607   0.19136
  17   29573.1    338.1   0.142313067   1.58425   1.16087   0.21971  -0.43402
  18   29804.6    335.5   0.278646559   3.07784  -1.34547   1.12571   0.01786
  19   30070.3    332.6   0.115840721   1.26823  -1.04988  -0.35772   0.19500
  20   30642.1    326.3   0.303721101   3.26311  -0.02619  -1.52339  -0.97041
  21   30731.1    325.4   0.479771184   5.13963   1.51294  -1.58416  -0.58403
  22   30846.8    324.2   0.002712080   0.02894   0.06699   0.10435   0.11648
  23   30952.0    323.1   0.042263610   0.44953  -0.03669  -0.62475   0.24055
  24   31301.2    319.5   0.085518409   0.89945  -0.66953  -0.34061   0.57892
  25   32085.3    311.7   0.416614144   4.27467   1.86029  -0.82965   0.35450
  26   32183.8    310.7   0.170111104   1.74009   0.70332  -0.94564  -0.59261
  27   32405.9    308.6   0.261028584   2.65180   0.94673  -1.16218  -0.63628
  28   32725.2    305.6   0.384252036   3.86554   1.89982   0.50616   0.00503
  29   33183.7    301.4   0.041588617   0.41260  -0.61708  -0.17602  -0.02866
  30   33254.3    300.7   0.028893237   0.28604   0.21259  -0.48961  -0.03357
  31   33324.0    300.1   0.051577246   0.50954  -0.64743   0.27708  -0.11661
  32   33470.1    298.8   0.074144319   0.72928   0.83593  -0.15458  -0.08130
  33   33790.3    295.9   0.034686567   0.33794  -0.31539   0.43067   0.23021
  34   34050.4    293.7   0.206195072   1.99357   0.04350  -1.40547  -0.12785
  35   34118.1    293.1   0.015696711   0.15146  -0.22444  -0.30564  -0.08756
  36   34512.2    289.8   0.150892795   1.43937   0.45520  -1.01147  -0.45725
  37   34653.9    288.6   0.100012743   0.95012  -0.95655   0.13409   0.13097
  38   34675.4    288.4   0.222173882   2.10934  -0.45022  -0.85146  -1.08704
  39   34830.4    287.1   0.091278267   0.86275   0.10882   0.91920  -0.07732
  40   35193.3    284.1   0.166550149   1.55798   0.04392   1.12672   0.53530
  41   35565.7    281.2   0.078088609   0.72282  -0.78420  -0.30023   0.13308
  42   35818.8    279.2   0.037014172   0.34020  -0.34591   0.46733   0.04632
  43   36332.0    275.2   0.045437958   0.41172   0.57506   0.27060   0.08832
  44   36943.6    270.7   0.009001981   0.08022  -0.22021   0.17379  -0.03902
  45   37170.3    269.0   0.023492065   0.20807  -0.05064  -0.37118  -0.26024
  46   37392.9    267.4   0.122289868   1.07666   0.99260  -0.28283  -0.10683
  47   37447.0    267.0   0.056430129   0.49610   0.57885   0.39628   0.06324
  48   37592.8    266.0   0.100689764   0.88177  -0.58928   0.65435   0.32609
  49   37768.0    264.8   0.077622542   0.67661  -0.18108   0.77068   0.22332
  50   37794.6    264.6   0.019238382   0.16758   0.30575  -0.23406   0.13895
  51   37915.5    263.7   0.029409168   0.25535  -0.23209  -0.44241   0.07588
  52   38121.8    262.3   0.089494272   0.77285  -0.52848  -0.62710  -0.31672
  53   38257.6    261.4   0.002758135   0.02373   0.02385  -0.15088  -0.02000
  54   38358.3    260.7   0.016721289   0.14351   0.34623  -0.04671   0.14647
  55   38536.5    259.5   0.019688470   0.16820   0.21510  -0.34832  -0.02452
  56   38662.5    258.6   0.017594809   0.14982  -0.37891   0.04513   0.06487
  57   38973.8    256.6   0.025587014   0.21613   0.05112  -0.45769   0.06358
  58   39133.6    255.5   0.017815509   0.14987   0.37384  -0.01155  -0.09992
  59   39296.6    254.5   0.043944380   0.36815   0.37097  -0.47277  -0.08375
  60   39746.5    251.6   0.087257295   0.72273  -0.63674  -0.45343  -0.33421
  61   39878.9    250.8   0.070425027   0.58138  -0.71370  -0.17611  -0.20246
  62   39951.7    250.3   0.128411548   1.05814  -0.68454  -0.66866  -0.37743
  63   40186.7    248.8   0.001560160   0.01278  -0.02836  -0.02064   0.10747
  64   40305.4    248.1   0.001748299   0.01428   0.08820   0.06130   0.05238

FINAL SINGLE POINT ENERGY    -10939.243243958425

DIPOLE MOMENT
-------------
                                X             Y             Z
Electronic contribution:     -9.72921      -9.24527     -35.83292
Nuclear contribution   :      9.00414      10.94224      35.82460
                        -----------------------------------------
Total Dipole Moment    :     -0.72507       1.69697      -0.00832
                        -----------------------------------------
Magnitude (a.u.)       :      1.84540
Magnitude (Debye)      :      4.69064

Rotational constants in cm-1:     0.002185     0.000093     0.000091
Rotational constants in MHz :    65.518760     2.777579     2.735125

                             ****ORCA TERMINATED NORMALLY****
TOTAL RUN TIME: 0 days 0 hours 11 minutes 20 seconds 777 msec
