                         Program Version 4.2.0 -  RELEASE  -
|  1> # ORCA input file
|  2> # SCF done       -201.465548965341          0.000627868958
|  3> ! CAM-B3LYP def2-SVP def2/J RIJCOSX Grid4 TightSCF
|  4> %maxcore 5000
|  5> %tddft
|  6>     Mode sTDDFT
|  7>     Ethresh 5.0
|  8>     maxcore 5000
|  9> end
| 10>
| 11> %pal
| 12>   nprocs 6
| 13>   end
| 14> * xyz 0 1
| 15>    C       -8.18540        -4.96359         2.75681
| 16>    C       -7.40629        -5.68514         1.89099
| 17>    C       -7.12740        -7.06085         2.03915
| 18>    N       -6.86530        -8.17638         2.10342
| 19>    C       -6.75356        -5.17372         0.74904
| 20>    N       -6.18315        -4.83387        -0.18770
| 21>    C       -8.81780        -5.49134         3.96166
| 22>    C       -9.46697        -4.42883         4.63885
| 23>    C      -10.15590        -4.60512         5.81438
| 24>    C      -10.21230        -5.89667         6.34782
| 25>    C       -9.56450        -6.95404         5.66427
| 26>    C       -8.86472        -6.77314         4.47722
| 27>    S       -9.76415        -8.46707         6.49296
| 28>    C      -10.70214        -7.67156         7.72909
| 29>    C      -10.85826        -6.34017         7.53357
| 30>   Br      -11.38639        -8.67229         9.15917
| 31>    C       -9.27684        -3.18606         3.87666
| 32>    O       -9.68781        -2.07958         4.18339
| 33>    C       -8.50961        -3.54892         2.67965
| 34>    C       -8.21323        -2.70728         1.63986
| 35>    C       -8.50035        -1.34313         1.46579
| 36>    C       -8.17401        -0.66966         0.28203
| 37>    C       -8.54906         0.65993         0.30863
| 38>    C       -9.15577         1.01848         1.53593
| 39>    S       -9.28182        -0.27770         2.63280
| 40>    C       -9.51003         2.38755         1.46270
| 41>    C       -9.13861         2.89381         0.20119
| 42>    C       -8.51669         1.82439        -0.56402
| 43>    C       -8.01561         1.89795        -1.82928
| 44>    C       -7.43951         0.78297        -2.47599
| 45>    N       -6.97426        -0.11878        -3.00891
| 46>    C       -8.04028         3.09131        -2.58306
| 47>    N       -8.05166         4.05598        -3.20218
| 48>    C       -9.46901         4.23635         0.03713
| 49>    C      -10.08130         4.75075         1.16895
| 50>    S      -10.25143         3.56802         2.44736
| 51>    C      -10.55685         6.07485         1.32843
| 52>    N      -10.54294         6.96052         0.37403
| 53>    C      -11.06244         8.11167         0.79093
| 54>    C      -11.50317         8.15760         2.12826
| 55>    S      -11.23697         6.63770         2.87894
| 56>    N      -12.03159         9.30519         2.54284
| 57>    C      -12.03882        10.18445         1.58229
| 58>    S      -11.35059         9.62532         0.03436
| 59>    C      -12.56679        11.48930         1.73436
| 60>    C      -13.07048        12.02656         2.90853
| 61>    C      -13.54085        13.32234         2.71737
| 62>    C      -13.39800        13.76678         1.38800
| 63>    S      -12.67314        12.59420         0.38224
| 64>    C      -13.93643        15.07375         1.28571
| 65>    C      -14.41171        15.45776         2.55581
| 66>    C      -14.18152        14.37263         3.49389
| 67>    C      -14.53226        14.34643         4.81098
| 68>    C      -14.27170        13.23847         5.64539
| 69>    N      -14.05417        12.34674         6.33167
| 70>    C      -15.18176        15.44329         5.41714
| 71>    N      -15.70692        16.34404         5.89425
| 72>    C      -15.01192        16.70995         2.55279
| 73>    C      -15.01307        17.28805         1.29176
| 74>    S      -14.20900        16.26739         0.10488
| 75>    C      -15.53171        18.53941         0.88994
| 76>    C      -16.45272        19.32184         1.51579
| 77>    C      -17.38243        19.09608         2.60433
| 78>    C      -17.99575        17.91557         2.93482
| 79>    C      -18.99912        17.80082         3.92068
| 80>    N      -19.82099        17.65394         4.70757
| 81>    C      -17.77600        16.69617         2.26568
| 82>    N      -17.65095        15.68722         1.73201
| 83>    C      -17.77716        20.40638         3.11121
| 84>    C      -17.31703        21.40204         2.21212
| 85>    C      -16.54337        20.76141         1.13283
| 86>    O      -16.04128        21.27979         0.16333
| 87>    C      -17.57797        22.73839         2.39683
| 88>    C      -18.31343        23.10919         3.52748
| 89>    C      -18.74837        22.10849         4.43069
| 90>    C      -18.49353        20.75597         4.23955
| 91>    S      -19.62383        22.78966         5.76633
| 92>    C      -19.40468        24.38664         5.10109
| 93>    C      -18.70855        24.41104         3.93937
| 94>   Br      -20.11258        25.86958         6.00321
| 95>    H      -10.63778        -3.77408         6.30501
| 96>    H       -8.39145        -7.61231         3.99592
| 97>    H      -11.40676        -5.69670         8.19689
| 98>    H       -7.69237        -3.13777         0.79299
| 99>    H       -7.68910        -1.16285        -0.54192
|100>    H       -9.29112         4.83486        -0.83695
|101>    H      -13.08081        11.47440         3.82987
|102>    H      -15.39883        17.20555         3.42431
|103>    H      -15.10430        18.97095        -0.01024
|104>    H      -17.22623        23.47508         1.69186
|105>    H      -18.83550        20.02893         4.95742
|106>    H      -18.48204        25.30912         3.39437
|107> *
|108>
|109>                          ****END OF INPUT****

CARTESIAN COORDINATES (ANGSTROEM)
---------------------------------
  C     -8.185400   -4.963590    2.756810
  C     -7.406290   -5.685140    1.890990
  C     -7.127400   -7.060850    2.039150
  N     -6.865300   -8.176380    2.103420
  C     -6.753560   -5.173720    0.749040
  N     -6.183150   -4.833870   -0.187700
  C     -8.817800   -5.491340    3.961660
  C     -9.466970   -4.428830    4.638850
  C    -10.155900   -4.605120    5.814380
  C    -10.212300   -5.896670    6.347820
  C     -9.564500   -6.954040    5.664270
  C     -8.864720   -6.773140    4.477220
  S     -9.764150   -8.467070    6.492960
  C    -10.702140   -7.671560    7.729090
  C    -10.858260   -6.340170    7.533570
  Br   -11.386390   -8.672290    9.159170
  C     -9.276840   -3.186060    3.876660
  O     -9.687810   -2.079580    4.183390
  C     -8.509610   -3.548920    2.679650
  C     -8.213230   -2.707280    1.639860
  C     -8.500350   -1.343130    1.465790
  C     -8.174010   -0.669660    0.282030
  C     -8.549060    0.659930    0.308630
  C     -9.155770    1.018480    1.535930
  S     -9.281820   -0.277700    2.632800
  C     -9.510030    2.387550    1.462700
  C     -9.138610    2.893810    0.201190
  C     -8.516690    1.824390   -0.564020
  C     -8.015610    1.897950   -1.829280
  C     -7.439510    0.782970   -2.475990
  N     -6.974260   -0.118780   -3.008910
  C     -8.040280    3.091310   -2.583060
  N     -8.051660    4.055980   -3.202180
  C     -9.469010    4.236350    0.037130
  C    -10.081300    4.750750    1.168950
  S    -10.251430    3.568020    2.447360
  C    -10.556850    6.074850    1.328430
  N    -10.542940    6.960520    0.374030
  C    -11.062440    8.111670    0.790930
  C    -11.503170    8.157600    2.128260
  S    -11.236970    6.637700    2.878940
  N    -12.031590    9.305190    2.542840
  C    -12.038820   10.184450    1.582290
  S    -11.350590    9.625320    0.034360
  C    -12.566790   11.489300    1.734360
  C    -13.070480   12.026560    2.908530
  C    -13.540850   13.322340    2.717370
  C    -13.398000   13.766780    1.388000
  S    -12.673140   12.594200    0.382240
  C    -13.936430   15.073750    1.285710
  C    -14.411710   15.457760    2.555810
  C    -14.181520   14.372630    3.493890
  C    -14.532260   14.346430    4.810980
  C    -14.271700   13.238470    5.645390
  N    -14.054170   12.346740    6.331670
  C    -15.181760   15.443290    5.417140
  N    -15.706920   16.344040    5.894250
  C    -15.011920   16.709950    2.552790
  C    -15.013070   17.288050    1.291760
  S    -14.209000   16.267390    0.104880
  C    -15.531710   18.539410    0.889940
  C    -16.452720   19.321840    1.515790
  C    -17.382430   19.096080    2.604330
  C    -17.995750   17.915570    2.934820
  C    -18.999120   17.800820    3.920680
  N    -19.820990   17.653940    4.707570
  C    -17.776000   16.696170    2.265680
  N    -17.650950   15.687220    1.732010
  C    -17.777160   20.406380    3.111210
  C    -17.317030   21.402040    2.212120
  C    -16.543370   20.761410    1.132830
  O    -16.041280   21.279790    0.163330
  C    -17.577970   22.738390    2.396830
  C    -18.313430   23.109190    3.527480
  C    -18.748370   22.108490    4.430690
  C    -18.493530   20.755970    4.239550
  S    -19.623830   22.789660    5.766330
  C    -19.404680   24.386640    5.101090
  C    -18.708550   24.411040    3.939370
  Br   -20.112580   25.869580    6.003210
  H    -10.637780   -3.774080    6.305010
  H     -8.391450   -7.612310    3.995920
  H    -11.406760   -5.696700    8.196890
  H     -7.692370   -3.137770    0.792990
  H     -7.689100   -1.162850   -0.541920
  H     -9.291120    4.834860   -0.836950
  H    -13.080810   11.474400    3.829870
  H    -15.398830   17.205550    3.424310
  H    -15.104300   18.970950   -0.010240
  H    -17.226230   23.475080    1.691860
  H    -18.835500   20.028930    4.957420
  H    -18.482040   25.309120    3.394370

 Total Charge           Charge          ....    0
 Multiplicity           Mult            ....    1
 Number of Electrons    NEL             ....  644
 Basis Dimension        Dim             .... 1248

ORBITAL ENERGIES
----------------

  NO   OCC          E(Eh)            E(eV)
   0   2.0000    -482.889870    -13140.1014
   1   2.0000    -482.887975    -13140.0498
   2   2.0000     -89.005295     -2421.9572
   3   2.0000     -89.004446     -2421.9341
   4   2.0000     -89.002064     -2421.8693
   5   2.0000     -88.996023     -2421.7049
   6   2.0000     -88.987082     -2421.4616
   7   2.0000     -88.987029     -2421.4602
   8   2.0000     -88.980809     -2421.2909
   9   2.0000     -88.978546     -2421.2293
  10   2.0000     -62.567587     -1702.5506
  11   2.0000     -62.565675     -1702.4986
  12   2.0000     -56.401544     -1534.7640
  13   2.0000     -56.399633     -1534.7120
  14   2.0000     -56.398815     -1534.6898
  15   2.0000     -56.398783     -1534.6889
  16   2.0000     -56.396905     -1534.6378
  17   2.0000     -56.396878     -1534.6371
  18   2.0000     -19.231798      -523.3238
  19   2.0000     -19.220919      -523.0278
  20   2.0000     -14.439988      -392.9320
  21   2.0000     -14.439286      -392.9129
  22   2.0000     -14.438557      -392.8931
  23   2.0000     -14.436148      -392.8276
  24   2.0000     -14.435051      -392.7977
  25   2.0000     -14.434906      -392.7938
  26   2.0000     -14.422758      -392.4632
  27   2.0000     -14.421660      -392.4333
  28   2.0000     -14.419341      -392.3702
  29   2.0000     -14.418276      -392.3412
  30   2.0000     -10.379207      -282.4326
  31   2.0000     -10.373767      -282.2845
  32   2.0000     -10.372053      -282.2379
  33   2.0000     -10.372001      -282.2365
  34   2.0000     -10.369190      -282.1600
  35   2.0000     -10.368890      -282.1519
  36   2.0000     -10.364053      -282.0202
  37   2.0000     -10.361750      -281.9575
  38   2.0000     -10.360361      -281.9198
  39   2.0000     -10.359472      -281.8956
  40   2.0000     -10.349264      -281.6178
  41   2.0000     -10.348896      -281.6078
  42   2.0000     -10.348566      -281.5988
  43   2.0000     -10.348214      -281.5892
  44   2.0000     -10.347729      -281.5760
  45   2.0000     -10.347645      -281.5737
  46   2.0000     -10.347174      -281.5609
  47   2.0000     -10.345948      -281.5276
  48   2.0000     -10.343866      -281.4709
  49   2.0000     -10.340093      -281.3682
  50   2.0000     -10.339752      -281.3590
  51   2.0000     -10.338610      -281.3279
  52   2.0000     -10.338577      -281.3270
  53   2.0000     -10.335766      -281.2505
  54   2.0000     -10.334755      -281.2230
  55   2.0000     -10.334407      -281.2135
  56   2.0000     -10.333898      -281.1997
  57   2.0000     -10.333163      -281.1797
  58   2.0000     -10.332821      -281.1703
  59   2.0000     -10.331439      -281.1327
  60   2.0000     -10.330097      -281.0962
  61   2.0000     -10.329537      -281.0810
  62   2.0000     -10.324145      -280.9343
  63   2.0000     -10.323975      -280.9296
  64   2.0000     -10.322186      -280.8810
  65   2.0000     -10.320585      -280.8374
  66   2.0000     -10.318597      -280.7833
  67   2.0000     -10.318154      -280.7712
  68   2.0000     -10.317815      -280.7620
  69   2.0000     -10.317441      -280.7518
  70   2.0000     -10.314683      -280.6768
  71   2.0000     -10.313935      -280.6564
  72   2.0000     -10.313590      -280.6470
  73   2.0000     -10.313288      -280.6388
  74   2.0000     -10.313105      -280.6339
  75   2.0000     -10.312981      -280.6305
  76   2.0000     -10.311869      -280.6002
  77   2.0000     -10.311496      -280.5901
  78   2.0000     -10.311210      -280.5823
  79   2.0000     -10.309469      -280.5349
  80   2.0000     -10.308419      -280.5063
  81   2.0000     -10.306334      -280.4496
  82   2.0000     -10.305963      -280.4395
  83   2.0000     -10.305607      -280.4298
  84   2.0000     -10.301851      -280.3276
  85   2.0000     -10.299611      -280.2667
  86   2.0000     -10.299493      -280.2634
  87   2.0000     -10.297631      -280.2128
  88   2.0000      -8.797027      -239.3793
  89   2.0000      -8.795097      -239.3268
  90   2.0000      -8.099987      -220.4119
  91   2.0000      -8.099158      -220.3893
  92   2.0000      -8.096737      -220.3234
  93   2.0000      -8.088238      -220.0921
  94   2.0000      -8.083056      -219.9511
  95   2.0000      -8.082999      -219.9496
  96   2.0000      -8.076848      -219.7822
  97   2.0000      -8.074585      -219.7206
  98   2.0000      -6.633372      -180.5032
  99   2.0000      -6.631426      -180.4503
 100   2.0000      -6.618738      -180.1050
 101   2.0000      -6.618529      -180.0993
 102   2.0000      -6.616835      -180.0532
 103   2.0000      -6.616591      -180.0466
 104   2.0000      -6.069227      -165.1521
 105   2.0000      -6.068369      -165.1287
 106   2.0000      -6.065907      -165.0617
 107   2.0000      -6.065064      -165.0388
 108   2.0000      -6.064214      -165.0156
 109   2.0000      -6.062339      -164.9646
 110   2.0000      -6.061739      -164.9483
 111   2.0000      -6.061552      -164.9432
 112   2.0000      -6.059229      -164.8800
 113   2.0000      -6.057673      -164.8377
 114   2.0000      -6.052905      -164.7079
 115   2.0000      -6.052216      -164.6892
 116   2.0000      -6.052177      -164.6881
 117   2.0000      -6.050807      -164.6508
 118   2.0000      -6.048515      -164.5885
 119   2.0000      -6.048484      -164.5876
 120   2.0000      -6.046512      -164.5340
 121   2.0000      -6.044788      -164.4870
 122   2.0000      -6.044720      -164.4852
 123   2.0000      -6.044277      -164.4731
 124   2.0000      -6.042252      -164.4180
 125   2.0000      -6.039989      -164.3565
 126   2.0000      -6.038080      -164.3045
 127   2.0000      -6.035792      -164.2422
 128   2.0000      -2.749203       -74.8096
 129   2.0000      -2.747280       -74.7573
 130   2.0000      -2.745160       -74.6996
 131   2.0000      -2.744978       -74.6946
 132   2.0000      -2.743188       -74.6459
 133   2.0000      -2.743063       -74.6425
 134   2.0000      -2.733351       -74.3783
 135   2.0000      -2.733337       -74.3779
 136   2.0000      -2.731430       -74.3260
 137   2.0000      -2.731421       -74.3257
 138   2.0000      -1.147322       -31.2202
 139   2.0000      -1.136676       -30.9305
 140   2.0000      -1.112409       -30.2702
 141   2.0000      -1.073323       -29.2066
 142   2.0000      -1.056222       -28.7412
 143   2.0000      -1.053359       -28.6634
 144   2.0000      -1.029755       -28.0211
 145   2.0000      -1.029131       -28.0041
 146   2.0000      -1.027883       -27.9701
 147   2.0000      -1.027285       -27.9538
 148   2.0000      -1.018943       -27.7269
 149   2.0000      -1.018562       -27.7165
 150   2.0000      -1.014707       -27.6116
 151   2.0000      -1.012505       -27.5517
 152   2.0000      -1.009851       -27.4794
 153   2.0000      -1.007372       -27.4120
 154   2.0000      -0.999367       -27.1942
 155   2.0000      -0.998874       -27.1808
 156   2.0000      -0.996198       -27.1079
 157   2.0000      -0.994140       -27.0519
 158   2.0000      -0.970626       -26.4121
 159   2.0000      -0.968780       -26.3618
 160   2.0000      -0.948667       -25.8145
 161   2.0000      -0.947361       -25.7790
 162   2.0000      -0.936875       -25.4937
 163   2.0000      -0.929454       -25.2917
 164   2.0000      -0.923960       -25.1422
 165   2.0000      -0.914573       -24.8868
 166   2.0000      -0.912907       -24.8415
 167   2.0000      -0.905072       -24.6283
 168   2.0000      -0.900760       -24.5109
 169   2.0000      -0.900407       -24.5013
 170   2.0000      -0.891901       -24.2698
 171   2.0000      -0.889919       -24.2159
 172   2.0000      -0.881614       -23.9899
 173   2.0000      -0.880392       -23.9567
 174   2.0000      -0.875289       -23.8178
 175   2.0000      -0.867797       -23.6140
 176   2.0000      -0.866536       -23.5796
 177   2.0000      -0.864700       -23.5297
 178   2.0000      -0.850607       -23.1462
 179   2.0000      -0.835497       -22.7350
 180   2.0000      -0.833371       -22.6772
 181   2.0000      -0.826364       -22.4865
 182   2.0000      -0.802448       -21.8357
 183   2.0000      -0.794605       -21.6223
 184   2.0000      -0.785943       -21.3866
 185   2.0000      -0.784006       -21.3339
 186   2.0000      -0.770609       -20.9693
 187   2.0000      -0.768128       -20.9018
 188   2.0000      -0.760006       -20.6808
 189   2.0000      -0.746286       -20.3075
 190   2.0000      -0.725939       -19.7538
 191   2.0000      -0.718489       -19.5511
 192   2.0000      -0.711787       -19.3687
 193   2.0000      -0.710548       -19.3350
 194   2.0000      -0.704173       -19.1615
 195   2.0000      -0.701527       -19.0895
 196   2.0000      -0.698003       -18.9936
 197   2.0000      -0.694425       -18.8963
 198   2.0000      -0.692957       -18.8563
 199   2.0000      -0.686425       -18.6786
 200   2.0000      -0.685134       -18.6434
 201   2.0000      -0.679012       -18.4769
 202   2.0000      -0.669135       -18.2081
 203   2.0000      -0.665436       -18.1074
 204   2.0000      -0.660667       -17.9777
 205   2.0000      -0.652607       -17.7583
 206   2.0000      -0.645270       -17.5587
 207   2.0000      -0.641021       -17.4431
 208   2.0000      -0.639536       -17.4027
 209   2.0000      -0.631411       -17.1816
 210   2.0000      -0.629080       -17.1181
 211   2.0000      -0.626130       -17.0379
 212   2.0000      -0.624312       -16.9884
 213   2.0000      -0.621913       -16.9231
 214   2.0000      -0.610180       -16.6038
 215   2.0000      -0.605071       -16.4648
 216   2.0000      -0.601804       -16.3759
 217   2.0000      -0.599046       -16.3009
 218   2.0000      -0.589667       -16.0456
 219   2.0000      -0.587460       -15.9856
 220   2.0000      -0.578577       -15.7439
 221   2.0000      -0.570497       -15.5240
 222   2.0000      -0.566238       -15.4081
 223   2.0000      -0.560524       -15.2526
 224   2.0000      -0.558577       -15.1996
 225   2.0000      -0.555683       -15.1209
 226   2.0000      -0.554741       -15.0953
 227   2.0000      -0.550396       -14.9770
 228   2.0000      -0.548976       -14.9384
 229   2.0000      -0.548646       -14.9294
 230   2.0000      -0.545215       -14.8361
 231   2.0000      -0.543929       -14.8011
 232   2.0000      -0.540796       -14.7158
 233   2.0000      -0.539193       -14.6722
 234   2.0000      -0.535827       -14.5806
 235   2.0000      -0.530215       -14.4279
 236   2.0000      -0.528024       -14.3683
 237   2.0000      -0.523895       -14.2559
 238   2.0000      -0.521201       -14.1826
 239   2.0000      -0.520344       -14.1593
 240   2.0000      -0.518536       -14.1101
 241   2.0000      -0.516080       -14.0433
 242   2.0000      -0.514372       -13.9968
 243   2.0000      -0.512900       -13.9567
 244   2.0000      -0.511600       -13.9213
 245   2.0000      -0.509261       -13.8577
 246   2.0000      -0.507234       -13.8025
 247   2.0000      -0.504536       -13.7291
 248   2.0000      -0.503783       -13.7086
 249   2.0000      -0.502611       -13.6767
 250   2.0000      -0.500648       -13.6233
 251   2.0000      -0.499259       -13.5855
 252   2.0000      -0.497194       -13.5293
 253   2.0000      -0.492018       -13.3885
 254   2.0000      -0.488297       -13.2872
 255   2.0000      -0.484736       -13.1903
 256   2.0000      -0.484228       -13.1765
 257   2.0000      -0.479134       -13.0379
 258   2.0000      -0.476526       -12.9669
 259   2.0000      -0.474564       -12.9135
 260   2.0000      -0.468816       -12.7571
 261   2.0000      -0.466921       -12.7056
 262   2.0000      -0.465622       -12.6702
 263   2.0000      -0.464853       -12.6493
 264   2.0000      -0.464363       -12.6359
 265   2.0000      -0.462808       -12.5937
 266   2.0000      -0.461800       -12.5662
 267   2.0000      -0.458447       -12.4750
 268   2.0000      -0.455573       -12.3968
 269   2.0000      -0.455089       -12.3836
 270   2.0000      -0.454144       -12.3579
 271   2.0000      -0.453382       -12.3371
 272   2.0000      -0.450982       -12.2718
 273   2.0000      -0.448225       -12.1968
 274   2.0000      -0.447124       -12.1669
 275   2.0000      -0.446750       -12.1567
 276   2.0000      -0.445608       -12.1256
 277   2.0000      -0.445332       -12.1181
 278   2.0000      -0.444601       -12.0982
 279   2.0000      -0.444011       -12.0821
 280   2.0000      -0.443344       -12.0640
 281   2.0000      -0.440731       -11.9929
 282   2.0000      -0.439095       -11.9484
 283   2.0000      -0.438323       -11.9274
 284   2.0000      -0.433578       -11.7983
 285   2.0000      -0.433057       -11.7841
 286   2.0000      -0.432135       -11.7590
 287   2.0000      -0.431668       -11.7463
 288   2.0000      -0.430861       -11.7243
 289   2.0000      -0.427268       -11.6266
 290   2.0000      -0.422520       -11.4974
 291   2.0000      -0.418629       -11.3915
 292   2.0000      -0.416172       -11.3246
 293   2.0000      -0.414646       -11.2831
 294   2.0000      -0.412290       -11.2190
 295   2.0000      -0.410595       -11.1728
 296   2.0000      -0.401011       -10.9121
 297   2.0000      -0.395938       -10.7740
 298   2.0000      -0.395055       -10.7500
 299   2.0000      -0.393260       -10.7011
 300   2.0000      -0.389727       -10.6050
 301   2.0000      -0.379970       -10.3395
 302   2.0000      -0.379201       -10.3186
 303   2.0000      -0.377294       -10.2667
 304   2.0000      -0.368011       -10.0141
 305   2.0000      -0.364748        -9.9253
 306   2.0000      -0.359970        -9.7953
 307   2.0000      -0.358655        -9.7595
 308   2.0000      -0.356311        -9.6957
 309   2.0000      -0.348000        -9.4696
 310   2.0000      -0.345517        -9.4020
 311   2.0000      -0.342913        -9.3311
 312   2.0000      -0.337326        -9.1791
 313   2.0000      -0.331315        -9.0155
 314   2.0000      -0.329695        -8.9715
 315   2.0000      -0.321804        -8.7567
 316   2.0000      -0.318982        -8.6799
 317   2.0000      -0.310158        -8.4398
 318   2.0000      -0.299208        -8.1419
 319   2.0000      -0.297664        -8.0998
 320   2.0000      -0.280781        -7.6404
 321   2.0000      -0.255702        -6.9580
 322   0.0000      -0.122040        -3.3209
 323   0.0000      -0.115085        -3.1316
 324   0.0000      -0.094070        -2.5598
 325   0.0000      -0.093013        -2.5310
 326   0.0000      -0.072744        -1.9795

MULLIKEN ATOMIC CHARGES
-----------------------
   0 C :    0.324778
   1 C :   -0.348213
   2 C :   -0.186008
   3 N :    0.152846
   4 C :   -0.193607
   5 N :    0.155894
   6 C :    0.009570
   7 C :   -0.011539
   8 C :   -0.069792
   9 C :    0.117462
  10 C :   -0.089535
  11 C :   -0.018380
  12 S :    0.191279
  13 C :   -0.124290
  14 C :    0.038610
  15 Br:    0.028010
  16 C :    0.166879
  17 O :   -0.190883
  18 C :   -0.087593
  19 C :   -0.031787
  20 C :   -0.052218
  21 C :   -0.060939
  22 C :    0.047051
  23 C :   -0.069082
  24 S :    0.245138
  25 C :   -0.098936
  26 C :    0.018941
  27 C :    0.302972
  28 C :   -0.295122
  29 C :   -0.193388
  30 N :    0.188447
  31 C :   -0.192452
  32 N :    0.183596
  33 C :   -0.037665
  34 C :   -0.033638
  35 S :    0.208706
  36 C :   -0.114161
  37 N :   -0.020226
  38 C :   -0.054648
  39 C :   -0.053052
  40 S :    0.133766
  41 N :   -0.022698
  42 C :   -0.112204
  43 S :    0.133994
  44 C :   -0.035965
  45 C :   -0.036544
  46 C :    0.020131
  47 C :   -0.097560
  48 S :    0.208678
  49 C :   -0.072713
  50 C :   -0.001419
  51 C :    0.305246
  52 C :   -0.285347
  53 C :   -0.192301
  54 N :    0.185674
  55 C :   -0.184073
  56 N :    0.172160
  57 C :   -0.004540
  58 C :   -0.113301
  59 S :    0.218067
  60 C :    0.081737
  61 C :   -0.131259
  62 C :    0.265592
  63 C :   -0.333301
  64 C :   -0.171228
  65 N :    0.162425
  66 C :   -0.200177
  67 N :    0.168318
  68 C :   -0.006220
  69 C :    0.010075
  70 C :    0.129809
  71 O :   -0.142032
  72 C :   -0.068757
  73 C :    0.111223
  74 C :   -0.089614
  75 C :   -0.014580
  76 S :    0.190971
  77 C :   -0.124820
  78 C :    0.041395
  79 Br:    0.026261
  80 H :   -0.010205
  81 H :   -0.006001
  82 H :   -0.001731
  83 H :    0.017982
  84 H :    0.029564
  85 H :    0.025394
  86 H :    0.025365
  87 H :    0.026663
  88 H :    0.022379
  89 H :   -0.008018
  90 H :    0.003152
  91 H :   -0.002440
Sum of atomic charges:   -0.0000000

LOEWDIN ATOMIC CHARGES
----------------------
   0 C :    0.076018
   1 C :   -0.138959
   2 C :   -0.018144
   3 N :   -0.050475
   4 C :   -0.023684
   5 N :   -0.045433
   6 C :   -0.019923
   7 C :   -0.052106
   8 C :    0.023504
   9 C :   -0.032659
  10 C :   -0.143131
  11 C :   -0.007910
  12 S :    0.437061
  13 C :   -0.270712
  14 C :   -0.070287
  15 Br:    0.140239
  16 C :    0.086843
  17 O :   -0.174611
  18 C :   -0.109078
  19 C :    0.056074
  20 C :   -0.182576
  21 C :    0.011813
  22 C :   -0.075938
  23 C :   -0.169618
  24 S :    0.549119
  25 C :   -0.181896
  26 C :   -0.055185
  27 C :    0.075835
  28 C :   -0.095540
  29 C :   -0.019663
  30 N :   -0.021596
  31 C :   -0.018734
  32 N :   -0.024545
  33 C :   -0.002512
  34 C :   -0.190606
  35 S :    0.485992
  36 C :   -0.135106
  37 N :   -0.091490
  38 C :   -0.208464
  39 C :   -0.207497
  40 S :    0.410063
  41 N :   -0.093111
  42 C :   -0.133022
  43 S :    0.409284
  44 C :   -0.194403
  45 C :    0.000991
  46 C :   -0.057738
  47 C :   -0.178366
  48 S :    0.485948
  49 C :   -0.162151
  50 C :   -0.063633
  51 C :    0.080657
  52 C :   -0.092844
  53 C :   -0.019074
  54 N :   -0.022102
  55 C :   -0.012235
  56 N :   -0.030267
  57 C :    0.007650
  58 C :   -0.179963
  59 S :    0.501686
  60 C :    0.041199
  61 C :   -0.088246
  62 C :    0.065699
  63 C :   -0.136204
  64 C :   -0.019582
  65 N :   -0.044164
  66 C :   -0.015588
  67 N :   -0.046606
  68 C :   -0.017792
  69 C :   -0.053805
  70 C :    0.083587
  71 O :   -0.141569
  72 C :    0.023779
  73 C :   -0.032628
  74 C :   -0.142132
  75 C :   -0.008802
  76 S :    0.436463
  77 C :   -0.270907
  78 C :   -0.070170
  79 Br:    0.139279
  80 H :    0.041207
  81 H :    0.041609
  82 H :    0.039322
  83 H :    0.054033
  84 H :    0.048451
  85 H :    0.049078
  86 H :    0.049260
  87 H :    0.042794
  88 H :    0.046359
  89 H :    0.041982
  90 H :    0.043074
  91 H :    0.039233

  Mayer bond orders larger than 0.100000
B(  0-C ,  1-C ) :   1.6314 B(  0-C ,  6-C ) :   0.9993 B(  0-C , 18-C ) :   1.0720
B(  1-C ,  2-C ) :   1.1441 B(  1-C ,  4-C ) :   1.1420 B(  2-C ,  3-N ) :   2.9688
B(  4-C ,  5-N ) :   2.9656 B(  6-C ,  7-C ) :   1.2727 B(  6-C , 11-C ) :   1.4150
B(  7-C ,  8-C ) :   1.4157 B(  7-C , 16-C ) :   0.9658 B(  8-C ,  9-C ) :   1.2459
B(  8-C , 80-H ) :   1.0180 B(  9-C , 10-C ) :   1.3038 B(  9-C , 14-C ) :   1.1632
B( 10-C , 11-C ) :   1.3260 B( 10-C , 12-S ) :   1.0895 B( 11-C , 81-H ) :   0.9804
B( 12-S , 13-C ) :   1.0882 B( 13-C , 14-C ) :   1.6164 B( 13-C , 15-Br) :   1.0213
B( 14-C , 82-H ) :   1.0006 B( 16-C , 17-O ) :   2.1083 B( 16-C , 18-C ) :   0.9828
B( 18-C , 19-C ) :   1.5012 B( 19-C , 20-C ) :   1.2604 B( 19-C , 83-H ) :   0.9411
B( 20-C , 21-C ) :   1.3319 B( 20-C , 24-S ) :   1.0733 B( 21-C , 22-C ) :   1.3296
B( 21-C , 84-H ) :   1.0078 B( 22-C , 23-C ) :   1.3592 B( 22-C , 27-C ) :   0.9883
B( 23-C , 24-S ) :   1.1250 B( 23-C , 25-C ) :   1.2069 B( 25-C , 26-C ) :   1.4206
B( 25-C , 35-S ) :   1.1283 B( 26-C , 27-C ) :   0.9889 B( 26-C , 33-C ) :   1.2770
B( 27-C , 28-C ) :   1.7237 B( 28-C , 29-C ) :   1.1346 B( 28-C , 31-C ) :   1.1337
B( 29-C , 30-N ) :   2.9952 B( 31-C , 32-N ) :   2.9979 B( 33-C , 34-C ) :   1.4647
B( 33-C , 85-H ) :   1.0098 B( 34-C , 35-S ) :   1.1135 B( 34-C , 36-C ) :   1.1048
B( 36-C , 37-N ) :   1.7308 B( 36-C , 40-S ) :   1.0826 B( 37-N , 38-C ) :   1.4025
B( 37-N , 40-S ) :   0.1013 B( 38-C , 39-C ) :   1.2879 B( 38-C , 43-S ) :   1.0999
B( 39-C , 40-S ) :   1.1017 B( 39-C , 41-N ) :   1.4021 B( 41-N , 42-C ) :   1.7304
B( 41-N , 43-S ) :   0.1004 B( 42-C , 43-S ) :   1.0831 B( 42-C , 44-C ) :   1.1061
B( 44-C , 45-C ) :   1.4644 B( 44-C , 48-S ) :   1.1109 B( 45-C , 46-C ) :   1.2784
B( 45-C , 86-H ) :   1.0103 B( 46-C , 47-C ) :   1.4274 B( 46-C , 51-C ) :   0.9873
B( 47-C , 48-S ) :   1.1316 B( 47-C , 49-C ) :   1.1988 B( 49-C , 50-C ) :   1.4135
B( 49-C , 59-S ) :   1.1518 B( 50-C , 51-C ) :   1.0012 B( 50-C , 57-C ) :   1.3539
B( 51-C , 52-C ) :   1.7238 B( 52-C , 53-C ) :   1.1309 B( 52-C , 55-C ) :   1.1357
B( 53-C , 54-N ) :   3.0001 B( 55-C , 56-N ) :   2.9811 B( 57-C , 58-C ) :   1.4028
B( 57-C , 87-H ) :   0.9799 B( 58-C , 59-S ) :   1.0933 B( 58-C , 60-C ) :   1.1244
B( 60-C , 61-C ) :   1.6842 B( 60-C , 88-H ) :   0.9284 B( 61-C , 62-C ) :   1.0312
B( 61-C , 70-C ) :   0.9411 B( 62-C , 63-C ) :   1.6525 B( 62-C , 68-C ) :   1.0133
B( 63-C , 64-C ) :   1.1226 B( 63-C , 66-C ) :   1.1743 B( 64-C , 65-N ) :   2.9960
B( 66-C , 67-N ) :   2.9957 B( 68-C , 69-C ) :   1.2732 B( 68-C , 75-C ) :   1.4160
B( 69-C , 70-C ) :   0.9218 B( 69-C , 72-C ) :   1.4234 B( 70-C , 71-O ) :   2.2670
B( 72-C , 73-C ) :   1.2541 B( 72-C , 89-H ) :   1.0158 B( 73-C , 74-C ) :   1.3045
B( 73-C , 78-C ) :   1.1631 B( 74-C , 75-C ) :   1.3285 B( 74-C , 76-S ) :   1.0867
B( 75-C , 90-H ) :   0.9827 B( 76-S , 77-C ) :   1.0879 B( 77-C , 78-C ) :   1.6182
B( 77-C , 79-Br) :   1.0204 B( 78-C , 91-H ) :   1.0001

-----------------------------------------------------------------------------
         ABSORPTION SPECTRUM VIA TRANSITION ELECTRIC DIPOLE MOMENTS
-----------------------------------------------------------------------------
State   Energy  Wavelength   fosc         T2         TX        TY        TZ
        (cm-1)    (nm)                  (au**2)     (au)      (au)      (au)
-----------------------------------------------------------------------------
   0   13221.7    756.3   0.824708575  20.53465  -1.65671   4.21772   0.02840
   1   14376.3    695.6   0.143623416   3.28892   0.22160  -1.77487   0.29942
   2   19631.6    509.4   1.795334953  30.10681   2.23238  -5.01202  -0.05411
   3   21284.9    469.8   0.406652283   6.28965  -0.46785  -2.30951   0.85844
   4   22171.8    451.0   0.018075994   0.26840  -0.40439  -0.17686   0.27126
   5   23338.1    428.5   0.107395865   1.51495   0.26552  -1.02855   0.62171
   6   25288.1    395.4   0.008253148   0.10744  -0.30478  -0.08301   0.08753
   7   25797.2    387.6   0.242331967   3.09253   0.65421  -1.42690  -0.79277
   8   26521.5    377.1   0.313962692   3.89723   0.20579  -1.96259   0.05568
   9   27358.4    365.5   0.214243539   2.57806   0.89701  -0.51577  -1.22777
  10   28055.2    356.4   0.042074456   0.49372   0.08273  -0.28842  -0.63537
  11   28778.7    347.5   0.053953079   0.61719  -0.41513   0.52340   0.41341
  12   28854.0    346.6   0.001532338   0.01748  -0.04038   0.01061  -0.12546
  13   28935.6    345.6   0.008568013   0.09748   0.07302   0.16859   0.25244
  14   29183.7    342.7   0.072821033   0.82147  -0.05605  -0.14559  -0.89282
  15   29457.9    339.5   0.170611494   1.90670  -0.49138  -0.34932   1.24226
  16   29915.2    334.3   0.213472805   2.34924   0.56882   0.08092  -1.42096
  17   30003.4    333.3   0.069372996   0.76119  -0.14244   0.50391  -0.69784
  18   30088.0    332.4   0.443919716   4.85720  -0.59434   2.09129   0.36118
  19   30169.2    331.5   0.108366593   1.18252  -0.65931  -0.41303   0.75976
  20   30683.4    325.9   0.312729310   3.35537  -0.19966  -0.75101   1.65876
  21   30943.1    323.2   0.149799093   1.59375  -0.40234  -0.44824   1.10949
  22   31589.2    316.6   0.163615465   1.70514  -0.55282  -0.45710   1.09114
  23   32427.3    308.4   0.532190211   5.40296  -1.13879   1.27197   1.57741
  24   32462.9    308.0   0.138651429   1.40609   0.45999   0.85871  -0.67610
  25   32836.4    304.5   0.118533632   1.18840   0.72715  -0.63502  -0.50637
  26   32994.8    303.1   0.181536555   1.81132  -0.15409  -1.17427   0.63926
  27   33414.8    299.3   0.136901577   1.34879  -0.12975  -0.89518   0.72843
  28   33740.7    296.4   0.035646453   0.34781   0.17783   0.45481  -0.33066
  29   33768.3    296.1   0.070389911   0.68624  -0.26121   0.21334   0.75663
  30   33844.2    295.5   0.011752537   0.11432   0.04063  -0.21347  -0.25904
  31   34203.1    292.4   0.125035519   1.20349  -0.05636   1.08953  -0.11508
  32   34335.6    291.2   0.003577077   0.03430   0.11713   0.12575  -0.06902
  33   34562.5    289.3   0.193470488   1.84283  -0.02096   1.35523   0.07582
  34   34694.0    288.2   0.260569230   2.47254  -0.27690  -0.23520   1.52989
  35   34775.5    287.6   0.074453945   0.70484  -0.05542  -0.48794   0.68094
  36   34887.3    286.6   0.271653924   2.56344  -0.57781  -0.52016   1.39964
  37   35527.0    281.5   0.021583624   0.20001  -0.20383   0.10412   0.38421
  38   35535.7    281.4   0.118411347   1.09699  -0.48189   0.10354   0.92415
  39   35829.5    279.1   0.073909514   0.67910  -0.03239   0.60015  -0.56381
  40   36013.6    277.7   0.131549850   1.20254  -0.50913   0.40088   0.88465
  41   36205.0    276.2   0.107491247   0.97742   0.15984  -0.95663  -0.19166
  42   36420.0    274.6   0.012296965   0.11116   0.31043   0.04844  -0.11155
  43   36800.6    271.7   0.023230635   0.20782   0.21725   0.08961  -0.39063
  44   37103.1    269.5   0.072260903   0.64116   0.05501  -0.79853   0.02221
  45   37160.6    269.1   0.006976287   0.06180  -0.07534  -0.06512   0.22779
  46   37394.3    267.4   0.009474022   0.08341   0.20702  -0.08993  -0.18018
  47   37552.2    266.3   0.001128154   0.00989   0.02340   0.04203  -0.08704
  48   37639.7    265.7   0.008391894   0.07340   0.04894  -0.26521   0.02578
  49   37815.3    264.4   0.062349399   0.54280   0.26087  -0.53571  -0.43332
  50   38097.7    262.5   0.039837342   0.34424   0.32267  -0.29107  -0.39422
  51   38439.1    260.2   0.000815874   0.00699  -0.05592  -0.02052  -0.05865
  52   38572.9    259.2   0.048173184   0.41115  -0.13051  -0.35757   0.51600
  53   38931.1    256.9   0.071558401   0.60512   0.09196  -0.76491   0.10755
  54   38974.8    256.6   0.007743620   0.06541   0.06152   0.19862   0.14891
  55   39273.2    254.6   0.044411925   0.37229  -0.17341  -0.40807   0.41916
  56   39648.0    252.2   0.027855505   0.23129  -0.35759  -0.02256   0.32080
  57   39836.9    251.0   0.195797816   1.61807   0.60350  -1.05567  -0.37338
  58   40092.7    249.4   0.011882039   0.09757  -0.19430  -0.09369   0.22591
  59   40143.1    249.1   0.113318180   0.92932   0.42713  -0.11652  -0.85633
  60   40254.3    248.4   0.052547335   0.42975  -0.03051  -0.65482   0.00563

FINAL SINGLE POINT ENERGY    -11243.981781424452

DIPOLE MOMENT
-------------
                                X             Y             Z
Electronic contribution:    -56.05203      10.41905      86.85815
Nuclear contribution   :     55.43172      -8.23573     -85.28393
                        -----------------------------------------
Total Dipole Moment    :     -0.62031       2.18332       1.57422
                        -----------------------------------------
Magnitude (a.u.)       :      2.76222
Magnitude (Debye)      :      7.02100

Rotational constants in cm-1:     0.001162     0.000095     0.000088
Rotational constants in MHz :    34.825968     2.833732     2.636911

                             ****ORCA TERMINATED NORMALLY****
TOTAL RUN TIME: 0 days 0 hours 12 minutes 37 seconds 630 msec
