                         Program Version 4.2.0 -  RELEASE  -
|  1> # ORCA input file
|  2> # SCF done       -204.705074671958          0.000398636267
|  3> ! CAM-B3LYP def2-SVP def2/J RIJCOSX Grid4 TightSCF
|  4> %maxcore 5000
|  5> %tddft
|  6>     Mode sTDDFT
|  7>     Ethresh 5.0
|  8>     maxcore 5000
|  9> end
| 10>
| 11> %pal
| 12>   nprocs 6
| 13>   end
| 14> * xyz 0 1
| 15>    C       -1.85077        -0.38419        -2.70028
| 16>    C       -0.58286        -0.31525        -2.18772
| 17>    C        0.50821        -1.06666        -2.67632
| 18>    N        1.43235        -1.64938        -3.02699
| 19>    C       -0.18067         0.48241        -1.09467
| 20>    N        0.22047         1.09372        -0.20958
| 21>    C       -2.27531        -1.25115        -3.79365
| 22>    C       -3.67508        -1.11108        -3.97190
| 23>    C       -4.37683        -1.80434        -4.92879
| 24>    C       -3.66199        -2.67706        -5.75509
| 25>    C       -2.26328        -2.80939        -5.57368
| 26>    C       -1.55567        -2.11007        -4.60350
| 27>    S       -1.57649        -3.93469        -6.70321
| 28>    C       -3.15331        -4.21032        -7.39508
| 29>    C       -4.14560        -3.49624        -6.81065
| 30>   Br       -3.34032        -5.41120        -8.82201
| 31>    C       -4.18821        -0.13697        -2.99952
| 32>    O       -5.34930         0.20811        -2.85998
| 33>    C       -3.02444         0.34425        -2.24296
| 34>    C       -3.04057         1.35450        -1.32121
| 35>    C       -4.11643         2.11517        -0.82566
| 36>    C       -3.91428         3.16385         0.07811
| 37>    C       -5.09707         3.77805         0.44771
| 38>    C       -6.22046         3.18165        -0.16764
| 39>    S       -5.81987         1.89605        -1.21105
| 40>    C       -7.37563         3.87802         0.27315
| 41>    C       -6.98907         4.90371         1.15356
| 42>    C       -5.54208         4.87379         1.29665
| 43>    C       -4.77095         5.69525         2.06295
| 44>    C       -3.36498         5.57431         2.11328
| 45>    N       -2.22351         5.48189         2.15398
| 46>    C       -5.32693         6.72024         2.85913
| 47>    N       -5.77834         7.54797         3.51062
| 48>    C       -8.07014         5.64807         1.62660
| 49>    C       -9.26926         5.17621         1.12861
| 50>    S       -9.06384         3.81388         0.03943
| 51>    C      -10.54783         5.77317         1.37305
| 52>    C      -11.86148         5.37553         1.15914
| 53>    C      -12.39981         4.09166         0.68928
| 54>    O      -13.39309         4.00500         0.01760
| 55>    O      -11.73698         2.98626         1.07042
| 56>    C      -12.62425         6.53366         1.53348
| 57>    N      -11.81088         7.48201         1.94973
| 58>    O      -10.55035         7.03046         1.84675
| 59>    C      -14.04002         6.75571         1.54695
| 60>    C      -14.62797         7.88228         2.09314
| 61>    C      -16.01545         7.84677         1.97481
| 62>    C      -16.46753         6.67776         1.33398
| 63>    S      -15.19890         5.64026         0.86626
| 64>    C      -17.88621         6.72211         1.27063
| 65>    C      -18.32196         7.92282         1.86343
| 66>    C      -17.16198         8.66498         2.33084
| 67>    C      -17.17376         9.85955         2.98841
| 68>    C      -15.99339        10.50477         3.41439
| 69>    N      -15.04046        11.03990         3.75975
| 70>    C      -18.38502        10.52274         3.27886
| 71>    N      -19.37857        11.04998         3.50285
| 72>    C      -19.70461         8.04876         1.87959
| 73>    C      -20.33706         6.95101         1.31333
| 74>    S      -19.17868         5.76618         0.71946
| 75>    C      -21.71754         6.71841         1.12923
| 76>    C      -22.77642         7.32296         1.73524
| 77>    C      -22.90984         8.17077         2.90224
| 78>    C      -22.13619         8.14414         4.03349
| 79>    C      -22.41655         8.89662         5.19380
| 80>    N      -22.60694         9.48015         6.16303
| 81>    C      -21.03221         7.28826         4.21225
| 82>    N      -20.14239         6.59053         4.41174
| 83>    C      -24.18940         8.86342         2.78648
| 84>    C      -24.93106         8.27862         1.72886
| 85>    C      -24.11531         7.23209         1.08477
| 86>    O      -24.43121         6.48544         0.18799
| 87>    C      -26.19939         8.69335         1.40169
| 88>    C      -26.75410         9.74194         2.14300
| 89>    C      -25.99643        10.33207         3.18380
| 90>    C      -24.71741         9.90675         3.52190
| 91>    S      -26.86680        11.62076         3.95641
| 92>    C      -28.22080        11.35040         2.89131
| 93>    C      -28.03183        10.34859         1.99975
| 94>   Br      -29.75372        12.41739         3.05443
| 95>    H       -5.44236        -1.67610        -5.03717
| 96>    H       -0.49139        -2.24487        -4.50855
| 97>    H       -5.17613        -3.54431        -7.11155
| 98>    H       -2.08841         1.65097        -0.89785
| 99>    H       -2.93492         3.43961         0.42722
|100>    H       -8.01253         6.48437         2.29933
|101>    H      -11.01798         3.15597         1.69249
|102>    H      -14.04696         8.66410         2.54658
|103>    H      -20.23635         8.90962         2.24132
|104>    H      -21.98427         6.00848         0.35197
|105>    H      -26.74653         8.22536         0.59853
|106>    H      -24.17205        10.39103         4.31498
|107>    H      -28.76165        10.04875         1.27010
|108> *
|109>
|110>                          ****END OF INPUT****

CARTESIAN COORDINATES (ANGSTROEM)
---------------------------------
  C     -1.850770   -0.384190   -2.700280
  C     -0.582860   -0.315250   -2.187720
  C      0.508210   -1.066660   -2.676320
  N      1.432350   -1.649380   -3.026990
  C     -0.180670    0.482410   -1.094670
  N      0.220470    1.093720   -0.209580
  C     -2.275310   -1.251150   -3.793650
  C     -3.675080   -1.111080   -3.971900
  C     -4.376830   -1.804340   -4.928790
  C     -3.661990   -2.677060   -5.755090
  C     -2.263280   -2.809390   -5.573680
  C     -1.555670   -2.110070   -4.603500
  S     -1.576490   -3.934690   -6.703210
  C     -3.153310   -4.210320   -7.395080
  C     -4.145600   -3.496240   -6.810650
  Br    -3.340320   -5.411200   -8.822010
  C     -4.188210   -0.136970   -2.999520
  O     -5.349300    0.208110   -2.859980
  C     -3.024440    0.344250   -2.242960
  C     -3.040570    1.354500   -1.321210
  C     -4.116430    2.115170   -0.825660
  C     -3.914280    3.163850    0.078110
  C     -5.097070    3.778050    0.447710
  C     -6.220460    3.181650   -0.167640
  S     -5.819870    1.896050   -1.211050
  C     -7.375630    3.878020    0.273150
  C     -6.989070    4.903710    1.153560
  C     -5.542080    4.873790    1.296650
  C     -4.770950    5.695250    2.062950
  C     -3.364980    5.574310    2.113280
  N     -2.223510    5.481890    2.153980
  C     -5.326930    6.720240    2.859130
  N     -5.778340    7.547970    3.510620
  C     -8.070140    5.648070    1.626600
  C     -9.269260    5.176210    1.128610
  S     -9.063840    3.813880    0.039430
  C    -10.547830    5.773170    1.373050
  C    -11.861480    5.375530    1.159140
  C    -12.399810    4.091660    0.689280
  O    -13.393090    4.005000    0.017600
  O    -11.736980    2.986260    1.070420
  C    -12.624250    6.533660    1.533480
  N    -11.810880    7.482010    1.949730
  O    -10.550350    7.030460    1.846750
  C    -14.040020    6.755710    1.546950
  C    -14.627970    7.882280    2.093140
  C    -16.015450    7.846770    1.974810
  C    -16.467530    6.677760    1.333980
  S    -15.198900    5.640260    0.866260
  C    -17.886210    6.722110    1.270630
  C    -18.321960    7.922820    1.863430
  C    -17.161980    8.664980    2.330840
  C    -17.173760    9.859550    2.988410
  C    -15.993390   10.504770    3.414390
  N    -15.040460   11.039900    3.759750
  C    -18.385020   10.522740    3.278860
  N    -19.378570   11.049980    3.502850
  C    -19.704610    8.048760    1.879590
  C    -20.337060    6.951010    1.313330
  S    -19.178680    5.766180    0.719460
  C    -21.717540    6.718410    1.129230
  C    -22.776420    7.322960    1.735240
  C    -22.909840    8.170770    2.902240
  C    -22.136190    8.144140    4.033490
  C    -22.416550    8.896620    5.193800
  N    -22.606940    9.480150    6.163030
  C    -21.032210    7.288260    4.212250
  N    -20.142390    6.590530    4.411740
  C    -24.189400    8.863420    2.786480
  C    -24.931060    8.278620    1.728860
  C    -24.115310    7.232090    1.084770
  O    -24.431210    6.485440    0.187990
  C    -26.199390    8.693350    1.401690
  C    -26.754100    9.741940    2.143000
  C    -25.996430   10.332070    3.183800
  C    -24.717410    9.906750    3.521900
  S    -26.866800   11.620760    3.956410
  C    -28.220800   11.350400    2.891310
  C    -28.031830   10.348590    1.999750
  Br   -29.753720   12.417390    3.054430
  H     -5.442360   -1.676100   -5.037170
  H     -0.491390   -2.244870   -4.508550
  H     -5.176130   -3.544310   -7.111550
  H     -2.088410    1.650970   -0.897850
  H     -2.934920    3.439610    0.427220
  H     -8.012530    6.484370    2.299330
  H    -11.017980    3.155970    1.692490
  H    -14.046960    8.664100    2.546580
  H    -20.236350    8.909620    2.241320
  H    -21.984270    6.008480    0.351970
  H    -26.746530    8.225360    0.598530
  H    -24.172050   10.391030    4.314980
  H    -28.761650   10.048750    1.270100

 Total Charge           Charge          ....    0
 Multiplicity           Mult            ....    1
 Number of Electrons    NEL             ....  630
 Basis Dimension        Dim             .... 1245

ORBITAL ENERGIES
----------------

  NO   OCC          E(Eh)            E(eV)
   0   2.0000    -482.895090    -13140.2434
   1   2.0000    -482.885087    -13139.9712
   2   2.0000     -89.021759     -2422.4052
   3   2.0000     -89.006989     -2422.0033
   4   2.0000     -88.995280     -2421.6847
   5   2.0000     -88.993279     -2421.6302
   6   2.0000     -88.986937     -2421.4577
   7   2.0000     -88.975142     -2421.1367
   8   2.0000     -62.572766     -1702.6915
   9   2.0000     -62.562811     -1702.4206
  10   2.0000     -56.406729     -1534.9051
  11   2.0000     -56.403991     -1534.8306
  12   2.0000     -56.403964     -1534.8299
  13   2.0000     -56.396761     -1534.6339
  14   2.0000     -56.394045     -1534.5600
  15   2.0000     -56.394011     -1534.5590
  16   2.0000     -19.346853      -526.4546
  17   2.0000     -19.291993      -524.9618
  18   2.0000     -19.241353      -523.5838
  19   2.0000     -19.234180      -523.3886
  20   2.0000     -19.216406      -522.9050
  21   2.0000     -14.480589      -394.0369
  22   2.0000     -14.444943      -393.0669
  23   2.0000     -14.444325      -393.0501
  24   2.0000     -14.431338      -392.6967
  25   2.0000     -14.429757      -392.6537
  26   2.0000     -14.428377      -392.6161
  27   2.0000     -14.427129      -392.5821
  28   2.0000     -14.417818      -392.3288
  29   2.0000     -14.413811      -392.2197
  30   2.0000     -10.441837      -284.1368
  31   2.0000     -10.397464      -282.9294
  32   2.0000     -10.388528      -282.6862
  33   2.0000     -10.383371      -282.5459
  34   2.0000     -10.369995      -282.1819
  35   2.0000     -10.369963      -282.1810
  36   2.0000     -10.367749      -282.1208
  37   2.0000     -10.365080      -282.0482
  38   2.0000     -10.360638      -281.9273
  39   2.0000     -10.358731      -281.8754
  40   2.0000     -10.358437      -281.8674
  41   2.0000     -10.357271      -281.8357
  42   2.0000     -10.356178      -281.8059
  43   2.0000     -10.352743      -281.7124
  44   2.0000     -10.352730      -281.7121
  45   2.0000     -10.349181      -281.6155
  46   2.0000     -10.344503      -281.4882
  47   2.0000     -10.344455      -281.4869
  48   2.0000     -10.344142      -281.4784
  49   2.0000     -10.343780      -281.4686
  50   2.0000     -10.343409      -281.4585
  51   2.0000     -10.342276      -281.4276
  52   2.0000     -10.341709      -281.4122
  53   2.0000     -10.338246      -281.3180
  54   2.0000     -10.333045      -281.1764
  55   2.0000     -10.331799      -281.1425
  56   2.0000     -10.331730      -281.1407
  57   2.0000     -10.331344      -281.1301
  58   2.0000     -10.331343      -281.1301
  59   2.0000     -10.330108      -281.0965
  60   2.0000     -10.329575      -281.0820
  61   2.0000     -10.328164      -281.0436
  62   2.0000     -10.327749      -281.0323
  63   2.0000     -10.327563      -281.0273
  64   2.0000     -10.325933      -280.9829
  65   2.0000     -10.325899      -280.9820
  66   2.0000     -10.325350      -280.9671
  67   2.0000     -10.323408      -280.9142
  68   2.0000     -10.322158      -280.8802
  69   2.0000     -10.320326      -280.8303
  70   2.0000     -10.319059      -280.7959
  71   2.0000     -10.318534      -280.7816
  72   2.0000     -10.316747      -280.7330
  73   2.0000     -10.316219      -280.7186
  74   2.0000     -10.315625      -280.7024
  75   2.0000     -10.311890      -280.6008
  76   2.0000     -10.309282      -280.5298
  77   2.0000     -10.307638      -280.4851
  78   2.0000     -10.307585      -280.4837
  79   2.0000     -10.307352      -280.4773
  80   2.0000     -10.306992      -280.4675
  81   2.0000     -10.306286      -280.4483
  82   2.0000     -10.305674      -280.4316
  83   2.0000     -10.304880      -280.4100
  84   2.0000     -10.301939      -280.3300
  85   2.0000     -10.301021      -280.3050
  86   2.0000     -10.296362      -280.1782
  87   2.0000     -10.293671      -280.1050
  88   2.0000      -8.802179      -239.5195
  89   2.0000      -8.792250      -239.2493
  90   2.0000      -8.116082      -220.8498
  91   2.0000      -8.099176      -220.3898
  92   2.0000      -8.090099      -220.1428
  93   2.0000      -8.086506      -220.0450
  94   2.0000      -8.082972      -219.9488
  95   2.0000      -8.071206      -219.6287
  96   2.0000      -6.638518      -180.6433
  97   2.0000      -6.628557      -180.3722
  98   2.0000      -6.623910      -180.2458
  99   2.0000      -6.623667      -180.2391
 100   2.0000      -6.613970      -179.9753
 101   2.0000      -6.613790      -179.9704
 102   2.0000      -6.085376      -165.5915
 103   2.0000      -6.081049      -165.4738
 104   2.0000      -6.078427      -165.4024
 105   2.0000      -6.068587      -165.1347
 106   2.0000      -6.063807      -165.0046
 107   2.0000      -6.061775      -164.9493
 108   2.0000      -6.059225      -164.8799
 109   2.0000      -6.055846      -164.7879
 110   2.0000      -6.055071      -164.7668
 111   2.0000      -6.052625      -164.7003
 112   2.0000      -6.052610      -164.6999
 113   2.0000      -6.051276      -164.6636
 114   2.0000      -6.049008      -164.6019
 115   2.0000      -6.048365      -164.5844
 116   2.0000      -6.044222      -164.4716
 117   2.0000      -6.040905      -164.3814
 118   2.0000      -6.036606      -164.2644
 119   2.0000      -6.032404      -164.1500
 120   2.0000      -2.754414       -74.9514
 121   2.0000      -2.750276       -74.8388
 122   2.0000      -2.750102       -74.8341
 123   2.0000      -2.744429       -74.6797
 124   2.0000      -2.740360       -74.5690
 125   2.0000      -2.740165       -74.5637
 126   2.0000      -2.738488       -74.5180
 127   2.0000      -2.738476       -74.5177
 128   2.0000      -2.728600       -74.2490
 129   2.0000      -2.728590       -74.2487
 130   2.0000      -1.286423       -35.0053
 131   2.0000      -1.216682       -33.1076
 132   2.0000      -1.156923       -31.4815
 133   2.0000      -1.132682       -30.8219
 134   2.0000      -1.132167       -30.8078
 135   2.0000      -1.067538       -29.0492
 136   2.0000      -1.048672       -28.5358
 137   2.0000      -1.037754       -28.2387
 138   2.0000      -1.036543       -28.2058
 139   2.0000      -1.026547       -27.9338
 140   2.0000      -1.024873       -27.8882
 141   2.0000      -1.023921       -27.8623
 142   2.0000      -1.022300       -27.8182
 143   2.0000      -1.021213       -27.7886
 144   2.0000      -1.014739       -27.6125
 145   2.0000      -1.010685       -27.5021
 146   2.0000      -1.007154       -27.4060
 147   2.0000      -1.007053       -27.4033
 148   2.0000      -1.004118       -27.3235
 149   2.0000      -0.994620       -27.0650
 150   2.0000      -0.992078       -26.9958
 151   2.0000      -0.988408       -26.8959
 152   2.0000      -0.980171       -26.6718
 153   2.0000      -0.959658       -26.1136
 154   2.0000      -0.956170       -26.0187
 155   2.0000      -0.948685       -25.8150
 156   2.0000      -0.943188       -25.6654
 157   2.0000      -0.930420       -25.3180
 158   2.0000      -0.921700       -25.0807
 159   2.0000      -0.918500       -24.9936
 160   2.0000      -0.908972       -24.7344
 161   2.0000      -0.908299       -24.7161
 162   2.0000      -0.898868       -24.4594
 163   2.0000      -0.894980       -24.3536
 164   2.0000      -0.892825       -24.2950
 165   2.0000      -0.886231       -24.1156
 166   2.0000      -0.878833       -23.9143
 167   2.0000      -0.874954       -23.8087
 168   2.0000      -0.872670       -23.7466
 169   2.0000      -0.861055       -23.4305
 170   2.0000      -0.857962       -23.3463
 171   2.0000      -0.842444       -22.9241
 172   2.0000      -0.830589       -22.6015
 173   2.0000      -0.829407       -22.5693
 174   2.0000      -0.815145       -22.1812
 175   2.0000      -0.801344       -21.8057
 176   2.0000      -0.795616       -21.6498
 177   2.0000      -0.788722       -21.4622
 178   2.0000      -0.778278       -21.1780
 179   2.0000      -0.775146       -21.0928
 180   2.0000      -0.769763       -20.9463
 181   2.0000      -0.760919       -20.7057
 182   2.0000      -0.749816       -20.4035
 183   2.0000      -0.738312       -20.0905
 184   2.0000      -0.731161       -19.8959
 185   2.0000      -0.724620       -19.7179
 186   2.0000      -0.715085       -19.4585
 187   2.0000      -0.710921       -19.3451
 188   2.0000      -0.707810       -19.2605
 189   2.0000      -0.703652       -19.1474
 190   2.0000      -0.701412       -19.0864
 191   2.0000      -0.692663       -18.8483
 192   2.0000      -0.689422       -18.7601
 193   2.0000      -0.687795       -18.7159
 194   2.0000      -0.680158       -18.5080
 195   2.0000      -0.672138       -18.2898
 196   2.0000      -0.666150       -18.1269
 197   2.0000      -0.660847       -17.9826
 198   2.0000      -0.658105       -17.9079
 199   2.0000      -0.653645       -17.7866
 200   2.0000      -0.643725       -17.5166
 201   2.0000      -0.641071       -17.4444
 202   2.0000      -0.636381       -17.3168
 203   2.0000      -0.634011       -17.2523
 204   2.0000      -0.629577       -17.1317
 205   2.0000      -0.624331       -16.9889
 206   2.0000      -0.619518       -16.8579
 207   2.0000      -0.617052       -16.7908
 208   2.0000      -0.612787       -16.6748
 209   2.0000      -0.610817       -16.6212
 210   2.0000      -0.603084       -16.4107
 211   2.0000      -0.596740       -16.2381
 212   2.0000      -0.594286       -16.1714
 213   2.0000      -0.589739       -16.0476
 214   2.0000      -0.582771       -15.8580
 215   2.0000      -0.576208       -15.6794
 216   2.0000      -0.570267       -15.5177
 217   2.0000      -0.567628       -15.4459
 218   2.0000      -0.566065       -15.4034
 219   2.0000      -0.558761       -15.2046
 220   2.0000      -0.557750       -15.1771
 221   2.0000      -0.554032       -15.0760
 222   2.0000      -0.551640       -15.0109
 223   2.0000      -0.550384       -14.9767
 224   2.0000      -0.549450       -14.9513
 225   2.0000      -0.544155       -14.8072
 226   2.0000      -0.543292       -14.7837
 227   2.0000      -0.539604       -14.6834
 228   2.0000      -0.537065       -14.6143
 229   2.0000      -0.534461       -14.5434
 230   2.0000      -0.533281       -14.5113
 231   2.0000      -0.526086       -14.3155
 232   2.0000      -0.523617       -14.2483
 233   2.0000      -0.522491       -14.2177
 234   2.0000      -0.520523       -14.1641
 235   2.0000      -0.517232       -14.0746
 236   2.0000      -0.515688       -14.0326
 237   2.0000      -0.513646       -13.9770
 238   2.0000      -0.511024       -13.9057
 239   2.0000      -0.509483       -13.8637
 240   2.0000      -0.508397       -13.8342
 241   2.0000      -0.507472       -13.8090
 242   2.0000      -0.505971       -13.7682
 243   2.0000      -0.503880       -13.7113
 244   2.0000      -0.501407       -13.6440
 245   2.0000      -0.500764       -13.6265
 246   2.0000      -0.499232       -13.5848
 247   2.0000      -0.497305       -13.5324
 248   2.0000      -0.493180       -13.4201
 249   2.0000      -0.487375       -13.2621
 250   2.0000      -0.486496       -13.2382
 251   2.0000      -0.484160       -13.1747
 252   2.0000      -0.479369       -13.0443
 253   2.0000      -0.477052       -12.9813
 254   2.0000      -0.473604       -12.8874
 255   2.0000      -0.472270       -12.8511
 256   2.0000      -0.470420       -12.8008
 257   2.0000      -0.468377       -12.7452
 258   2.0000      -0.462559       -12.5869
 259   2.0000      -0.461230       -12.5507
 260   2.0000      -0.460892       -12.5415
 261   2.0000      -0.458425       -12.4744
 262   2.0000      -0.457368       -12.4456
 263   2.0000      -0.455553       -12.3962
 264   2.0000      -0.454329       -12.3629
 265   2.0000      -0.453793       -12.3483
 266   2.0000      -0.453618       -12.3436
 267   2.0000      -0.452280       -12.3072
 268   2.0000      -0.451339       -12.2816
 269   2.0000      -0.450626       -12.2622
 270   2.0000      -0.448741       -12.2109
 271   2.0000      -0.447518       -12.1776
 272   2.0000      -0.446940       -12.1618
 273   2.0000      -0.444744       -12.1021
 274   2.0000      -0.441834       -12.0229
 275   2.0000      -0.441052       -12.0016
 276   2.0000      -0.439856       -11.9691
 277   2.0000      -0.439320       -11.9545
 278   2.0000      -0.438656       -11.9364
 279   2.0000      -0.437580       -11.9072
 280   2.0000      -0.431310       -11.7365
 281   2.0000      -0.429284       -11.6814
 282   2.0000      -0.427257       -11.6263
 283   2.0000      -0.426679       -11.6105
 284   2.0000      -0.424768       -11.5585
 285   2.0000      -0.420220       -11.4348
 286   2.0000      -0.418918       -11.3994
 287   2.0000      -0.414784       -11.2868
 288   2.0000      -0.411706       -11.2031
 289   2.0000      -0.410418       -11.1681
 290   2.0000      -0.404853       -11.0166
 291   2.0000      -0.401622       -10.9287
 292   2.0000      -0.400133       -10.8882
 293   2.0000      -0.394313       -10.7298
 294   2.0000      -0.390135       -10.6161
 295   2.0000      -0.385397       -10.4872
 296   2.0000      -0.384199       -10.4546
 297   2.0000      -0.382591       -10.4108
 298   2.0000      -0.374473       -10.1899
 299   2.0000      -0.371571       -10.1110
 300   2.0000      -0.369307       -10.0494
 301   2.0000      -0.358927        -9.7669
 302   2.0000      -0.357223        -9.7205
 303   2.0000      -0.349057        -9.4983
 304   2.0000      -0.344072        -9.3627
 305   2.0000      -0.340776        -9.2730
 306   2.0000      -0.337106        -9.1731
 307   2.0000      -0.328632        -8.9425
 308   2.0000      -0.327312        -8.9066
 309   2.0000      -0.320791        -8.7292
 310   2.0000      -0.315369        -8.5816
 311   2.0000      -0.305966        -8.3258
 312   2.0000      -0.294303        -8.0084
 313   2.0000      -0.287649        -7.8273
 314   2.0000      -0.269112        -7.3229
 315   0.0000      -0.129198        -3.5157
 316   0.0000      -0.109327        -2.9749
 317   0.0000      -0.102270        -2.7829
 318   0.0000      -0.087911        -2.3922
 319   0.0000      -0.079530        -2.1641

MULLIKEN ATOMIC CHARGES
-----------------------
   0 C :    0.316986
   1 C :   -0.339438
   2 C :   -0.186557
   3 N :    0.159781
   4 C :   -0.196241
   5 N :    0.158924
   6 C :    0.013692
   7 C :   -0.014471
   8 C :   -0.067403
   9 C :    0.117467
  10 C :   -0.092034
  11 C :   -0.017966
  12 S :    0.194554
  13 C :   -0.122107
  14 C :    0.038595
  15 Br:    0.032509
  16 C :    0.170498
  17 O :   -0.188795
  18 C :   -0.083768
  19 C :   -0.028560
  20 C :   -0.053003
  21 C :   -0.058657
  22 C :    0.051156
  23 C :   -0.074057
  24 S :    0.252990
  25 C :   -0.096499
  26 C :    0.029047
  27 C :    0.298840
  28 C :   -0.283653
  29 C :   -0.193074
  30 N :    0.189931
  31 C :   -0.191981
  32 N :    0.189234
  33 C :   -0.014215
  34 C :   -0.173639
  35 S :    0.214917
  36 C :    0.217608
  37 C :   -0.185478
  38 C :    0.177423
  39 O :   -0.179797
  40 O :   -0.153857
  41 C :    0.040529
  42 N :    0.018915
  43 O :   -0.157690
  44 C :   -0.103929
  45 C :   -0.056443
  46 C :    0.035476
  47 C :   -0.082944
  48 S :    0.234471
  49 C :   -0.069846
  50 C :   -0.003545
  51 C :    0.307014
  52 C :   -0.289629
  53 C :   -0.195694
  54 N :    0.188809
  55 C :   -0.184663
  56 N :    0.167020
  57 C :   -0.004866
  58 C :   -0.110050
  59 S :    0.217374
  60 C :    0.082038
  61 C :   -0.136721
  62 C :    0.268291
  63 C :   -0.329304
  64 C :   -0.173158
  65 N :    0.162306
  66 C :   -0.200345
  67 N :    0.165422
  68 C :   -0.004317
  69 C :    0.006643
  70 C :    0.133203
  71 O :   -0.144966
  72 C :   -0.071115
  73 C :    0.110144
  74 C :   -0.086266
  75 C :   -0.017379
  76 S :    0.189452
  77 C :   -0.125050
  78 C :    0.040522
  79 Br:    0.024421
  80 H :   -0.007106
  81 H :   -0.002843
  82 H :   -0.001024
  83 H :    0.021125
  84 H :    0.029960
  85 H :    0.034776
  86 H :    0.186106
  87 H :    0.027780
  88 H :    0.024344
  89 H :    0.021576
  90 H :   -0.008765
  91 H :    0.003808
  92 H :   -0.002769
Sum of atomic charges:   -0.0000000

LOEWDIN ATOMIC CHARGES
----------------------
   0 C :    0.074839
   1 C :   -0.133998
   2 C :   -0.018490
   3 N :   -0.045301
   4 C :   -0.023835
   5 N :   -0.041902
   6 C :   -0.020048
   7 C :   -0.053062
   8 C :    0.024983
   9 C :   -0.031437
  10 C :   -0.142286
  11 C :   -0.007136
  12 S :    0.439793
  13 C :   -0.269282
  14 C :   -0.069944
  15 Br:    0.143680
  16 C :    0.088080
  17 O :   -0.172083
  18 C :   -0.101029
  19 C :    0.055639
  20 C :   -0.177816
  21 C :    0.009745
  22 C :   -0.070402
  23 C :   -0.179320
  24 S :    0.555857
  25 C :   -0.170698
  26 C :   -0.059647
  27 C :    0.072910
  28 C :   -0.089714
  29 C :   -0.019790
  30 N :   -0.015770
  31 C :   -0.019942
  32 N :   -0.017920
  33 C :    0.004395
  34 C :   -0.208244
  35 S :    0.505654
  36 C :    0.040637
  37 C :   -0.158561
  38 C :    0.075645
  39 O :   -0.155404
  40 O :   -0.022159
  41 C :   -0.023929
  42 N :   -0.031374
  43 O :    0.045995
  44 C :   -0.191422
  45 C :    0.001248
  46 C :   -0.064177
  47 C :   -0.185353
  48 S :    0.540031
  49 C :   -0.159620
  50 C :   -0.064266
  51 C :    0.081507
  52 C :   -0.097799
  53 C :   -0.020051
  54 N :   -0.023970
  55 C :   -0.011983
  56 N :   -0.034824
  57 C :    0.008464
  58 C :   -0.181454
  59 S :    0.502418
  60 C :    0.042349
  61 C :   -0.090948
  62 C :    0.065673
  63 C :   -0.136488
  64 C :   -0.019291
  65 N :   -0.045198
  66 C :   -0.015946
  67 N :   -0.046043
  68 C :   -0.017403
  69 C :   -0.053608
  70 C :    0.083780
  71 O :   -0.143802
  72 C :    0.023032
  73 C :   -0.033340
  74 C :   -0.142321
  75 C :   -0.009078
  76 S :    0.435507
  77 C :   -0.271779
  78 C :   -0.070326
  79 Br:    0.137586
  80 H :    0.042166
  81 H :    0.042351
  82 H :    0.039801
  83 H :    0.054642
  84 H :    0.048844
  85 H :    0.051565
  86 H :    0.082420
  87 H :    0.047935
  88 H :    0.042221
  89 H :    0.045970
  90 H :    0.041542
  91 H :    0.043108
  92 H :    0.039004

  Mayer bond orders larger than 0.100000
B(  0-C ,  1-C ) :   1.6397 B(  0-C ,  6-C ) :   1.0042 B(  0-C , 18-C ) :   1.0620
B(  1-C ,  2-C ) :   1.1428 B(  1-C ,  4-C ) :   1.1410 B(  2-C ,  3-N ) :   2.9704
B(  4-C ,  5-N ) :   2.9669 B(  6-C ,  7-C ) :   1.2695 B(  6-C , 11-C ) :   1.4143
B(  7-C ,  8-C ) :   1.4183 B(  7-C , 16-C ) :   0.9678 B(  8-C ,  9-C ) :   1.2490
B(  8-C , 80-H ) :   1.0163 B(  9-C , 10-C ) :   1.2984 B(  9-C , 14-C ) :   1.1658
B( 10-C , 11-C ) :   1.3309 B( 10-C , 12-S ) :   1.0917 B( 11-C , 81-H ) :   0.9786
B( 12-S , 13-C ) :   1.0876 B( 13-C , 14-C ) :   1.6149 B( 13-C , 15-Br) :   1.0241
B( 14-C , 82-H ) :   1.0006 B( 16-C , 17-O ) :   2.1075 B( 16-C , 18-C ) :   0.9784
B( 18-C , 19-C ) :   1.5272 B( 19-C , 20-C ) :   1.2391 B( 19-C , 83-H ) :   0.9416
B( 20-C , 21-C ) :   1.3451 B( 20-C , 24-S ) :   1.0860 B( 21-C , 22-C ) :   1.3193
B( 21-C , 84-H ) :   1.0090 B( 22-C , 23-C ) :   1.3705 B( 22-C , 27-C ) :   0.9889
B( 23-C , 24-S ) :   1.1184 B( 23-C , 25-C ) :   1.1970 B( 25-C , 26-C ) :   1.4308
B( 25-C , 35-S ) :   1.1244 B( 26-C , 27-C ) :   0.9892 B( 26-C , 33-C ) :   1.2657
B( 27-C , 28-C ) :   1.7285 B( 28-C , 29-C ) :   1.1350 B( 28-C , 31-C ) :   1.1297
B( 29-C , 30-N ) :   2.9926 B( 31-C , 32-N ) :   2.9955 B( 33-C , 34-C ) :   1.4428
B( 33-C , 85-H ) :   1.0101 B( 34-C , 35-S ) :   1.1093 B( 34-C , 36-C ) :   1.0747
B( 36-C , 37-C ) :   1.4520 B( 36-C , 43-O ) :   1.2170 B( 37-C , 38-C ) :   0.9111
B( 37-C , 41-C ) :   1.1962 B( 38-C , 39-O ) :   2.1092 B( 38-C , 40-O ) :   1.2465
B( 40-O , 86-H ) :   0.9424 B( 41-C , 42-N ) :   1.7295 B( 41-C , 44-C ) :   1.0664
B( 42-N , 43-O ) :   0.9868 B( 44-C , 45-C ) :   1.4639 B( 44-C , 48-S ) :   1.1306
B( 45-C , 46-C ) :   1.2632 B( 45-C , 87-H ) :   1.0117 B( 46-C , 47-C ) :   1.4223
B( 46-C , 51-C ) :   0.9867 B( 47-C , 48-S ) :   1.1145 B( 47-C , 49-C ) :   1.1779
B( 49-C , 50-C ) :   1.4175 B( 49-C , 59-S ) :   1.1569 B( 50-C , 51-C ) :   0.9975
B( 50-C , 57-C ) :   1.3549 B( 51-C , 52-C ) :   1.7204 B( 52-C , 53-C ) :   1.1335
B( 52-C , 55-C ) :   1.1352 B( 53-C , 54-N ) :   3.0021 B( 55-C , 56-N ) :   2.9799
B( 57-C , 58-C ) :   1.3997 B( 57-C , 88-H ) :   0.9786 B( 58-C , 59-S ) :   1.0905
B( 58-C , 60-C ) :   1.1335 B( 60-C , 61-C ) :   1.6742 B( 60-C , 89-H ) :   0.9292
B( 61-C , 62-C ) :   1.0345 B( 61-C , 70-C ) :   0.9435 B( 62-C , 63-C ) :   1.6521
B( 62-C , 68-C ) :   1.0090 B( 63-C , 64-C ) :   1.1263 B( 63-C , 66-C ) :   1.1696
B( 64-C , 65-N ) :   2.9947 B( 66-C , 67-N ) :   2.9968 B( 68-C , 69-C ) :   1.2763
B( 68-C , 75-C ) :   1.4170 B( 69-C , 70-C ) :   0.9232 B( 69-C , 72-C ) :   1.4208
B( 70-C , 71-O ) :   2.2629 B( 72-C , 73-C ) :   1.2529 B( 72-C , 90-H ) :   1.0171
B( 73-C , 74-C ) :   1.3075 B( 73-C , 78-C ) :   1.1632 B( 74-C , 75-C ) :   1.3247
B( 74-C , 76-S ) :   1.0860 B( 75-C , 91-H ) :   0.9843 B( 76-S , 77-C ) :   1.0877
B( 77-C , 78-C ) :   1.6181 B( 77-C , 79-Br) :   1.0195 B( 78-C , 92-H ) :   1.0001

-----------------------------------------------------------------------------
         ABSORPTION SPECTRUM VIA TRANSITION ELECTRIC DIPOLE MOMENTS
-----------------------------------------------------------------------------
State   Energy  Wavelength   fosc         T2         TX        TY        TZ
        (cm-1)    (nm)                  (au**2)     (au)      (au)      (au)
-----------------------------------------------------------------------------
   0   15419.9    648.5   0.340488676   7.26939   2.54293  -0.71031  -0.54623
   1   16064.6    622.5   0.206919356   4.24040  -1.40599   1.25581   0.82857
   2   20907.3    478.3   0.163120615   2.56854   1.46065  -0.50065  -0.42940
   3   21263.9    470.3   0.762657472  11.80759   3.22931  -0.64776  -0.97955
   4   23150.8    432.0   1.173417863  16.68641  -2.62042   2.61143   1.73212
   5   25414.9    393.5   0.094829800   1.22838   0.33889   0.61325   0.85875
   6   26030.4    384.2   0.057252423   0.72408   0.59200  -0.47803   0.38092
   7   27963.5    357.6   0.036763674   0.43282  -0.61870   0.16440   0.15164
   8   28077.3    356.2   0.002374550   0.02784   0.08338   0.04000   0.13889
   9   28293.0    353.4   0.075674733   0.88054   0.01612  -0.78195  -0.51849
  10   28378.4    352.4   0.014211217   0.16486  -0.21704   0.29860   0.16909
  11   28627.0    349.3   0.243292306   2.79788   0.82147  -1.07663  -0.98180
  12   28960.1    345.3   0.369308129   4.19822   2.01102  -0.04825   0.38950
  13   29017.8    344.6   0.042650718   0.48388  -0.11490   0.64704   0.22808
  14   29345.7    340.8   0.136050045   1.52627  -0.01368   0.85582   0.89087
  15   29978.2    333.6   0.119853207   1.31620   1.03656  -0.06314   0.48759
  16   30038.1    332.9   0.243114168   2.66448  -1.30442  -0.70287  -0.68478
  17   30217.3    330.9   0.489364753   5.33155   1.80312  -1.43605  -0.13438
  18   30491.1    328.0   0.063439607   0.68496  -0.03361  -0.81270  -0.15277
  19   30570.0    327.1   0.014282169   0.15381   0.11529   0.28158   0.24744
  20   31166.5    320.9   0.402011229   4.24645  -0.85328  -1.26980  -1.38057
  21   31274.2    319.8   0.148316038   1.56127  -0.54784   0.77682   0.81099
  22   31749.8    315.0   0.581324176   6.02771   1.77893   0.88369   1.44298
  23   31960.6    312.9   0.095291784   0.98156  -0.02901  -0.74681  -0.65038
  24   32434.2    308.3   0.024989968   0.25365   0.28538   0.22782   0.34686
  25   32596.7    306.8   0.423408475   4.27623   2.01554  -0.38544   0.25545
  26   32842.5    304.5   0.149799174   1.50158   0.76568   0.39430   0.87169
  27   32987.6    303.1   0.238167274   2.37688   1.23144  -0.92189   0.10268
  28   33386.2    299.5   0.182870204   1.80323  -1.27459   0.39408   0.15281
  29   33476.4    298.7   0.092686812   0.91150   0.81933  -0.47228  -0.13098
  30   33749.2    296.3   0.049327484   0.48117  -0.65275  -0.18075   0.14971
  31   34240.4    292.1   0.176203378   1.69414  -0.42341  -1.13910  -0.46619
  32   34713.7    288.1   0.108667606   1.03056   0.02030   0.72909   0.70610
  33   34875.2    286.7   0.536461262   5.06404  -1.76014  -0.83265  -1.12812
  34   34950.9    286.1   0.077047713   0.72573   0.66541  -0.30827   0.43351
  35   35383.1    282.6   0.006176283   0.05747  -0.22263  -0.01493  -0.08763
  36   35510.9    281.6   0.047492308   0.44029   0.62226  -0.11787   0.19796
  37   35706.7    280.1   0.008595637   0.07925  -0.08443   0.16962   0.20821
  38   35895.3    278.6   0.100528282   0.92199  -0.41408  -0.64351  -0.58002
  39   36077.0    277.2   0.030755474   0.28065   0.12241  -0.47692  -0.19549
  40   36294.4    275.5   0.068811412   0.62416   0.78681   0.00084  -0.07131
  41   37168.6    269.0   0.009919169   0.08786  -0.27160   0.06524   0.09916
  42   37228.6    268.6   0.028567377   0.25262   0.24760   0.37887   0.21857
  43   37328.2    267.9   0.079103056   0.69764   0.57719  -0.43598  -0.41763
  44   37430.7    267.2   0.058178458   0.51169   0.29759   0.54212   0.35950
  45   38043.0    262.9   0.024700819   0.21375  -0.27373   0.16969  -0.33171
  46   38341.2    260.8   0.012284662   0.10548  -0.31003   0.09633   0.00902
  47   38493.0    259.8   0.026738844   0.22868   0.47043  -0.07837   0.03519
  48   38696.2    258.4   0.023595448   0.20074  -0.34588  -0.13971  -0.24817
  49   39121.6    255.6   0.018185133   0.15303   0.32081  -0.14881  -0.16724
  50   39177.4    255.2   0.085266835   0.71651   0.52598  -0.50495  -0.42997
  51   39565.0    252.7   0.144112304   1.19913   0.33342  -0.77479  -0.69832
  52   39704.3    251.9   0.080993267   0.67156   0.09233  -0.48670  -0.65281
  53   39913.1    250.5   0.014431244   0.11903   0.03908   0.25617   0.22778
  54   40228.4    248.6   0.035621360   0.29151  -0.24910  -0.09622  -0.46926

FINAL SINGLE POINT ENERGY    -10619.141309514369

DIPOLE MOMENT
-------------
                                X             Y             Z
Electronic contribution:    -65.07493     -23.91120     -56.24657
Nuclear contribution   :     64.28709      21.12215      52.37951
                        -----------------------------------------
Total Dipole Moment    :     -0.78784      -2.78905      -3.86707
                        -----------------------------------------
Magnitude (a.u.)       :      4.83256
Magnitude (Debye)      :     12.28340

Rotational constants in cm-1:     0.001198     0.000112     0.000103
Rotational constants in MHz :    35.929034     3.360061     3.098619

                             ****ORCA TERMINATED NORMALLY****
TOTAL RUN TIME: 0 days 0 hours 10 minutes 14 seconds 515 msec
