                         Program Version 4.2.0 -  RELEASE  -
|  1> # ORCA input file
|  2> # SCF done       -211.410561486583          0.000776373582
|  3> ! CAM-B3LYP def2-SVP def2/J RIJCOSX Grid4 TightSCF
|  4> %maxcore 5000
|  5> %tddft
|  6>     Mode sTDDFT
|  7>     Ethresh 5.0
|  8>     maxcore 5000
|  9> end
| 10>
| 11> %pal
| 12>   nprocs 6
| 13>   end
| 14> * xyz 0 1
| 15>    C       -0.53388         2.97913         6.78371
| 16>    C        0.33007         1.99723         6.37562
| 17>    C        1.48532         1.61500         7.09068
| 18>    N        2.43418         1.25680         7.62771
| 19>    C        0.21747         1.24512         5.18672
| 20>    N        0.20559         0.60304         4.23487
| 21>    C       -0.37563         3.79823         7.98116
| 22>    C       -1.41521         4.76105         8.01559
| 23>    C       -1.54001         5.68724         9.02265
| 24>    C       -0.59320         5.66071        10.05152
| 25>    C        0.44160         4.69499        10.01184
| 26>    C        0.56811         3.76084         8.99061
| 27>    S        1.50000         4.83683        11.38137
| 28>    C        0.55218         6.17193        11.98147
| 29>    C       -0.50335         6.49709        11.19710
| 30>   Br        1.04498         7.00961        13.58469
| 31>    C       -2.27932         4.57751         6.84037
| 32>    O       -3.25482         5.24851         6.54848
| 33>    C       -1.73926         3.42724         6.10643
| 34>    C       -2.32268         2.83318         5.01839
| 35>    C       -3.48978         3.17547         4.31505
| 36>    C       -3.97588         2.38230         3.26798
| 37>    C       -5.13736         2.88761         2.71587
| 38>    C       -5.53664         4.09672         3.33243
| 39>    S       -4.50694         4.58640         4.59710
| 40>    C       -6.73078         4.52914         2.70761
| 41>    C       -7.09431         3.60236         1.70990
| 42>    C       -6.09533         2.54587         1.67288
| 43>    C       -6.05035         1.47072         0.83748
| 44>    C       -5.02004         0.50771         0.91662
| 45>    N       -4.19123        -0.28130         0.98181
| 46>    C       -7.00492         1.23312        -0.17645
| 47>    N       -7.74984         1.01552        -1.01946
| 48>    C       -8.28095         3.93657         1.06160
| 49>    C       -8.81197         5.11929         1.55138
| 50>    S       -7.83347         5.82264         2.83024
| 51>    C      -10.00635         5.76085         1.13866
| 52>    C      -10.98735         5.32765         0.27369
| 53>    C      -11.28860         4.14543        -0.54865
| 54>    O      -10.66827         3.12471        -0.71229
| 55>    N      -12.51169         4.43038        -1.15201
| 56>    C      -13.17332         3.51640        -2.05037
| 57>    C      -13.03278         5.66673        -0.80682
| 58>    O      -14.07906         6.12382        -1.20677
| 59>    C      -12.05153         6.24464         0.11359
| 60>    C      -11.92566         7.40818         0.83455
| 61>    S      -10.43007         7.35347         1.75039
| 62>    C      -12.79836         8.52001         0.90042
| 63>    C      -12.59073         9.68938         1.61594
| 64>    C      -13.64892        10.57839         1.46564
| 65>    C      -14.66802        10.07005         0.63482
| 66>    S      -14.32353         8.51395         0.02790
| 67>    C      -15.70528        11.03563         0.56154
| 68>    C      -15.33202        12.15385         1.33383
| 69>    C      -14.03389        11.89919         1.93399
| 70>    C      -13.35274        12.71824         2.78580
| 71>    C      -12.09932        12.36333         3.32664
| 72>    N      -11.07728        12.07418         3.75758
| 73>    C      -13.87307        13.97233         3.16966
| 74>    N      -14.31024        14.99003         3.46639
| 75>    C      -16.30483        13.14395         1.35982
| 76>    C      -17.42976        12.79169         0.62774
| 77>    S      -17.24248        11.21941        -0.14101
| 78>    C      -18.61954        13.52401         0.41979
| 79>    C      -19.11055        14.57695         1.12895
| 80>    C      -18.78200        15.15699         2.41562
| 81>    C      -18.29877        14.50135         3.51811
| 82>    C      -18.13212        15.10684         4.78197
| 83>    N      -17.98241        15.54922         5.82988
| 84>    C      -18.00462        13.12458         3.55292
| 85>    N      -17.77602        12.00253         3.63849
| 86>    C      -19.32549        16.51137         2.42745
| 87>    C      -20.17783        16.67160         1.30539
| 88>    C      -20.14729        15.44135         0.49300
| 89>    O      -20.78183        15.18782        -0.50397
| 90>    C      -20.87449        17.83217         1.06957
| 91>    C      -20.70983        18.88681         1.97370
| 92>    C      -19.83843        18.72363         3.07829
| 93>    C      -19.14185        17.54658         3.32360
| 94>    S      -19.76997        20.15717         4.05573
| 95>    C      -20.90182        20.94432         2.98795
| 96>    C      -21.30932        20.17555         1.94988
| 97>   Br      -21.43600        22.70607         3.34238
| 98>    H       -2.34310         6.40737         9.01774
| 99>    H        1.37310         3.04565         9.00917
|100>    H       -1.19117         7.29313        11.41654
|101>    H       -1.84394         1.94244         4.62942
|102>    H       -3.47916         1.48068         2.95581
|103>    H       -8.75558         3.36444         0.28340
|104>    H      -12.50893         2.66918        -2.21037
|105>    H      -13.38357         4.01507        -2.99667
|106>    H      -14.11340         3.17491        -1.61486
|107>    H      -11.70853         9.86072         2.20711
|108>    H      -16.19673        14.09504         1.84825
|109>    H      -19.20099        13.25638        -0.45746
|110>    H      -21.52526        17.92473         0.21436
|111>    H      -18.48171        17.46883         4.17159
|112>    H      -22.00349        20.50228         1.19739
|113> *
|114>
|115>                          ****END OF INPUT****

CARTESIAN COORDINATES (ANGSTROEM)
---------------------------------
  C     -0.533880    2.979130    6.783710
  C      0.330070    1.997230    6.375620
  C      1.485320    1.615000    7.090680
  N      2.434180    1.256800    7.627710
  C      0.217470    1.245120    5.186720
  N      0.205590    0.603040    4.234870
  C     -0.375630    3.798230    7.981160
  C     -1.415210    4.761050    8.015590
  C     -1.540010    5.687240    9.022650
  C     -0.593200    5.660710   10.051520
  C      0.441600    4.694990   10.011840
  C      0.568110    3.760840    8.990610
  S      1.500000    4.836830   11.381370
  C      0.552180    6.171930   11.981470
  C     -0.503350    6.497090   11.197100
  Br     1.044980    7.009610   13.584690
  C     -2.279320    4.577510    6.840370
  O     -3.254820    5.248510    6.548480
  C     -1.739260    3.427240    6.106430
  C     -2.322680    2.833180    5.018390
  C     -3.489780    3.175470    4.315050
  C     -3.975880    2.382300    3.267980
  C     -5.137360    2.887610    2.715870
  C     -5.536640    4.096720    3.332430
  S     -4.506940    4.586400    4.597100
  C     -6.730780    4.529140    2.707610
  C     -7.094310    3.602360    1.709900
  C     -6.095330    2.545870    1.672880
  C     -6.050350    1.470720    0.837480
  C     -5.020040    0.507710    0.916620
  N     -4.191230   -0.281300    0.981810
  C     -7.004920    1.233120   -0.176450
  N     -7.749840    1.015520   -1.019460
  C     -8.280950    3.936570    1.061600
  C     -8.811970    5.119290    1.551380
  S     -7.833470    5.822640    2.830240
  C    -10.006350    5.760850    1.138660
  C    -10.987350    5.327650    0.273690
  C    -11.288600    4.145430   -0.548650
  O    -10.668270    3.124710   -0.712290
  N    -12.511690    4.430380   -1.152010
  C    -13.173320    3.516400   -2.050370
  C    -13.032780    5.666730   -0.806820
  O    -14.079060    6.123820   -1.206770
  C    -12.051530    6.244640    0.113590
  C    -11.925660    7.408180    0.834550
  S    -10.430070    7.353470    1.750390
  C    -12.798360    8.520010    0.900420
  C    -12.590730    9.689380    1.615940
  C    -13.648920   10.578390    1.465640
  C    -14.668020   10.070050    0.634820
  S    -14.323530    8.513950    0.027900
  C    -15.705280   11.035630    0.561540
  C    -15.332020   12.153850    1.333830
  C    -14.033890   11.899190    1.933990
  C    -13.352740   12.718240    2.785800
  C    -12.099320   12.363330    3.326640
  N    -11.077280   12.074180    3.757580
  C    -13.873070   13.972330    3.169660
  N    -14.310240   14.990030    3.466390
  C    -16.304830   13.143950    1.359820
  C    -17.429760   12.791690    0.627740
  S    -17.242480   11.219410   -0.141010
  C    -18.619540   13.524010    0.419790
  C    -19.110550   14.576950    1.128950
  C    -18.782000   15.156990    2.415620
  C    -18.298770   14.501350    3.518110
  C    -18.132120   15.106840    4.781970
  N    -17.982410   15.549220    5.829880
  C    -18.004620   13.124580    3.552920
  N    -17.776020   12.002530    3.638490
  C    -19.325490   16.511370    2.427450
  C    -20.177830   16.671600    1.305390
  C    -20.147290   15.441350    0.493000
  O    -20.781830   15.187820   -0.503970
  C    -20.874490   17.832170    1.069570
  C    -20.709830   18.886810    1.973700
  C    -19.838430   18.723630    3.078290
  C    -19.141850   17.546580    3.323600
  S    -19.769970   20.157170    4.055730
  C    -20.901820   20.944320    2.987950
  C    -21.309320   20.175550    1.949880
  Br   -21.436000   22.706070    3.342380
  H     -2.343100    6.407370    9.017740
  H      1.373100    3.045650    9.009170
  H     -1.191170    7.293130   11.416540
  H     -1.843940    1.942440    4.629420
  H     -3.479160    1.480680    2.955810
  H     -8.755580    3.364440    0.283400
  H    -12.508930    2.669180   -2.210370
  H    -13.383570    4.015070   -2.996670
  H    -14.113400    3.174910   -1.614860
  H    -11.708530    9.860720    2.207110
  H    -16.196730   14.095040    1.848250
  H    -19.200990   13.256380   -0.457460
  H    -21.525260   17.924730    0.214360
  H    -18.481710   17.468830    4.171590
  H    -22.003490   20.502280    1.197390

 Total Charge           Charge          ....    0
 Multiplicity           Mult            ....    1
 Number of Electrons    NEL             ....  658
 Basis Dimension        Dim             .... 1301

ORBITAL ENERGIES
----------------

  NO   OCC          E(Eh)            E(eV)
   0   2.0000    -482.889506    -13140.0915
   1   2.0000    -482.887952    -13140.0492
   2   2.0000     -89.003386     -2421.9053
   3   2.0000     -89.000993     -2421.8401
   4   2.0000     -88.998731     -2421.7786
   5   2.0000     -88.997368     -2421.7415
   6   2.0000     -88.995282     -2421.6847
   7   2.0000     -88.980582     -2421.2847
   8   2.0000     -88.978490     -2421.2278
   9   2.0000     -62.567203     -1702.5401
  10   2.0000     -62.565648     -1702.4978
  11   2.0000     -56.401161     -1534.7536
  12   2.0000     -56.399602     -1534.7112
  13   2.0000     -56.398431     -1534.6793
  14   2.0000     -56.398402     -1534.6785
  15   2.0000     -56.396881     -1534.6372
  16   2.0000     -56.396849     -1534.6363
  17   2.0000     -19.231450      -523.3144
  18   2.0000     -19.227787      -523.2147
  19   2.0000     -19.226985      -523.1929
  20   2.0000     -19.220467      -523.0155
  21   2.0000     -14.471810      -393.7980
  22   2.0000     -14.437987      -392.8776
  23   2.0000     -14.437893      -392.8750
  24   2.0000     -14.433272      -392.7493
  25   2.0000     -14.430829      -392.6828
  26   2.0000     -14.422425      -392.4541
  27   2.0000     -14.421227      -392.4215
  28   2.0000     -14.419130      -392.3645
  29   2.0000     -14.417964      -392.3327
  30   2.0000     -10.410308      -283.2789
  31   2.0000     -10.409638      -283.2607
  32   2.0000     -10.378950      -282.4256
  33   2.0000     -10.372501      -282.2501
  34   2.0000     -10.371657      -282.2271
  35   2.0000     -10.370415      -282.1933
  36   2.0000     -10.363666      -282.0097
  37   2.0000     -10.361694      -281.9560
  38   2.0000     -10.360411      -281.9211
  39   2.0000     -10.357402      -281.8392
  40   2.0000     -10.356547      -281.8160
  41   2.0000     -10.355635      -281.7911
  42   2.0000     -10.348912      -281.6082
  43   2.0000     -10.348212      -281.5892
  44   2.0000     -10.348049      -281.5847
  45   2.0000     -10.347470      -281.5690
  46   2.0000     -10.347460      -281.5687
  47   2.0000     -10.344108      -281.4775
  48   2.0000     -10.343273      -281.4548
  49   2.0000     -10.342254      -281.4270
  50   2.0000     -10.339811      -281.3606
  51   2.0000     -10.338709      -281.3306
  52   2.0000     -10.338232      -281.3176
  53   2.0000     -10.338152      -281.3154
  54   2.0000     -10.333132      -281.1788
  55   2.0000     -10.332923      -281.1731
  56   2.0000     -10.332768      -281.1689
  57   2.0000     -10.332580      -281.1638
  58   2.0000     -10.331146      -281.1248
  59   2.0000     -10.329690      -281.0851
  60   2.0000     -10.329593      -281.0825
  61   2.0000     -10.329410      -281.0775
  62   2.0000     -10.323764      -280.9239
  63   2.0000     -10.323527      -280.9175
  64   2.0000     -10.321955      -280.8747
  65   2.0000     -10.320297      -280.8296
  66   2.0000     -10.317629      -280.7570
  67   2.0000     -10.317256      -280.7468
  68   2.0000     -10.316784      -280.7340
  69   2.0000     -10.316615      -280.7294
  70   2.0000     -10.315264      -280.6926
  71   2.0000     -10.314273      -280.6656
  72   2.0000     -10.313618      -280.6478
  73   2.0000     -10.313174      -280.6357
  74   2.0000     -10.313128      -280.6345
  75   2.0000     -10.313041      -280.6321
  76   2.0000     -10.311856      -280.5999
  77   2.0000     -10.311412      -280.5878
  78   2.0000     -10.311136      -280.5803
  79   2.0000     -10.311056      -280.5781
  80   2.0000     -10.310112      -280.5524
  81   2.0000     -10.309659      -280.5401
  82   2.0000     -10.309398      -280.5330
  83   2.0000     -10.307978      -280.4943
  84   2.0000     -10.305929      -280.4386
  85   2.0000     -10.305863      -280.4368
  86   2.0000     -10.305487      -280.4266
  87   2.0000     -10.301367      -280.3145
  88   2.0000     -10.299463      -280.2626
  89   2.0000     -10.299217      -280.2559
  90   2.0000     -10.297398      -280.2064
  91   2.0000      -8.796625      -239.3683
  92   2.0000      -8.795072      -239.3261
  93   2.0000      -8.098103      -220.3606
  94   2.0000      -8.095693      -220.2950
  95   2.0000      -8.092429      -220.2062
  96   2.0000      -8.092177      -220.1993
  97   2.0000      -8.087581      -220.0743
  98   2.0000      -8.076558      -219.7743
  99   2.0000      -8.074499      -219.7183
 100   2.0000      -6.632952      -180.4918
 101   2.0000      -6.631373      -180.4488
 102   2.0000      -6.618357      -180.0946
 103   2.0000      -6.618133      -180.0885
 104   2.0000      -6.616807      -180.0525
 105   2.0000      -6.616601      -180.0469
 106   2.0000      -6.067361      -165.1013
 107   2.0000      -6.064841      -165.0327
 108   2.0000      -6.063121      -164.9859
 109   2.0000      -6.062063      -164.9571
 110   2.0000      -6.061534      -164.9427
 111   2.0000      -6.060646      -164.9186
 112   2.0000      -6.060481      -164.9141
 113   2.0000      -6.058228      -164.8528
 114   2.0000      -6.057664      -164.8374
 115   2.0000      -6.057024      -164.8200
 116   2.0000      -6.057022      -164.8199
 117   2.0000      -6.054527      -164.7521
 118   2.0000      -6.054076      -164.7398
 119   2.0000      -6.052224      -164.6894
 120   2.0000      -6.050129      -164.6324
 121   2.0000      -6.046222      -164.5261
 122   2.0000      -6.044191      -164.4708
 123   2.0000      -6.041960      -164.4101
 124   2.0000      -6.039897      -164.3539
 125   2.0000      -6.037810      -164.2972
 126   2.0000      -6.035728      -164.2405
 127   2.0000      -2.748822       -74.7993
 128   2.0000      -2.747272       -74.7571
 129   2.0000      -2.744711       -74.6874
 130   2.0000      -2.744576       -74.6837
 131   2.0000      -2.743154       -74.6450
 132   2.0000      -2.742987       -74.6405
 133   2.0000      -2.732960       -74.3676
 134   2.0000      -2.732938       -74.3670
 135   2.0000      -2.731410       -74.3255
 136   2.0000      -2.731408       -74.3254
 137   2.0000      -1.174075       -31.9482
 138   2.0000      -1.150818       -31.3154
 139   2.0000      -1.147106       -31.2144
 140   2.0000      -1.136248       -30.9189
 141   2.0000      -1.066056       -29.0089
 142   2.0000      -1.055732       -28.7279
 143   2.0000      -1.053686       -28.6722
 144   2.0000      -1.030933       -28.0531
 145   2.0000      -1.028876       -27.9971
 146   2.0000      -1.028685       -27.9920
 147   2.0000      -1.026911       -27.9437
 148   2.0000      -1.023772       -27.8582
 149   2.0000      -1.018593       -27.7173
 150   2.0000      -1.017891       -27.6982
 151   2.0000      -1.015655       -27.6374
 152   2.0000      -1.010038       -27.4845
 153   2.0000      -1.008506       -27.4428
 154   2.0000      -1.001262       -27.2457
 155   2.0000      -0.999019       -27.1847
 156   2.0000      -0.998359       -27.1667
 157   2.0000      -0.995770       -27.0963
 158   2.0000      -0.993586       -27.0368
 159   2.0000      -0.970253       -26.4019
 160   2.0000      -0.965352       -26.2686
 161   2.0000      -0.948229       -25.8026
 162   2.0000      -0.947138       -25.7729
 163   2.0000      -0.931196       -25.3391
 164   2.0000      -0.925820       -25.1929
 165   2.0000      -0.914265       -24.8784
 166   2.0000      -0.912729       -24.8366
 167   2.0000      -0.909780       -24.7564
 168   2.0000      -0.906536       -24.6681
 169   2.0000      -0.898750       -24.4562
 170   2.0000      -0.891600       -24.2617
 171   2.0000      -0.889780       -24.2121
 172   2.0000      -0.888309       -24.1721
 173   2.0000      -0.880227       -23.9522
 174   2.0000      -0.877407       -23.8755
 175   2.0000      -0.867721       -23.6119
 176   2.0000      -0.865430       -23.5495
 177   2.0000      -0.863940       -23.5090
 178   2.0000      -0.855020       -23.2663
 179   2.0000      -0.835065       -22.7233
 180   2.0000      -0.833127       -22.6705
 181   2.0000      -0.818629       -22.2760
 182   2.0000      -0.813887       -22.1470
 183   2.0000      -0.805055       -21.9067
 184   2.0000      -0.791715       -21.5437
 185   2.0000      -0.786754       -21.4087
 186   2.0000      -0.780135       -21.2285
 187   2.0000      -0.778459       -21.1829
 188   2.0000      -0.768040       -20.8994
 189   2.0000      -0.766179       -20.8488
 190   2.0000      -0.753563       -20.5055
 191   2.0000      -0.741179       -20.1685
 192   2.0000      -0.725486       -19.7415
 193   2.0000      -0.716396       -19.4941
 194   2.0000      -0.713103       -19.4045
 195   2.0000      -0.707628       -19.2555
 196   2.0000      -0.702958       -19.1285
 197   2.0000      -0.700828       -19.0705
 198   2.0000      -0.697059       -18.9679
 199   2.0000      -0.695405       -18.9229
 200   2.0000      -0.693118       -18.8607
 201   2.0000      -0.689197       -18.7540
 202   2.0000      -0.681762       -18.5517
 203   2.0000      -0.681110       -18.5339
 204   2.0000      -0.666300       -18.1310
 205   2.0000      -0.664374       -18.0785
 206   2.0000      -0.656972       -17.8771
 207   2.0000      -0.646913       -17.6034
 208   2.0000      -0.643960       -17.5231
 209   2.0000      -0.638043       -17.3620
 210   2.0000      -0.635747       -17.2996
 211   2.0000      -0.629831       -17.1386
 212   2.0000      -0.629562       -17.1312
 213   2.0000      -0.626768       -17.0552
 214   2.0000      -0.623490       -16.9660
 215   2.0000      -0.620145       -16.8750
 216   2.0000      -0.608271       -16.5519
 217   2.0000      -0.604610       -16.4523
 218   2.0000      -0.600770       -16.3478
 219   2.0000      -0.598751       -16.2928
 220   2.0000      -0.593981       -16.1630
 221   2.0000      -0.589554       -16.0426
 222   2.0000      -0.586047       -15.9471
 223   2.0000      -0.577914       -15.7258
 224   2.0000      -0.574791       -15.6409
 225   2.0000      -0.566425       -15.4132
 226   2.0000      -0.559765       -15.2320
 227   2.0000      -0.557932       -15.1821
 228   2.0000      -0.556915       -15.1544
 229   2.0000      -0.556316       -15.1381
 230   2.0000      -0.552909       -15.0454
 231   2.0000      -0.550247       -14.9730
 232   2.0000      -0.548879       -14.9358
 233   2.0000      -0.545734       -14.8502
 234   2.0000      -0.543466       -14.7885
 235   2.0000      -0.541565       -14.7367
 236   2.0000      -0.539082       -14.6692
 237   2.0000      -0.537272       -14.6199
 238   2.0000      -0.531744       -14.4695
 239   2.0000      -0.529843       -14.4178
 240   2.0000      -0.528107       -14.3705
 241   2.0000      -0.527088       -14.3428
 242   2.0000      -0.524129       -14.2623
 243   2.0000      -0.518699       -14.1145
 244   2.0000      -0.517252       -14.0751
 245   2.0000      -0.515619       -14.0307
 246   2.0000      -0.514057       -13.9882
 247   2.0000      -0.512366       -13.9422
 248   2.0000      -0.511067       -13.9069
 249   2.0000      -0.509814       -13.8727
 250   2.0000      -0.506437       -13.7809
 251   2.0000      -0.506226       -13.7751
 252   2.0000      -0.503361       -13.6972
 253   2.0000      -0.502602       -13.6765
 254   2.0000      -0.501604       -13.6493
 255   2.0000      -0.498876       -13.5751
 256   2.0000      -0.498047       -13.5525
 257   2.0000      -0.496049       -13.4982
 258   2.0000      -0.494196       -13.4478
 259   2.0000      -0.490972       -13.3600
 260   2.0000      -0.489265       -13.3136
 261   2.0000      -0.486967       -13.2510
 262   2.0000      -0.486382       -13.2351
 263   2.0000      -0.481164       -13.0931
 264   2.0000      -0.478787       -13.0285
 265   2.0000      -0.476109       -12.9556
 266   2.0000      -0.475743       -12.9456
 267   2.0000      -0.473039       -12.8721
 268   2.0000      -0.468773       -12.7559
 269   2.0000      -0.465692       -12.6721
 270   2.0000      -0.465191       -12.6585
 271   2.0000      -0.462162       -12.5761
 272   2.0000      -0.461688       -12.5632
 273   2.0000      -0.457688       -12.4543
 274   2.0000      -0.456161       -12.4128
 275   2.0000      -0.455244       -12.3878
 276   2.0000      -0.454884       -12.3780
 277   2.0000      -0.453138       -12.3305
 278   2.0000      -0.451332       -12.2814
 279   2.0000      -0.450782       -12.2664
 280   2.0000      -0.448062       -12.1924
 281   2.0000      -0.447935       -12.1889
 282   2.0000      -0.447175       -12.1683
 283   2.0000      -0.446553       -12.1513
 284   2.0000      -0.444906       -12.1065
 285   2.0000      -0.444795       -12.1035
 286   2.0000      -0.442147       -12.0314
 287   2.0000      -0.441565       -12.0156
 288   2.0000      -0.441228       -12.0064
 289   2.0000      -0.440816       -11.9952
 290   2.0000      -0.438764       -11.9394
 291   2.0000      -0.433529       -11.7969
 292   2.0000      -0.433028       -11.7833
 293   2.0000      -0.431719       -11.7477
 294   2.0000      -0.430749       -11.7213
 295   2.0000      -0.428605       -11.6629
 296   2.0000      -0.427243       -11.6259
 297   2.0000      -0.421921       -11.4811
 298   2.0000      -0.418176       -11.3791
 299   2.0000      -0.415054       -11.2942
 300   2.0000      -0.414178       -11.2704
 301   2.0000      -0.412049       -11.2124
 302   2.0000      -0.403243       -10.9728
 303   2.0000      -0.396421       -10.7872
 304   2.0000      -0.393352       -10.7037
 305   2.0000      -0.390539       -10.6271
 306   2.0000      -0.384666       -10.4673
 307   2.0000      -0.378735       -10.3059
 308   2.0000      -0.378100       -10.2886
 309   2.0000      -0.377219       -10.2647
 310   2.0000      -0.371809       -10.1174
 311   2.0000      -0.367376        -9.9968
 312   2.0000      -0.360588        -9.8121
 313   2.0000      -0.359954        -9.7948
 314   2.0000      -0.358572        -9.7573
 315   2.0000      -0.356283        -9.6949
 316   2.0000      -0.348572        -9.4851
 317   2.0000      -0.347254        -9.4493
 318   2.0000      -0.345345        -9.3973
 319   2.0000      -0.337645        -9.1878
 320   2.0000      -0.330604        -8.9962
 321   2.0000      -0.328108        -8.9283
 322   2.0000      -0.321545        -8.7497
 323   2.0000      -0.318819        -8.6755
 324   2.0000      -0.315292        -8.5795
 325   2.0000      -0.299032        -8.1371
 326   2.0000      -0.297601        -8.0981
 327   2.0000      -0.281502        -7.6601
 328   2.0000      -0.258551        -7.0355
 329   0.0000      -0.121035        -3.2935
 330   0.0000      -0.114414        -3.1134
 331   0.0000      -0.093754        -2.5512
 332   0.0000      -0.092241        -2.5100
 333   0.0000      -0.073055        -1.9879

MULLIKEN ATOMIC CHARGES
-----------------------
   0 C :    0.318298
   1 C :   -0.346502
   2 C :   -0.186578
   3 N :    0.154439
   4 C :   -0.195972
   5 N :    0.156833
   6 C :    0.013738
   7 C :   -0.013233
   8 C :   -0.068736
   9 C :    0.116652
  10 C :   -0.092007
  11 C :   -0.019459
  12 S :    0.190666
  13 C :   -0.122601
  14 C :    0.037773
  15 Br:    0.028066
  16 C :    0.164244
  17 O :   -0.189038
  18 C :   -0.084447
  19 C :   -0.028716
  20 C :   -0.054899
  21 C :   -0.057294
  22 C :    0.048365
  23 C :   -0.073076
  24 S :    0.246415
  25 C :   -0.102452
  26 C :    0.022863
  27 C :    0.308288
  28 C :   -0.295518
  29 C :   -0.197811
  30 N :    0.186278
  31 C :   -0.196785
  32 N :    0.197706
  33 C :   -0.055397
  34 C :   -0.068100
  35 S :    0.201981
  36 C :   -0.098033
  37 C :   -0.011829
  38 C :    0.199773
  39 O :   -0.153024
  40 N :   -0.305810
  41 C :    0.136097
  42 C :    0.187569
  43 O :   -0.179152
  44 C :   -0.030657
  45 C :   -0.086631
  46 S :    0.166023
  47 C :   -0.074792
  48 C :   -0.075004
  49 C :    0.034993
  50 C :   -0.094416
  51 S :    0.251177
  52 C :   -0.072565
  53 C :   -0.002453
  54 C :    0.302897
  55 C :   -0.290143
  56 C :   -0.190069
  57 N :    0.177927
  58 C :   -0.185149
  59 N :    0.173669
  60 C :   -0.002336
  61 C :   -0.111961
  62 S :    0.222434
  63 C :    0.082228
  64 C :   -0.130395
  65 C :    0.265904
  66 C :   -0.331860
  67 C :   -0.172006
  68 N :    0.161453
  69 C :   -0.201203
  70 N :    0.167878
  71 C :   -0.003778
  72 C :    0.008005
  73 C :    0.132388
  74 O :   -0.142890
  75 C :   -0.072839
  76 C :    0.111850
  77 C :   -0.087029
  78 C :   -0.019046
  79 S :    0.190018
  80 C :   -0.125386
  81 C :    0.041365
  82 Br:    0.026126
  83 H :   -0.007811
  84 H :   -0.003803
  85 H :   -0.001830
  86 H :    0.018964
  87 H :    0.028127
  88 H :    0.030280
  89 H :    0.061801
  90 H :    0.042591
  91 H :    0.041978
  92 H :    0.014468
  93 H :    0.025698
  94 H :    0.021551
  95 H :   -0.007472
  96 H :    0.004286
  97 H :   -0.002127
Sum of atomic charges:   -0.0000000

LOEWDIN ATOMIC CHARGES
----------------------
   0 C :    0.075867
   1 C :   -0.138492
   2 C :   -0.018137
   3 N :   -0.050295
   4 C :   -0.024027
   5 N :   -0.045082
   6 C :   -0.019877
   7 C :   -0.052136
   8 C :    0.023449
   9 C :   -0.032561
  10 C :   -0.143061
  11 C :   -0.008291
  12 S :    0.436934
  13 C :   -0.270468
  14 C :   -0.070203
  15 Br:    0.140362
  16 C :    0.086578
  17 O :   -0.173721
  18 C :   -0.107929
  19 C :    0.056361
  20 C :   -0.181813
  21 C :    0.011226
  22 C :   -0.073068
  23 C :   -0.172081
  24 S :    0.549516
  25 C :   -0.178819
  26 C :   -0.056442
  27 C :    0.073125
  28 C :   -0.092296
  29 C :   -0.018502
  30 N :   -0.023033
  31 C :   -0.024471
  32 N :   -0.013304
  33 C :   -0.006227
  34 C :   -0.184440
  35 S :    0.479620
  36 C :   -0.144237
  37 C :   -0.092117
  38 C :    0.094226
  39 O :   -0.147367
  40 N :   -0.033116
  41 C :    0.038349
  42 C :    0.083655
  43 O :   -0.175456
  44 C :   -0.103480
  45 C :   -0.143253
  46 S :    0.450007
  47 C :   -0.185199
  48 C :   -0.025542
  49 C :   -0.061852
  50 C :   -0.181562
  51 S :    0.542904
  52 C :   -0.160627
  53 C :   -0.063995
  54 C :    0.082676
  55 C :   -0.098836
  56 C :   -0.016521
  57 N :   -0.031103
  58 C :   -0.013149
  59 N :   -0.031555
  60 C :    0.007973
  61 C :   -0.180060
  62 S :    0.505590
  63 C :    0.041491
  64 C :   -0.088709
  65 C :    0.065719
  66 C :   -0.136486
  67 C :   -0.019406
  68 N :   -0.044507
  69 C :   -0.015757
  70 N :   -0.046360
  71 C :   -0.017695
  72 C :   -0.053735
  73 C :    0.083758
  74 O :   -0.142013
  75 C :    0.023618
  76 C :   -0.032772
  77 C :   -0.142149
  78 C :   -0.009187
  79 S :    0.436018
  80 C :   -0.271224
  81 C :   -0.070091
  82 Br:    0.138955
  83 H :    0.041670
  84 H :    0.041865
  85 H :    0.039417
  86 H :    0.054155
  87 H :    0.048080
  88 H :    0.043870
  89 H :    0.041498
  90 H :    0.034884
  91 H :    0.033806
  92 H :    0.037456
  93 H :    0.042553
  94 H :    0.046251
  95 H :    0.041997
  96 H :    0.043140
  97 H :    0.039277

  Mayer bond orders larger than 0.100000
B(  0-C ,  1-C ) :   1.6309 B(  0-C ,  6-C ) :   1.0019 B(  0-C , 18-C ) :   1.0713
B(  1-C ,  2-C ) :   1.1449 B(  1-C ,  4-C ) :   1.1426 B(  2-C ,  3-N ) :   2.9684
B(  4-C ,  5-N ) :   2.9679 B(  6-C ,  7-C ) :   1.2726 B(  6-C , 11-C ) :   1.4150
B(  7-C ,  8-C ) :   1.4197 B(  7-C , 16-C ) :   0.9656 B(  8-C ,  9-C ) :   1.2471
B(  8-C , 83-H ) :   1.0171 B(  9-C , 10-C ) :   1.3027 B(  9-C , 14-C ) :   1.1648
B( 10-C , 11-C ) :   1.3278 B( 10-C , 12-S ) :   1.0896 B( 11-C , 84-H ) :   0.9797
B( 12-S , 13-C ) :   1.0873 B( 13-C , 14-C ) :   1.6153 B( 13-C , 15-Br) :   1.0210
B( 14-C , 85-H ) :   1.0009 B( 16-C , 17-O ) :   2.1104 B( 16-C , 18-C ) :   0.9821
B( 18-C , 19-C ) :   1.5046 B( 19-C , 20-C ) :   1.2581 B( 19-C , 86-H ) :   0.9417
B( 20-C , 21-C ) :   1.3324 B( 20-C , 24-S ) :   1.0759 B( 21-C , 22-C ) :   1.3292
B( 21-C , 87-H ) :   1.0078 B( 22-C , 23-C ) :   1.3605 B( 22-C , 27-C ) :   0.9858
B( 23-C , 24-S ) :   1.1219 B( 23-C , 25-C ) :   1.2067 B( 25-C , 26-C ) :   1.4181
B( 25-C , 35-S ) :   1.1303 B( 26-C , 27-C ) :   0.9933 B( 26-C , 33-C ) :   1.2853
B( 27-C , 28-C ) :   1.7197 B( 28-C , 29-C ) :   1.1376 B( 28-C , 31-C ) :   1.1347
B( 29-C , 30-N ) :   2.9933 B( 31-C , 32-N ) :   3.0020 B( 33-C , 34-C ) :   1.4674
B( 33-C , 88-H ) :   0.9758 B( 34-C , 35-S ) :   1.0906 B( 34-C , 36-C ) :   1.1487
B( 36-C , 37-C ) :   1.5707 B( 36-C , 46-S ) :   1.1082 B( 37-C , 38-C ) :   0.8991
B( 37-C , 44-C ) :   1.2406 B( 38-C , 39-O ) :   2.1259 B( 38-C , 40-N ) :   1.0786
B( 40-N , 41-C ) :   0.9362 B( 40-N , 42-C ) :   1.0939 B( 41-C , 89-H ) :   0.9602
B( 41-C , 90-H ) :   0.9737 B( 41-C , 91-H ) :   0.9774 B( 42-C , 43-O ) :   2.1467
B( 42-C , 44-C ) :   0.9013 B( 44-C , 45-C ) :   1.5259 B( 45-C , 46-S ) :   1.1196
B( 45-C , 47-C ) :   1.1873 B( 47-C , 48-C ) :   1.4168 B( 47-C , 51-S ) :   1.1231
B( 48-C , 49-C ) :   1.3209 B( 48-C , 92-H ) :   0.9908 B( 49-C , 50-C ) :   1.4136
B( 49-C , 54-C ) :   0.9926 B( 50-C , 51-S ) :   1.1116 B( 50-C , 52-C ) :   1.1887
B( 52-C , 53-C ) :   1.4141 B( 52-C , 62-S ) :   1.1565 B( 53-C , 54-C ) :   1.0009
B( 53-C , 60-C ) :   1.3545 B( 54-C , 55-C ) :   1.7172 B( 55-C , 56-C ) :   1.1356
B( 55-C , 58-C ) :   1.1348 B( 56-C , 57-N ) :   2.9936 B( 58-C , 59-N ) :   2.9822
B( 60-C , 61-C ) :   1.4003 B( 60-C , 93-H ) :   0.9790 B( 61-C , 62-S ) :   1.0934
B( 61-C , 63-C ) :   1.1282 B( 63-C , 64-C ) :   1.6814 B( 63-C , 94-H ) :   0.9291
B( 64-C , 65-C ) :   1.0312 B( 64-C , 73-C ) :   0.9417 B( 65-C , 66-C ) :   1.6504
B( 65-C , 71-C ) :   1.0128 B( 66-C , 67-C ) :   1.1245 B( 66-C , 69-C ) :   1.1739
B( 67-C , 68-N ) :   2.9941 B( 69-C , 70-N ) :   2.9955 B( 71-C , 72-C ) :   1.2749
B( 71-C , 78-C ) :   1.4149 B( 72-C , 73-C ) :   0.9214 B( 72-C , 75-C ) :   1.4230
B( 73-C , 74-O ) :   2.2650 B( 75-C , 76-C ) :   1.2526 B( 75-C , 95-H ) :   1.0167
B( 76-C , 77-C ) :   1.3053 B( 76-C , 81-C ) :   1.1641 B( 77-C , 78-C ) :   1.3271
B( 77-C , 79-S ) :   1.0860 B( 78-C , 96-H ) :   0.9838 B( 79-S , 80-C ) :   1.0879
B( 80-C , 81-C ) :   1.6175 B( 80-C , 82-Br) :   1.0208 B( 81-C , 97-H ) :   1.0005

-----------------------------------------------------------------------------
         ABSORPTION SPECTRUM VIA TRANSITION ELECTRIC DIPOLE MOMENTS
-----------------------------------------------------------------------------
State   Energy  Wavelength   fosc         T2         TX        TY        TZ
        (cm-1)    (nm)                  (au**2)     (au)      (au)      (au)
-----------------------------------------------------------------------------
   0   13588.3    735.9   0.604592000  14.64783   3.03549  -2.26384   0.55555
   1   14793.2    676.0   0.262844496   5.84943  -1.97326   0.45552  -1.32219
   2   19764.5    506.0   1.390790389  23.16598  -3.80288   2.93130  -0.33404
   3   21445.8    466.3   0.632079047   9.70297   1.86659   0.43969   2.45468
   4   22369.6    447.0   0.085363237   1.25629   0.54564   0.31154   0.92818
   5   23591.4    423.9   0.093319640   1.30225  -0.98244  -0.12007  -0.56802
   6   25411.5    393.5   0.017283141   0.22391   0.19187  -0.15743  -0.40287
   7   25815.5    387.4   0.191021435   2.43600  -0.62670   1.39565   0.30887
   8   26466.2    377.8   0.233342813   2.90254  -0.91035   1.31747  -0.58145
   9   27255.2    366.9   0.341703013   4.12738  -0.21008   1.69517   1.09984
  10   28101.6    355.9   0.017386732   0.20369  -0.22622  -0.33893  -0.19400
  11   28265.8    353.8   0.048432662   0.56410  -0.01376  -0.74261  -0.11150
  12   28785.6    347.4   0.003402359   0.03891  -0.04813  -0.04081   0.18690
  13   28897.4    346.1   0.008847151   0.10079   0.18163  -0.19153  -0.17640
  14   29270.7    341.6   0.078252839   0.88012   0.09258   0.45536   0.81498
  15   29311.4    341.2   0.100956207   1.13389  -0.29263  -0.89883  -0.49027
  16   29707.5    336.6   0.018178005   0.20144   0.22485   0.36953   0.11974
  17   30049.7    332.8   0.434039739   4.75516   0.10404   1.93865   0.99297
  18   30141.6    331.8   0.243589745   2.66053  -1.02840   1.18553   0.44434
  19   30210.3    331.0   0.012499269   0.13621  -0.26309   0.19423  -0.17108
  20   30341.0    329.6   0.323457085   3.50964   1.19784  -0.15211   1.43237
  21   30768.2    325.0   0.079388233   0.84943   0.85352   0.18459   0.29474
  22   31137.0    321.2   0.247509489   2.61692  -0.81339  -0.72463  -1.19592
  23   31796.3    314.5   0.245371349   2.54052   0.11962   0.95734   1.26874
  24   32369.1    308.9   0.575498153   5.85314   1.12145  -1.92923  -0.93464
  25   32500.3    307.7   0.180338536   1.82674   0.63623  -1.18348   0.14604
  26   32738.8    305.4   0.028415984   0.28574  -0.08805  -0.48428   0.20849
  27   33042.9    302.6   0.148759084   1.48211  -0.65876   0.07415  -1.02110
  28   33542.6    298.1   0.049668288   0.48748  -0.04486   0.69619   0.02817
  29   33619.9    297.4   0.010641331   0.10420   0.12828   0.18121   0.23433
  30   33726.7    296.5   0.051601789   0.50369  -0.53892   0.27393  -0.37178
  31   33796.5    295.9   0.015634272   0.15229   0.09192   0.22123   0.30806
  32   34087.9    293.4   0.100454030   0.97016  -0.49772  -0.50099  -0.68662
  33   34339.2    291.2   0.308327322   2.95595  -0.59142  -1.25695  -1.01304
  34   34574.0    289.2   0.314533293   2.99497  -0.93511   1.35071  -0.54419
  35   34705.1    288.1   0.046946875   0.44534   0.47818  -0.34168  -0.31612
  36   34915.1    286.4   0.005096448   0.04805   0.06854  -0.11279   0.17503
  37   34983.2    285.9   0.109639412   1.03177   0.69628   0.16100   0.72183
  38   35065.8    285.2   0.340886815   3.20039  -0.39397  -1.11808  -1.33980
  39   35246.8    283.7   0.086226624   0.80537   0.56380  -0.69816   0.00842
  40   35818.8    279.2   0.079136377   0.72735  -0.13764  -0.72336  -0.43030
  41   35970.5    278.0   0.006155677   0.05634   0.10148  -0.17412  -0.12539
  42   36011.9    277.7   0.057093183   0.52193   0.54081  -0.45399  -0.15280
  43   36271.1    275.7   0.066118998   0.60012   0.07675   0.60309   0.48011
  44   36432.2    274.5   0.002279298   0.02060  -0.05219  -0.07053  -0.11357
  45   36539.0    273.7   0.013354574   0.12032   0.28088  -0.19901  -0.04273
  46   36875.3    271.2   0.022257993   0.19871  -0.21990   0.29240   0.25468
  47   36919.1    270.9   0.026212611   0.23374  -0.19412   0.24883   0.36625
  48   36952.7    270.6   0.012822468   0.11424   0.17046  -0.17221   0.23564
  49   37373.7    267.6   0.027893288   0.24570   0.37146  -0.21270   0.24995
  50   37603.0    265.9   0.032583124   0.28526  -0.26702   0.42550  -0.18143
  51   37785.4    264.7   0.027817859   0.24237  -0.42316   0.09763  -0.23189
  52   38153.0    262.1   0.022190651   0.19148   0.09186  -0.38515  -0.18628
  53   38240.4    261.5   0.058022830   0.49952  -0.51007   0.26162  -0.41340
  54   38473.3    259.9   0.003304348   0.02827  -0.14331   0.08622  -0.01740
  55   38728.2    258.2   0.028919893   0.24584  -0.43078  -0.06863  -0.23570
  56   39088.0    255.8   0.084698733   0.71336  -0.52342  -0.07177  -0.65897
  57   39266.6    254.7   0.026753205   0.22430   0.33342   0.08453   0.32556
  58   39495.3    253.2   0.114803926   0.95694  -0.66735   0.10230  -0.70790
  59   39647.1    252.2   0.160542042   1.33307  -0.50035   0.91608   0.49347
  60   39849.1    250.9   0.103123323   0.85195  -0.00085  -0.73528  -0.55795
  61   39920.3    250.5   0.053564326   0.44173  -0.52517   0.39193   0.11097
  62   40005.1    250.0   0.042341465   0.34844   0.36331  -0.20226   0.41897
  63   40033.3    249.8   0.080007866   0.65794   0.68454  -0.30744   0.30794

FINAL SINGLE POINT ENERGY    -11057.523247512616

DIPOLE MOMENT
-------------
                                X             Y             Z
Electronic contribution:     10.22864     118.98877     102.81911
Nuclear contribution   :    -12.17214    -116.23852    -103.07777
                        -----------------------------------------
Total Dipole Moment    :     -1.94351       2.75025      -0.25866
                        -----------------------------------------
Magnitude (a.u.)       :      3.37757
Magnitude (Debye)      :      8.58511

Rotational constants in cm-1:     0.000653     0.000131     0.000110
Rotational constants in MHz :    19.573594     3.934422     3.305318

                             ****ORCA TERMINATED NORMALLY****
TOTAL RUN TIME: 0 days 0 hours 10 minutes 28 seconds 448 msec
