                         Program Version 4.2.0 -  RELEASE  -
|  1> # ORCA input file
|  2> # SCF done       -207.483815136270          0.000627998276
|  3> ! CAM-B3LYP def2-SVP def2/J RIJCOSX Grid4 TightSCF
|  4> %maxcore 5000
|  5> %tddft
|  6>     Mode sTDDFT
|  7>     Ethresh 5.0
|  8>     maxcore 5000
|  9> end
| 10>
| 11> %pal
| 12>   nprocs 6
| 13>   end
| 14> * xyz 0 1
| 15>    C       -1.01254         1.85810        -2.37187
| 16>    C       -0.10327         2.85285        -2.11932
| 17>    C        1.26873         2.76776        -2.43950
| 18>    N        2.39117         2.76580        -2.67946
| 19>    C       -0.37495         4.08523        -1.48780
| 20>    N       -0.50329         5.10281        -0.97052
| 21>    C       -0.69333         0.55761        -2.94711
| 22>    C       -1.86149        -0.24154        -2.93510
| 23>    C       -1.88607        -1.53198        -3.40585
| 24>    C       -0.69727        -2.06026        -3.91862
| 25>    C        0.46606        -1.25293        -3.93285
| 26>    C        0.48979         0.05072        -3.45359
| 27>    S        1.82137        -2.09798        -4.61613
| 28>    C        0.82216        -3.50478        -4.86865
| 29>    C       -0.46102        -3.35191        -4.46291
| 30>   Br        1.56681        -5.03964        -5.64616
| 31>    C       -2.98368         0.52753        -2.36678
| 32>    O       -4.11956         0.12613        -2.23340
| 33>    C       -2.43486         1.87238        -2.06294
| 34>    C       -3.12273         2.99605        -1.69653
| 35>    C       -4.46924         3.17292        -1.31920
| 36>    C       -5.48136         2.28068        -0.98772
| 37>    C       -6.66584         2.92906        -0.66730
| 38>    C       -6.56916         4.33719        -0.74728
| 39>    S       -5.01474         4.85327        -1.19028
| 40>    C       -7.83546         4.89338        -0.43987
| 41>    C       -8.73278         3.84307        -0.18469
| 42>    C       -8.01633         2.58016        -0.25953
| 43>    C       -8.49758         1.35577         0.09757
| 44>    C       -7.71228         0.18206         0.08543
| 45>    N       -7.09349        -0.78204         0.09858
| 46>    C       -9.81196         1.20171         0.58375
| 47>    N      -10.87144         1.09614         1.01166
| 48>    C      -10.02114         4.28564         0.10238
| 49>    C      -10.10694         5.66453         0.11979
| 50>    S       -8.57536         6.42363        -0.28632
| 51>    C      -11.24050         6.48294         0.41822
| 52>    C      -12.36313         6.18701         1.17113
| 53>    C      -13.30809         7.26950         1.17496
| 54>    C      -14.53238         7.36558         1.83337
| 55>    C      -15.27960         8.52829         1.71319
| 56>    C      -14.82266         9.61323         0.94710
| 57>    C      -13.60587         9.54149         0.30879
| 58>    C      -12.85776         8.37789         0.42915
| 59>    S      -11.29884         8.08993        -0.27127
| 60>    C      -16.52287         8.62256         2.38237
| 61>    N      -17.52708         8.69599         2.92919
| 62>    C      -12.54192         4.95770         1.90361
| 63>    C      -11.56962         4.24647         2.57430
| 64>    C      -12.05474         3.04611         3.09320
| 65>    C      -13.42416         2.86316         2.85328
| 66>    S      -14.09852         4.14627         1.95362
| 67>    C      -13.82118         1.63143         3.43258
| 68>    C      -12.69629         1.03277         4.03388
| 69>    C      -11.54030         1.87834         3.79025
| 70>    C      -10.22852         1.58800         4.02477
| 71>    C       -9.19722         2.40471         3.51900
| 72>    N       -8.36370         3.03703         3.04726
| 73>    C       -9.82064         0.41904         4.70136
| 74>    N       -9.48338        -0.51520         5.27319
| 75>    C      -12.99281        -0.18840         4.62957
| 76>    C      -14.32242        -0.54692         4.46498
| 77>    S      -15.22393         0.68558         3.58318
| 78>    C      -14.94339        -1.69252         5.01464
| 79>    C      -16.13622        -2.26803         4.70482
| 80>    C      -17.02412        -2.13291         3.56870
| 81>    C      -16.64422        -1.89798         2.27307
| 82>    C      -17.53831        -1.87648         1.18421
| 83>    N      -18.23112        -1.83051         0.27031
| 84>    C      -15.29672        -1.75625         1.88090
| 85>    N      -14.20738        -1.68578         1.52668
| 86>    C      -18.33862        -2.60391         3.98798
| 87>    C      -18.20849        -3.24806         5.24490
| 88>    C      -16.80928        -3.14281         5.70601
| 89>    O      -16.31725        -3.61098         6.70557
| 90>    C      -19.27093        -3.84862         5.87597
| 91>    C      -20.51791        -3.80095         5.24346
| 92>    C      -20.63882        -3.14040         3.99665
| 93>    C      -19.56365        -2.54025         3.35304
| 94>    S      -22.26911        -3.19335         3.40037
| 95>    C      -22.75970        -4.09540         4.80969
| 96>    C      -21.75619        -4.34237         5.68501
| 97>   Br      -24.54943        -4.62375         4.99209
| 98>    H       -2.79420        -2.11341        -3.37773
| 99>    H        1.40094         0.62363        -3.49086
|100>    H       -1.21153        -4.11686        -4.54378
|101>    H       -2.56435         3.92487        -1.71433
|102>    H       -5.34219         1.21499        -1.00195
|103>    H      -10.86183         3.63935         0.26645
|104>    H      -14.90377         6.55268         2.43772
|105>    H      -15.43036        10.50169         0.87235
|106>    H      -13.23283        10.36910        -0.27329
|107>    H      -10.56072         4.59871         2.68477
|108>    H      -12.28521        -0.81523         5.14178
|109>    H      -14.43024        -2.13003         5.86641
|110>    H      -19.14472        -4.34257         6.82651
|111>    H      -19.69997        -2.04367         2.40642
|112>    H      -21.88209        -4.88435         6.60439
|113> *
|114>
|115>                          ****END OF INPUT****

CARTESIAN COORDINATES (ANGSTROEM)
---------------------------------
  C     -1.012540    1.858100   -2.371870
  C     -0.103270    2.852850   -2.119320
  C      1.268730    2.767760   -2.439500
  N      2.391170    2.765800   -2.679460
  C     -0.374950    4.085230   -1.487800
  N     -0.503290    5.102810   -0.970520
  C     -0.693330    0.557610   -2.947110
  C     -1.861490   -0.241540   -2.935100
  C     -1.886070   -1.531980   -3.405850
  C     -0.697270   -2.060260   -3.918620
  C      0.466060   -1.252930   -3.932850
  C      0.489790    0.050720   -3.453590
  S      1.821370   -2.097980   -4.616130
  C      0.822160   -3.504780   -4.868650
  C     -0.461020   -3.351910   -4.462910
  Br     1.566810   -5.039640   -5.646160
  C     -2.983680    0.527530   -2.366780
  O     -4.119560    0.126130   -2.233400
  C     -2.434860    1.872380   -2.062940
  C     -3.122730    2.996050   -1.696530
  C     -4.469240    3.172920   -1.319200
  C     -5.481360    2.280680   -0.987720
  C     -6.665840    2.929060   -0.667300
  C     -6.569160    4.337190   -0.747280
  S     -5.014740    4.853270   -1.190280
  C     -7.835460    4.893380   -0.439870
  C     -8.732780    3.843070   -0.184690
  C     -8.016330    2.580160   -0.259530
  C     -8.497580    1.355770    0.097570
  C     -7.712280    0.182060    0.085430
  N     -7.093490   -0.782040    0.098580
  C     -9.811960    1.201710    0.583750
  N    -10.871440    1.096140    1.011660
  C    -10.021140    4.285640    0.102380
  C    -10.106940    5.664530    0.119790
  S     -8.575360    6.423630   -0.286320
  C    -11.240500    6.482940    0.418220
  C    -12.363130    6.187010    1.171130
  C    -13.308090    7.269500    1.174960
  C    -14.532380    7.365580    1.833370
  C    -15.279600    8.528290    1.713190
  C    -14.822660    9.613230    0.947100
  C    -13.605870    9.541490    0.308790
  C    -12.857760    8.377890    0.429150
  S    -11.298840    8.089930   -0.271270
  C    -16.522870    8.622560    2.382370
  N    -17.527080    8.695990    2.929190
  C    -12.541920    4.957700    1.903610
  C    -11.569620    4.246470    2.574300
  C    -12.054740    3.046110    3.093200
  C    -13.424160    2.863160    2.853280
  S    -14.098520    4.146270    1.953620
  C    -13.821180    1.631430    3.432580
  C    -12.696290    1.032770    4.033880
  C    -11.540300    1.878340    3.790250
  C    -10.228520    1.588000    4.024770
  C     -9.197220    2.404710    3.519000
  N     -8.363700    3.037030    3.047260
  C     -9.820640    0.419040    4.701360
  N     -9.483380   -0.515200    5.273190
  C    -12.992810   -0.188400    4.629570
  C    -14.322420   -0.546920    4.464980
  S    -15.223930    0.685580    3.583180
  C    -14.943390   -1.692520    5.014640
  C    -16.136220   -2.268030    4.704820
  C    -17.024120   -2.132910    3.568700
  C    -16.644220   -1.897980    2.273070
  C    -17.538310   -1.876480    1.184210
  N    -18.231120   -1.830510    0.270310
  C    -15.296720   -1.756250    1.880900
  N    -14.207380   -1.685780    1.526680
  C    -18.338620   -2.603910    3.987980
  C    -18.208490   -3.248060    5.244900
  C    -16.809280   -3.142810    5.706010
  O    -16.317250   -3.610980    6.705570
  C    -19.270930   -3.848620    5.875970
  C    -20.517910   -3.800950    5.243460
  C    -20.638820   -3.140400    3.996650
  C    -19.563650   -2.540250    3.353040
  S    -22.269110   -3.193350    3.400370
  C    -22.759700   -4.095400    4.809690
  C    -21.756190   -4.342370    5.685010
  Br   -24.549430   -4.623750    4.992090
  H     -2.794200   -2.113410   -3.377730
  H      1.400940    0.623630   -3.490860
  H     -1.211530   -4.116860   -4.543780
  H     -2.564350    3.924870   -1.714330
  H     -5.342190    1.214990   -1.001950
  H    -10.861830    3.639350    0.266450
  H    -14.903770    6.552680    2.437720
  H    -15.430360   10.501690    0.872350
  H    -13.232830   10.369100   -0.273290
  H    -10.560720    4.598710    2.684770
  H    -12.285210   -0.815230    5.141780
  H    -14.430240   -2.130030    5.866410
  H    -19.144720   -4.342570    6.826510
  H    -19.699970   -2.043670    2.406420
  H    -21.882090   -4.884350    6.604390

 Total Charge           Charge          ....    0
 Multiplicity           Mult            ....    1
 Number of Electrons    NEL             ....  654
 Basis Dimension        Dim             .... 1301

ORBITAL ENERGIES
----------------

  NO   OCC          E(Eh)            E(eV)
   0   2.0000    -482.887631    -13140.0405
   1   2.0000    -482.886189    -13140.0012
   2   2.0000     -89.004905     -2421.9466
   3   2.0000     -89.002695     -2421.8865
   4   2.0000     -88.999773     -2421.8070
   5   2.0000     -88.998292     -2421.7666
   6   2.0000     -88.985315     -2421.4135
   7   2.0000     -88.978177     -2421.2193
   8   2.0000     -88.976660     -2421.1780
   9   2.0000     -62.565330     -1702.4892
  10   2.0000     -62.563905     -1702.4504
  11   2.0000     -56.399287     -1534.7026
  12   2.0000     -56.397857     -1534.6637
  13   2.0000     -56.396561     -1534.6284
  14   2.0000     -56.396532     -1534.6277
  15   2.0000     -56.395134     -1534.5896
  16   2.0000     -56.395106     -1534.5888
  17   2.0000     -19.221764      -523.0508
  18   2.0000     -19.217911      -522.9459
  19   2.0000     -14.441856      -392.9829
  20   2.0000     -14.441565      -392.9750
  21   2.0000     -14.433409      -392.7530
  22   2.0000     -14.431323      -392.6962
  23   2.0000     -14.419878      -392.3848
  24   2.0000     -14.419813      -392.3831
  25   2.0000     -14.416739      -392.2994
  26   2.0000     -14.416686      -392.2980
  27   2.0000     -14.412284      -392.1782
  28   2.0000     -10.372877      -282.2603
  29   2.0000     -10.371476      -282.2222
  30   2.0000     -10.369714      -282.1743
  31   2.0000     -10.368985      -282.1544
  32   2.0000     -10.361281      -281.9448
  33   2.0000     -10.360035      -281.9109
  34   2.0000     -10.358481      -281.8686
  35   2.0000     -10.358288      -281.8633
  36   2.0000     -10.350263      -281.6450
  37   2.0000     -10.347919      -281.5812
  38   2.0000     -10.347648      -281.5738
  39   2.0000     -10.347204      -281.5617
  40   2.0000     -10.346564      -281.5443
  41   2.0000     -10.345086      -281.5041
  42   2.0000     -10.345056      -281.5033
  43   2.0000     -10.344511      -281.4885
  44   2.0000     -10.343889      -281.4715
  45   2.0000     -10.342491      -281.4335
  46   2.0000     -10.342445      -281.4322
  47   2.0000     -10.339738      -281.3586
  48   2.0000     -10.339145      -281.3424
  49   2.0000     -10.335934      -281.2551
  50   2.0000     -10.333327      -281.1841
  51   2.0000     -10.332164      -281.1525
  52   2.0000     -10.330631      -281.1108
  53   2.0000     -10.330624      -281.1106
  54   2.0000     -10.330381      -281.1039
  55   2.0000     -10.329069      -281.0683
  56   2.0000     -10.328958      -281.0652
  57   2.0000     -10.327282      -281.0196
  58   2.0000     -10.327066      -281.0138
  59   2.0000     -10.324502      -280.9440
  60   2.0000     -10.322805      -280.8978
  61   2.0000     -10.322226      -280.8821
  62   2.0000     -10.319731      -280.8141
  63   2.0000     -10.318223      -280.7731
  64   2.0000     -10.317653      -280.7576
  65   2.0000     -10.317233      -280.7462
  66   2.0000     -10.315826      -280.7079
  67   2.0000     -10.314574      -280.6738
  68   2.0000     -10.313891      -280.6552
  69   2.0000     -10.313769      -280.6519
  70   2.0000     -10.312611      -280.6204
  71   2.0000     -10.312259      -280.6108
  72   2.0000     -10.311582      -280.5924
  73   2.0000     -10.311412      -280.5878
  74   2.0000     -10.311037      -280.5776
  75   2.0000     -10.310562      -280.5647
  76   2.0000     -10.310394      -280.5601
  77   2.0000     -10.310128      -280.5528
  78   2.0000     -10.309999      -280.5493
  79   2.0000     -10.309606      -280.5387
  80   2.0000     -10.309414      -280.5334
  81   2.0000     -10.309021      -280.5227
  82   2.0000     -10.307325      -280.4766
  83   2.0000     -10.305126      -280.4167
  84   2.0000     -10.304586      -280.4020
  85   2.0000     -10.302257      -280.3387
  86   2.0000     -10.301713      -280.3239
  87   2.0000     -10.298994      -280.2499
  88   2.0000     -10.297486      -280.2088
  89   2.0000     -10.296626      -280.1854
  90   2.0000     -10.293939      -280.1123
  91   2.0000      -8.794751      -239.3173
  92   2.0000      -8.793339      -239.2789
  93   2.0000      -8.099463      -220.3976
  94   2.0000      -8.096873      -220.3271
  95   2.0000      -8.094502      -220.2626
  96   2.0000      -8.092499      -220.2081
  97   2.0000      -8.081447      -219.9073
  98   2.0000      -8.074251      -219.7115
  99   2.0000      -8.072657      -219.6682
 100   2.0000      -6.631077      -180.4408
 101   2.0000      -6.629655      -180.4021
 102   2.0000      -6.616483      -180.0437
 103   2.0000      -6.616256      -180.0375
 104   2.0000      -6.615079      -180.0054
 105   2.0000      -6.614851      -179.9993
 106   2.0000      -6.068739      -165.1388
 107   2.0000      -6.066065      -165.0660
 108   2.0000      -6.064494      -165.0233
 109   2.0000      -6.063593      -164.9988
 110   2.0000      -6.061854      -164.9514
 111   2.0000      -6.061829      -164.9508
 112   2.0000      -6.061736      -164.9482
 113   2.0000      -6.059465      -164.8864
 114   2.0000      -6.059425      -164.8853
 115   2.0000      -6.057497      -164.8329
 116   2.0000      -6.057089      -164.8218
 117   2.0000      -6.054951      -164.7636
 118   2.0000      -6.050990      -164.6558
 119   2.0000      -6.046880      -164.5440
 120   2.0000      -6.043950      -164.4642
 121   2.0000      -6.042821      -164.4335
 122   2.0000      -6.042319      -164.4199
 123   2.0000      -6.039661      -164.3475
 124   2.0000      -6.038078      -164.3044
 125   2.0000      -6.035439      -164.2326
 126   2.0000      -6.033887      -164.1904
 127   2.0000      -2.746932       -74.7478
 128   2.0000      -2.745534       -74.7098
 129   2.0000      -2.742834       -74.6363
 130   2.0000      -2.742719       -74.6332
 131   2.0000      -2.741425       -74.5980
 132   2.0000      -2.741281       -74.5940
 133   2.0000      -2.731091       -74.3168
 134   2.0000      -2.731072       -74.3162
 135   2.0000      -2.729689       -74.2786
 136   2.0000      -2.729663       -74.2779
 137   2.0000      -1.137517       -30.9534
 138   2.0000      -1.133630       -30.8476
 139   2.0000      -1.057271       -28.7698
 140   2.0000      -1.053902       -28.6781
 141   2.0000      -1.035418       -28.1752
 142   2.0000      -1.030826       -28.0502
 143   2.0000      -1.028957       -27.9993
 144   2.0000      -1.026659       -27.9368
 145   2.0000      -1.025256       -27.8986
 146   2.0000      -1.016782       -27.6681
 147   2.0000      -1.015939       -27.6451
 148   2.0000      -1.014291       -27.6002
 149   2.0000      -1.012722       -27.5576
 150   2.0000      -1.009452       -27.4686
 151   2.0000      -1.006826       -27.3971
 152   2.0000      -0.998716       -27.1764
 153   2.0000      -0.997106       -27.1326
 154   2.0000      -0.996177       -27.1074
 155   2.0000      -0.992913       -27.0185
 156   2.0000      -0.992035       -26.9946
 157   2.0000      -0.972662       -26.4675
 158   2.0000      -0.968143       -26.3445
 159   2.0000      -0.958105       -26.0714
 160   2.0000      -0.946111       -25.7450
 161   2.0000      -0.945352       -25.7243
 162   2.0000      -0.927739       -25.2451
 163   2.0000      -0.925998       -25.1977
 164   2.0000      -0.911815       -24.8117
 165   2.0000      -0.910361       -24.7722
 166   2.0000      -0.907035       -24.6817
 167   2.0000      -0.899821       -24.4854
 168   2.0000      -0.894143       -24.3309
 169   2.0000      -0.889211       -24.1967
 170   2.0000      -0.887416       -24.1478
 171   2.0000      -0.884614       -24.0716
 172   2.0000      -0.878500       -23.9052
 173   2.0000      -0.875416       -23.8213
 174   2.0000      -0.868511       -23.6334
 175   2.0000      -0.864171       -23.5153
 176   2.0000      -0.862468       -23.4689
 177   2.0000      -0.857949       -23.3460
 178   2.0000      -0.845531       -23.0081
 179   2.0000      -0.832238       -22.6464
 180   2.0000      -0.830891       -22.6097
 181   2.0000      -0.814080       -22.1522
 182   2.0000      -0.802852       -21.8467
 183   2.0000      -0.793222       -21.5847
 184   2.0000      -0.785788       -21.3824
 185   2.0000      -0.778425       -21.1820
 186   2.0000      -0.772434       -21.0190
 187   2.0000      -0.763142       -20.7662
 188   2.0000      -0.760648       -20.6983
 189   2.0000      -0.748536       -20.3687
 190   2.0000      -0.734558       -19.9883
 191   2.0000      -0.729382       -19.8475
 192   2.0000      -0.718014       -19.5382
 193   2.0000      -0.714370       -19.4390
 194   2.0000      -0.708342       -19.2750
 195   2.0000      -0.704813       -19.1789
 196   2.0000      -0.697750       -18.9867
 197   2.0000      -0.696080       -18.9413
 198   2.0000      -0.692421       -18.8417
 199   2.0000      -0.691083       -18.8053
 200   2.0000      -0.687410       -18.7054
 201   2.0000      -0.683617       -18.6022
 202   2.0000      -0.672638       -18.3034
 203   2.0000      -0.666254       -18.1297
 204   2.0000      -0.661885       -18.0108
 205   2.0000      -0.660696       -17.9785
 206   2.0000      -0.646998       -17.6057
 207   2.0000      -0.642021       -17.4703
 208   2.0000      -0.639571       -17.4036
 209   2.0000      -0.634138       -17.2558
 210   2.0000      -0.628496       -17.1023
 211   2.0000      -0.627541       -17.0763
 212   2.0000      -0.624791       -17.0014
 213   2.0000      -0.624023       -16.9805
 214   2.0000      -0.616668       -16.7804
 215   2.0000      -0.610925       -16.6241
 216   2.0000      -0.602583       -16.3971
 217   2.0000      -0.600223       -16.3329
 218   2.0000      -0.598950       -16.2983
 219   2.0000      -0.593876       -16.1602
 220   2.0000      -0.586824       -15.9683
 221   2.0000      -0.583680       -15.8827
 222   2.0000      -0.579310       -15.7638
 223   2.0000      -0.562889       -15.3170
 224   2.0000      -0.562492       -15.3062
 225   2.0000      -0.559326       -15.2200
 226   2.0000      -0.556926       -15.1547
 227   2.0000      -0.554665       -15.0932
 228   2.0000      -0.553206       -15.0535
 229   2.0000      -0.551365       -15.0034
 230   2.0000      -0.547712       -14.9040
 231   2.0000      -0.544157       -14.8073
 232   2.0000      -0.543423       -14.7873
 233   2.0000      -0.540905       -14.7188
 234   2.0000      -0.537905       -14.6371
 235   2.0000      -0.535008       -14.5583
 236   2.0000      -0.532683       -14.4950
 237   2.0000      -0.530820       -14.4443
 238   2.0000      -0.527128       -14.3439
 239   2.0000      -0.522434       -14.2162
 240   2.0000      -0.521115       -14.1802
 241   2.0000      -0.520353       -14.1595
 242   2.0000      -0.519471       -14.1355
 243   2.0000      -0.512703       -13.9514
 244   2.0000      -0.511790       -13.9265
 245   2.0000      -0.511144       -13.9089
 246   2.0000      -0.509791       -13.8721
 247   2.0000      -0.507504       -13.8099
 248   2.0000      -0.505578       -13.7575
 249   2.0000      -0.504400       -13.7254
 250   2.0000      -0.503178       -13.6922
 251   2.0000      -0.500068       -13.6075
 252   2.0000      -0.497200       -13.5295
 253   2.0000      -0.495763       -13.4904
 254   2.0000      -0.495266       -13.4769
 255   2.0000      -0.494437       -13.4543
 256   2.0000      -0.488106       -13.2820
 257   2.0000      -0.485938       -13.2231
 258   2.0000      -0.482175       -13.1206
 259   2.0000      -0.479037       -13.0353
 260   2.0000      -0.475973       -12.9519
 261   2.0000      -0.475665       -12.9435
 262   2.0000      -0.474411       -12.9094
 263   2.0000      -0.471476       -12.8295
 264   2.0000      -0.470271       -12.7967
 265   2.0000      -0.468463       -12.7475
 266   2.0000      -0.466272       -12.6879
 267   2.0000      -0.462014       -12.5720
 268   2.0000      -0.461523       -12.5587
 269   2.0000      -0.460400       -12.5281
 270   2.0000      -0.458234       -12.4692
 271   2.0000      -0.456818       -12.4306
 272   2.0000      -0.452534       -12.3141
 273   2.0000      -0.452431       -12.3113
 274   2.0000      -0.451754       -12.2928
 275   2.0000      -0.451502       -12.2860
 276   2.0000      -0.450304       -12.2534
 277   2.0000      -0.449771       -12.2389
 278   2.0000      -0.448023       -12.1913
 279   2.0000      -0.446797       -12.1580
 280   2.0000      -0.445770       -12.1300
 281   2.0000      -0.445613       -12.1258
 282   2.0000      -0.445207       -12.1147
 283   2.0000      -0.443481       -12.0677
 284   2.0000      -0.442838       -12.0502
 285   2.0000      -0.441118       -12.0034
 286   2.0000      -0.440605       -11.9895
 287   2.0000      -0.438995       -11.9457
 288   2.0000      -0.437500       -11.9050
 289   2.0000      -0.434366       -11.8197
 290   2.0000      -0.432581       -11.7711
 291   2.0000      -0.430918       -11.7259
 292   2.0000      -0.430653       -11.7187
 293   2.0000      -0.429559       -11.6889
 294   2.0000      -0.425690       -11.5836
 295   2.0000      -0.424699       -11.5566
 296   2.0000      -0.419458       -11.4140
 297   2.0000      -0.417737       -11.3672
 298   2.0000      -0.413215       -11.2441
 299   2.0000      -0.413123       -11.2417
 300   2.0000      -0.410249       -11.1635
 301   2.0000      -0.405878       -11.0445
 302   2.0000      -0.398236       -10.8365
 303   2.0000      -0.397273       -10.8103
 304   2.0000      -0.391904       -10.6642
 305   2.0000      -0.388049       -10.5593
 306   2.0000      -0.386590       -10.5196
 307   2.0000      -0.377005       -10.2588
 308   2.0000      -0.375500       -10.2179
 309   2.0000      -0.372113       -10.1257
 310   2.0000      -0.365780        -9.9534
 311   2.0000      -0.361574        -9.8389
 312   2.0000      -0.354012        -9.6332
 313   2.0000      -0.349730        -9.5166
 314   2.0000      -0.347283        -9.4501
 315   2.0000      -0.343065        -9.3353
 316   2.0000      -0.334682        -9.1071
 317   2.0000      -0.332429        -9.0459
 318   2.0000      -0.327007        -8.8983
 319   2.0000      -0.320278        -8.7152
 320   2.0000      -0.318336        -8.6624
 321   2.0000      -0.317207        -8.6316
 322   2.0000      -0.310641        -8.4530
 323   2.0000      -0.296987        -8.0814
 324   2.0000      -0.295314        -8.0359
 325   2.0000      -0.279484        -7.6051
 326   2.0000      -0.261053        -7.1036
 327   0.0000      -0.121065        -3.2944
 328   0.0000      -0.112094        -3.0502
 329   0.0000      -0.093270        -2.5380
 330   0.0000      -0.090323        -2.4578
 331   0.0000      -0.068358        -1.8601

MULLIKEN ATOMIC CHARGES
-----------------------
   0 C :    0.310077
   1 C :   -0.355163
   2 C :   -0.183262
   3 N :    0.148312
   4 C :   -0.193520
   5 N :    0.155194
   6 C :    0.016032
   7 C :   -0.012220
   8 C :   -0.073347
   9 C :    0.121473
  10 C :   -0.090600
  11 C :   -0.022651
  12 S :    0.187676
  13 C :   -0.123528
  14 C :    0.039703
  15 Br:    0.026638
  16 C :    0.153729
  17 O :   -0.150190
  18 C :   -0.082908
  19 C :    0.033359
  20 C :   -0.113597
  21 C :    0.003029
  22 C :   -0.008625
  23 C :   -0.080003
  24 S :    0.208081
  25 C :   -0.090044
  26 C :    0.015793
  27 C :    0.328945
  28 C :   -0.299645
  29 C :   -0.186134
  30 N :    0.199553
  31 C :   -0.176902
  32 N :    0.160267
  33 C :   -0.031804
  34 C :   -0.106910
  35 S :    0.205045
  36 C :   -0.112195
  37 C :    0.177263
  38 C :    0.094176
  39 C :   -0.051915
  40 C :   -0.094816
  41 C :    0.039912
  42 C :    0.013217
  43 C :   -0.063379
  44 S :    0.152204
  45 C :   -0.143558
  46 N :    0.109024
  47 C :   -0.199397
  48 C :   -0.035640
  49 C :    0.018776
  50 C :   -0.088548
  51 S :    0.206695
  52 C :   -0.075806
  53 C :    0.022987
  54 C :    0.327655
  55 C :   -0.302919
  56 C :   -0.184172
  57 N :    0.156225
  58 C :   -0.186940
  59 N :    0.184721
  60 C :    0.009476
  61 C :   -0.093240
  62 S :    0.207577
  63 C :    0.046617
  64 C :   -0.133472
  65 C :    0.242429
  66 C :   -0.321806
  67 C :   -0.175294
  68 N :    0.157899
  69 C :   -0.216548
  70 N :    0.181022
  71 C :    0.001752
  72 C :    0.002402
  73 C :    0.137449
  74 O :   -0.139909
  75 C :   -0.067769
  76 C :    0.109746
  77 C :   -0.086040
  78 C :   -0.018552
  79 S :    0.186948
  80 C :   -0.126178
  81 C :    0.043370
  82 Br:    0.025882
  83 H :   -0.005801
  84 H :   -0.005529
  85 H :   -0.000580
  86 H :    0.010992
  87 H :    0.040005
  88 H :    0.034146
  89 H :   -0.004618
  90 H :    0.005698
  91 H :   -0.007562
  92 H :    0.023575
  93 H :    0.019519
  94 H :    0.033959
  95 H :   -0.007711
  96 H :   -0.003027
  97 H :   -0.002249
Sum of atomic charges:   -0.0000000

LOEWDIN ATOMIC CHARGES
----------------------
   0 C :    0.077024
   1 C :   -0.142591
   2 C :   -0.017953
   3 N :   -0.052737
   4 C :   -0.024488
   5 N :   -0.052659
   6 C :   -0.022066
   7 C :   -0.050479
   8 C :    0.024561
   9 C :   -0.031357
  10 C :   -0.143377
  11 C :   -0.009383
  12 S :    0.433953
  13 C :   -0.270656
  14 C :   -0.069504
  15 Br:    0.139098
  16 C :    0.087104
  17 O :   -0.135959
  18 C :   -0.094055
  19 C :    0.041585
  20 C :   -0.174864
  21 C :    0.020738
  22 C :   -0.069135
  23 C :   -0.158325
  24 S :    0.499340
  25 C :   -0.182754
  26 C :   -0.049520
  27 C :    0.083496
  28 C :   -0.093219
  29 C :   -0.022183
  30 N :   -0.012244
  31 C :   -0.003874
  32 N :   -0.036022
  33 C :   -0.018205
  34 C :   -0.185234
  35 S :    0.483668
  36 C :   -0.162479
  37 C :   -0.071311
  38 C :   -0.040255
  39 C :    0.007215
  40 C :   -0.067691
  41 C :    0.010370
  42 C :   -0.027506
  43 C :   -0.141187
  44 S :    0.423828
  45 C :   -0.030700
  46 N :   -0.052207
  47 C :   -0.164909
  48 C :   -0.024004
  49 C :   -0.053951
  50 C :   -0.183565
  51 S :    0.500218
  52 C :   -0.148030
  53 C :   -0.067596
  54 C :    0.089559
  55 C :   -0.101481
  56 C :   -0.008453
  57 N :   -0.046571
  58 C :   -0.018733
  59 N :   -0.024899
  60 C :    0.017032
  61 C :   -0.177882
  62 S :    0.513277
  63 C :    0.051530
  64 C :   -0.100663
  65 C :    0.059657
  66 C :   -0.144559
  67 C :   -0.020803
  68 N :   -0.049560
  69 C :   -0.040300
  70 N :   -0.040624
  71 C :   -0.018348
  72 C :   -0.052607
  73 C :    0.083686
  74 O :   -0.140367
  75 C :    0.023969
  76 C :   -0.032912
  77 C :   -0.142742
  78 C :   -0.012335
  79 S :    0.433401
  80 C :   -0.271244
  81 C :   -0.069523
  82 Br:    0.138663
  83 H :    0.042860
  84 H :    0.041218
  85 H :    0.039882
  86 H :    0.042817
  87 H :    0.044666
  88 H :    0.043482
  89 H :    0.026144
  90 H :    0.043002
  91 H :    0.037666
  92 H :    0.042210
  93 H :    0.047905
  94 H :    0.055490
  95 H :    0.042193
  96 H :    0.040923
  97 H :    0.039411

  Mayer bond orders larger than 0.100000
B(  0-C ,  1-C ) :   1.6236 B(  0-C ,  6-C ) :   1.0022 B(  0-C , 18-C ) :   1.0761
B(  1-C ,  2-C ) :   1.1434 B(  1-C ,  4-C ) :   1.1415 B(  2-C ,  3-N ) :   2.9690
B(  4-C ,  5-N ) :   2.9760 B(  6-C ,  7-C ) :   1.2747 B(  6-C , 11-C ) :   1.4072
B(  7-C ,  8-C ) :   1.4197 B(  7-C , 16-C ) :   0.9532 B(  8-C ,  9-C ) :   1.2435
B(  8-C , 83-H ) :   1.0183 B(  9-C , 10-C ) :   1.3027 B(  9-C , 14-C ) :   1.1645
B( 10-C , 11-C ) :   1.3323 B( 10-C , 12-S ) :   1.0873 B( 11-C , 84-H ) :   0.9801
B( 12-S , 13-C ) :   1.0866 B( 13-C , 14-C ) :   1.6155 B( 13-C , 15-Br) :   1.0211
B( 14-C , 85-H ) :   1.0008 B( 16-C , 17-O ) :   2.1746 B( 16-C , 18-C ) :   0.9384
B( 18-C , 19-C ) :   1.6027 B( 19-C , 20-C ) :   1.2053 B( 19-C , 86-H ) :   0.9142
B( 20-C , 21-C ) :   1.4055 B( 20-C , 24-S ) :   1.0782 B( 21-C , 22-C ) :   1.3153
B( 21-C , 87-H ) :   0.9717 B( 22-C , 23-C ) :   1.3873 B( 22-C , 27-C ) :   0.9947
B( 23-C , 24-S ) :   1.1671 B( 23-C , 25-C ) :   1.1967 B( 25-C , 26-C ) :   1.4384
B( 25-C , 35-S ) :   1.1183 B( 26-C , 27-C ) :   0.9919 B( 26-C , 33-C ) :   1.3064
B( 27-C , 28-C ) :   1.7188 B( 28-C , 29-C ) :   1.1321 B( 28-C , 31-C ) :   1.1460
B( 29-C , 30-N ) :   3.0001 B( 31-C , 32-N ) :   2.9390 B( 33-C , 34-C ) :   1.4843
B( 33-C , 88-H ) :   0.9790 B( 34-C , 35-S ) :   1.1144 B( 34-C , 36-C ) :   1.0827
B( 36-C , 37-C ) :   1.5890 B( 36-C , 44-S ) :   1.0910 B( 37-C , 38-C ) :   1.1415
B( 37-C , 47-C ) :   1.0049 B( 38-C , 39-C ) :   1.2958 B( 38-C , 43-C ) :   1.3122
B( 39-C , 40-C ) :   1.4362 B( 39-C , 89-H ) :   0.9772 B( 40-C , 41-C ) :   1.3286
B( 40-C , 45-C ) :   1.0582 B( 41-C , 42-C ) :   1.4277 B( 41-C , 90-H ) :   0.9922
B( 42-C , 43-C ) :   1.3387 B( 42-C , 91-H ) :   0.9950 B( 43-C , 44-S ) :   1.0660
B( 45-C , 46-N ) :   3.0529 B( 47-C , 48-C ) :   1.4913 B( 47-C , 51-S ) :   1.1253
B( 48-C , 49-C ) :   1.2954 B( 48-C , 92-H ) :   0.9883 B( 49-C , 50-C ) :   1.4456
B( 49-C , 54-C ) :   0.9843 B( 50-C , 51-S ) :   1.1165 B( 50-C , 52-C ) :   1.1972
B( 52-C , 53-C ) :   1.4047 B( 52-C , 62-S ) :   1.1623 B( 53-C , 54-C ) :   0.9978
B( 53-C , 60-C ) :   1.3019 B( 54-C , 55-C ) :   1.7151 B( 55-C , 56-C ) :   1.1468
B( 55-C , 58-C ) :   1.1286 B( 56-C , 57-N ) :   2.9563 B( 58-C , 59-N ) :   3.0010
B( 60-C , 61-C ) :   1.4015 B( 60-C , 93-H ) :   1.0019 B( 61-C , 62-S ) :   1.0864
B( 61-C , 63-C ) :   1.1422 B( 63-C , 64-C ) :   1.6442 B( 63-C , 94-H ) :   0.9460
B( 64-C , 65-C ) :   1.0335 B( 64-C , 73-C ) :   0.9385 B( 65-C , 66-C ) :   1.6533
B( 65-C , 71-C ) :   1.0178 B( 66-C , 67-C ) :   1.1310 B( 66-C , 69-C ) :   1.1524
B( 67-C , 68-N ) :   2.9938 B( 69-C , 70-N ) :   3.0261 B( 71-C , 72-C ) :   1.2749
B( 71-C , 78-C ) :   1.4167 B( 72-C , 73-C ) :   0.9219 B( 72-C , 75-C ) :   1.4254
B( 73-C , 74-O ) :   2.2721 B( 75-C , 76-C ) :   1.2543 B( 75-C , 95-H ) :   1.0157
B( 76-C , 77-C ) :   1.3071 B( 76-C , 81-C ) :   1.1627 B( 77-C , 78-C ) :   1.3262
B( 77-C , 79-S ) :   1.0846 B( 78-C , 96-H ) :   0.9833 B( 79-S , 80-C ) :   1.0873
B( 80-C , 81-C ) :   1.6200 B( 80-C , 82-Br) :   1.0200 B( 81-C , 97-H ) :   0.9997

-----------------------------------------------------------------------------
         ABSORPTION SPECTRUM VIA TRANSITION ELECTRIC DIPOLE MOMENTS
-----------------------------------------------------------------------------
State   Energy  Wavelength   fosc         T2         TX        TY        TZ
        (cm-1)    (nm)                  (au**2)     (au)      (au)      (au)
-----------------------------------------------------------------------------
   0   13260.2    754.1   0.325811859   8.08898   2.53935   0.66709  -1.09347
   1   14688.8    680.8   0.150729086   3.37821  -1.05310   1.48595   0.24725
   2   19436.6    514.5   0.026824185   0.45434  -0.19018  -0.63992   0.09311
   3   20271.6    493.3   0.887012727  14.40516   3.56616   0.69007  -1.10066
   4   21054.0    475.0   0.268958632   4.20558  -1.83258  -0.91899  -0.05194
   5   21880.5    457.0   0.784713629  11.80671   2.27296  -2.30080  -1.16047
   6   25293.5    395.4   0.101603538   1.32244  -1.06236   0.10201   0.42828
   7   25573.6    391.0   0.077095573   0.99246  -0.33840  -0.93197  -0.09686
   8   26127.5    382.7   0.092882727   1.17034  -0.62743   0.10249  -0.87531
   9   26602.8    375.9   0.061985397   0.76708  -0.75944   0.17900   0.39786
  10   27481.4    363.9   0.071306656   0.85421  -0.13787   0.66910   0.62251
  11   27818.9    359.5   0.156556878   1.85271  -0.65849   1.19039  -0.04548
  12   28077.3    356.2   0.024519607   0.28750  -0.42518   0.28598   0.15790
  13   28527.5    350.5   0.030586644   0.35297   0.52226  -0.10342   0.26366
  14   28713.9    348.3   0.124286588   1.42497  -0.72748  -0.90815   0.26649
  15   29015.7    344.6   0.082994718   0.94166   0.40267  -0.85760  -0.20986
  16   29165.8    342.9   0.160753780   1.81452  -1.14700   0.69868  -0.10376
  17   29227.0    342.1   0.156513656   1.76296  -0.86252  -0.95923   0.31449
  18   29501.3    339.0   0.073335526   0.81837  -0.09828  -0.85980  -0.26353
  19   29728.4    336.4   0.001749038   0.01937   0.02003  -0.13520  -0.02627
  20   29773.0    335.9   0.029355902   0.32460  -0.35700  -0.40987   0.17074
  21   29928.0    334.1   0.280504842   3.08559   1.53764  -0.30903  -0.79105
  22   30439.8    328.5   0.277974857   3.00635  -1.36960   0.60890   0.87166
  23   30464.3    328.3   0.798400737   8.62791   1.81431   2.25973  -0.47942
  24   31119.9    321.3   0.148747222   1.57357  -1.10374  -0.38922  -0.45148
  25   31409.6    318.4   0.011260066   0.11802   0.17332  -0.24419   0.16838
  26   31693.1    315.5   0.090864990   0.94386  -0.34060   0.89995  -0.13397
  27   31865.3    313.8   0.148077319   1.52984   0.51655   1.11061  -0.17196
  28   32217.7    310.4   0.101203603   1.03413  -0.63416   0.56697   0.55724
  29   32418.5    308.5   0.083870805   0.85171  -0.69014  -0.45670  -0.40847
  30   32512.5    307.6   0.133142247   1.34816  -0.65434   0.85171   0.44112
  31   32786.9    305.0   0.191991157   1.92778  -0.65142   1.14289  -0.44410
  32   32957.5    303.4   0.277474474   2.77169   0.66709   1.31578  -0.77162
  33   33061.6    302.5   0.206987102   2.06108   1.25318  -0.59705  -0.36625
  34   33411.8    299.3   0.030157088   0.29714   0.51643  -0.03576   0.17077
  35   33517.1    298.4   0.014079190   0.13829   0.30973   0.15336   0.13725
  36   33761.3    296.2   0.013738089   0.13396   0.14410  -0.31664   0.11374
  37   34076.2    293.5   0.282481821   2.72907   1.25396  -0.99844   0.39971
  38   34270.1    291.8   0.105373252   1.01226   0.85710   0.52653  -0.01981
  39   34400.6    290.7   0.351144953   3.36044  -1.11102  -1.33276  -0.59145
  40   34481.3    290.0   0.056422126   0.53869  -0.39366   0.61528   0.07183
  41   34887.0    286.6   0.284007328   2.68004  -0.36398   1.54592  -0.39711
  42   35439.6    282.2   0.197244240   1.83228   0.72606   0.50786  -1.02333
  43   35882.8    278.7   0.130863595   1.20063   0.71961   0.70571  -0.42983
  44   36163.5    276.5   0.056597772   0.51523  -0.56266   0.38105   0.23120
  45   36325.8    275.3   0.024566501   0.22264   0.19920  -0.34079  -0.25850
  46   36398.8    274.7   0.020082791   0.18164  -0.02974  -0.35179   0.23875
  47   36534.9    273.7   0.018446689   0.16622   0.36881  -0.14132   0.10112
  48   36673.2    272.7   0.001801343   0.01617   0.12685  -0.00881   0.00097
  49   36832.6    271.5   0.039893800   0.35657   0.52775  -0.22945   0.15940
  50   37087.1    269.6   0.048132875   0.42726  -0.56663   0.26541   0.18907
  51   37138.5    269.3   0.069653056   0.61743   0.71369  -0.30544  -0.12161
  52   37352.7    267.7   0.035970942   0.31703   0.37171  -0.41896  -0.05773
  53   37609.0    265.9   0.011201689   0.09805   0.25302  -0.10881   0.14899
  54   37827.1    264.4   0.000598766   0.00521  -0.00431   0.02188  -0.06866
  55   37977.0    263.3   0.017352666   0.15043  -0.15705  -0.26448   0.23624
  56   38168.6    262.0   0.039569842   0.34130   0.40125   0.12496  -0.40581
  57   38322.7    260.9   0.019871937   0.17071  -0.11569   0.39121  -0.06540
  58   38674.1    258.6   0.106426909   0.90596  -0.23757   0.91152  -0.13653
  59   38838.6    257.5   0.039502287   0.33484  -0.55440  -0.16299   0.03016
  60   38999.3    256.4   0.057589602   0.48614   0.30654   0.59450  -0.19682
  61   39142.5    255.5   0.076718268   0.64525  -0.74145   0.18482   0.24767
  62   39554.7    252.8   0.010655353   0.08868   0.21501   0.17566   0.10770
  63   39997.9    250.0   0.076382251   0.62868   0.41619  -0.61500   0.27792
  64   40242.6    248.5   0.070321637   0.57528   0.18753   0.70862   0.19487
  65   40282.9    248.2   0.018491347   0.15112   0.07596   0.35621  -0.13589

FINAL SINGLE POINT ENERGY    -10983.298782088108

DIPOLE MOMENT
-------------
                                X             Y             Z
Electronic contribution:    -15.62827    -111.79123     -28.18160
Nuclear contribution   :     13.70607     112.99668      27.47807
                        -----------------------------------------
Total Dipole Moment    :     -1.92220       1.20545      -0.70353
                        -----------------------------------------
Magnitude (a.u.)       :      2.37548
Magnitude (Debye)      :      6.03800

Rotational constants in cm-1:     0.000677     0.000179     0.000148
Rotational constants in MHz :    20.310796     5.364362     4.443884

                             ****ORCA TERMINATED NORMALLY****
TOTAL RUN TIME: 0 days 0 hours 12 minutes 40 seconds 734 msec
