                         Program Version 4.2.0 -  RELEASE  -
|  1> # ORCA input file
|  2> # SCF done       -203.634020957360          0.000749253315
|  3> ! CAM-B3LYP def2-SVP def2/J RIJCOSX Grid4 TightSCF
|  4> %maxcore 5000
|  5> %tddft
|  6>     Mode sTDDFT
|  7>     Ethresh 5.0
|  8>     maxcore 5000
|  9> end
| 10>
| 11> %pal
| 12>   nprocs 6
| 13>   end
| 14> * xyz 0 1
| 15>    C        0.14390         1.19008         2.27585
| 16>    C        0.59571         1.61457         3.49830
| 17>    C        1.87041         1.30530         4.01877
| 18>    N        2.89455         1.09373         4.49140
| 19>    C       -0.14930         2.37439         4.42526
| 20>    N       -0.70009         2.96895         5.23879
| 21>    C        0.86339         0.30531         1.36963
| 22>    C        0.00310        -0.04319         0.30026
| 23>    C        0.38633        -0.88138        -0.71878
| 24>    C        1.68470        -1.39955        -0.68209
| 25>    C        2.54120        -1.04082         0.38741
| 26>    C        2.15181        -0.19495         1.41832
| 27>    S        4.10238        -1.78633         0.23301
| 28>    C        3.59125        -2.56081        -1.24352
| 29>    C        2.31696        -2.27673        -1.60462
| 30>   Br        4.78798        -3.66828        -2.16877
| 31>    C       -1.29939         0.62655         0.47091
| 32>    O       -2.24357         0.54884        -0.28470
| 33>    C       -1.16522         1.45187         1.69850
| 34>    C       -2.01864         2.42391         2.13954
| 35>    C       -3.34624         2.70542         1.75318
| 36>    C       -4.28852         1.95336         1.06411
| 37>    C       -5.51126         2.60516         0.97263
| 38>    C       -5.51173         3.87576         1.58831
| 39>    S       -4.01656         4.24759         2.30267
| 40>    C       -6.79684         4.45354         1.42323
| 41>    C       -7.60654         3.54946         0.71585
| 42>    C       -6.83015         2.35665         0.41345
| 43>    C       -7.26169         1.24269        -0.24252
| 44>    C       -6.44681         0.10876        -0.45487
| 45>    N       -5.81610        -0.83291        -0.62326
| 46>    C       -8.57654         1.14318        -0.74705
| 47>    N       -9.64275         1.06974        -1.16180
| 48>    C       -8.90140         4.02675         0.51669
| 49>    C       -9.07625         5.28956         1.05047
| 50>    S       -7.62159         5.89378         1.82900
| 51>    C      -10.30359         6.02279         1.05037
| 52>    C      -10.55167         7.34994         1.33232
| 53>    C       -9.49705         8.34067         1.69108
| 54>    O       -9.47940         8.93464         2.72870
| 55>    O       -8.55018         8.53808         0.75359
| 56>    C      -11.94278         7.66874         1.31777
| 57>    C      -12.70882         6.57305         1.00344
| 58>    S      -11.79003         5.16009         0.74684
| 59>    C      -12.51798         8.97111         1.54974
| 60>    C      -13.80434         9.21546         1.98061
| 61>    C      -14.08397        10.58293         2.04156
| 62>    C      -12.99690        11.37592         1.64322
| 63>    S      -11.63497        10.44328         1.21411
| 64>    C      -13.38020        12.74034         1.72834
| 65>    C      -14.71414        12.80478         2.17503
| 66>    C      -15.19805        11.44991         2.38924
| 67>    C      -16.43882        11.06914         2.80697
| 68>    C      -16.79191         9.71036         2.94919
| 69>    N      -17.07872         8.60487         3.04846
| 70>    C      -17.45472        12.00271         3.10401
| 71>    N      -18.28672        12.75549         3.33801
| 72>    C      -15.19281        14.10772         2.25484
| 73>    C      -14.23134        15.04548         1.90757
| 74>    S      -12.71711        14.27660         1.43150
| 75>    C      -14.44797        16.43961         1.81715
| 76>    C      -13.55628        17.46068         1.70873
| 77>    C      -12.12944        17.54847         1.93826
| 78>    C      -11.42508        16.86183         2.89252
| 79>    C      -10.05403        17.06292         3.14885
| 80>    N       -8.93610        17.18734         3.37594
| 81>    C      -12.03263        15.95582         3.78603
| 82>    N      -12.51609        15.24873         4.54999
| 83>    C      -11.64416        18.70972         1.20181
| 84>    C      -12.76138        19.46175         0.75667
| 85>    C      -14.00496        18.76142         1.13618
| 86>    O      -15.14530        19.12505         0.97059
| 87>    C      -12.62516        20.64399         0.07020
| 88>    C      -11.32916        21.09598        -0.20025
| 89>    C      -10.22155        20.32874         0.23559
| 90>    C      -10.35767        19.13857         0.93979
| 91>    S       -8.71574        21.06530        -0.21833
| 92>    C       -9.58033        22.37887        -0.97216
| 93>    C      -10.92790        22.27214        -0.89096
| 94>   Br       -8.62236        23.76271        -1.79850
| 95>    H       -0.29565        -1.13000        -1.51668
| 96>    H        2.84245         0.05131         2.20731
| 97>    H        1.84124        -2.66840        -2.48509
| 98>    H       -1.63478         3.10349         2.89190
| 99>    H       -4.07426         0.98362         0.65506
|100>    H       -9.68582         3.49701         0.00693
|101>    H       -8.69753         8.02397        -0.05137
|102>    H      -13.77403         6.53649         0.89459
|103>    H      -14.49122         8.43687         2.25599
|104>    H      -16.18245        14.38605         2.56950
|105>    H      -15.49062        16.73390         1.73361
|106>    H      -13.49046        21.20383        -0.24810
|107>    H       -9.48796        18.58253         1.24909
|108>    H      -11.61251        22.99172        -1.30124
|109> *
|110>
|111>                          ****END OF INPUT****

CARTESIAN COORDINATES (ANGSTROEM)
---------------------------------
  C      0.143900    1.190080    2.275850
  C      0.595710    1.614570    3.498300
  C      1.870410    1.305300    4.018770
  N      2.894550    1.093730    4.491400
  C     -0.149300    2.374390    4.425260
  N     -0.700090    2.968950    5.238790
  C      0.863390    0.305310    1.369630
  C      0.003100   -0.043190    0.300260
  C      0.386330   -0.881380   -0.718780
  C      1.684700   -1.399550   -0.682090
  C      2.541200   -1.040820    0.387410
  C      2.151810   -0.194950    1.418320
  S      4.102380   -1.786330    0.233010
  C      3.591250   -2.560810   -1.243520
  C      2.316960   -2.276730   -1.604620
  Br     4.787980   -3.668280   -2.168770
  C     -1.299390    0.626550    0.470910
  O     -2.243570    0.548840   -0.284700
  C     -1.165220    1.451870    1.698500
  C     -2.018640    2.423910    2.139540
  C     -3.346240    2.705420    1.753180
  C     -4.288520    1.953360    1.064110
  C     -5.511260    2.605160    0.972630
  C     -5.511730    3.875760    1.588310
  S     -4.016560    4.247590    2.302670
  C     -6.796840    4.453540    1.423230
  C     -7.606540    3.549460    0.715850
  C     -6.830150    2.356650    0.413450
  C     -7.261690    1.242690   -0.242520
  C     -6.446810    0.108760   -0.454870
  N     -5.816100   -0.832910   -0.623260
  C     -8.576540    1.143180   -0.747050
  N     -9.642750    1.069740   -1.161800
  C     -8.901400    4.026750    0.516690
  C     -9.076250    5.289560    1.050470
  S     -7.621590    5.893780    1.829000
  C    -10.303590    6.022790    1.050370
  C    -10.551670    7.349940    1.332320
  C     -9.497050    8.340670    1.691080
  O     -9.479400    8.934640    2.728700
  O     -8.550180    8.538080    0.753590
  C    -11.942780    7.668740    1.317770
  C    -12.708820    6.573050    1.003440
  S    -11.790030    5.160090    0.746840
  C    -12.517980    8.971110    1.549740
  C    -13.804340    9.215460    1.980610
  C    -14.083970   10.582930    2.041560
  C    -12.996900   11.375920    1.643220
  S    -11.634970   10.443280    1.214110
  C    -13.380200   12.740340    1.728340
  C    -14.714140   12.804780    2.175030
  C    -15.198050   11.449910    2.389240
  C    -16.438820   11.069140    2.806970
  C    -16.791910    9.710360    2.949190
  N    -17.078720    8.604870    3.048460
  C    -17.454720   12.002710    3.104010
  N    -18.286720   12.755490    3.338010
  C    -15.192810   14.107720    2.254840
  C    -14.231340   15.045480    1.907570
  S    -12.717110   14.276600    1.431500
  C    -14.447970   16.439610    1.817150
  C    -13.556280   17.460680    1.708730
  C    -12.129440   17.548470    1.938260
  C    -11.425080   16.861830    2.892520
  C    -10.054030   17.062920    3.148850
  N     -8.936100   17.187340    3.375940
  C    -12.032630   15.955820    3.786030
  N    -12.516090   15.248730    4.549990
  C    -11.644160   18.709720    1.201810
  C    -12.761380   19.461750    0.756670
  C    -14.004960   18.761420    1.136180
  O    -15.145300   19.125050    0.970590
  C    -12.625160   20.643990    0.070200
  C    -11.329160   21.095980   -0.200250
  C    -10.221550   20.328740    0.235590
  C    -10.357670   19.138570    0.939790
  S     -8.715740   21.065300   -0.218330
  C     -9.580330   22.378870   -0.972160
  C    -10.927900   22.272140   -0.890960
  Br    -8.622360   23.762710   -1.798500
  H     -0.295650   -1.130000   -1.516680
  H      2.842450    0.051310    2.207310
  H      1.841240   -2.668400   -2.485090
  H     -1.634780    3.103490    2.891900
  H     -4.074260    0.983620    0.655060
  H     -9.685820    3.497010    0.006930
  H     -8.697530    8.023970   -0.051370
  H    -13.774030    6.536490    0.894590
  H    -14.491220    8.436870    2.255990
  H    -16.182450   14.386050    2.569500
  H    -15.490620   16.733900    1.733610
  H    -13.490460   21.203830   -0.248100
  H     -9.487960   18.582530    1.249090
  H    -11.612510   22.991720   -1.301240

 Total Charge           Charge          ....    0
 Multiplicity           Mult            ....    1
 Number of Electrons    NEL             ....  638
 Basis Dimension        Dim             .... 1254

ORBITAL ENERGIES
----------------

  NO   OCC          E(Eh)            E(eV)
   0   2.0000    -482.889117    -13140.0809
   1   2.0000    -482.888590    -13140.0666
   2   2.0000     -89.010738     -2422.1053
   3   2.0000     -89.005043     -2421.9503
   4   2.0000     -88.999655     -2421.8037
   5   2.0000     -88.999507     -2421.7997
   6   2.0000     -88.994731     -2421.6698
   7   2.0000     -88.979708     -2421.2609
   8   2.0000     -88.979297     -2421.2498
   9   2.0000     -62.566810     -1702.5295
  10   2.0000     -62.566305     -1702.5157
  11   2.0000     -56.400765     -1534.7428
  12   2.0000     -56.400260     -1534.7291
  13   2.0000     -56.398040     -1534.6687
  14   2.0000     -56.398012     -1534.6679
  15   2.0000     -56.397537     -1534.6550
  16   2.0000     -56.397504     -1534.6541
  17   2.0000     -19.286084      -524.8010
  18   2.0000     -19.227867      -523.2169
  19   2.0000     -19.225519      -523.1530
  20   2.0000     -19.218703      -522.9675
  21   2.0000     -14.442892      -393.0111
  22   2.0000     -14.438474      -392.8909
  23   2.0000     -14.436633      -392.8408
  24   2.0000     -14.435155      -392.8005
  25   2.0000     -14.421988      -392.4423
  26   2.0000     -14.420225      -392.3943
  27   2.0000     -14.420038      -392.3892
  28   2.0000     -14.418293      -392.3417
  29   2.0000     -10.431579      -283.8577
  30   2.0000     -10.378550      -282.4147
  31   2.0000     -10.377045      -282.3738
  32   2.0000     -10.371142      -282.2131
  33   2.0000     -10.370492      -282.1954
  34   2.0000     -10.364883      -282.0428
  35   2.0000     -10.363116      -281.9947
  36   2.0000     -10.362255      -281.9713
  37   2.0000     -10.358915      -281.8804
  38   2.0000     -10.355060      -281.7755
  39   2.0000     -10.351996      -281.6921
  40   2.0000     -10.351782      -281.6863
  41   2.0000     -10.350188      -281.6429
  42   2.0000     -10.348559      -281.5986
  43   2.0000     -10.348559      -281.5986
  44   2.0000     -10.348541      -281.5981
  45   2.0000     -10.347722      -281.5758
  46   2.0000     -10.347522      -281.5704
  47   2.0000     -10.342830      -281.4427
  48   2.0000     -10.339181      -281.3434
  49   2.0000     -10.337465      -281.2967
  50   2.0000     -10.337431      -281.2958
  51   2.0000     -10.337013      -281.2844
  52   2.0000     -10.336921      -281.2819
  53   2.0000     -10.335119      -281.2329
  54   2.0000     -10.334937      -281.2279
  55   2.0000     -10.331395      -281.1315
  56   2.0000     -10.330486      -281.1068
  57   2.0000     -10.330098      -281.0963
  58   2.0000     -10.328802      -281.0610
  59   2.0000     -10.327930      -281.0373
  60   2.0000     -10.325986      -280.9844
  61   2.0000     -10.324794      -280.9519
  62   2.0000     -10.323969      -280.9295
  63   2.0000     -10.322964      -280.9021
  64   2.0000     -10.322723      -280.8956
  65   2.0000     -10.322511      -280.8898
  66   2.0000     -10.321776      -280.8698
  67   2.0000     -10.319911      -280.8190
  68   2.0000     -10.318020      -280.7676
  69   2.0000     -10.316995      -280.7397
  70   2.0000     -10.315679      -280.7039
  71   2.0000     -10.313617      -280.6478
  72   2.0000     -10.313614      -280.6477
  73   2.0000     -10.313506      -280.6448
  74   2.0000     -10.312502      -280.6174
  75   2.0000     -10.311452      -280.5889
  76   2.0000     -10.311104      -280.5794
  77   2.0000     -10.310837      -280.5721
  78   2.0000     -10.310366      -280.5593
  79   2.0000     -10.309282      -280.5298
  80   2.0000     -10.308955      -280.5209
  81   2.0000     -10.306085      -280.4428
  82   2.0000     -10.305464      -280.4259
  83   2.0000     -10.302117      -280.3349
  84   2.0000     -10.300546      -280.2921
  85   2.0000     -10.300022      -280.2778
  86   2.0000     -10.297961      -280.2218
  87   2.0000     -10.297527      -280.2100
  88   2.0000      -8.796236      -239.3577
  89   2.0000      -8.795736      -239.3441
  90   2.0000      -8.104781      -220.5423
  91   2.0000      -8.099770      -220.4060
  92   2.0000      -8.093952      -220.2476
  93   2.0000      -8.093673      -220.2401
  94   2.0000      -8.090410      -220.1512
  95   2.0000      -8.075762      -219.7527
  96   2.0000      -8.075313      -219.7404
  97   2.0000      -6.632540      -180.4806
  98   2.0000      -6.632062      -180.4676
  99   2.0000      -6.617979      -180.0844
 100   2.0000      -6.617752      -180.0782
 101   2.0000      -6.617452      -180.0700
 102   2.0000      -6.617256      -180.0647
 103   2.0000      -6.074055      -165.2834
 104   2.0000      -6.069782      -165.1672
 105   2.0000      -6.068858      -165.1420
 106   2.0000      -6.067166      -165.0960
 107   2.0000      -6.064723      -165.0295
 108   2.0000      -6.063129      -164.9861
 109   2.0000      -6.062908      -164.9801
 110   2.0000      -6.062352      -164.9650
 111   2.0000      -6.059750      -164.8942
 112   2.0000      -6.058922      -164.8717
 113   2.0000      -6.058681      -164.8651
 114   2.0000      -6.056466      -164.8048
 115   2.0000      -6.056143      -164.7960
 116   2.0000      -6.055279      -164.7725
 117   2.0000      -6.052662      -164.7013
 118   2.0000      -6.045445      -164.5049
 119   2.0000      -6.044990      -164.4925
 120   2.0000      -6.041169      -164.3886
 121   2.0000      -6.040734      -164.3767
 122   2.0000      -6.036972      -164.2744
 123   2.0000      -6.036533      -164.2624
 124   2.0000      -2.748432       -74.7886
 125   2.0000      -2.747934       -74.7751
 126   2.0000      -2.744305       -74.6763
 127   2.0000      -2.744166       -74.6726
 128   2.0000      -2.743835       -74.6636
 129   2.0000      -2.743670       -74.6590
 130   2.0000      -2.732572       -74.3571
 131   2.0000      -2.732556       -74.3566
 132   2.0000      -2.732074       -74.3435
 133   2.0000      -2.732061       -74.3432
 134   2.0000      -1.209949       -32.9244
 135   2.0000      -1.141383       -31.0586
 136   2.0000      -1.134534       -30.8722
 137   2.0000      -1.126182       -30.6450
 138   2.0000      -1.062015       -28.8989
 139   2.0000      -1.054262       -28.6879
 140   2.0000      -1.034692       -28.1554
 141   2.0000      -1.031037       -28.0559
 142   2.0000      -1.028818       -27.9956
 143   2.0000      -1.028457       -27.9857
 144   2.0000      -1.026928       -27.9441
 145   2.0000      -1.018850       -27.7243
 146   2.0000      -1.017909       -27.6987
 147   2.0000      -1.017399       -27.6848
 148   2.0000      -1.013813       -27.5872
 149   2.0000      -1.012285       -27.5457
 150   2.0000      -1.004340       -27.3295
 151   2.0000      -0.999850       -27.2073
 152   2.0000      -0.997221       -27.1358
 153   2.0000      -0.995444       -27.0874
 154   2.0000      -0.993799       -27.0426
 155   2.0000      -0.974132       -26.5075
 156   2.0000      -0.967013       -26.3138
 157   2.0000      -0.949046       -25.8249
 158   2.0000      -0.946993       -25.7690
 159   2.0000      -0.933806       -25.4102
 160   2.0000      -0.926467       -25.2105
 161   2.0000      -0.913625       -24.8610
 162   2.0000      -0.912754       -24.8373
 163   2.0000      -0.906339       -24.6627
 164   2.0000      -0.902056       -24.5462
 165   2.0000      -0.892134       -24.2762
 166   2.0000      -0.890822       -24.2405
 167   2.0000      -0.890216       -24.2240
 168   2.0000      -0.885857       -24.1054
 169   2.0000      -0.882096       -24.0031
 170   2.0000      -0.876837       -23.8599
 171   2.0000      -0.870897       -23.6983
 172   2.0000      -0.865552       -23.5529
 173   2.0000      -0.863628       -23.5005
 174   2.0000      -0.853621       -23.2282
 175   2.0000      -0.834245       -22.7009
 176   2.0000      -0.833284       -22.6748
 177   2.0000      -0.818278       -22.2665
 178   2.0000      -0.803332       -21.8598
 179   2.0000      -0.793951       -21.6045
 180   2.0000      -0.786328       -21.3971
 181   2.0000      -0.782987       -21.3062
 182   2.0000      -0.769736       -20.9456
 183   2.0000      -0.765976       -20.8433
 184   2.0000      -0.759134       -20.6571
 185   2.0000      -0.747006       -20.3271
 186   2.0000      -0.734319       -19.9818
 187   2.0000      -0.729258       -19.8441
 188   2.0000      -0.722129       -19.6501
 189   2.0000      -0.713392       -19.4124
 190   2.0000      -0.708219       -19.2716
 191   2.0000      -0.706554       -19.2263
 192   2.0000      -0.702670       -19.1206
 193   2.0000      -0.699019       -19.0213
 194   2.0000      -0.693962       -18.8837
 195   2.0000      -0.692803       -18.8521
 196   2.0000      -0.690649       -18.7935
 197   2.0000      -0.688103       -18.7242
 198   2.0000      -0.679738       -18.4966
 199   2.0000      -0.667433       -18.1618
 200   2.0000      -0.664699       -18.0874
 201   2.0000      -0.656024       -17.8513
 202   2.0000      -0.650554       -17.7025
 203   2.0000      -0.642472       -17.4826
 204   2.0000      -0.638774       -17.3819
 205   2.0000      -0.633976       -17.2514
 206   2.0000      -0.632041       -17.1987
 207   2.0000      -0.628347       -17.0982
 208   2.0000      -0.626180       -17.0392
 209   2.0000      -0.624947       -17.0057
 210   2.0000      -0.619106       -16.8467
 211   2.0000      -0.605916       -16.4878
 212   2.0000      -0.603460       -16.4210
 213   2.0000      -0.602409       -16.3924
 214   2.0000      -0.595514       -16.2048
 215   2.0000      -0.588083       -16.0026
 216   2.0000      -0.582135       -15.8407
 217   2.0000      -0.572478       -15.5779
 218   2.0000      -0.568659       -15.4740
 219   2.0000      -0.564780       -15.3684
 220   2.0000      -0.563954       -15.3460
 221   2.0000      -0.557057       -15.1583
 222   2.0000      -0.556636       -15.1468
 223   2.0000      -0.555045       -15.1035
 224   2.0000      -0.554796       -15.0968
 225   2.0000      -0.547879       -14.9085
 226   2.0000      -0.546857       -14.8807
 227   2.0000      -0.545078       -14.8323
 228   2.0000      -0.543838       -14.7986
 229   2.0000      -0.539512       -14.6809
 230   2.0000      -0.536171       -14.5899
 231   2.0000      -0.535812       -14.5802
 232   2.0000      -0.531925       -14.4744
 233   2.0000      -0.527840       -14.3632
 234   2.0000      -0.524435       -14.2706
 235   2.0000      -0.523742       -14.2517
 236   2.0000      -0.520809       -14.1719
 237   2.0000      -0.516822       -14.0634
 238   2.0000      -0.515688       -14.0326
 239   2.0000      -0.513382       -13.9698
 240   2.0000      -0.513187       -13.9645
 241   2.0000      -0.511826       -13.9275
 242   2.0000      -0.510612       -13.8945
 243   2.0000      -0.509315       -13.8592
 244   2.0000      -0.507148       -13.8002
 245   2.0000      -0.505127       -13.7452
 246   2.0000      -0.503952       -13.7132
 247   2.0000      -0.500296       -13.6137
 248   2.0000      -0.498450       -13.5635
 249   2.0000      -0.496866       -13.5204
 250   2.0000      -0.495445       -13.4817
 251   2.0000      -0.490814       -13.3557
 252   2.0000      -0.487999       -13.2791
 253   2.0000      -0.484556       -13.1855
 254   2.0000      -0.483951       -13.1690
 255   2.0000      -0.480660       -13.0794
 256   2.0000      -0.479218       -13.0402
 257   2.0000      -0.473690       -12.8897
 258   2.0000      -0.472154       -12.8480
 259   2.0000      -0.467081       -12.7099
 260   2.0000      -0.466663       -12.6986
 261   2.0000      -0.465222       -12.6593
 262   2.0000      -0.463152       -12.6030
 263   2.0000      -0.462571       -12.5872
 264   2.0000      -0.461998       -12.5716
 265   2.0000      -0.458947       -12.4886
 266   2.0000      -0.456998       -12.4355
 267   2.0000      -0.454202       -12.3595
 268   2.0000      -0.453229       -12.3330
 269   2.0000      -0.452856       -12.3228
 270   2.0000      -0.452002       -12.2996
 271   2.0000      -0.450527       -12.2595
 272   2.0000      -0.450038       -12.2462
 273   2.0000      -0.448852       -12.2139
 274   2.0000      -0.448778       -12.2119
 275   2.0000      -0.448101       -12.1934
 276   2.0000      -0.446368       -12.1463
 277   2.0000      -0.446087       -12.1387
 278   2.0000      -0.445027       -12.1098
 279   2.0000      -0.444003       -12.0819
 280   2.0000      -0.443789       -12.0761
 281   2.0000      -0.441222       -12.0063
 282   2.0000      -0.436197       -11.8695
 283   2.0000      -0.434823       -11.8321
 284   2.0000      -0.432510       -11.7692
 285   2.0000      -0.432009       -11.7556
 286   2.0000      -0.431363       -11.7380
 287   2.0000      -0.429010       -11.6740
 288   2.0000      -0.425693       -11.5837
 289   2.0000      -0.422152       -11.4873
 290   2.0000      -0.417593       -11.3633
 291   2.0000      -0.414389       -11.2761
 292   2.0000      -0.413758       -11.2589
 293   2.0000      -0.409172       -11.1341
 294   2.0000      -0.405104       -11.0234
 295   2.0000      -0.398273       -10.8376
 296   2.0000      -0.392531       -10.6813
 297   2.0000      -0.390835       -10.6352
 298   2.0000      -0.384265       -10.4564
 299   2.0000      -0.382988       -10.4216
 300   2.0000      -0.378327       -10.2948
 301   2.0000      -0.377964       -10.2849
 302   2.0000      -0.371342       -10.1047
 303   2.0000      -0.365200        -9.9376
 304   2.0000      -0.360015        -9.7965
 305   2.0000      -0.357498        -9.7280
 306   2.0000      -0.353240        -9.6121
 307   2.0000      -0.348677        -9.4880
 308   2.0000      -0.342526        -9.3206
 309   2.0000      -0.335943        -9.1415
 310   2.0000      -0.331498        -9.0205
 311   2.0000      -0.326449        -8.8831
 312   2.0000      -0.320637        -8.7250
 313   2.0000      -0.319271        -8.6878
 314   2.0000      -0.317623        -8.6430
 315   2.0000      -0.298565        -8.1244
 316   2.0000      -0.298044        -8.1102
 317   2.0000      -0.279399        -7.6028
 318   2.0000      -0.267079        -7.2676
 319   0.0000      -0.123247        -3.3537
 320   0.0000      -0.115439        -3.1413
 321   0.0000      -0.096200        -2.6177
 322   0.0000      -0.091280        -2.4839
 323   0.0000      -0.069348        -1.8870

MULLIKEN ATOMIC CHARGES
-----------------------
   0 C :    0.301463
   1 C :   -0.345489
   2 C :   -0.183126
   3 N :    0.153800
   4 C :   -0.204165
   5 N :    0.161811
   6 C :    0.013435
   7 C :   -0.015381
   8 C :   -0.069129
   9 C :    0.117974
  10 C :   -0.089289
  11 C :   -0.019899
  12 S :    0.189574
  13 C :   -0.123840
  14 C :    0.040135
  15 Br:    0.028066
  16 C :    0.151467
  17 O :   -0.150413
  18 C :   -0.088790
  19 C :    0.029284
  20 C :   -0.112341
  21 C :    0.020121
  22 C :   -0.019406
  23 C :   -0.079443
  24 S :    0.218105
  25 C :   -0.095504
  26 C :    0.032127
  27 C :    0.307611
  28 C :   -0.293428
  29 C :   -0.186051
  30 N :    0.193390
  31 C :   -0.192456
  32 N :    0.177215
  33 C :   -0.056401
  34 C :   -0.101730
  35 S :    0.208625
  36 C :   -0.111598
  37 C :   -0.051781
  38 C :    0.108083
  39 O :   -0.144276
  40 O :   -0.158834
  41 C :    0.126465
  42 C :   -0.116150
  43 S :    0.176872
  44 C :   -0.086129
  45 C :   -0.034487
  46 C :    0.015488
  47 C :   -0.093813
  48 S :    0.203360
  49 C :   -0.075596
  50 C :    0.020254
  51 C :    0.301152
  52 C :   -0.289698
  53 C :   -0.186853
  54 N :    0.169487
  55 C :   -0.190731
  56 N :    0.180953
  57 C :    0.004529
  58 C :   -0.088650
  59 S :    0.210500
  60 C :    0.040681
  61 C :   -0.134904
  62 C :    0.241403
  63 C :   -0.320370
  64 C :   -0.174661
  65 N :    0.158096
  66 C :   -0.207734
  67 N :    0.172598
  68 C :    0.002385
  69 C :    0.003163
  70 C :    0.139956
  71 O :   -0.141495
  72 C :   -0.069214
  73 C :    0.109704
  74 C :   -0.087404
  75 C :   -0.018486
  76 S :    0.186411
  77 C :   -0.126181
  78 C :    0.043917
  79 Br:    0.025873
  80 H :   -0.005699
  81 H :   -0.004292
  82 H :   -0.001133
  83 H :    0.020759
  84 H :    0.036626
  85 H :    0.020237
  86 H :    0.191280
  87 H :    0.044599
  88 H :    0.006065
  89 H :    0.019351
  90 H :    0.033936
  91 H :   -0.007602
  92 H :   -0.002548
  93 H :   -0.001793
Sum of atomic charges:   -0.0000000

LOEWDIN ATOMIC CHARGES
----------------------
   0 C :    0.075342
   1 C :   -0.139986
   2 C :   -0.018488
   3 N :   -0.049920
   4 C :   -0.025705
   5 N :   -0.050042
   6 C :   -0.021892
   7 C :   -0.050987
   8 C :    0.024674
   9 C :   -0.031382
  10 C :   -0.143005
  11 C :   -0.008871
  12 S :    0.435198
  13 C :   -0.270385
  14 C :   -0.069567
  15 Br:    0.140131
  16 C :    0.085855
  17 O :   -0.136732
  18 C :   -0.091927
  19 C :    0.042286
  20 C :   -0.175341
  21 C :    0.020792
  22 C :   -0.072987
  23 C :   -0.162866
  24 S :    0.503316
  25 C :   -0.184369
  26 C :   -0.057254
  27 C :    0.075514
  28 C :   -0.091747
  29 C :   -0.021505
  30 N :   -0.013660
  31 C :   -0.015622
  32 N :   -0.028978
  33 C :   -0.031839
  34 C :   -0.191285
  35 S :    0.509391
  36 C :   -0.178300
  37 C :   -0.117010
  38 C :    0.041923
  39 O :   -0.127741
  40 O :   -0.030109
  41 C :   -0.063881
  42 C :   -0.166383
  43 S :    0.488564
  44 C :   -0.154738
  45 C :   -0.027291
  46 C :   -0.057487
  47 C :   -0.187672
  48 S :    0.511027
  49 C :   -0.149944
  50 C :   -0.074772
  51 C :    0.081129
  52 C :   -0.098567
  53 C :   -0.014865
  54 N :   -0.033190
  55 C :   -0.018038
  56 N :   -0.026296
  57 C :    0.015062
  58 C :   -0.179094
  59 S :    0.513905
  60 C :    0.050919
  61 C :   -0.101796
  62 C :    0.060460
  63 C :   -0.144806
  64 C :   -0.020995
  65 N :   -0.047968
  66 C :   -0.038169
  67 N :   -0.044982
  68 C :   -0.018448
  69 C :   -0.052466
  70 C :    0.083984
  71 O :   -0.140838
  72 C :    0.023822
  73 C :   -0.033123
  74 C :   -0.143020
  75 C :   -0.012250
  76 S :    0.433312
  77 C :   -0.271469
  78 C :   -0.069576
  79 Br:    0.138620
  80 H :    0.042810
  81 H :    0.041556
  82 H :    0.039766
  83 H :    0.044184
  84 H :    0.044895
  85 H :    0.037694
  86 H :    0.095941
  87 H :    0.033393
  88 H :    0.040390
  89 H :    0.047414
  90 H :    0.055652
  91 H :    0.042200
  92 H :    0.041009
  93 H :    0.039494

  Mayer bond orders larger than 0.100000
B(  0-C ,  1-C ) :   1.6364 B(  0-C ,  6-C ) :   1.0039 B(  0-C , 18-C ) :   1.0698
B(  1-C ,  2-C ) :   1.1426 B(  1-C ,  4-C ) :   1.1384 B(  2-C ,  3-N ) :   2.9729
B(  4-C ,  5-N ) :   2.9913 B(  6-C ,  7-C ) :   1.2720 B(  6-C , 11-C ) :   1.4086
B(  7-C ,  8-C ) :   1.4228 B(  7-C , 16-C ) :   0.9493 B(  8-C ,  9-C ) :   1.2453
B(  8-C , 80-H ) :   1.0169 B(  9-C , 10-C ) :   1.3023 B(  9-C , 14-C ) :   1.1632
B( 10-C , 11-C ) :   1.3326 B( 10-C , 12-S ) :   1.0877 B( 11-C , 81-H ) :   0.9799
B( 12-S , 13-C ) :   1.0871 B( 13-C , 14-C ) :   1.6165 B( 13-C , 15-Br) :   1.0222
B( 14-C , 82-H ) :   1.0009 B( 16-C , 17-O ) :   2.1882 B( 16-C , 18-C ) :   0.9404
B( 18-C , 19-C ) :   1.6115 B( 19-C , 20-C ) :   1.1888 B( 19-C , 83-H ) :   0.9227
B( 20-C , 21-C ) :   1.4121 B( 20-C , 24-S ) :   1.0823 B( 21-C , 22-C ) :   1.3260
B( 21-C , 84-H ) :   0.9721 B( 22-C , 23-C ) :   1.3901 B( 22-C , 27-C ) :   0.9964
B( 23-C , 24-S ) :   1.1670 B( 23-C , 25-C ) :   1.1879 B( 25-C , 26-C ) :   1.4338
B( 25-C , 35-S ) :   1.1257 B( 26-C , 27-C ) :   0.9907 B( 26-C , 33-C ) :   1.3018
B( 27-C , 28-C ) :   1.7216 B( 28-C , 29-C ) :   1.1316 B( 28-C , 31-C ) :   1.1370
B( 29-C , 30-N ) :   2.9953 B( 31-C , 32-N ) :   2.9874 B( 33-C , 34-C ) :   1.4500
B( 33-C , 85-H ) :   0.9889 B( 34-C , 35-S ) :   1.1285 B( 34-C , 36-C ) :   1.1116
B( 36-C , 37-C ) :   1.5274 B( 36-C , 43-S ) :   1.1720 B( 37-C , 38-C ) :   0.8797
B( 37-C , 41-C ) :   1.2599 B( 38-C , 39-O ) :   2.2031 B( 38-C , 40-O ) :   1.2113
B( 40-O , 86-H ) :   0.9468 B( 41-C , 42-C ) :   1.5512 B( 41-C , 44-C ) :   1.0289
B( 42-C , 43-S ) :   1.1591 B( 42-C , 87-H ) :   0.9639 B( 44-C , 45-C ) :   1.4945
B( 44-C , 48-S ) :   1.1334 B( 45-C , 46-C ) :   1.2832 B( 45-C , 88-H ) :   0.9953
B( 46-C , 47-C ) :   1.4350 B( 46-C , 51-C ) :   0.9952 B( 47-C , 48-S ) :   1.1400
B( 47-C , 49-C ) :   1.1907 B( 49-C , 50-C ) :   1.3994 B( 49-C , 59-S ) :   1.1659
B( 50-C , 51-C ) :   0.9922 B( 50-C , 57-C ) :   1.3042 B( 51-C , 52-C ) :   1.7172
B( 52-C , 53-C ) :   1.1329 B( 52-C , 55-C ) :   1.1326 B( 53-C , 54-N ) :   2.9890
B( 55-C , 56-N ) :   2.9946 B( 57-C , 58-C ) :   1.4009 B( 57-C , 89-H ) :   1.0011
B( 58-C , 59-S ) :   1.0828 B( 58-C , 60-C ) :   1.1501 B( 60-C , 61-C ) :   1.6366
B( 60-C , 90-H ) :   0.9458 B( 61-C , 62-C ) :   1.0344 B( 61-C , 70-C ) :   0.9408
B( 62-C , 63-C ) :   1.6554 B( 62-C , 68-C ) :   1.0155 B( 63-C , 64-C ) :   1.1305
B( 63-C , 66-C ) :   1.1515 B( 64-C , 65-N ) :   2.9937 B( 66-C , 67-N ) :   3.0217
B( 68-C , 69-C ) :   1.2753 B( 68-C , 75-C ) :   1.4156 B( 69-C , 70-C ) :   0.9210
B( 69-C , 72-C ) :   1.4263 B( 70-C , 71-O ) :   2.2687 B( 72-C , 73-C ) :   1.2515
B( 72-C , 91-H ) :   1.0165 B( 73-C , 74-C ) :   1.3075 B( 73-C , 78-C ) :   1.1646
B( 74-C , 75-C ) :   1.3255 B( 74-C , 76-S ) :   1.0847 B( 75-C , 92-H ) :   0.9846
B( 76-S , 77-C ) :   1.0874 B( 77-C , 78-C ) :   1.6189 B( 77-C , 79-Br) :   1.0199
B( 78-C , 93-H ) :   0.9998

-----------------------------------------------------------------------------
         ABSORPTION SPECTRUM VIA TRANSITION ELECTRIC DIPOLE MOMENTS
-----------------------------------------------------------------------------
State   Energy  Wavelength   fosc         T2         TX        TY        TZ
        (cm-1)    (nm)                  (au**2)     (au)      (au)      (au)
-----------------------------------------------------------------------------
   0   14400.4    694.4   0.360749249   8.24718   1.49066  -2.45461  -0.00081
   1   14854.3    673.2   0.121450388   2.69168  -1.61861  -0.17784  -0.20037
   2   21212.5    471.4   0.795572260  12.34704   0.65143  -3.45292  -0.00105
   3   21823.2    458.2   0.328138961   4.95012  -2.14831  -0.54326  -0.19936
   4   22469.2    445.1   1.003370177  14.70109   3.65728  -1.01846   0.53679
   5   24060.6    415.6   0.001961674   0.02684   0.05015   0.15584   0.00632
   6   25288.6    395.4   0.084227834   1.09649  -0.52066   0.64745   0.63735
   7   25735.6    388.6   0.102018148   1.30503  -0.40390  -0.64565   0.85148
   8   27005.5    370.3   0.014388349   0.17540  -0.35807  -0.01885   0.21641
   9   27939.1    357.9   0.018538641   0.21844   0.21752  -0.30908  -0.27495
  10   28289.1    353.5   0.052554548   0.61160  -0.73060  -0.05171   0.27414
  11   28619.2    349.4   0.391436051   4.50277  -1.11601   1.74710   0.45270
  12   28802.8    347.2   0.036137372   0.41304  -0.02366   0.63617  -0.08815
  13   28869.1    346.4   0.147002259   1.67636   0.48559   1.13111  -0.40143
  14   29647.7    337.3   0.096847427   1.07541   0.03438  -1.01388   0.21512
  15   29764.2    336.0   0.301471778   3.33448  -0.04690  -1.76770   0.45555
  16   29965.7    333.7   0.121555252   1.33544  -1.14582  -0.13613   0.06332
  17   30133.0    331.9   0.367788783   4.01821   1.23261  -0.96063  -1.25541
  18   30512.3    327.7   0.273914080   2.95539   1.49692  -0.12952  -0.83538
  19   30884.1    323.8   0.594664804   6.33888   0.30023   2.47139   0.37548
  20   31178.8    320.7   0.240235390   2.53660   0.10886  -0.87864   1.32392
  21   31441.2    318.1   0.113362179   1.18698  -1.00683  -0.28639   0.30210
  22   31547.9    317.0   0.252554881   2.63548   1.51539   0.54303   0.21023
  23   31972.6    312.8   0.091643170   0.94362  -0.95331  -0.16045   0.09527
  24   32064.8    311.9   0.163899630   1.68277   0.17801  -0.89975  -0.91735
  25   32528.9    307.4   0.371568537   3.76049  -1.02677   1.59211   0.41403
  26   32674.7    306.0   0.025054833   0.25244   0.36023   0.27771   0.21342
  27   32744.5    305.4   0.242677923   2.43988   0.00766   1.32993  -0.81921
  28   33212.5    301.1   0.024081949   0.23871   0.25311  -0.22134  -0.35447
  29   33242.8    300.8   0.014454899   0.14315  -0.07607  -0.32282   0.18207
  30   33341.9    299.9   0.086135504   0.85049  -0.63406  -0.53076   0.40835
  31   33376.9    299.6   0.023958268   0.23631  -0.12625   0.31757  -0.34572
  32   33963.2    294.4   0.254871443   2.47052   1.40900  -0.58146  -0.38359
  33   33993.1    294.2   0.383386106   3.71296   0.20482  -1.01857  -1.62281
  34   34231.4    292.1   0.015556478   0.14961  -0.09367  -0.31218   0.20828
  35   34624.6    288.8   0.219638417   2.08833   1.06279   0.93022  -0.30577
  36   35061.5    285.2   0.128894276   1.21026  -0.62126  -0.66957  -0.61317
  37   35327.7    283.1   0.056692227   0.52830  -0.36581  -0.56639  -0.27145
  38   35448.7    282.1   0.148059823   1.37503   0.44450  -0.81050   0.72148
  39   35587.3    281.0   0.040756525   0.37703  -0.34365   0.50871   0.01234
  40   36348.7    275.1   0.032060657   0.29038   0.31600  -0.21383  -0.38052
  41   36447.2    274.4   0.065660563   0.59308  -0.08739   0.61442   0.45601
  42   36669.9    272.7   0.026100492   0.23432  -0.47095  -0.00118  -0.11194
  43   36761.1    272.0   0.020814915   0.18641   0.40688  -0.10360   0.10062
  44   37506.6    266.6   0.022709314   0.19933  -0.31992  -0.29224  -0.10759
  45   37622.5    265.8   0.099483651   0.87052   0.38797  -0.77649   0.34215
  46   37841.2    264.3   0.065377186   0.56877  -0.04693  -0.67436  -0.33438
  47   38308.8    261.0   0.013733991   0.11802   0.19840   0.26460   0.09300
  48   38556.4    259.4   0.014459400   0.12346   0.21363  -0.26882   0.07457
  49   38735.6    258.2   0.088620240   0.75318  -0.27822  -0.81888  -0.07220
  50   38973.2    256.6   0.053151800   0.44898  -0.50275   0.44272  -0.01481
  51   39047.9    256.1   0.022638646   0.19087  -0.24936  -0.33758   0.12134
  52   39202.7    255.1   0.120932104   1.01555   0.82000  -0.01859   0.58550
  53   39379.5    253.9   0.031894282   0.26664  -0.44168  -0.23605  -0.12585
  54   39478.3    253.3   0.006511261   0.05430   0.21718   0.01857   0.08239
  55   39866.5    250.8   0.152366134   1.25822  -0.99193   0.50070   0.15359
  56   40274.6    248.3   0.011955493   0.09773  -0.30134  -0.06417  -0.05296

FINAL SINGLE POINT ENERGY    -10926.079704349240

DIPOLE MOMENT
-------------
                                X             Y             Z
Electronic contribution:    112.19155      26.95132     -54.66751
Nuclear contribution   :   -111.45014     -26.76182      50.41563
                        -----------------------------------------
Total Dipole Moment    :      0.74141       0.18950      -4.25188
                        -----------------------------------------
Magnitude (a.u.)       :      4.32019
Magnitude (Debye)      :     10.98106

Rotational constants in cm-1:     0.000739     0.000133     0.000118
Rotational constants in MHz :    22.158564     3.987627     3.525830

                             ****ORCA TERMINATED NORMALLY****
TOTAL RUN TIME: 0 days 0 hours 10 minutes 53 seconds 283 msec
