                         Program Version 4.2.0 -  RELEASE  -
|  1> # ORCA input file
|  2> # SCF done       -202.392259283444          0.000763760687
|  3> ! CAM-B3LYP def2-SVP def2/J RIJCOSX Grid4 TightSCF
|  4> %maxcore 5000
|  5> %tddft
|  6>     Mode sTDDFT
|  7>     Ethresh 5.0
|  8>     maxcore 5000
|  9> end
| 10>
| 11> %pal
| 12>   nprocs 6
| 13>   end
| 14> * xyz 0 1
| 15>    C       -1.31298         0.03990        -1.72115
| 16>    C       -1.67293        -0.54062        -2.90966
| 17>    C       -0.87220        -1.46977        -3.60877
| 18>    N       -0.27576        -2.23228        -4.22527
| 19>    C       -2.85681        -0.28976        -3.63607
| 20>    N       -3.78120        -0.13669        -4.30056
| 21>    C       -0.04157        -0.16957        -1.04048
| 22>    C        0.02363         0.69930         0.07496
| 23>    C        1.10907         0.75245         0.91562
| 24>    C        2.18404        -0.09970         0.64471
| 25>    C        2.10835        -0.97242        -0.46813
| 26>    C        1.01159        -1.02213        -1.31903
| 27>    S        3.54061        -1.94414        -0.61626
| 28>    C        4.21357        -1.17483         0.79667
| 29>    C        3.40846        -0.23835         1.35307
| 30>   Br        5.91334        -1.68179         1.40356
| 31>    C       -1.22005         1.48528         0.16557
| 32>    O       -1.46894         2.31837         1.00988
| 33>    C       -2.07668         1.01250        -0.95055
| 34>    C       -3.38595         1.31506        -1.19949
| 35>    C       -4.26391         2.24190        -0.59938
| 36>    C       -4.08555         3.24468         0.34582
| 37>    C       -5.26331         3.93386         0.60454
| 38>    C       -6.36053         3.45632        -0.14481
| 39>    S       -5.93811         2.17458        -1.17202
| 40>    C       -7.50649         4.21727         0.20092
| 41>    C       -7.13724         5.17425         1.15955
| 42>    C       -5.72016         5.02539         1.45322
| 43>    C       -4.99028         5.75085         2.34610
| 44>    C       -3.60517         5.56234         2.55079
| 45>    N       -2.47953         5.44830         2.73205
| 46>    C       -5.57895         6.74940         3.15372
| 47>    N       -6.05112         7.54501         3.83041
| 48>    C       -8.20287         5.99168         1.54374
| 49>    C       -9.37088         5.64673         0.89675
| 50>    S       -9.16055         4.29862        -0.20581
| 51>    C      -10.65821         6.26964         1.04886
| 52>    C      -11.87284         5.61898         0.90311
| 53>    C      -12.08561         4.26931         0.61956
| 54>    N      -12.27601         3.15742         0.40528
| 55>    S      -13.23091         6.66513         1.18239
| 56>    C      -12.17950         8.01200         1.48989
| 57>    C      -10.84338         7.64471         1.37848
| 58>    C       -9.78062         8.55437         1.49881
| 59>    N       -8.91046         9.29956         1.56727
| 60>    C      -12.73885         9.28068         1.80185
| 61>    C      -14.09128         9.55484         1.93261
| 62>    C      -14.32321        10.88936         2.25070
| 63>    C      -13.13538        11.63542         2.35726
| 64>    S      -11.73898        10.69955         2.07269
| 65>    C      -13.47478        12.97524         2.67405
| 66>    C      -14.87459        13.07213         2.78335
| 67>    C      -15.45442        11.76608         2.51619
| 68>    C      -16.77495        11.42941         2.51245
| 69>    C      -17.20753        10.11608         2.22794
| 70>    N      -17.55118         9.04652         2.00036
| 71>    C      -17.79188        12.36547         2.80051
| 72>    N      -18.62012        13.11940         3.04322
| 73>    C      -15.30148        14.35673         3.10929
| 74>    C      -14.24752        15.24993         3.20034
| 75>    S      -12.69374        14.46257         2.94126
| 76>    C      -14.35243        16.62363         3.53990
| 77>    C      -13.49834        17.64413         3.27498
| 78>    C      -12.37924        17.77772         2.36229
| 79>    C      -12.25332        17.16151         1.14516
| 80>    C      -11.19942        17.41493         0.24297
| 81>    N      -10.35681        17.57850        -0.51838
| 82>    C      -13.21830        16.27920         0.61731
| 83>    N      -13.99800        15.58479         0.14006
| 84>    C      -11.58127        18.90787         2.82054
| 85>    C      -12.30995        19.60439         3.81929
| 86>    C      -13.57664        18.89654         4.08443
| 87>    O      -14.47109        19.21687         4.82978
| 88>    C      -11.83993        20.75567         4.40417
| 89>    C      -10.59228        21.23513         3.99175
| 90>    C       -9.86561        20.52186         3.00641
| 91>    C      -10.34238        19.36135         2.40975
| 92>    S       -8.34803        21.28714         2.65248
| 93>    C       -8.70580        22.54232         3.80913
| 94>    C       -9.89915        22.39473         4.43328
| 95>   Br       -7.47170        23.92619         4.08303
| 96>    H        1.12582         1.43075         1.75418
| 97>    H        1.00341        -1.70684        -2.15018
| 98>    H        3.66562         0.33183         2.22693
| 99>    H       -3.86164         0.74425        -1.98865
|100>    H       -3.13511         3.43563         0.81153
|101>    H       -8.13723         6.78210         2.26859
|102>    H      -14.85462         8.80842         1.80132
|103>    H      -16.32574        14.65541         3.24086
|104>    H      -15.20932        16.88580         4.15439
|105>    H      -12.41821        21.27315         5.15333
|106>    H       -9.75420        18.84669         1.66791
|107>    H      -10.27674        23.07575         5.17388
|108> *
|109>
|110>                          ****END OF INPUT****

CARTESIAN COORDINATES (ANGSTROEM)
---------------------------------
  C     -1.312980    0.039900   -1.721150
  C     -1.672930   -0.540620   -2.909660
  C     -0.872200   -1.469770   -3.608770
  N     -0.275760   -2.232280   -4.225270
  C     -2.856810   -0.289760   -3.636070
  N     -3.781200   -0.136690   -4.300560
  C     -0.041570   -0.169570   -1.040480
  C      0.023630    0.699300    0.074960
  C      1.109070    0.752450    0.915620
  C      2.184040   -0.099700    0.644710
  C      2.108350   -0.972420   -0.468130
  C      1.011590   -1.022130   -1.319030
  S      3.540610   -1.944140   -0.616260
  C      4.213570   -1.174830    0.796670
  C      3.408460   -0.238350    1.353070
  Br     5.913340   -1.681790    1.403560
  C     -1.220050    1.485280    0.165570
  O     -1.468940    2.318370    1.009880
  C     -2.076680    1.012500   -0.950550
  C     -3.385950    1.315060   -1.199490
  C     -4.263910    2.241900   -0.599380
  C     -4.085550    3.244680    0.345820
  C     -5.263310    3.933860    0.604540
  C     -6.360530    3.456320   -0.144810
  S     -5.938110    2.174580   -1.172020
  C     -7.506490    4.217270    0.200920
  C     -7.137240    5.174250    1.159550
  C     -5.720160    5.025390    1.453220
  C     -4.990280    5.750850    2.346100
  C     -3.605170    5.562340    2.550790
  N     -2.479530    5.448300    2.732050
  C     -5.578950    6.749400    3.153720
  N     -6.051120    7.545010    3.830410
  C     -8.202870    5.991680    1.543740
  C     -9.370880    5.646730    0.896750
  S     -9.160550    4.298620   -0.205810
  C    -10.658210    6.269640    1.048860
  C    -11.872840    5.618980    0.903110
  C    -12.085610    4.269310    0.619560
  N    -12.276010    3.157420    0.405280
  S    -13.230910    6.665130    1.182390
  C    -12.179500    8.012000    1.489890
  C    -10.843380    7.644710    1.378480
  C     -9.780620    8.554370    1.498810
  N     -8.910460    9.299560    1.567270
  C    -12.738850    9.280680    1.801850
  C    -14.091280    9.554840    1.932610
  C    -14.323210   10.889360    2.250700
  C    -13.135380   11.635420    2.357260
  S    -11.738980   10.699550    2.072690
  C    -13.474780   12.975240    2.674050
  C    -14.874590   13.072130    2.783350
  C    -15.454420   11.766080    2.516190
  C    -16.774950   11.429410    2.512450
  C    -17.207530   10.116080    2.227940
  N    -17.551180    9.046520    2.000360
  C    -17.791880   12.365470    2.800510
  N    -18.620120   13.119400    3.043220
  C    -15.301480   14.356730    3.109290
  C    -14.247520   15.249930    3.200340
  S    -12.693740   14.462570    2.941260
  C    -14.352430   16.623630    3.539900
  C    -13.498340   17.644130    3.274980
  C    -12.379240   17.777720    2.362290
  C    -12.253320   17.161510    1.145160
  C    -11.199420   17.414930    0.242970
  N    -10.356810   17.578500   -0.518380
  C    -13.218300   16.279200    0.617310
  N    -13.998000   15.584790    0.140060
  C    -11.581270   18.907870    2.820540
  C    -12.309950   19.604390    3.819290
  C    -13.576640   18.896540    4.084430
  O    -14.471090   19.216870    4.829780
  C    -11.839930   20.755670    4.404170
  C    -10.592280   21.235130    3.991750
  C     -9.865610   20.521860    3.006410
  C    -10.342380   19.361350    2.409750
  S     -8.348030   21.287140    2.652480
  C     -8.705800   22.542320    3.809130
  C     -9.899150   22.394730    4.433280
  Br    -7.471700   23.926190    4.083030
  H      1.125820    1.430750    1.754180
  H      1.003410   -1.706840   -2.150180
  H      3.665620    0.331830    2.226930
  H     -3.861640    0.744250   -1.988650
  H     -3.135110    3.435630    0.811530
  H     -8.137230    6.782100    2.268590
  H    -14.854620    8.808420    1.801320
  H    -16.325740   14.655410    3.240860
  H    -15.209320   16.885800    4.154390
  H    -12.418210   21.273150    5.153330
  H     -9.754200   18.846690    1.667910
  H    -10.276740   23.075750    5.173880

 Total Charge           Charge          ....    0
 Multiplicity           Mult            ....    1
 Number of Electrons    NEL             ....  640
 Basis Dimension        Dim             .... 1258

ORBITAL ENERGIES
----------------

  NO   OCC          E(Eh)            E(eV)
   0   2.0000    -482.892424    -13140.1709
   1   2.0000    -482.887834    -13140.0460
   2   2.0000     -89.013678     -2422.1853
   3   2.0000     -89.012377     -2422.1499
   4   2.0000     -89.008374     -2422.0410
   5   2.0000     -89.005543     -2421.9640
   6   2.0000     -89.001613     -2421.8570
   7   2.0000     -88.984166     -2421.3823
   8   2.0000     -88.978230     -2421.2207
   9   2.0000     -62.570118     -1702.6195
  10   2.0000     -62.565511     -1702.4941
  11   2.0000     -56.404079     -1534.8330
  12   2.0000     -56.401344     -1534.7586
  13   2.0000     -56.401317     -1534.7579
  14   2.0000     -56.399466     -1534.7075
  15   2.0000     -56.396742     -1534.6334
  16   2.0000     -56.396714     -1534.6326
  17   2.0000     -19.227065      -523.1950
  18   2.0000     -19.224579      -523.1274
  19   2.0000     -14.445022      -393.0690
  20   2.0000     -14.443240      -393.0205
  21   2.0000     -14.437057      -392.8523
  22   2.0000     -14.435740      -392.8165
  23   2.0000     -14.433449      -392.7541
  24   2.0000     -14.433159      -392.7462
  25   2.0000     -14.427259      -392.5857
  26   2.0000     -14.427102      -392.5814
  27   2.0000     -14.422022      -392.4432
  28   2.0000     -14.418549      -392.3487
  29   2.0000     -10.381438      -282.4933
  30   2.0000     -10.378524      -282.4140
  31   2.0000     -10.375508      -282.3319
  32   2.0000     -10.373895      -282.2880
  33   2.0000     -10.373387      -282.2742
  34   2.0000     -10.368339      -282.1369
  35   2.0000     -10.367085      -282.1027
  36   2.0000     -10.362873      -281.9881
  37   2.0000     -10.361756      -281.9577
  38   2.0000     -10.359578      -281.8985
  39   2.0000     -10.357066      -281.8301
  40   2.0000     -10.355812      -281.7960
  41   2.0000     -10.355169      -281.7785
  42   2.0000     -10.354798      -281.7684
  43   2.0000     -10.354557      -281.7618
  44   2.0000     -10.352940      -281.7178
  45   2.0000     -10.351043      -281.6662
  46   2.0000     -10.349868      -281.6342
  47   2.0000     -10.347469      -281.5689
  48   2.0000     -10.346900      -281.5535
  49   2.0000     -10.346572      -281.5445
  50   2.0000     -10.345116      -281.5049
  51   2.0000     -10.344809      -281.4966
  52   2.0000     -10.342779      -281.4413
  53   2.0000     -10.342066      -281.4219
  54   2.0000     -10.336341      -281.2661
  55   2.0000     -10.336049      -281.2582
  56   2.0000     -10.335725      -281.2494
  57   2.0000     -10.335160      -281.2340
  58   2.0000     -10.335076      -281.2317
  59   2.0000     -10.335053      -281.2311
  60   2.0000     -10.332963      -281.1742
  61   2.0000     -10.332021      -281.1486
  62   2.0000     -10.329559      -281.0816
  63   2.0000     -10.329236      -281.0728
  64   2.0000     -10.329028      -281.0672
  65   2.0000     -10.328841      -281.0620
  66   2.0000     -10.326373      -280.9949
  67   2.0000     -10.324881      -280.9543
  68   2.0000     -10.323887      -280.9272
  69   2.0000     -10.322268      -280.8832
  70   2.0000     -10.321508      -280.8625
  71   2.0000     -10.320202      -280.8270
  72   2.0000     -10.318593      -280.7832
  73   2.0000     -10.317712      -280.7592
  74   2.0000     -10.317237      -280.7463
  75   2.0000     -10.316484      -280.7258
  76   2.0000     -10.315127      -280.6889
  77   2.0000     -10.313416      -280.6423
  78   2.0000     -10.312037      -280.6048
  79   2.0000     -10.311580      -280.5924
  80   2.0000     -10.310926      -280.5746
  81   2.0000     -10.310894      -280.5737
  82   2.0000     -10.309205      -280.5277
  83   2.0000     -10.308242      -280.5015
  84   2.0000     -10.304522      -280.4003
  85   2.0000     -10.304228      -280.3923
  86   2.0000     -10.304210      -280.3918
  87   2.0000     -10.299118      -280.2532
  88   2.0000     -10.295999      -280.1684
  89   2.0000      -8.799538      -239.4476
  90   2.0000      -8.794929      -239.3222
  91   2.0000      -8.107530      -220.6171
  92   2.0000      -8.107390      -220.6133
  93   2.0000      -8.102528      -220.4810
  94   2.0000      -8.099749      -220.4054
  95   2.0000      -8.096409      -220.3145
  96   2.0000      -8.080167      -219.8725
  97   2.0000      -8.074280      -219.7123
  98   2.0000      -6.635876      -180.5714
  99   2.0000      -6.631221      -180.4447
 100   2.0000      -6.621271      -180.1739
 101   2.0000      -6.621030      -180.1674
 102   2.0000      -6.616676      -180.0489
 103   2.0000      -6.616450      -180.0428
 104   2.0000      -6.076894      -165.3607
 105   2.0000      -6.076814      -165.3585
 106   2.0000      -6.072541      -165.2422
 107   2.0000      -6.072448      -165.2397
 108   2.0000      -6.071788      -165.2217
 109   2.0000      -6.069927      -165.1711
 110   2.0000      -6.069182      -165.1508
 111   2.0000      -6.069021      -165.1465
 112   2.0000      -6.067518      -165.1055
 113   2.0000      -6.065450      -165.0493
 114   2.0000      -6.064968      -165.0362
 115   2.0000      -6.064675      -165.0282
 116   2.0000      -6.062186      -164.9605
 117   2.0000      -6.061341      -164.9375
 118   2.0000      -6.059015      -164.8742
 119   2.0000      -6.049841      -164.6245
 120   2.0000      -6.045571      -164.5083
 121   2.0000      -6.043966      -164.4647
 122   2.0000      -6.041407      -164.3950
 123   2.0000      -6.039692      -164.3484
 124   2.0000      -6.035482      -164.2338
 125   2.0000      -2.751767       -74.8794
 126   2.0000      -2.747615       -74.7664
 127   2.0000      -2.747479       -74.7627
 128   2.0000      -2.747128       -74.7531
 129   2.0000      -2.743008       -74.6410
 130   2.0000      -2.742826       -74.6361
 131   2.0000      -2.735859       -74.4465
 132   2.0000      -2.735843       -74.4461
 133   2.0000      -2.731269       -74.3216
 134   2.0000      -2.731256       -74.3212
 135   2.0000      -1.143053       -31.1040
 136   2.0000      -1.140370       -31.0311
 137   2.0000      -1.066818       -29.0296
 138   2.0000      -1.059588       -28.8329
 139   2.0000      -1.051968       -28.6255
 140   2.0000      -1.036953       -28.2169
 141   2.0000      -1.034536       -28.1512
 142   2.0000      -1.027699       -27.9651
 143   2.0000      -1.027106       -27.9490
 144   2.0000      -1.024948       -27.8903
 145   2.0000      -1.022094       -27.8126
 146   2.0000      -1.021327       -27.7917
 147   2.0000      -1.018165       -27.7057
 148   2.0000      -1.017779       -27.6952
 149   2.0000      -1.012106       -27.5408
 150   2.0000      -1.010253       -27.4904
 151   2.0000      -1.008301       -27.4373
 152   2.0000      -1.004871       -27.3439
 153   2.0000      -1.001102       -27.2414
 154   2.0000      -0.999125       -27.1876
 155   2.0000      -0.994124       -27.0515
 156   2.0000      -0.978035       -26.6137
 157   2.0000      -0.969985       -26.3946
 158   2.0000      -0.953606       -25.9489
 159   2.0000      -0.947241       -25.7757
 160   2.0000      -0.939739       -25.5716
 161   2.0000      -0.930324       -25.3154
 162   2.0000      -0.919286       -25.0151
 163   2.0000      -0.914531       -24.8857
 164   2.0000      -0.912525       -24.8311
 165   2.0000      -0.911928       -24.8148
 166   2.0000      -0.902616       -24.5614
 167   2.0000      -0.896829       -24.4040
 168   2.0000      -0.896042       -24.3825
 169   2.0000      -0.889315       -24.1995
 170   2.0000      -0.887774       -24.1576
 171   2.0000      -0.879815       -23.9410
 172   2.0000      -0.875807       -23.8319
 173   2.0000      -0.870285       -23.6817
 174   2.0000      -0.866676       -23.5835
 175   2.0000      -0.860813       -23.4239
 176   2.0000      -0.839214       -22.8362
 177   2.0000      -0.832824       -22.6623
 178   2.0000      -0.825582       -22.4652
 179   2.0000      -0.811727       -22.0882
 180   2.0000      -0.798636       -21.7320
 181   2.0000      -0.794219       -21.6118
 182   2.0000      -0.786960       -21.4143
 183   2.0000      -0.781209       -21.2578
 184   2.0000      -0.772751       -21.0276
 185   2.0000      -0.765872       -20.8404
 186   2.0000      -0.759912       -20.6783
 187   2.0000      -0.752006       -20.4631
 188   2.0000      -0.733048       -19.9473
 189   2.0000      -0.723706       -19.6930
 190   2.0000      -0.716956       -19.5094
 191   2.0000      -0.714570       -19.4444
 192   2.0000      -0.705326       -19.1929
 193   2.0000      -0.702501       -19.1160
 194   2.0000      -0.699548       -19.0357
 195   2.0000      -0.698367       -19.0035
 196   2.0000      -0.696181       -18.9440
 197   2.0000      -0.690120       -18.7791
 198   2.0000      -0.684240       -18.6191
 199   2.0000      -0.674428       -18.3521
 200   2.0000      -0.664182       -18.0733
 201   2.0000      -0.663102       -18.0439
 202   2.0000      -0.650433       -17.6992
 203   2.0000      -0.648884       -17.6570
 204   2.0000      -0.646732       -17.5985
 205   2.0000      -0.640750       -17.4357
 206   2.0000      -0.636656       -17.3243
 207   2.0000      -0.634638       -17.2694
 208   2.0000      -0.630261       -17.1503
 209   2.0000      -0.628213       -17.0946
 210   2.0000      -0.620939       -16.8966
 211   2.0000      -0.612082       -16.6556
 212   2.0000      -0.608625       -16.5615
 213   2.0000      -0.608360       -16.5543
 214   2.0000      -0.601842       -16.3769
 215   2.0000      -0.595022       -16.1914
 216   2.0000      -0.590855       -16.0780
 217   2.0000      -0.583841       -15.8871
 218   2.0000      -0.573016       -15.5926
 219   2.0000      -0.570968       -15.5368
 220   2.0000      -0.568749       -15.4764
 221   2.0000      -0.561179       -15.2705
 222   2.0000      -0.560419       -15.2498
 223   2.0000      -0.556173       -15.1342
 224   2.0000      -0.553342       -15.0572
 225   2.0000      -0.552111       -15.0237
 226   2.0000      -0.550642       -14.9837
 227   2.0000      -0.546059       -14.8590
 228   2.0000      -0.544848       -14.8261
 229   2.0000      -0.544070       -14.8049
 230   2.0000      -0.541432       -14.7331
 231   2.0000      -0.537343       -14.6218
 232   2.0000      -0.532142       -14.4803
 233   2.0000      -0.529980       -14.4215
 234   2.0000      -0.523943       -14.2572
 235   2.0000      -0.522889       -14.2285
 236   2.0000      -0.521951       -14.2030
 237   2.0000      -0.521680       -14.1956
 238   2.0000      -0.518057       -14.0970
 239   2.0000      -0.516271       -14.0485
 240   2.0000      -0.513650       -13.9771
 241   2.0000      -0.512703       -13.9514
 242   2.0000      -0.510463       -13.8904
 243   2.0000      -0.510294       -13.8858
 244   2.0000      -0.508109       -13.8263
 245   2.0000      -0.505226       -13.7479
 246   2.0000      -0.502884       -13.6842
 247   2.0000      -0.500307       -13.6140
 248   2.0000      -0.499250       -13.5853
 249   2.0000      -0.497122       -13.5274
 250   2.0000      -0.496376       -13.5071
 251   2.0000      -0.491375       -13.3710
 252   2.0000      -0.486075       -13.2268
 253   2.0000      -0.484390       -13.1809
 254   2.0000      -0.483071       -13.1450
 255   2.0000      -0.478074       -13.0091
 256   2.0000      -0.477465       -12.9925
 257   2.0000      -0.474690       -12.9170
 258   2.0000      -0.474350       -12.9077
 259   2.0000      -0.469705       -12.7813
 260   2.0000      -0.467974       -12.7342
 261   2.0000      -0.466979       -12.7072
 262   2.0000      -0.464909       -12.6508
 263   2.0000      -0.461981       -12.5711
 264   2.0000      -0.461652       -12.5622
 265   2.0000      -0.461242       -12.5510
 266   2.0000      -0.459918       -12.5150
 267   2.0000      -0.459141       -12.4939
 268   2.0000      -0.457968       -12.4619
 269   2.0000      -0.456557       -12.4236
 270   2.0000      -0.456467       -12.4211
 271   2.0000      -0.453855       -12.3500
 272   2.0000      -0.453705       -12.3459
 273   2.0000      -0.453478       -12.3398
 274   2.0000      -0.453188       -12.3319
 275   2.0000      -0.452708       -12.3188
 276   2.0000      -0.451837       -12.2951
 277   2.0000      -0.447791       -12.1850
 278   2.0000      -0.447446       -12.1756
 279   2.0000      -0.444110       -12.0848
 280   2.0000      -0.443147       -12.0587
 281   2.0000      -0.442336       -12.0366
 282   2.0000      -0.441185       -12.0053
 283   2.0000      -0.440115       -11.9761
 284   2.0000      -0.439302       -11.9540
 285   2.0000      -0.437534       -11.9059
 286   2.0000      -0.432811       -11.7774
 287   2.0000      -0.431972       -11.7546
 288   2.0000      -0.431174       -11.7328
 289   2.0000      -0.430410       -11.7121
 290   2.0000      -0.427285       -11.6270
 291   2.0000      -0.424217       -11.5435
 292   2.0000      -0.421334       -11.4651
 293   2.0000      -0.417684       -11.3658
 294   2.0000      -0.416659       -11.3379
 295   2.0000      -0.411947       -11.2096
 296   2.0000      -0.406466       -11.0605
 297   2.0000      -0.401486       -10.9250
 298   2.0000      -0.396422       -10.7872
 299   2.0000      -0.391132       -10.6432
 300   2.0000      -0.386010       -10.5039
 301   2.0000      -0.381651       -10.3852
 302   2.0000      -0.377940       -10.2843
 303   2.0000      -0.376970       -10.2579
 304   2.0000      -0.367489        -9.9999
 305   2.0000      -0.363322        -9.8865
 306   2.0000      -0.362259        -9.8576
 307   2.0000      -0.359792        -9.7904
 308   2.0000      -0.348718        -9.4891
 309   2.0000      -0.346301        -9.4233
 310   2.0000      -0.340006        -9.2520
 311   2.0000      -0.335430        -9.1275
 312   2.0000      -0.330366        -8.9897
 313   2.0000      -0.324826        -8.8390
 314   2.0000      -0.323627        -8.8063
 315   2.0000      -0.319052        -8.6818
 316   2.0000      -0.303381        -8.2554
 317   2.0000      -0.297308        -8.0902
 318   2.0000      -0.283424        -7.7124
 319   2.0000      -0.275032        -7.4840
 320   0.0000      -0.127583        -3.4717
 321   0.0000      -0.118755        -3.2315
 322   0.0000      -0.100196        -2.7265
 323   0.0000      -0.093906        -2.5553
 324   0.0000      -0.081569        -2.2196

MULLIKEN ATOMIC CHARGES
-----------------------
   0 C :    0.308998
   1 C :   -0.351757
   2 C :   -0.181589
   3 N :    0.150074
   4 C :   -0.194010
   5 N :    0.153688
   6 C :    0.015540
   7 C :   -0.013831
   8 C :   -0.071071
   9 C :    0.118590
  10 C :   -0.090035
  11 C :   -0.020695
  12 S :    0.188786
  13 C :   -0.122237
  14 C :    0.038816
  15 Br:    0.027246
  16 C :    0.156328
  17 O :   -0.146203
  18 C :   -0.081126
  19 C :    0.034947
  20 C :   -0.114452
  21 C :   -0.010790
  22 C :   -0.000173
  23 C :   -0.084175
  24 S :    0.215267
  25 C :   -0.091652
  26 C :    0.017761
  27 C :    0.311046
  28 C :   -0.291362
  29 C :   -0.194139
  30 N :    0.197132
  31 C :   -0.190350
  32 N :    0.179699
  33 C :   -0.020341
  34 C :   -0.178091
  35 S :    0.232621
  36 C :    0.313139
  37 C :   -0.319821
  38 C :   -0.225707
  39 N :    0.168241
  40 S :    0.240348
  41 C :   -0.027906
  42 C :   -0.071754
  43 C :   -0.308254
  44 N :    0.182997
  45 C :   -0.080724
  46 C :   -0.061113
  47 C :    0.032337
  48 C :   -0.084240
  49 S :    0.236780
  50 C :   -0.085727
  51 C :    0.032262
  52 C :    0.297100
  53 C :   -0.284746
  54 C :   -0.186059
  55 N :    0.177996
  56 C :   -0.189414
  57 N :    0.184770
  58 C :    0.010190
  59 C :   -0.099161
  60 S :    0.221645
  61 C :    0.041253
  62 C :   -0.126541
  63 C :    0.249331
  64 C :   -0.323837
  65 C :   -0.176376
  66 N :    0.163362
  67 C :   -0.205454
  68 N :    0.172557
  69 C :    0.002897
  70 C :    0.001440
  71 C :    0.138159
  72 O :   -0.136175
  73 C :   -0.068287
  74 C :    0.112970
  75 C :   -0.086749
  76 C :   -0.019053
  77 S :    0.191164
  78 C :   -0.124213
  79 C :    0.041575
  80 Br:    0.031042
  81 H :   -0.003733
  82 H :   -0.003759
  83 H :   -0.001144
  84 H :    0.009812
  85 H :    0.040238
  86 H :    0.028983
  87 H :    0.024664
  88 H :    0.020615
  89 H :    0.038611
  90 H :   -0.004859
  91 H :    0.000419
  92 H :   -0.000548
Sum of atomic charges:   -0.0000000

LOEWDIN ATOMIC CHARGES
----------------------
   0 C :    0.076943
   1 C :   -0.141050
   2 C :   -0.017789
   3 N :   -0.051231
   4 C :   -0.024589
   5 N :   -0.051023
   6 C :   -0.022229
   7 C :   -0.050838
   8 C :    0.024760
   9 C :   -0.031119
  10 C :   -0.143189
  11 C :   -0.008917
  12 S :    0.434611
  13 C :   -0.270321
  14 C :   -0.069438
  15 Br:    0.139783
  16 C :    0.087784
  17 O :   -0.133398
  18 C :   -0.091965
  19 C :    0.040932
  20 C :   -0.173426
  21 C :    0.015699
  22 C :   -0.069648
  23 C :   -0.164200
  24 S :    0.505371
  25 C :   -0.179670
  26 C :   -0.057950
  27 C :    0.073351
  28 C :   -0.088866
  29 C :   -0.023003
  30 N :   -0.012570
  31 C :   -0.017298
  32 N :   -0.022746
  33 C :   -0.011012
  34 C :   -0.171697
  35 S :    0.520200
  36 C :   -0.012335
  37 C :   -0.230577
  38 C :   -0.077035
  39 N :   -0.031102
  40 S :    0.515051
  41 C :   -0.128095
  42 C :   -0.112936
  43 C :   -0.053936
  44 N :   -0.032029
  45 C :   -0.192993
  46 C :   -0.017512
  47 C :   -0.059441
  48 C :   -0.171625
  49 S :    0.532136
  50 C :   -0.160995
  51 C :   -0.062783
  52 C :    0.078379
  53 C :   -0.091721
  54 C :   -0.016135
  55 N :   -0.026067
  56 C :   -0.017733
  57 N :   -0.020594
  58 C :    0.010715
  59 C :   -0.172308
  60 S :    0.516318
  61 C :    0.047668
  62 C :   -0.090525
  63 C :    0.060618
  64 C :   -0.140114
  65 C :   -0.021391
  66 N :   -0.043286
  67 C :   -0.034744
  68 N :   -0.047000
  69 C :   -0.019276
  70 C :   -0.053450
  71 C :    0.084383
  72 O :   -0.135569
  73 C :    0.025459
  74 C :   -0.031196
  75 C :   -0.141939
  76 C :   -0.010466
  77 S :    0.437125
  78 C :   -0.269535
  79 C :   -0.069497
  80 Br:    0.142716
  81 H :    0.043308
  82 H :    0.041498
  83 H :    0.039831
  84 H :    0.042837
  85 H :    0.043457
  86 H :    0.046076
  87 H :    0.038625
  88 H :    0.048090
  89 H :    0.056364
  90 H :    0.043122
  91 H :    0.041872
  92 H :    0.040042

  Mayer bond orders larger than 0.100000
B(  0-C ,  1-C ) :   1.6248 B(  0-C ,  6-C ) :   1.0016 B(  0-C , 18-C ) :   1.0760
B(  1-C ,  2-C ) :   1.1443 B(  1-C ,  4-C ) :   1.1393 B(  2-C ,  3-N ) :   2.9684
B(  4-C ,  5-N ) :   2.9734 B(  6-C ,  7-C ) :   1.2734 B(  6-C , 11-C ) :   1.4057
B(  7-C ,  8-C ) :   1.4219 B(  7-C , 16-C ) :   0.9546 B(  8-C ,  9-C ) :   1.2447
B(  8-C , 81-H ) :   1.0179 B(  9-C , 10-C ) :   1.3009 B(  9-C , 14-C ) :   1.1636
B( 10-C , 11-C ) :   1.3346 B( 10-C , 12-S ) :   1.0873 B( 11-C , 82-H ) :   0.9795
B( 12-S , 13-C ) :   1.0862 B( 13-C , 14-C ) :   1.6169 B( 13-C , 15-Br) :   1.0213
B( 14-C , 83-H ) :   1.0009 B( 16-C , 17-O ) :   2.1697 B( 16-C , 18-C ) :   0.9349
B( 18-C , 19-C ) :   1.6102 B( 19-C , 20-C ) :   1.2044 B( 19-C , 84-H ) :   0.9095
B( 20-C , 21-C ) :   1.4060 B( 20-C , 24-S ) :   1.0840 B( 21-C , 22-C ) :   1.3037
B( 21-C , 85-H ) :   0.9706 B( 22-C , 23-C ) :   1.3911 B( 22-C , 27-C ) :   0.9928
B( 23-C , 24-S ) :   1.1677 B( 23-C , 25-C ) :   1.1879 B( 25-C , 26-C ) :   1.4322
B( 25-C , 35-S ) :   1.1353 B( 26-C , 27-C ) :   0.9871 B( 26-C , 33-C ) :   1.2960
B( 27-C , 28-C ) :   1.7222 B( 28-C , 29-C ) :   1.1363 B( 28-C , 31-C ) :   1.1357
B( 29-C , 30-N ) :   2.9980 B( 31-C , 32-N ) :   2.9841 B( 33-C , 34-C ) :   1.4748
B( 33-C , 86-H ) :   0.9826 B( 34-C , 35-S ) :   1.1181 B( 34-C , 36-C ) :   1.0494
B( 36-C , 37-C ) :   1.4976 B( 36-C , 42-C ) :   1.2693 B( 37-C , 38-C ) :   1.2144
B( 37-C , 40-S ) :   1.1118 B( 37-C , 41-C ) :   0.1085 B( 38-C , 39-N ) :   2.9956
B( 40-S , 41-C ) :   1.1618 B( 41-C , 42-C ) :   1.4720 B( 41-C , 45-C ) :   1.1806
B( 42-C , 43-C ) :   1.1088 B( 43-C , 44-N ) :   2.9734 B( 45-C , 46-C ) :   1.4209
B( 45-C , 49-S ) :   1.1093 B( 46-C , 47-C ) :   1.3265 B( 46-C , 87-H ) :   0.9838
B( 47-C , 48-C ) :   1.4215 B( 47-C , 52-C ) :   0.9898 B( 48-C , 49-S ) :   1.1371
B( 48-C , 50-C ) :   1.1976 B( 50-C , 51-C ) :   1.4141 B( 50-C , 60-S ) :   1.1503
B( 51-C , 52-C ) :   0.9924 B( 51-C , 58-C ) :   1.2964 B( 52-C , 53-C ) :   1.7261
B( 53-C , 54-C ) :   1.1335 B( 53-C , 56-C ) :   1.1323 B( 54-C , 55-N ) :   2.9868
B( 56-C , 57-N ) :   2.9936 B( 58-C , 59-C ) :   1.4165 B( 58-C , 88-H ) :   1.0010
B( 59-C , 60-S ) :   1.1012 B( 59-C , 61-C ) :   1.1057 B( 61-C , 62-C ) :   1.6832
B( 61-C , 89-H ) :   0.9448 B( 62-C , 63-C ) :   1.0228 B( 62-C , 71-C ) :   0.9314
B( 63-C , 64-C ) :   1.6581 B( 63-C , 69-C ) :   1.0214 B( 64-C , 65-C ) :   1.1296
B( 64-C , 67-C ) :   1.1580 B( 65-C , 66-N ) :   2.9946 B( 67-C , 68-N ) :   3.0155
B( 69-C , 70-C ) :   1.2732 B( 69-C , 76-C ) :   1.4100 B( 70-C , 71-C ) :   0.9231
B( 70-C , 73-C ) :   1.4247 B( 71-C , 72-O ) :   2.2751 B( 73-C , 74-C ) :   1.2538
B( 73-C , 90-H ) :   1.0166 B( 74-C , 75-C ) :   1.3011 B( 74-C , 79-C ) :   1.1650
B( 75-C , 76-C ) :   1.3310 B( 75-C , 77-S ) :   1.0869 B( 76-C , 91-H ) :   0.9838
B( 77-S , 78-C ) :   1.0874 B( 78-C , 79-C ) :   1.6165 B( 78-C , 80-Br) :   1.0234
B( 79-C , 92-H ) :   1.0009

-----------------------------------------------------------------------------
         ABSORPTION SPECTRUM VIA TRANSITION ELECTRIC DIPOLE MOMENTS
-----------------------------------------------------------------------------
State   Energy  Wavelength   fosc         T2         TX        TY        TZ
        (cm-1)    (nm)                  (au**2)     (au)      (au)      (au)
-----------------------------------------------------------------------------
   0   14811.6    675.1   0.318556038   7.08043  -0.73304   2.53466   0.34437
   1   16201.5    617.2   0.243728055   4.95252   1.87249  -1.08382  -0.52119
   2   21523.8    464.6   0.947575053  14.49342  -0.28419   3.79325   0.15470
   3   22544.2    443.6   0.038602759   0.56372  -0.65367   0.36413   0.06197
   4   22984.0    435.1   1.170553264  16.76644  -3.38817   1.90008   1.29477
   5   24004.4    416.6   0.101375172   1.39033   0.76500  -0.73552  -0.51392
   6   24544.6    407.4   0.108621552   1.45692  -0.81317  -0.76223  -0.46334
   7   25732.2    388.6   0.129717461   1.65958   1.11822  -0.38407   0.51152
   8   26901.0    371.7   0.345794695   4.23180   0.13534  -1.93566  -0.68316
   9   27535.1    363.2   0.303173934   3.62477   1.55848  -0.97878  -0.48775
  10   28368.8    352.5   0.118665872   1.37709  -0.99847   0.60915  -0.09534
  11   28418.1    351.9   0.021502164   0.24909   0.46484   0.07147   0.16707
  12   28753.2    347.8   0.099912413   1.14395   0.89827  -0.55494   0.17062
  13   28902.2    346.0   0.031808809   0.36232   0.44795  -0.40125  -0.02566
  14   29057.2    344.1   0.022723631   0.25745   0.48582   0.13135  -0.06467
  15   29284.7    341.5   0.042077630   0.47303   0.35548  -0.57660  -0.11912
  16   29795.1    335.6   0.113015842   1.24874  -0.74594   0.80237   0.22025
  17   30141.6    331.8   0.267895918   2.92601  -0.73844  -1.45392  -0.51655
  18   30294.4    330.1   0.183578959   1.99497   1.35510   0.10088  -0.38535
  19   30772.3    325.0   0.548072937   5.86347   1.90510   0.46451   1.42066
  20   31044.8    322.1   0.782773571   8.30085   2.30627   1.21669   1.22541
  21   31270.2    319.8   0.038430740   0.40460  -0.55761  -0.30558   0.01705
  22   31441.2    318.1   0.009676714   0.10132   0.17853   0.14679  -0.21886
  23   31794.0    314.5   0.018671981   0.19334  -0.14938  -0.29142   0.29343
  24   32053.6    312.0   0.077553644   0.79653   0.22165   0.85317  -0.13968
  25   32594.5    306.8   0.107592733   1.08671  -0.73328   0.73861   0.05890
  26   32658.0    306.2   0.235401848   2.37299   1.37409  -0.00134   0.69633
  27   32677.7    306.0   0.283650456   2.85764   0.60794   1.46132   0.59378
  28   33202.8    301.2   0.143038043   1.41825   0.97616  -0.50488  -0.45875
  29   33490.8    298.6   0.034160819   0.33580  -0.49851   0.09983  -0.27807
  30   33521.2    298.3   0.039343333   0.38639   0.21264  -0.42280  -0.40301
  31   33624.7    297.4   0.001232835   0.01207  -0.10576  -0.02047   0.02160
  32   33640.2    297.3   0.007378333   0.07221   0.12064  -0.15414  -0.18410
  33   34027.1    293.9   0.002454583   0.02375   0.08440  -0.10858  -0.06953
  34   34271.2    291.8   0.353835930   3.39897  -1.78264  -0.46987   0.01956
  35   34416.8    290.6   0.016667690   0.15943   0.31477   0.15374  -0.19163
  36   34499.6    289.9   0.287896953   2.74725   0.96056   0.44542   1.27522
  37   34896.2    286.6   0.232537114   2.19376  -0.41184  -0.96072  -1.04937
  38   35042.8    285.4   0.150247665   1.41151  -1.17310  -0.15801  -0.10187
  39   35132.6    284.6   0.017274696   0.16187  -0.14245   0.06817  -0.37005
  40   35369.5    282.7   0.163213063   1.51915   0.11104  -0.85204  -0.88366
  41   35516.1    281.6   0.083733505   0.77616   0.14156   0.77057   0.40290
  42   36408.0    274.7   0.000008507   0.00008  -0.00136   0.00360  -0.00788
  43   36627.2    273.0   0.124146402   1.11585   0.15862   0.75787   0.71856
  44   37467.5    266.9   0.006488995   0.05702   0.16382   0.16681  -0.04851
  45   37568.0    266.2   0.016169395   0.14169  -0.18647   0.26827   0.18695
  46   37894.6    263.9   0.065269883   0.56704   0.56158  -0.42223  -0.27090
  47   37980.3    263.3   0.015242765   0.13212  -0.34586   0.09798  -0.05389
  48   38100.6    262.5   0.009624159   0.08316   0.18922  -0.17874   0.12412
  49   38607.6    259.0   0.008688849   0.07409  -0.22766   0.06773   0.13294
  50   38754.8    258.0   0.029754780   0.25276  -0.23121   0.19059   0.40370
  51   38820.1    257.6   0.023144457   0.19628  -0.31374  -0.28923  -0.11910
  52   39078.7    255.9   0.030084894   0.25344   0.45476   0.00606  -0.21586
  53   39247.6    254.8   0.061797222   0.51836   0.45114  -0.42497  -0.36638
  54   39406.3    253.8   0.083138295   0.69456   0.78061  -0.23577  -0.17212
  55   39583.5    252.6   0.088683354   0.73757   0.21537  -0.69613  -0.45451
  56   39605.1    252.5   0.043393419   0.36070  -0.34198   0.14913   0.47065
  57   40080.7    249.5   0.049219963   0.40428   0.45306   0.40261   0.19216
  58   40134.8    249.2   0.077487251   0.63560  -0.62558  -0.05634   0.49100

FINAL SINGLE POINT ENERGY    -10921.976077135718

DIPOLE MOMENT
-------------
                                X             Y             Z
Electronic contribution:    123.29829      35.57583      20.40544
Nuclear contribution   :   -122.49080     -33.64960     -17.90228
                        -----------------------------------------
Total Dipole Moment    :      0.80749       1.92623       2.50315
                        -----------------------------------------
Magnitude (a.u.)       :      3.26009
Magnitude (Debye)      :      8.28649

Rotational constants in cm-1:     0.000688     0.000137     0.000118
Rotational constants in MHz :    20.612939     4.116121     3.533827

                             ****ORCA TERMINATED NORMALLY****
TOTAL RUN TIME: 0 days 0 hours 10 minutes 43 seconds 573 msec
