                         Program Version 4.2.0 -  RELEASE  -
|  1> # ORCA input file
|  2> # SCF done       -198.267475799521          0.000933813487
|  3> ! CAM-B3LYP def2-SVP def2/J RIJCOSX Grid4 TightSCF
|  4> %maxcore 5000
|  5> %tddft
|  6>     Mode sTDDFT
|  7>     Ethresh 5.0
|  8>     maxcore 5000
|  9> end
| 10>
| 11> %pal
| 12>   nprocs 6
| 13>   end
| 14> * xyz 0 1
| 15>    C       -0.85740         5.56880         6.90479
| 16>    C        0.05968         4.54974         6.97054
| 17>    C        1.26243         4.61499         7.70405
| 18>    N        2.25431         4.60346         8.28234
| 19>    C       -0.04502         3.29885         6.32845
| 20>    N       -0.04788         2.25638         5.84521
| 21>    C       -0.72570         6.85933         7.57652
| 22>    C       -1.86005         7.64974         7.26814
| 23>    C       -2.03311         8.92315         7.75181
| 24>    C       -1.03617         9.44526         8.58309
| 25>    C        0.09359         8.64989         8.88654
| 26>    C        0.26744         7.36089         8.39613
| 27>    S        1.20289         9.48650         9.92991
| 28>    C        0.14791        10.87453         9.94408
| 29>    C       -0.97729        10.72189         9.20620
| 30>   Br        0.63116        12.39465        10.93096
| 31>    C       -2.75513         6.88097         6.38494
| 32>    O       -3.82036         7.26578         5.93100
| 33>    C       -2.10925         5.58418         6.17581
| 34>    C       -2.61160         4.55282         5.41837
| 35>    C       -3.79249         4.46206         4.67481
| 36>    C       -4.12611         3.30340         3.96334
| 37>    C       -5.32394         3.41659         3.29215
| 38>    C       -5.94201         4.67382         3.47029
| 39>    S       -5.01815         5.71347         4.48844
| 40>    C       -7.14464         4.74600         2.76851
| 41>    C       -7.44859         3.55301         2.07326
| 42>    S       -6.22931         2.32538         2.26363
| 43>    C       -8.66831         3.73678         1.44434
| 44>    C       -9.07567         5.04503         1.74517
| 45>    N       -8.14489         5.64018         2.55324
| 46>    C       -8.21817         6.90854         3.22405
| 47>    C      -10.27903         5.65511         1.24232
| 48>    C      -10.36650         6.97690         0.75716
| 49>    C      -11.58332         7.48144         0.18512
| 50>    N      -11.63279         8.74326        -0.27715
| 51>    C      -10.55914         9.48005        -0.24296
| 52>    C       -9.35049         8.96505         0.26852
| 53>    N       -9.26582         7.76095         0.75890
| 54>    C      -12.75523         6.70233         0.05070
| 55>    C      -12.66980         5.38182         0.53796
| 56>    C      -11.44348         4.87236         1.11042
| 57>    N      -11.57896         3.60390         1.51026
| 58>    S      -13.06710         3.10715         1.19377
| 59>    N      -13.63349         4.45820         0.53946
| 60>    C      -13.90706         7.23494        -0.58583
| 61>    C      -15.10936         6.58833        -0.81999
| 62>    C      -16.00626         7.38911        -1.51451
| 63>    C      -15.50212         8.66327        -1.81669
| 64>    S      -13.88492         8.86582        -1.21955
| 65>    C      -16.42390         9.41652        -2.54433
| 66>    C      -17.62415         8.70574        -2.80459
| 67>    S      -17.62686         7.10914        -2.11433
| 68>    C      -18.43165         9.51373        -3.57991
| 69>    C      -17.72763        10.71934        -3.76972
| 70>    N      -16.51966        10.63939        -3.10638
| 71>    C      -15.48065        11.63119        -3.11813
| 72>    C      -18.14849        11.90160        -4.41026
| 73>    C      -19.13046        12.06028        -5.34666
| 74>    C      -19.79871        11.12523        -6.22024
| 75>    C      -19.27772         9.94891        -6.69977
| 76>    C      -19.93692         9.11502        -7.62344
| 77>    N      -20.45023         8.39417        -8.35517
| 78>    C      -17.97376         9.50536        -6.40455
| 79>    N      -16.89641         9.14373        -6.24031
| 80>    C      -20.99404        11.78726        -6.73433
| 81>    C      -20.94466        13.15690        -6.37036
| 82>    C      -19.73975        13.39728        -5.54962
| 83>    O      -19.34533        14.45044        -5.09865
| 84>    C      -21.90920        14.05547        -6.75528
| 85>    C      -22.97647        13.57882        -7.52471
| 86>    C      -23.02313        12.20723        -7.86949
| 87>    C      -22.04307        11.29852        -7.48792
| 88>    S      -24.43148        11.83301        -8.81530
| 89>    C      -24.92903        13.50273        -8.74168
| 90>    C      -24.08720        14.30010        -8.04254
| 91>   Br      -26.51353        14.03409        -9.59305
| 92>    H       -2.90915         9.49905         7.49767
| 93>    H        1.14696         6.79745         8.65832
| 94>    H       -1.73525        11.47707         9.10469
| 95>    H       -2.01480         3.65021         5.37052
| 96>    H       -3.49784         2.43109         3.95662
| 97>    H       -9.20214         3.04693         0.82520
| 98>    H       -9.25893         7.17700         3.39762
| 99>    H       -7.74846         7.69135         2.62730
|100>    H       -7.69877         6.83049         4.17956
|101>    H      -10.64118        10.48889        -0.62110
|102>    H       -8.44534         9.55703         0.27649
|103>    H      -15.29296         5.58029        -0.49948
|104>    H      -19.42010         9.30051        -3.93421
|105>    H      -15.81608        12.54744        -2.62681
|106>    H      -15.18735        11.86453        -4.14328
|107>    H      -14.61968        11.23663        -2.58154
|108>    H      -17.70204        12.82885        -4.06468
|109>    H      -21.84334        15.09497        -6.47485
|110>    H      -22.12037        10.26157        -7.77052
|111>    H      -24.24096        15.35373        -7.89707
|112> *
|113>
|114>                          ****END OF INPUT****

CARTESIAN COORDINATES (ANGSTROEM)
---------------------------------
  C     -0.857400    5.568800    6.904790
  C      0.059680    4.549740    6.970540
  C      1.262430    4.614990    7.704050
  N      2.254310    4.603460    8.282340
  C     -0.045020    3.298850    6.328450
  N     -0.047880    2.256380    5.845210
  C     -0.725700    6.859330    7.576520
  C     -1.860050    7.649740    7.268140
  C     -2.033110    8.923150    7.751810
  C     -1.036170    9.445260    8.583090
  C      0.093590    8.649890    8.886540
  C      0.267440    7.360890    8.396130
  S      1.202890    9.486500    9.929910
  C      0.147910   10.874530    9.944080
  C     -0.977290   10.721890    9.206200
  Br     0.631160   12.394650   10.930960
  C     -2.755130    6.880970    6.384940
  O     -3.820360    7.265780    5.931000
  C     -2.109250    5.584180    6.175810
  C     -2.611600    4.552820    5.418370
  C     -3.792490    4.462060    4.674810
  C     -4.126110    3.303400    3.963340
  C     -5.323940    3.416590    3.292150
  C     -5.942010    4.673820    3.470290
  S     -5.018150    5.713470    4.488440
  C     -7.144640    4.746000    2.768510
  C     -7.448590    3.553010    2.073260
  S     -6.229310    2.325380    2.263630
  C     -8.668310    3.736780    1.444340
  C     -9.075670    5.045030    1.745170
  N     -8.144890    5.640180    2.553240
  C     -8.218170    6.908540    3.224050
  C    -10.279030    5.655110    1.242320
  C    -10.366500    6.976900    0.757160
  C    -11.583320    7.481440    0.185120
  N    -11.632790    8.743260   -0.277150
  C    -10.559140    9.480050   -0.242960
  C     -9.350490    8.965050    0.268520
  N     -9.265820    7.760950    0.758900
  C    -12.755230    6.702330    0.050700
  C    -12.669800    5.381820    0.537960
  C    -11.443480    4.872360    1.110420
  N    -11.578960    3.603900    1.510260
  S    -13.067100    3.107150    1.193770
  N    -13.633490    4.458200    0.539460
  C    -13.907060    7.234940   -0.585830
  C    -15.109360    6.588330   -0.819990
  C    -16.006260    7.389110   -1.514510
  C    -15.502120    8.663270   -1.816690
  S    -13.884920    8.865820   -1.219550
  C    -16.423900    9.416520   -2.544330
  C    -17.624150    8.705740   -2.804590
  S    -17.626860    7.109140   -2.114330
  C    -18.431650    9.513730   -3.579910
  C    -17.727630   10.719340   -3.769720
  N    -16.519660   10.639390   -3.106380
  C    -15.480650   11.631190   -3.118130
  C    -18.148490   11.901600   -4.410260
  C    -19.130460   12.060280   -5.346660
  C    -19.798710   11.125230   -6.220240
  C    -19.277720    9.948910   -6.699770
  C    -19.936920    9.115020   -7.623440
  N    -20.450230    8.394170   -8.355170
  C    -17.973760    9.505360   -6.404550
  N    -16.896410    9.143730   -6.240310
  C    -20.994040   11.787260   -6.734330
  C    -20.944660   13.156900   -6.370360
  C    -19.739750   13.397280   -5.549620
  O    -19.345330   14.450440   -5.098650
  C    -21.909200   14.055470   -6.755280
  C    -22.976470   13.578820   -7.524710
  C    -23.023130   12.207230   -7.869490
  C    -22.043070   11.298520   -7.487920
  S    -24.431480   11.833010   -8.815300
  C    -24.929030   13.502730   -8.741680
  C    -24.087200   14.300100   -8.042540
  Br   -26.513530   14.034090   -9.593050
  H     -2.909150    9.499050    7.497670
  H      1.146960    6.797450    8.658320
  H     -1.735250   11.477070    9.104690
  H     -2.014800    3.650210    5.370520
  H     -3.497840    2.431090    3.956620
  H     -9.202140    3.046930    0.825200
  H     -9.258930    7.177000    3.397620
  H     -7.748460    7.691350    2.627300
  H     -7.698770    6.830490    4.179560
  H    -10.641180   10.488890   -0.621100
  H     -8.445340    9.557030    0.276490
  H    -15.292960    5.580290   -0.499480
  H    -19.420100    9.300510   -3.934210
  H    -15.816080   12.547440   -2.626810
  H    -15.187350   11.864530   -4.143280
  H    -14.619680   11.236630   -2.581540
  H    -17.702040   12.828850   -4.064680
  H    -21.843340   15.094970   -6.474850
  H    -22.120370   10.261570   -7.770520
  H    -24.240960   15.353730   -7.897070

 Total Charge           Charge          ....    0
 Multiplicity           Mult            ....    1
 Number of Electrons    NEL             ....  624
 Basis Dimension        Dim             .... 1242

ORBITAL ENERGIES
----------------

  NO   OCC          E(Eh)            E(eV)
   0   2.0000    -482.883896    -13139.9388
   1   2.0000    -482.883276    -13139.9220
   2   2.0000     -89.043996     -2423.0103
   3   2.0000     -88.973180     -2421.0833
   4   2.0000     -88.972394     -2421.0619
   5   2.0000     -88.964499     -2420.8471
   6   2.0000     -88.962364     -2420.7890
   7   2.0000     -88.954993     -2420.5884
   8   2.0000     -88.953757     -2420.5548
   9   2.0000     -62.561631     -1702.3885
  10   2.0000     -62.560988     -1702.3710
  11   2.0000     -56.395576     -1534.6016
  12   2.0000     -56.394935     -1534.5842
  13   2.0000     -56.392870     -1534.5280
  14   2.0000     -56.392831     -1534.5269
  15   2.0000     -56.392227     -1534.5105
  16   2.0000     -56.392191     -1534.5095
  17   2.0000     -19.216020      -522.8945
  18   2.0000     -19.208658      -522.6942
  19   2.0000     -14.481789      -394.0695
  20   2.0000     -14.477765      -393.9600
  21   2.0000     -14.452420      -393.2704
  22   2.0000     -14.451128      -393.2352
  23   2.0000     -14.449446      -393.1894
  24   2.0000     -14.445136      -393.0721
  25   2.0000     -14.411304      -392.1515
  26   2.0000     -14.409771      -392.1098
  27   2.0000     -14.408213      -392.0674
  28   2.0000     -14.408039      -392.0627
  29   2.0000     -10.364146      -282.0228
  30   2.0000     -10.359873      -281.9065
  31   2.0000     -10.356539      -281.8158
  32   2.0000     -10.355653      -281.7917
  33   2.0000     -10.343248      -281.4541
  34   2.0000     -10.341458      -281.4054
  35   2.0000     -10.340734      -281.3857
  36   2.0000     -10.340720      -281.3853
  37   2.0000     -10.340561      -281.3810
  38   2.0000     -10.337709      -281.3034
  39   2.0000     -10.335910      -281.2544
  40   2.0000     -10.335696      -281.2486
  41   2.0000     -10.334554      -281.2175
  42   2.0000     -10.333806      -281.1972
  43   2.0000     -10.327583      -281.0278
  44   2.0000     -10.323108      -280.9061
  45   2.0000     -10.322259      -280.8829
  46   2.0000     -10.322134      -280.8795
  47   2.0000     -10.321995      -280.8758
  48   2.0000     -10.318474      -280.7800
  49   2.0000     -10.317111      -280.7429
  50   2.0000     -10.316906      -280.7373
  51   2.0000     -10.315529      -280.6998
  52   2.0000     -10.314724      -280.6779
  53   2.0000     -10.314613      -280.6749
  54   2.0000     -10.313679      -280.6495
  55   2.0000     -10.313060      -280.6326
  56   2.0000     -10.312909      -280.6285
  57   2.0000     -10.312845      -280.6268
  58   2.0000     -10.312723      -280.6235
  59   2.0000     -10.312312      -280.6123
  60   2.0000     -10.311805      -280.5985
  61   2.0000     -10.310618      -280.5662
  62   2.0000     -10.305466      -280.4260
  63   2.0000     -10.304435      -280.3979
  64   2.0000     -10.304403      -280.3971
  65   2.0000     -10.303867      -280.3825
  66   2.0000     -10.303777      -280.3800
  67   2.0000     -10.303724      -280.3786
  68   2.0000     -10.301735      -280.3245
  69   2.0000     -10.301430      -280.3162
  70   2.0000     -10.300515      -280.2913
  71   2.0000     -10.299785      -280.2714
  72   2.0000     -10.298243      -280.2294
  73   2.0000     -10.297628      -280.2127
  74   2.0000     -10.297057      -280.1972
  75   2.0000     -10.296570      -280.1839
  76   2.0000     -10.294761      -280.1347
  77   2.0000     -10.293862      -280.1102
  78   2.0000     -10.288554      -279.9658
  79   2.0000     -10.288493      -279.9641
  80   2.0000     -10.288436      -279.9626
  81   2.0000     -10.288345      -279.9601
  82   2.0000     -10.285767      -279.8900
  83   2.0000     -10.284636      -279.8592
  84   2.0000     -10.272237      -279.5218
  85   2.0000      -8.791074      -239.2173
  86   2.0000      -8.790412      -239.1993
  87   2.0000      -8.135278      -221.3722
  88   2.0000      -8.069063      -219.5704
  89   2.0000      -8.068491      -219.5548
  90   2.0000      -8.056944      -219.2406
  91   2.0000      -8.054587      -219.1764
  92   2.0000      -8.049903      -219.0490
  93   2.0000      -8.048846      -219.0202
  94   2.0000      -6.627370      -180.3399
  95   2.0000      -6.626692      -180.3215
  96   2.0000      -6.612794      -179.9433
  97   2.0000      -6.612630      -179.9388
  98   2.0000      -6.612145      -179.9256
  99   2.0000      -6.611973      -179.9209
 100   2.0000      -6.106329      -166.1617
 101   2.0000      -6.098486      -165.9482
 102   2.0000      -6.098213      -165.9408
 103   2.0000      -6.038754      -164.3228
 104   2.0000      -6.038185      -164.3074
 105   2.0000      -6.034474      -164.2064
 106   2.0000      -6.033908      -164.1910
 107   2.0000      -6.030330      -164.0936
 108   2.0000      -6.029676      -164.0758
 109   2.0000      -6.026746      -163.9961
 110   2.0000      -6.024597      -163.9376
 111   2.0000      -6.022117      -163.8701
 112   2.0000      -6.019879      -163.8092
 113   2.0000      -6.019789      -163.8068
 114   2.0000      -6.018771      -163.7791
 115   2.0000      -6.018652      -163.7759
 116   2.0000      -6.016234      -163.7100
 117   2.0000      -6.015980      -163.7031
 118   2.0000      -6.014892      -163.6735
 119   2.0000      -6.010505      -163.5542
 120   2.0000      -6.009465      -163.5259
 121   2.0000      -2.743230       -74.6471
 122   2.0000      -2.742568       -74.6291
 123   2.0000      -2.739168       -74.5366
 124   2.0000      -2.739008       -74.5322
 125   2.0000      -2.738482       -74.5179
 126   2.0000      -2.738351       -74.5143
 127   2.0000      -2.727451       -74.2177
 128   2.0000      -2.727433       -74.2172
 129   2.0000      -2.726793       -74.1998
 130   2.0000      -2.726767       -74.1991
 131   2.0000      -1.140793       -31.0426
 132   2.0000      -1.131014       -30.7765
 133   2.0000      -1.123381       -30.5688
 134   2.0000      -1.107377       -30.1332
 135   2.0000      -1.106496       -30.1093
 136   2.0000      -1.100484       -29.9457
 137   2.0000      -1.030166       -28.0322
 138   2.0000      -1.019082       -27.7306
 139   2.0000      -1.018673       -27.7195
 140   2.0000      -1.009221       -27.4623
 141   2.0000      -1.007939       -27.4274
 142   2.0000      -1.004901       -27.3447
 143   2.0000      -1.002991       -27.2928
 144   2.0000      -0.993119       -27.0242
 145   2.0000      -0.988919       -26.9098
 146   2.0000      -0.987879       -26.8816
 147   2.0000      -0.985141       -26.8070
 148   2.0000      -0.984382       -26.7864
 149   2.0000      -0.972948       -26.4753
 150   2.0000      -0.949511       -25.8375
 151   2.0000      -0.943901       -25.6849
 152   2.0000      -0.939548       -25.5664
 153   2.0000      -0.936895       -25.4942
 154   2.0000      -0.912237       -24.8232
 155   2.0000      -0.906008       -24.6537
 156   2.0000      -0.904607       -24.6156
 157   2.0000      -0.903846       -24.5949
 158   2.0000      -0.893708       -24.3190
 159   2.0000      -0.886237       -24.1157
 160   2.0000      -0.884945       -24.0806
 161   2.0000      -0.882385       -24.0109
 162   2.0000      -0.882090       -24.0029
 163   2.0000      -0.876043       -23.8383
 164   2.0000      -0.866710       -23.5844
 165   2.0000      -0.865075       -23.5399
 166   2.0000      -0.851037       -23.1579
 167   2.0000      -0.842804       -22.9339
 168   2.0000      -0.826342       -22.4859
 169   2.0000      -0.825579       -22.4652
 170   2.0000      -0.820725       -22.3331
 171   2.0000      -0.815524       -22.1915
 172   2.0000      -0.810234       -22.0476
 173   2.0000      -0.797793       -21.7091
 174   2.0000      -0.793775       -21.5997
 175   2.0000      -0.781918       -21.2771
 176   2.0000      -0.776986       -21.1429
 177   2.0000      -0.769552       -20.9406
 178   2.0000      -0.766061       -20.8456
 179   2.0000      -0.757158       -20.6033
 180   2.0000      -0.755516       -20.5586
 181   2.0000      -0.745131       -20.2760
 182   2.0000      -0.731121       -19.8948
 183   2.0000      -0.716343       -19.4927
 184   2.0000      -0.714209       -19.4346
 185   2.0000      -0.699656       -19.0386
 186   2.0000      -0.691329       -18.8120
 187   2.0000      -0.687487       -18.7075
 188   2.0000      -0.686865       -18.6905
 189   2.0000      -0.681169       -18.5356
 190   2.0000      -0.675196       -18.3730
 191   2.0000      -0.670964       -18.2579
 192   2.0000      -0.669101       -18.2072
 193   2.0000      -0.658836       -17.9278
 194   2.0000      -0.656228       -17.8569
 195   2.0000      -0.651643       -17.7321
 196   2.0000      -0.646052       -17.5800
 197   2.0000      -0.640920       -17.4403
 198   2.0000      -0.637262       -17.3408
 199   2.0000      -0.635387       -17.2898
 200   2.0000      -0.632931       -17.2229
 201   2.0000      -0.625189       -17.0122
 202   2.0000      -0.621246       -16.9050
 203   2.0000      -0.619341       -16.8531
 204   2.0000      -0.618355       -16.8263
 205   2.0000      -0.600432       -16.3386
 206   2.0000      -0.596443       -16.2300
 207   2.0000      -0.592196       -16.1145
 208   2.0000      -0.591319       -16.0906
 209   2.0000      -0.588251       -16.0071
 210   2.0000      -0.584319       -15.9001
 211   2.0000      -0.582362       -15.8469
 212   2.0000      -0.574863       -15.6428
 213   2.0000      -0.572147       -15.5689
 214   2.0000      -0.571292       -15.5456
 215   2.0000      -0.567976       -15.4554
 216   2.0000      -0.564277       -15.3548
 217   2.0000      -0.563038       -15.3210
 218   2.0000      -0.553518       -15.0620
 219   2.0000      -0.549352       -14.9486
 220   2.0000      -0.544213       -14.8088
 221   2.0000      -0.542209       -14.7543
 222   2.0000      -0.540723       -14.7138
 223   2.0000      -0.537857       -14.6358
 224   2.0000      -0.537750       -14.6329
 225   2.0000      -0.533692       -14.5225
 226   2.0000      -0.532049       -14.4778
 227   2.0000      -0.529556       -14.4100
 228   2.0000      -0.527107       -14.3433
 229   2.0000      -0.522585       -14.2202
 230   2.0000      -0.519905       -14.1473
 231   2.0000      -0.516699       -14.0601
 232   2.0000      -0.512043       -13.9334
 233   2.0000      -0.511050       -13.9064
 234   2.0000      -0.510312       -13.8863
 235   2.0000      -0.508948       -13.8492
 236   2.0000      -0.507918       -13.8211
 237   2.0000      -0.505052       -13.7432
 238   2.0000      -0.503820       -13.7096
 239   2.0000      -0.503046       -13.6886
 240   2.0000      -0.501644       -13.6504
 241   2.0000      -0.498135       -13.5549
 242   2.0000      -0.492623       -13.4050
 243   2.0000      -0.491412       -13.3720
 244   2.0000      -0.490704       -13.3527
 245   2.0000      -0.490444       -13.3456
 246   2.0000      -0.488857       -13.3025
 247   2.0000      -0.488565       -13.2945
 248   2.0000      -0.483033       -13.1440
 249   2.0000      -0.480549       -13.0764
 250   2.0000      -0.475989       -12.9523
 251   2.0000      -0.474335       -12.9073
 252   2.0000      -0.469438       -12.7741
 253   2.0000      -0.467305       -12.7160
 254   2.0000      -0.465242       -12.6599
 255   2.0000      -0.463589       -12.6149
 256   2.0000      -0.460747       -12.5376
 257   2.0000      -0.455928       -12.4064
 258   2.0000      -0.453992       -12.3537
 259   2.0000      -0.451769       -12.2933
 260   2.0000      -0.450028       -12.2459
 261   2.0000      -0.445404       -12.1200
 262   2.0000      -0.444344       -12.0912
 263   2.0000      -0.443850       -12.0778
 264   2.0000      -0.442580       -12.0432
 265   2.0000      -0.440123       -11.9764
 266   2.0000      -0.438421       -11.9300
 267   2.0000      -0.438266       -11.9258
 268   2.0000      -0.436235       -11.8705
 269   2.0000      -0.434712       -11.8291
 270   2.0000      -0.429247       -11.6804
 271   2.0000      -0.423121       -11.5137
 272   2.0000      -0.422431       -11.4949
 273   2.0000      -0.421833       -11.4787
 274   2.0000      -0.421307       -11.4643
 275   2.0000      -0.420858       -11.4521
 276   2.0000      -0.418733       -11.3943
 277   2.0000      -0.416519       -11.3341
 278   2.0000      -0.412570       -11.2266
 279   2.0000      -0.411461       -11.1964
 280   2.0000      -0.405485       -11.0338
 281   2.0000      -0.404765       -11.0142
 282   2.0000      -0.402478       -10.9520
 283   2.0000      -0.398818       -10.8524
 284   2.0000      -0.398542       -10.8449
 285   2.0000      -0.385596       -10.4926
 286   2.0000      -0.385512       -10.4903
 287   2.0000      -0.383698       -10.4409
 288   2.0000      -0.382786       -10.4161
 289   2.0000      -0.377790       -10.2802
 290   2.0000      -0.376137       -10.2352
 291   2.0000      -0.373413       -10.1611
 292   2.0000      -0.372741       -10.1428
 293   2.0000      -0.358584        -9.7576
 294   2.0000      -0.354159        -9.6372
 295   2.0000      -0.350632        -9.5412
 296   2.0000      -0.341347        -9.2885
 297   2.0000      -0.337290        -9.1781
 298   2.0000      -0.335547        -9.1307
 299   2.0000      -0.334051        -9.0900
 300   2.0000      -0.331439        -9.0189
 301   2.0000      -0.329362        -8.9624
 302   2.0000      -0.319783        -8.7017
 303   2.0000      -0.312994        -8.5170
 304   2.0000      -0.311834        -8.4854
 305   2.0000      -0.295233        -8.0337
 306   2.0000      -0.290568        -7.9068
 307   2.0000      -0.289061        -7.8658
 308   2.0000      -0.280002        -7.6192
 309   2.0000      -0.279574        -7.6076
 310   2.0000      -0.256493        -6.9795
 311   2.0000      -0.230437        -6.2705
 312   0.0000      -0.116738        -3.1766
 313   0.0000      -0.085030        -2.3138
 314   0.0000      -0.081808        -2.2261
 315   0.0000      -0.056532        -1.5383
 316   0.0000      -0.052547        -1.4299

MULLIKEN ATOMIC CHARGES
-----------------------
   0 C :    0.333744
   1 C :   -0.366056
   2 C :   -0.184268
   3 N :    0.142376
   4 C :   -0.183561
   5 N :    0.136926
   6 C :    0.010703
   7 C :   -0.012190
   8 C :   -0.076235
   9 C :    0.122271
  10 C :   -0.094602
  11 C :   -0.021466
  12 S :    0.185885
  13 C :   -0.123658
  14 C :    0.035408
  15 Br:    0.020207
  16 C :    0.160312
  17 O :   -0.188067
  18 C :   -0.099235
  19 C :   -0.024607
  20 C :   -0.046394
  21 C :   -0.046670
  22 C :   -0.019927
  23 C :   -0.040458
  24 S :    0.188691
  25 C :    0.016025
  26 C :   -0.007207
  27 S :    0.150149
  28 C :   -0.092226
  29 C :    0.000937
  30 N :   -0.145961
  31 C :    0.150195
  32 C :    0.097409
  33 C :   -0.068103
  34 C :   -0.045401
  35 N :   -0.079970
  36 C :    0.052533
  37 C :    0.023392
  38 N :   -0.024915
  39 C :    0.186190
  40 C :   -0.026261
  41 C :   -0.017187
  42 N :   -0.268511
  43 S :    0.542752
  44 N :   -0.287800
  45 C :   -0.154602
  46 C :   -0.046927
  47 C :   -0.026768
  48 C :   -0.030393
  49 S :    0.141648
  50 C :    0.036985
  51 C :   -0.012130
  52 S :    0.152476
  53 C :   -0.088784
  54 C :    0.113628
  55 N :   -0.164317
  56 C :    0.122672
  57 C :    0.002591
  58 C :   -0.136388
  59 C :    0.266224
  60 C :   -0.339364
  61 C :   -0.177126
  62 N :    0.144521
  63 C :   -0.200607
  64 N :    0.162233
  65 C :   -0.000690
  66 C :    0.006868
  67 C :    0.133060
  68 O :   -0.153595
  69 C :   -0.076596
  70 C :    0.112491
  71 C :   -0.087518
  72 C :   -0.024860
  73 S :    0.182745
  74 C :   -0.125314
  75 C :    0.039611
  76 Br:    0.020216
  77 H :   -0.015259
  78 H :   -0.008305
  79 H :   -0.004721
  80 H :    0.005170
  81 H :    0.008767
  82 H :   -0.025220
  83 H :    0.030575
  84 H :    0.048248
  85 H :    0.040450
  86 H :    0.015453
  87 H :    0.021143
  88 H :   -0.002157
  89 H :   -0.005914
  90 H :    0.049536
  91 H :    0.055911
  92 H :    0.041728
  93 H :    0.007255
  94 H :   -0.011618
  95 H :   -0.004454
  96 H :   -0.003745
Sum of atomic charges:   -0.0000000

LOEWDIN ATOMIC CHARGES
----------------------
   0 C :    0.078228
   1 C :   -0.150589
   2 C :   -0.018176
   3 N :   -0.060865
   4 C :   -0.020886
   5 N :   -0.059921
   6 C :   -0.019160
   7 C :   -0.049713
   8 C :    0.018918
   9 C :   -0.034535
  10 C :   -0.145174
  11 C :   -0.010253
  12 S :    0.432238
  13 C :   -0.273130
  14 C :   -0.071337
  15 Br:    0.133970
  16 C :    0.083619
  17 O :   -0.176009
  18 C :   -0.122689
  19 C :    0.055335
  20 C :   -0.184237
  21 C :   -0.017899
  22 C :   -0.194364
  23 C :   -0.194067
  24 S :    0.482076
  25 C :   -0.048967
  26 C :   -0.176158
  27 S :    0.388084
  28 C :   -0.061910
  29 C :    0.017753
  30 N :    0.068798
  31 C :    0.034208
  32 C :   -0.046053
  33 C :   -0.014105
  34 C :   -0.019381
  35 N :   -0.045168
  36 C :    0.017265
  37 C :    0.009578
  38 N :   -0.027663
  39 C :   -0.035115
  40 C :   -0.042116
  41 C :   -0.038374
  42 N :   -0.278362
  43 S :    0.674096
  44 N :   -0.284336
  45 C :   -0.158847
  46 C :   -0.044070
  47 C :   -0.179119
  48 C :   -0.222731
  49 S :    0.452061
  50 C :   -0.015955
  51 C :   -0.181937
  52 S :    0.391499
  53 C :   -0.033673
  54 C :   -0.018178
  55 N :    0.062964
  56 C :    0.039006
  57 C :    0.050117
  58 C :   -0.104950
  59 C :    0.065931
  60 C :   -0.148653
  61 C :   -0.021391
  62 N :   -0.059413
  63 C :   -0.015953
  64 N :   -0.053097
  65 C :   -0.017307
  66 C :   -0.051964
  67 C :    0.080606
  68 O :   -0.154615
  69 C :    0.020549
  70 C :   -0.035260
  71 C :   -0.144080
  72 C :   -0.014269
  73 S :    0.430238
  74 C :   -0.273477
  75 C :   -0.070447
  76 Br:    0.134099
  77 H :    0.039065
  78 H :    0.040812
  79 H :    0.037911
  80 H :    0.050574
  81 H :    0.042415
  82 H :    0.027627
  83 H :    0.031984
  84 H :    0.029721
  85 H :    0.027401
  86 H :    0.029165
  87 H :    0.028779
  88 H :    0.033343
  89 H :    0.032768
  90 H :    0.033898
  91 H :    0.039060
  92 H :    0.031947
  93 H :    0.042979
  94 H :    0.040463
  95 H :    0.040475
  96 H :    0.038474

  Mayer bond orders larger than 0.100000
B(  0-C ,  1-C ) :   1.6049 B(  0-C ,  6-C ) :   0.9926 B(  0-C , 18-C ) :   1.0981
B(  1-C ,  2-C ) :   1.1471 B(  1-C ,  4-C ) :   1.1470 B(  2-C ,  3-N ) :   2.9639
B(  4-C ,  5-N ) :   2.9529 B(  6-C ,  7-C ) :   1.2763 B(  6-C , 11-C ) :   1.4178
B(  7-C ,  8-C ) :   1.4234 B(  7-C , 16-C ) :   0.9575 B(  8-C ,  9-C ) :   1.2401
B(  8-C , 77-H ) :   1.0172 B(  9-C , 10-C ) :   1.3106 B(  9-C , 14-C ) :   1.1620
B( 10-C , 11-C ) :   1.3230 B( 10-C , 12-S ) :   1.0866 B( 11-C , 78-H ) :   0.9796
B( 12-S , 13-C ) :   1.0867 B( 13-C , 14-C ) :   1.6197 B( 13-C , 15-Br) :   1.0164
B( 14-C , 79-H ) :   0.9997 B( 16-C , 17-O ) :   2.1221 B( 16-C , 18-C ) :   0.9859
B( 18-C , 19-C ) :   1.4489 B( 19-C , 20-C ) :   1.3047 B( 19-C , 80-H ) :   0.9373
B( 20-C , 21-C ) :   1.3367 B( 20-C , 24-S ) :   1.0488 B( 21-C , 22-C ) :   1.3610
B( 21-C , 81-H ) :   1.0125 B( 22-C , 23-C ) :   1.3433 B( 22-C , 27-S ) :   1.0342
B( 23-C , 24-S ) :   1.0313 B( 23-C , 25-C ) :   1.2993 B( 25-C , 26-C ) :   1.3499
B( 25-C , 29-C ) :   0.1024 B( 25-C , 30-N ) :   1.1990 B( 26-C , 27-S ) :   1.0124
B( 26-C , 28-C ) :   1.3455 B( 28-C , 29-C ) :   1.4301 B( 28-C , 82-H ) :   1.0131
B( 29-C , 30-N ) :   1.2207 B( 29-C , 32-C ) :   0.9756 B( 30-N , 31-C ) :   0.9629
B( 31-C , 83-H ) :   0.9688 B( 31-C , 84-H ) :   0.9622 B( 31-C , 85-H ) :   0.9615
B( 32-C , 33-C ) :   1.3151 B( 32-C , 39-C ) :   0.1369 B( 32-C , 41-C ) :   1.2624
B( 33-C , 34-C ) :   1.1151 B( 33-C , 38-N ) :   1.4509 B( 34-C , 35-N ) :   1.3897
B( 34-C , 39-C ) :   1.2717 B( 35-N , 36-C ) :   1.6608 B( 36-C , 37-C ) :   1.1885
B( 36-C , 86-H ) :   0.9726 B( 37-C , 38-N ) :   1.6790 B( 37-C , 87-H ) :   0.9741
B( 39-C , 40-C ) :   1.2036 B( 39-C , 45-C ) :   1.1941 B( 40-C , 41-C ) :   1.1001
B( 40-C , 44-N ) :   1.5092 B( 41-C , 42-N ) :   1.5099 B( 42-N , 43-S ) :   1.2919
B( 42-N , 44-N ) :   0.1542 B( 43-S , 44-N ) :   1.2748 B( 45-C , 46-C ) :   1.4685
B( 45-C , 49-S ) :   1.0736 B( 46-C , 47-C ) :   1.2736 B( 46-C , 88-H ) :   0.9876
B( 47-C , 48-C ) :   1.4190 B( 47-C , 52-S ) :   1.0425 B( 48-C , 49-S ) :   0.9889
B( 48-C , 50-C ) :   1.2790 B( 50-C , 51-C ) :   1.3245 B( 50-C , 55-N ) :   1.2381
B( 51-C , 52-S ) :   1.0113 B( 51-C , 53-C ) :   1.4172 B( 53-C , 54-C ) :   1.3394
B( 53-C , 89-H ) :   1.0080 B( 54-C , 55-N ) :   1.1330 B( 54-C , 57-C ) :   1.1282
B( 55-N , 56-C ) :   0.9706 B( 56-C , 90-H ) :   0.9648 B( 56-C , 91-H ) :   0.9685
B( 56-C , 92-H ) :   0.9674 B( 57-C , 58-C ) :   1.5998 B( 57-C , 93-H ) :   0.9341
B( 58-C , 59-C ) :   1.0607 B( 58-C , 67-C ) :   0.9600 B( 59-C , 60-C ) :   1.6312
B( 59-C , 65-C ) :   1.0073 B( 60-C , 61-C ) :   1.1307 B( 60-C , 63-C ) :   1.1654
B( 61-C , 62-N ) :   2.9843 B( 63-C , 64-N ) :   3.0011 B( 65-C , 66-C ) :   1.2755
B( 65-C , 72-C ) :   1.4201 B( 66-C , 67-C ) :   0.9197 B( 66-C , 69-C ) :   1.4264
B( 67-C , 68-O ) :   2.2525 B( 69-C , 70-C ) :   1.2488 B( 69-C , 94-H ) :   1.0164
B( 70-C , 71-C ) :   1.3124 B( 70-C , 75-C ) :   1.1621 B( 71-C , 72-C ) :   1.3209
B( 71-C , 73-S ) :   1.0835 B( 72-C , 95-H ) :   0.9836 B( 73-S , 74-C ) :   1.0867
B( 74-C , 75-C ) :   1.6195 B( 74-C , 76-Br) :   1.0170 B( 75-C , 96-H ) :   1.0004

-----------------------------------------------------------------------------
         ABSORPTION SPECTRUM VIA TRANSITION ELECTRIC DIPOLE MOMENTS
-----------------------------------------------------------------------------
State   Energy  Wavelength   fosc         T2         TX        TY        TZ
        (cm-1)    (nm)                  (au**2)     (au)      (au)      (au)
-----------------------------------------------------------------------------
   0    9911.3   1009.0   1.270483879  42.20032  -5.23337   1.81579  -3.39339
   1   16586.0    602.9   0.098127667   1.94772  -0.24312   1.08103  -0.84852
   2   18205.8    549.3   0.480907666   8.69616   1.96331  -0.51223   2.13991
   3   19244.2    519.6   0.789565964  13.50719  -3.02784  -0.62968  -1.98566
   4   19785.2    505.4   0.004681308   0.07789   0.18423   0.15696  -0.13899
   5   20072.3    498.2   0.015836728   0.25974  -0.17783  -0.43020  -0.20747
   6   24263.5    412.1   0.089106258   1.20901   0.77049   0.20166   0.75808
   7   24379.3    410.2   0.003230544   0.04362  -0.05869  -0.09808   0.17482
   8   24823.1    402.9   0.226992415   3.01044   0.83538  -1.37690   0.64555
   9   24939.8    401.0   0.025220680   0.33292   0.19510   0.01438   0.54282
  10   25343.0    394.6   0.050391754   0.65460  -0.57001  -0.10693  -0.56415
  11   25946.4    385.4   0.032004951   0.40608  -0.59630   0.12496  -0.18680
  12   26837.7    372.6   0.042171361   0.51731  -0.35510  -0.50169  -0.37352
  13   26956.8    371.0   0.023613145   0.28838  -0.38856   0.31096   0.20174
  14   27108.7    368.9   0.163952849   1.99107   1.21241  -0.69021   0.21154
  15   27475.1    364.0   0.235370334   2.82025   1.21989  -0.75845   0.86998
  16   27903.1    358.4   0.263942261   3.11410   0.25896   1.54181   0.81846
  17   29545.4    338.5   0.000667058   0.00743  -0.02346  -0.03860   0.07343
  18   29683.7    336.9   0.037117538   0.41166   0.50760  -0.35000   0.17750
  19   30195.9    331.2   0.176849974   1.92811  -0.13998  -1.32481  -0.39166
  20   30415.4    328.8   0.027168050   0.29406   0.36662  -0.14576   0.37203
  21   30488.7    328.0   0.001215496   0.01312  -0.09024  -0.06998   0.00920
  22   30757.7    325.1   0.018484525   0.19785  -0.32980  -0.07437   0.28905
  23   31267.4    319.8   0.110784158   1.16644  -0.97571   0.24196  -0.39481
  24   31734.6    315.1   0.099395907   1.03112   0.84280  -0.04439   0.56467
  25   31882.8    313.6   0.308900111   3.18960   1.21671  -1.30044   0.13443
  26   32447.6    308.2   0.219517148   2.22721  -0.63140   1.31659   0.30842
  27   32507.9    307.6   0.080152970   0.81172   0.47657  -0.76163  -0.06724
  28   32730.1    305.5   0.092827462   0.93369   0.80080   0.24695   0.48107
  29   32768.7    305.2   0.034904354   0.35067  -0.34622   0.47909   0.03574
  30   33241.7    300.8   0.054212882   0.53690  -0.71090   0.08171  -0.15764
  31   33564.8    297.9   0.168038467   1.64816   0.02956   1.19369   0.47159
  32   33660.8    297.1   0.027339402   0.26739   0.28868  -0.38049   0.19819
  33   33817.1    295.7   0.281625578   2.74165  -1.13204   1.18825  -0.21956
  34   33973.8    294.3   0.105973209   1.02690   0.06492   0.89300   0.47459
  35   34141.0    292.9   0.007817882   0.07539  -0.11403   0.04730  -0.24525
  36   34281.0    291.7   0.012027475   0.11550  -0.23810  -0.09624  -0.22260
  37   34335.6    291.2   0.067555048   0.64772   0.68968  -0.22292   0.34982
  38   34793.3    287.4   0.085662833   0.81054  -0.05858   0.83962  -0.31959
  39   35089.5    285.0   0.044263229   0.41528   0.49473   0.35852   0.20490
  40   35160.8    284.4   0.068798141   0.64416  -0.30256   0.72473  -0.16547
  41   35371.9    282.7   0.035783518   0.33304  -0.24816   0.44862  -0.26496
  42   35385.6    282.6   0.001615260   0.01503   0.04173   0.08098  -0.08202
  43   35546.9    281.3   0.073707954   0.68263  -0.12522  -0.81615  -0.02918
  44   35791.4    279.4   0.013799269   0.12693   0.16991   0.30808  -0.05608
  45   36293.3    275.5   0.115571206   1.04833  -0.56195   0.84412  -0.14145
  46   36323.8    275.3   0.327279054   2.96622  -0.40270   1.67340  -0.06145
  47   36899.2    271.0   0.435740833   3.88764   1.32260   1.35337  -0.55387
  48   36994.9    270.3   0.014190149   0.12628   0.28442   0.19556  -0.08448
  49   37723.6    265.1   0.065032676   0.56754  -0.43335   0.61615   0.01014
  50   38171.2    262.0   0.014782362   0.12749  -0.24347  -0.20135  -0.16636
  51   38388.7    260.5   0.054845465   0.47034   0.39824   0.46266   0.31255
  52   38779.8    257.9   0.025825072   0.21924  -0.31172  -0.29680  -0.18433
  53   38963.3    256.7   0.088211756   0.74533  -0.39255  -0.63108  -0.43928
  54   39253.6    254.8   0.002696314   0.02261  -0.12415  -0.03535  -0.07714
  55   39363.5    254.0   0.054819285   0.45847  -0.58044   0.17260  -0.30294
  56   39576.9    252.7   0.019740965   0.16421   0.32951   0.21139   0.10464
  57   39762.4    251.5   0.117041714   0.96904  -0.84966   0.25211  -0.42845
  58   39869.6    250.8   0.017261182   0.14253   0.28262   0.25015   0.00871
  59   40089.0    249.4   0.021297840   0.17490   0.10139   0.38314   0.13351
  60   40195.4    248.8   0.064528388   0.52851   0.29421   0.54703   0.37777

FINAL SINGLE POINT ENERGY    -10774.716068965268

DIPOLE MOMENT
-------------
                                X             Y             Z
Electronic contribution:    -30.65953      78.26557       8.38742
Nuclear contribution   :     28.40072     -75.33811      -7.64941
                        -----------------------------------------
Total Dipole Moment    :     -2.25881       2.92746       0.73801
                        -----------------------------------------
Magnitude (a.u.)       :      3.77053
Magnitude (Debye)      :      9.58394

Rotational constants in cm-1:     0.001327     0.000113     0.000105
Rotational constants in MHz :    39.767719     3.374850     3.149934

                             ****ORCA TERMINATED NORMALLY****
TOTAL RUN TIME: 0 days 0 hours 10 minutes 51 seconds 204 msec
