                         Program Version 4.2.0 -  RELEASE  -
|  1> # ORCA input file
|  2> # SCF done       -212.469371545380          0.000703691922
|  3> ! CAM-B3LYP def2-SVP def2/J RIJCOSX Grid4 TightSCF
|  4> %maxcore 5000
|  5> %tddft
|  6>     Mode sTDDFT
|  7>     Ethresh 5.0
|  8>     maxcore 5000
|  9> end
| 10>
| 11> %pal
| 12>   nprocs 6
| 13>   end
| 14> * xyz 0 1
| 15>    C        0.15591         2.98363         2.40194
| 16>    C        0.65369         3.15905         1.13544
| 17>    C        2.02026         3.04640         0.80441
| 18>    N        3.11614         2.97057         0.47017
| 19>    C       -0.10358         3.42491        -0.02503
| 20>    N       -0.63723         3.62209        -1.02301
| 21>    C        0.94957         2.59446         3.56236
| 22>    C        0.06980         2.33963         4.64024
| 23>    C        0.50791         1.94265         5.87993
| 24>    C        1.88614         1.79683         6.06779
| 25>    C        2.76001         2.06033         4.98654
| 26>    C        2.31466         2.45647         3.73113
| 27>    S        4.42211         1.82798         5.43741
| 28>    C        3.92658         1.38352         7.04907
| 29>    C        2.58660         1.40822         7.24249
| 30>   Br        5.22489         0.93253         8.32542
| 31>    C       -1.32230         2.57662         4.20962
| 32>    O       -2.30545         2.40045         4.90202
| 33>    C       -1.23371         3.06828         2.81830
| 34>    C       -2.21505         3.64072         2.04550
| 35>    C       -3.59090         3.80502         2.26124
| 36>    C       -4.45456         3.32480         3.24818
| 37>    C       -5.75143         3.74713         3.06310
| 38>    C       -5.91534         4.56196         1.92675
| 39>    S       -4.45559         4.79030         1.07261
| 40>    C       -7.25918         4.97182         1.84262
| 41>    C       -7.96661         4.41727         2.92170
| 42>    C       -7.06397         3.57268         3.78827
| 43>    C       -7.50476         2.10601         3.79268
| 44>    C       -6.98651         4.11774         5.21686
| 45>    C       -9.29293         4.79255         2.93631
| 46>    C       -9.61752         5.64038         1.87547
| 47>    S       -8.24457         5.95878         0.83859
| 48>    C      -10.88044         6.23681         1.63131
| 49>    C      -11.09735         7.10815         0.53724
| 50>    C      -12.34508         7.77760         0.29127
| 51>    N      -12.44099         8.59451        -0.77812
| 52>    C      -11.42185         8.75944        -1.55684
| 53>    C      -10.19127         8.10124        -1.31493
| 54>    N      -10.06070         7.31166        -0.29897
| 55>    F       -9.14375         8.27243        -2.11453
| 56>    F      -11.57375         9.57668        -2.59898
| 57>    C      -13.46184         7.60580         1.14668
| 58>    C      -13.25536         6.70758         2.22079
| 59>    C      -12.00504         6.03322         2.46705
| 60>    N      -12.08012         5.24913         3.54372
| 61>    S      -13.55298         5.34373         4.17540
| 62>    N      -14.17681         6.38497         3.12660
| 63>    C      -14.70793         8.26972         0.99817
| 64>    C      -15.09812         9.18034         0.01548
| 65>    C      -16.38251         9.64535         0.20766
| 66>    C      -16.99478         9.09458         1.34405
| 67>    S      -15.98009         7.98979         2.17499
| 68>    C      -18.28964         9.62975         1.46203
| 69>    C      -18.51725        10.53354         0.41287
| 70>    C      -17.31093        10.60914        -0.49297
| 71>    C      -16.72093        12.02144        -0.53310
| 72>    C      -17.65262        10.12241        -1.90438
| 73>    C      -19.76423        11.12057         0.47753
| 74>    C      -20.52674        10.64997         1.54666
| 75>    S      -19.62882         9.48806         2.51542
| 76>    C      -21.81095        11.10874         1.89626
| 77>    C      -22.72491        10.57026         2.75540
| 78>    C      -22.85967         9.25141         3.32945
| 79>    C      -22.50850         8.06990         2.72664
| 80>    C      -22.75181         6.80131         3.28706
| 81>    N      -22.91383         5.74882         3.71632
| 82>    C      -21.96296         8.00489         1.42839
| 83>    N      -21.56933         7.91968         0.35311
| 84>    C      -23.71431         9.37605         4.50553
| 85>    C      -24.29145        10.67132         4.50766
| 86>    C      -23.76321        11.44218         3.36220
| 87>    O      -24.06572        12.56215         3.01774
| 88>    C      -25.18512        11.07602         5.46890
| 89>    C      -25.51304        10.16589         6.47994
| 90>    C      -24.91886         8.88135         6.47584
| 91>    C      -24.02280         8.46660         5.49765
| 92>    S      -25.45589         7.92442         7.82267
| 93>    C      -26.46161         9.24255         8.36339
| 94>    C      -26.39874        10.34381         7.57829
| 95>   Br      -27.49758         9.03975         9.91362
| 96>    H       -0.19047         1.75257         6.67983
| 97>    H        3.02223         2.64895         2.94242
| 98>    H        2.11008         1.16398         8.17430
| 99>    H       -1.87994         4.07671         1.11136
|100>    H       -4.10735         2.70599         4.05443
|101>    H       -7.55488         1.72223         2.77631
|102>    H       -8.48693         2.01435         4.24914
|103>    H       -6.79479         1.50752         4.35744
|104>    H       -6.68372         5.16229         5.20753
|105>    H       -6.25949         3.54962         5.79114
|106>    H       -7.95791         4.03995         5.69824
|107>    H      -10.02431         4.49667         3.66456
|108>    H      -14.44243         9.46344        -0.78480
|109>    H      -16.47941        12.36061         0.47177
|110>    H      -17.43516        12.71278        -0.97290
|111>    H      -15.81318        12.02651        -1.13057
|112>    H      -18.09317         9.12914        -1.86470
|113>    H      -16.75212        10.08373        -2.51165
|114>    H      -18.36374        10.79971        -2.37015
|115>    H      -20.15057        11.84163        -0.22005
|116>    H      -22.08309        12.07947         1.49127
|117>    H      -25.61938        12.06309         5.44326
|118>    H      -23.58966         7.48053         5.53410
|119>    H      -26.95281        11.24571         7.76413
|120> *
|121>
|122>                          ****END OF INPUT****

CARTESIAN COORDINATES (ANGSTROEM)
---------------------------------
  C      0.155910    2.983630    2.401940
  C      0.653690    3.159050    1.135440
  C      2.020260    3.046400    0.804410
  N      3.116140    2.970570    0.470170
  C     -0.103580    3.424910   -0.025030
  N     -0.637230    3.622090   -1.023010
  C      0.949570    2.594460    3.562360
  C      0.069800    2.339630    4.640240
  C      0.507910    1.942650    5.879930
  C      1.886140    1.796830    6.067790
  C      2.760010    2.060330    4.986540
  C      2.314660    2.456470    3.731130
  S      4.422110    1.827980    5.437410
  C      3.926580    1.383520    7.049070
  C      2.586600    1.408220    7.242490
  Br     5.224890    0.932530    8.325420
  C     -1.322300    2.576620    4.209620
  O     -2.305450    2.400450    4.902020
  C     -1.233710    3.068280    2.818300
  C     -2.215050    3.640720    2.045500
  C     -3.590900    3.805020    2.261240
  C     -4.454560    3.324800    3.248180
  C     -5.751430    3.747130    3.063100
  C     -5.915340    4.561960    1.926750
  S     -4.455590    4.790300    1.072610
  C     -7.259180    4.971820    1.842620
  C     -7.966610    4.417270    2.921700
  C     -7.063970    3.572680    3.788270
  C     -7.504760    2.106010    3.792680
  C     -6.986510    4.117740    5.216860
  C     -9.292930    4.792550    2.936310
  C     -9.617520    5.640380    1.875470
  S     -8.244570    5.958780    0.838590
  C    -10.880440    6.236810    1.631310
  C    -11.097350    7.108150    0.537240
  C    -12.345080    7.777600    0.291270
  N    -12.440990    8.594510   -0.778120
  C    -11.421850    8.759440   -1.556840
  C    -10.191270    8.101240   -1.314930
  N    -10.060700    7.311660   -0.298970
  F     -9.143750    8.272430   -2.114530
  F    -11.573750    9.576680   -2.598980
  C    -13.461840    7.605800    1.146680
  C    -13.255360    6.707580    2.220790
  C    -12.005040    6.033220    2.467050
  N    -12.080120    5.249130    3.543720
  S    -13.552980    5.343730    4.175400
  N    -14.176810    6.384970    3.126600
  C    -14.707930    8.269720    0.998170
  C    -15.098120    9.180340    0.015480
  C    -16.382510    9.645350    0.207660
  C    -16.994780    9.094580    1.344050
  S    -15.980090    7.989790    2.174990
  C    -18.289640    9.629750    1.462030
  C    -18.517250   10.533540    0.412870
  C    -17.310930   10.609140   -0.492970
  C    -16.720930   12.021440   -0.533100
  C    -17.652620   10.122410   -1.904380
  C    -19.764230   11.120570    0.477530
  C    -20.526740   10.649970    1.546660
  S    -19.628820    9.488060    2.515420
  C    -21.810950   11.108740    1.896260
  C    -22.724910   10.570260    2.755400
  C    -22.859670    9.251410    3.329450
  C    -22.508500    8.069900    2.726640
  C    -22.751810    6.801310    3.287060
  N    -22.913830    5.748820    3.716320
  C    -21.962960    8.004890    1.428390
  N    -21.569330    7.919680    0.353110
  C    -23.714310    9.376050    4.505530
  C    -24.291450   10.671320    4.507660
  C    -23.763210   11.442180    3.362200
  O    -24.065720   12.562150    3.017740
  C    -25.185120   11.076020    5.468900
  C    -25.513040   10.165890    6.479940
  C    -24.918860    8.881350    6.475840
  C    -24.022800    8.466600    5.497650
  S    -25.455890    7.924420    7.822670
  C    -26.461610    9.242550    8.363390
  C    -26.398740   10.343810    7.578290
  Br   -27.497580    9.039750    9.913620
  H     -0.190470    1.752570    6.679830
  H      3.022230    2.648950    2.942420
  H      2.110080    1.163980    8.174300
  H     -1.879940    4.076710    1.111360
  H     -4.107350    2.705990    4.054430
  H     -7.554880    1.722230    2.776310
  H     -8.486930    2.014350    4.249140
  H     -6.794790    1.507520    4.357440
  H     -6.683720    5.162290    5.207530
  H     -6.259490    3.549620    5.791140
  H     -7.957910    4.039950    5.698240
  H    -10.024310    4.496670    3.664560
  H    -14.442430    9.463440   -0.784800
  H    -16.479410   12.360610    0.471770
  H    -17.435160   12.712780   -0.972900
  H    -15.813180   12.026510   -1.130570
  H    -18.093170    9.129140   -1.864700
  H    -16.752120   10.083730   -2.511650
  H    -18.363740   10.799710   -2.370150
  H    -20.150570   11.841630   -0.220050
  H    -22.083090   12.079470    1.491270
  H    -25.619380   12.063090    5.443260
  H    -23.589660    7.480530    5.534100
  H    -26.952810   11.245710    7.764130

 Total Charge           Charge          ....    0
 Multiplicity           Mult            ....    1
 Number of Electrons    NEL             ....  656
 Basis Dimension        Dim             .... 1318

ORBITAL ENERGIES
----------------

  NO   OCC          E(Eh)            E(eV)
   0   2.0000    -482.883929    -13139.9397
   1   2.0000    -482.882802    -13139.9091
   2   2.0000     -89.049698     -2423.1655
   3   2.0000     -88.974636     -2421.1229
   4   2.0000     -88.973186     -2421.0835
   5   2.0000     -88.972479     -2421.0642
   6   2.0000     -88.971879     -2421.0479
   7   2.0000     -88.968173     -2420.9471
   8   2.0000     -88.968141     -2420.9462
   9   2.0000     -62.561646     -1702.3889
  10   2.0000     -62.560524     -1702.3584
  11   2.0000     -56.395593     -1534.6021
  12   2.0000     -56.394471     -1534.5716
  13   2.0000     -56.392884     -1534.5284
  14   2.0000     -56.392849     -1534.5274
  15   2.0000     -56.391764     -1534.4979
  16   2.0000     -56.391726     -1534.4969
  17   2.0000     -24.823940      -675.4937
  18   2.0000     -24.821662      -675.4318
  19   2.0000     -19.213296      -522.8204
  20   2.0000     -19.209092      -522.7060
  21   2.0000     -14.464312      -393.5940
  22   2.0000     -14.461848      -393.5269
  23   2.0000     -14.459169      -393.4540
  24   2.0000     -14.459098      -393.4521
  25   2.0000     -14.411528      -392.1576
  26   2.0000     -14.408931      -392.0869
  27   2.0000     -14.408179      -392.0665
  28   2.0000     -14.407373      -392.0445
  29   2.0000     -10.440211      -284.0926
  30   2.0000     -10.437662      -284.0232
  31   2.0000     -10.364450      -282.0310
  32   2.0000     -10.361035      -281.9381
  33   2.0000     -10.356367      -281.8111
  34   2.0000     -10.355351      -281.7834
  35   2.0000     -10.353326      -281.7283
  36   2.0000     -10.351714      -281.6845
  37   2.0000     -10.347728      -281.5760
  38   2.0000     -10.345917      -281.5267
  39   2.0000     -10.337398      -281.2949
  40   2.0000     -10.336762      -281.2776
  41   2.0000     -10.334604      -281.2189
  42   2.0000     -10.333236      -281.1817
  43   2.0000     -10.323170      -280.9077
  44   2.0000     -10.322452      -280.8882
  45   2.0000     -10.321943      -280.8744
  46   2.0000     -10.321709      -280.8680
  47   2.0000     -10.321005      -280.8488
  48   2.0000     -10.320765      -280.8423
  49   2.0000     -10.319361      -280.8041
  50   2.0000     -10.318627      -280.7841
  51   2.0000     -10.317462      -280.7524
  52   2.0000     -10.316828      -280.7352
  53   2.0000     -10.315743      -280.7057
  54   2.0000     -10.314493      -280.6716
  55   2.0000     -10.313176      -280.6358
  56   2.0000     -10.312336      -280.6129
  57   2.0000     -10.311032      -280.5775
  58   2.0000     -10.310732      -280.5693
  59   2.0000     -10.308179      -280.4998
  60   2.0000     -10.305977      -280.4399
  61   2.0000     -10.305371      -280.4234
  62   2.0000     -10.304509      -280.4000
  63   2.0000     -10.303136      -280.3626
  64   2.0000     -10.302683      -280.3503
  65   2.0000     -10.302381      -280.3420
  66   2.0000     -10.302047      -280.3329
  67   2.0000     -10.300300      -280.2854
  68   2.0000     -10.300228      -280.2834
  69   2.0000     -10.298429      -280.2345
  70   2.0000     -10.298200      -280.2283
  71   2.0000     -10.296289      -280.1763
  72   2.0000     -10.294495      -280.1275
  73   2.0000     -10.293423      -280.0983
  74   2.0000     -10.291219      -280.0383
  75   2.0000     -10.289591      -279.9940
  76   2.0000     -10.289457      -279.9903
  77   2.0000     -10.286769      -279.9172
  78   2.0000     -10.286360      -279.9061
  79   2.0000     -10.285758      -279.8897
  80   2.0000     -10.283751      -279.8351
  81   2.0000     -10.283703      -279.8338
  82   2.0000     -10.283449      -279.8269
  83   2.0000     -10.282237      -279.7939
  84   2.0000     -10.282137      -279.7912
  85   2.0000     -10.271660      -279.5061
  86   2.0000     -10.269254      -279.4406
  87   2.0000     -10.269077      -279.4358
  88   2.0000     -10.268383      -279.4169
  89   2.0000      -8.791077      -239.2174
  90   2.0000      -8.789956      -239.1869
  91   2.0000      -8.140903      -221.5252
  92   2.0000      -8.069262      -219.5758
  93   2.0000      -8.069191      -219.5738
  94   2.0000      -8.067794      -219.5358
  95   2.0000      -8.067564      -219.5296
  96   2.0000      -8.061777      -219.3721
  97   2.0000      -8.061302      -219.3592
  98   2.0000      -6.627367      -180.3398
  99   2.0000      -6.626251      -180.3095
 100   2.0000      -6.612811      -179.9437
 101   2.0000      -6.612622      -179.9386
 102   2.0000      -6.611679      -179.9129
 103   2.0000      -6.611515      -179.9085
 104   2.0000      -6.112065      -166.3177
 105   2.0000      -6.104230      -166.1045
 106   2.0000      -6.103554      -166.0862
 107   2.0000      -6.038964      -164.3286
 108   2.0000      -6.038537      -164.3169
 109   2.0000      -6.037488      -164.2884
 110   2.0000      -6.036750      -164.2683
 111   2.0000      -6.034680      -164.2120
 112   2.0000      -6.034438      -164.2054
 113   2.0000      -6.033213      -164.1721
 114   2.0000      -6.032741      -164.1592
 115   2.0000      -6.031318      -164.1205
 116   2.0000      -6.031253      -164.1187
 117   2.0000      -6.030882      -164.1086
 118   2.0000      -6.030449      -164.0969
 119   2.0000      -6.029771      -164.0784
 120   2.0000      -6.029042      -164.0586
 121   2.0000      -6.026823      -163.9982
 122   2.0000      -6.026301      -163.9840
 123   2.0000      -6.023813      -163.9163
 124   2.0000      -6.023413      -163.9054
 125   2.0000      -2.743225       -74.6470
 126   2.0000      -2.742087       -74.6160
 127   2.0000      -2.739142       -74.5359
 128   2.0000      -2.739038       -74.5330
 129   2.0000      -2.738073       -74.5068
 130   2.0000      -2.737886       -74.5017
 131   2.0000      -2.727442       -74.2175
 132   2.0000      -2.727432       -74.2172
 133   2.0000      -2.726339       -74.1875
 134   2.0000      -2.726307       -74.1866
 135   2.0000      -1.350830       -36.7580
 136   2.0000      -1.336605       -36.3709
 137   2.0000      -1.147787       -31.2329
 138   2.0000      -1.127784       -30.6886
 139   2.0000      -1.124360       -30.5954
 140   2.0000      -1.122468       -30.5439
 141   2.0000      -1.048046       -28.5188
 142   2.0000      -1.024313       -27.8730
 143   2.0000      -1.021349       -27.7923
 144   2.0000      -1.019349       -27.7379
 145   2.0000      -1.017815       -27.6962
 146   2.0000      -1.009170       -27.4609
 147   2.0000      -1.007711       -27.4212
 148   2.0000      -1.004993       -27.3473
 149   2.0000      -0.992842       -27.0166
 150   2.0000      -0.988859       -26.9082
 151   2.0000      -0.987268       -26.8649
 152   2.0000      -0.985385       -26.8137
 153   2.0000      -0.984232       -26.7823
 154   2.0000      -0.979817       -26.6622
 155   2.0000      -0.970001       -26.3951
 156   2.0000      -0.942065       -25.6349
 157   2.0000      -0.939531       -25.5659
 158   2.0000      -0.933425       -25.3998
 159   2.0000      -0.928922       -25.2772
 160   2.0000      -0.905020       -24.6268
 161   2.0000      -0.903552       -24.5869
 162   2.0000      -0.898339       -24.4450
 163   2.0000      -0.896048       -24.3827
 164   2.0000      -0.893751       -24.3202
 165   2.0000      -0.892770       -24.2935
 166   2.0000      -0.882939       -24.0260
 167   2.0000      -0.881134       -23.9769
 168   2.0000      -0.874474       -23.7957
 169   2.0000      -0.868053       -23.6209
 170   2.0000      -0.851507       -23.1707
 171   2.0000      -0.843055       -22.9407
 172   2.0000      -0.839135       -22.8340
 173   2.0000      -0.837933       -22.8013
 174   2.0000      -0.831221       -22.6187
 175   2.0000      -0.829564       -22.5736
 176   2.0000      -0.826208       -22.4823
 177   2.0000      -0.824647       -22.4398
 178   2.0000      -0.822201       -22.3732
 179   2.0000      -0.803668       -21.8689
 180   2.0000      -0.791188       -21.5293
 181   2.0000      -0.782007       -21.2795
 182   2.0000      -0.781127       -21.2555
 183   2.0000      -0.777574       -21.1589
 184   2.0000      -0.775755       -21.1094
 185   2.0000      -0.757680       -20.6175
 186   2.0000      -0.754905       -20.5420
 187   2.0000      -0.751432       -20.4475
 188   2.0000      -0.744710       -20.2646
 189   2.0000      -0.727040       -19.7838
 190   2.0000      -0.715545       -19.4710
 191   2.0000      -0.713428       -19.4134
 192   2.0000      -0.706597       -19.2275
 193   2.0000      -0.698441       -19.0055
 194   2.0000      -0.694145       -18.8887
 195   2.0000      -0.686072       -18.6690
 196   2.0000      -0.684995       -18.6397
 197   2.0000      -0.684357       -18.6223
 198   2.0000      -0.681878       -18.5549
 199   2.0000      -0.674261       -18.3476
 200   2.0000      -0.670346       -18.2410
 201   2.0000      -0.661373       -17.9969
 202   2.0000      -0.654908       -17.8209
 203   2.0000      -0.653101       -17.7718
 204   2.0000      -0.642179       -17.4746
 205   2.0000      -0.639867       -17.4117
 206   2.0000      -0.637038       -17.3347
 207   2.0000      -0.634280       -17.2596
 208   2.0000      -0.631549       -17.1853
 209   2.0000      -0.630386       -17.1537
 210   2.0000      -0.627292       -17.0695
 211   2.0000      -0.626225       -17.0404
 212   2.0000      -0.620530       -16.8855
 213   2.0000      -0.619103       -16.8466
 214   2.0000      -0.614623       -16.7248
 215   2.0000      -0.604889       -16.4599
 216   2.0000      -0.595069       -16.1927
 217   2.0000      -0.593399       -16.1472
 218   2.0000      -0.591215       -16.0878
 219   2.0000      -0.580496       -15.7961
 220   2.0000      -0.578090       -15.7306
 221   2.0000      -0.577472       -15.7138
 222   2.0000      -0.573665       -15.6102
 223   2.0000      -0.568938       -15.4816
 224   2.0000      -0.562899       -15.3173
 225   2.0000      -0.558098       -15.1866
 226   2.0000      -0.555808       -15.1243
 227   2.0000      -0.552714       -15.0401
 228   2.0000      -0.552023       -15.0213
 229   2.0000      -0.546211       -14.8631
 230   2.0000      -0.541546       -14.7362
 231   2.0000      -0.536925       -14.6105
 232   2.0000      -0.536776       -14.6064
 233   2.0000      -0.536400       -14.5962
 234   2.0000      -0.534035       -14.5318
 235   2.0000      -0.532290       -14.4843
 236   2.0000      -0.530544       -14.4368
 237   2.0000      -0.528879       -14.3915
 238   2.0000      -0.527636       -14.3577
 239   2.0000      -0.527295       -14.3484
 240   2.0000      -0.523394       -14.2423
 241   2.0000      -0.521368       -14.1871
 242   2.0000      -0.519800       -14.1445
 243   2.0000      -0.517314       -14.0768
 244   2.0000      -0.513367       -13.9694
 245   2.0000      -0.510341       -13.8871
 246   2.0000      -0.509581       -13.8664
 247   2.0000      -0.507426       -13.8078
 248   2.0000      -0.504592       -13.7306
 249   2.0000      -0.504215       -13.7204
 250   2.0000      -0.502394       -13.6708
 251   2.0000      -0.501705       -13.6521
 252   2.0000      -0.498238       -13.5577
 253   2.0000      -0.492535       -13.4026
 254   2.0000      -0.492228       -13.3942
 255   2.0000      -0.490644       -13.3511
 256   2.0000      -0.489396       -13.3171
 257   2.0000      -0.487457       -13.2644
 258   2.0000      -0.485301       -13.2057
 259   2.0000      -0.482238       -13.1224
 260   2.0000      -0.481637       -13.1060
 261   2.0000      -0.479794       -13.0558
 262   2.0000      -0.477820       -13.0021
 263   2.0000      -0.472438       -12.8557
 264   2.0000      -0.471561       -12.8318
 265   2.0000      -0.469633       -12.7794
 266   2.0000      -0.465960       -12.6794
 267   2.0000      -0.464322       -12.6348
 268   2.0000      -0.461640       -12.5619
 269   2.0000      -0.458394       -12.4735
 270   2.0000      -0.455380       -12.3915
 271   2.0000      -0.454388       -12.3645
 272   2.0000      -0.449593       -12.2340
 273   2.0000      -0.449016       -12.2184
 274   2.0000      -0.444654       -12.0996
 275   2.0000      -0.444000       -12.0819
 276   2.0000      -0.443583       -12.0705
 277   2.0000      -0.442876       -12.0513
 278   2.0000      -0.441812       -12.0223
 279   2.0000      -0.439249       -11.9526
 280   2.0000      -0.438490       -11.9319
 281   2.0000      -0.437393       -11.9021
 282   2.0000      -0.436886       -11.8883
 283   2.0000      -0.434397       -11.8205
 284   2.0000      -0.433344       -11.7919
 285   2.0000      -0.432023       -11.7560
 286   2.0000      -0.427342       -11.6286
 287   2.0000      -0.427027       -11.6200
 288   2.0000      -0.424814       -11.5598
 289   2.0000      -0.423222       -11.5165
 290   2.0000      -0.420775       -11.4499
 291   2.0000      -0.420404       -11.4398
 292   2.0000      -0.418647       -11.3920
 293   2.0000      -0.416017       -11.3204
 294   2.0000      -0.412510       -11.2250
 295   2.0000      -0.412371       -11.2212
 296   2.0000      -0.410841       -11.1795
 297   2.0000      -0.409492       -11.1428
 298   2.0000      -0.406121       -11.0511
 299   2.0000      -0.404907       -11.0181
 300   2.0000      -0.400771       -10.9055
 301   2.0000      -0.395180       -10.7534
 302   2.0000      -0.390238       -10.6189
 303   2.0000      -0.387769       -10.5517
 304   2.0000      -0.382179       -10.3996
 305   2.0000      -0.380758       -10.3609
 306   2.0000      -0.373441       -10.1619
 307   2.0000      -0.372367       -10.1326
 308   2.0000      -0.370704       -10.0874
 309   2.0000      -0.365717        -9.9517
 310   2.0000      -0.363536        -9.8923
 311   2.0000      -0.357115        -9.7176
 312   2.0000      -0.350758        -9.5446
 313   2.0000      -0.343969        -9.3599
 314   2.0000      -0.336685        -9.1617
 315   2.0000      -0.334909        -9.1133
 316   2.0000      -0.332881        -9.0581
 317   2.0000      -0.330090        -8.9822
 318   2.0000      -0.326599        -8.8872
 319   2.0000      -0.326322        -8.8797
 320   2.0000      -0.320668        -8.7258
 321   2.0000      -0.312455        -8.5023
 322   2.0000      -0.311497        -8.4763
 323   2.0000      -0.296560        -8.0698
 324   2.0000      -0.290850        -7.9144
 325   2.0000      -0.288445        -7.8490
 326   2.0000      -0.262451        -7.1417
 327   2.0000      -0.230258        -6.2657
 328   0.0000      -0.126145        -3.4326
 329   0.0000      -0.087928        -2.3926
 330   0.0000      -0.083231        -2.2648
 331   0.0000      -0.056849        -1.5469
 332   0.0000      -0.054826        -1.4919

MULLIKEN ATOMIC CHARGES
-----------------------
   0 C :    0.306440
   1 C :   -0.356885
   2 C :   -0.186063
   3 N :    0.142355
   4 C :   -0.199066
   5 N :    0.152519
   6 C :    0.012100
   7 C :   -0.007153
   8 C :   -0.075613
   9 C :    0.117264
  10 C :   -0.092350
  11 C :   -0.018069
  12 S :    0.184005
  13 C :   -0.123892
  14 C :    0.038851
  15 Br:    0.019773
  16 C :    0.154937
  17 O :   -0.168907
  18 C :   -0.099022
  19 C :    0.037197
  20 C :   -0.116431
  21 C :   -0.010941
  22 C :   -0.003387
  23 C :   -0.069834
  24 S :    0.174238
  25 C :   -0.057877
  26 C :    0.042552
  27 C :   -0.099532
  28 C :    0.106673
  29 C :    0.101441
  30 C :   -0.063324
  31 C :   -0.179754
  32 S :    0.179172
  33 C :    0.175977
  34 C :   -0.058422
  35 C :   -0.073775
  36 N :    0.001532
  37 C :    0.139910
  38 C :    0.156730
  39 N :   -0.049812
  40 F :   -0.133966
  41 F :   -0.143378
  42 C :    0.206733
  43 C :   -0.027995
  44 C :   -0.002221
  45 N :   -0.293910
  46 S :    0.555294
  47 N :   -0.330452
  48 C :   -0.186294
  49 C :   -0.063262
  50 C :    0.041250
  51 C :   -0.055619
  52 S :    0.177220
  53 C :   -0.067383
  54 C :    0.028884
  55 C :   -0.108797
  56 C :    0.104905
  57 C :    0.106054
  58 C :   -0.010106
  59 C :   -0.086367
  60 S :    0.174062
  61 C :    0.035968
  62 C :   -0.137913
  63 C :    0.249281
  64 C :   -0.324161
  65 C :   -0.174538
  66 N :    0.145345
  67 C :   -0.211202
  68 N :    0.168094
  69 C :    0.001718
  70 C :    0.004349
  71 C :    0.134908
  72 O :   -0.148743
  73 C :   -0.072102
  74 C :    0.110459
  75 C :   -0.087871
  76 C :   -0.019785
  77 S :    0.181919
  78 C :   -0.126528
  79 C :    0.041812
  80 Br:    0.020406
  81 H :   -0.013463
  82 H :   -0.007373
  83 H :   -0.005124
  84 H :    0.009001
  85 H :    0.009425
  86 H :    0.020945
  87 H :    0.011858
  88 H :    0.019128
  89 H :    0.019942
  90 H :    0.022413
  91 H :    0.012143
  92 H :   -0.009168
  93 H :   -0.003382
  94 H :    0.020155
  95 H :    0.011987
  96 H :    0.016167
  97 H :    0.032103
  98 H :    0.015417
  99 H :    0.013533
 100 H :   -0.009606
 101 H :    0.023616
 102 H :   -0.010608
 103 H :   -0.005168
 104 H :   -0.003566
Sum of atomic charges:   -0.0000000

LOEWDIN ATOMIC CHARGES
----------------------
   0 C :    0.077224
   1 C :   -0.149552
   2 C :   -0.018182
   3 N :   -0.060408
   4 C :   -0.026058
   5 N :   -0.056446
   6 C :   -0.020392
   7 C :   -0.049408
   8 C :    0.018890
   9 C :   -0.034261
  10 C :   -0.144863
  11 C :   -0.010780
  12 S :    0.431009
  13 C :   -0.272980
  14 C :   -0.070924
  15 Br:    0.133888
  16 C :    0.087422
  17 O :   -0.153448
  18 C :   -0.109464
  19 C :    0.043352
  20 C :   -0.176703
  21 C :   -0.004968
  22 C :   -0.039417
  23 C :   -0.165732
  24 S :    0.461303
  25 C :   -0.202639
  26 C :   -0.025305
  27 C :   -0.036352
  28 C :   -0.022834
  29 C :   -0.023722
  30 C :   -0.040035
  31 C :   -0.156758
  32 S :    0.479639
  33 C :   -0.046743
  34 C :   -0.014188
  35 C :   -0.008913
  36 N :   -0.029315
  37 C :    0.057994
  38 C :    0.063172
  39 N :   -0.053768
  40 F :   -0.023749
  41 F :   -0.032022
  42 C :   -0.045584
  43 C :   -0.046933
  44 C :   -0.037110
  45 N :   -0.278500
  46 S :    0.673842
  47 N :   -0.298339
  48 C :   -0.155621
  49 C :   -0.038363
  50 C :   -0.026875
  51 C :   -0.197839
  52 S :    0.481367
  53 C :   -0.161971
  54 C :   -0.035981
  55 C :   -0.035734
  56 C :   -0.024070
  57 C :   -0.022396
  58 C :   -0.007216
  59 C :   -0.178437
  60 S :    0.475906
  61 C :    0.049603
  62 C :   -0.110562
  63 C :    0.061321
  64 C :   -0.150013
  65 C :   -0.020214
  66 N :   -0.057948
  67 C :   -0.035820
  68 N :   -0.053758
  69 C :   -0.016656
  70 C :   -0.051656
  71 C :    0.081892
  72 O :   -0.149683
  73 C :    0.021242
  74 C :   -0.035015
  75 C :   -0.143879
  76 C :   -0.014060
  77 S :    0.429375
  78 C :   -0.273411
  79 C :   -0.070021
  80 Br:    0.134232
  81 H :    0.039321
  82 H :    0.040693
  83 H :    0.038010
  84 H :    0.042685
  85 H :    0.034752
  86 H :    0.030108
  87 H :    0.024600
  88 H :    0.027209
  89 H :    0.029655
  90 H :    0.028355
  91 H :    0.024374
  92 H :    0.028946
  93 H :    0.029622
  94 H :    0.029403
  95 H :    0.024316
  96 H :    0.026275
  97 H :    0.034611
  98 H :    0.025556
  99 H :    0.024990
 100 H :    0.037105
 101 H :    0.050907
 102 H :    0.040880
 103 H :    0.040284
 104 H :    0.038660

  Mayer bond orders larger than 0.100000
B(  0-C ,  1-C ) :   1.6109 B(  0-C ,  6-C ) :   0.9935 B(  0-C , 18-C ) :   1.0959
B(  1-C ,  2-C ) :   1.1464 B(  1-C ,  4-C ) :   1.1402 B(  2-C ,  3-N ) :   2.9681
B(  4-C ,  5-N ) :   2.9838 B(  6-C ,  7-C ) :   1.2787 B(  6-C , 11-C ) :   1.4128
B(  7-C ,  8-C ) :   1.4239 B(  7-C , 16-C ) :   0.9532 B(  8-C ,  9-C ) :   1.2416
B(  8-C , 81-H ) :   1.0167 B(  9-C , 10-C ) :   1.3101 B(  9-C , 14-C ) :   1.1631
B( 10-C , 11-C ) :   1.3267 B( 10-C , 12-S ) :   1.0847 B( 11-C , 82-H ) :   0.9803
B( 12-S , 13-C ) :   1.0867 B( 13-C , 14-C ) :   1.6193 B( 13-C , 15-Br) :   1.0157
B( 14-C , 83-H ) :   0.9996 B( 16-C , 17-O ) :   2.1488 B( 16-C , 18-C ) :   0.9533
B( 18-C , 19-C ) :   1.5385 B( 19-C , 20-C ) :   1.2642 B( 19-C , 84-H ) :   0.9146
B( 20-C , 21-C ) :   1.3610 B( 20-C , 24-S ) :   1.0718 B( 21-C , 22-C ) :   1.3594
B( 21-C , 85-H ) :   0.9810 B( 22-C , 23-C ) :   1.4403 B( 22-C , 27-C ) :   0.9320
B( 23-C , 24-S ) :   1.1273 B( 23-C , 25-C ) :   1.2013 B( 25-C , 26-C ) :   1.4703
B( 25-C , 32-S ) :   1.0425 B( 26-C , 27-C ) :   0.9389 B( 26-C , 30-C ) :   1.3180
B( 27-C , 28-C ) :   1.0337 B( 27-C , 29-C ) :   1.0367 B( 28-C , 86-H ) :   0.9635
B( 28-C , 87-H ) :   0.9650 B( 28-C , 88-H ) :   0.9651 B( 29-C , 89-H ) :   0.9642
B( 29-C , 90-H ) :   0.9648 B( 29-C , 91-H ) :   0.9646 B( 30-C , 31-C ) :   1.4043
B( 30-C , 92-H ) :   0.9913 B( 31-C , 32-S ) :   1.1030 B( 31-C , 33-C ) :   1.2027
B( 33-C , 34-C ) :   1.2815 B( 33-C , 42-C ) :   0.1229 B( 33-C , 44-C ) :   1.1948
B( 34-C , 35-C ) :   1.1136 B( 34-C , 39-N ) :   1.3869 B( 35-C , 36-N ) :   1.4344
B( 35-C , 42-C ) :   1.2861 B( 36-N , 37-C ) :   1.6614 B( 37-C , 38-C ) :   1.1114
B( 37-C , 41-F ) :   1.1708 B( 38-C , 39-N ) :   1.6498 B( 38-C , 40-F ) :   1.1898
B( 42-C , 43-C ) :   1.1773 B( 42-C , 48-C ) :   1.2001 B( 43-C , 44-C ) :   1.1103
B( 43-C , 47-N ) :   1.4787 B( 44-C , 45-N ) :   1.5097 B( 45-N , 46-S ) :   1.2751
B( 45-N , 47-N ) :   0.1509 B( 46-S , 47-N ) :   1.2707 B( 48-C , 49-C ) :   1.3919
B( 48-C , 52-S ) :   1.1095 B( 49-C , 50-C ) :   1.3131 B( 49-C , 93-H ) :   0.9973
B( 50-C , 51-C ) :   1.4643 B( 50-C , 55-C ) :   0.9390 B( 51-C , 52-S ) :   1.0545
B( 51-C , 53-C ) :   1.2082 B( 53-C , 54-C ) :   1.4601 B( 53-C , 60-S ) :   1.1160
B( 54-C , 55-C ) :   0.9329 B( 54-C , 58-C ) :   1.3507 B( 55-C , 56-C ) :   1.0364
B( 55-C , 57-C ) :   1.0350 B( 56-C , 94-H ) :   0.9642 B( 56-C , 95-H ) :   0.9642
B( 56-C , 96-H ) :   0.9650 B( 57-C , 97-H ) :   0.9632 B( 57-C , 98-H ) :   0.9645
B( 57-C , 99-H ) :   0.9641 B( 58-C , 59-C ) :   1.3575 B( 58-C ,100-H ) :   1.0113
B( 59-C , 60-S ) :   1.0882 B( 59-C , 61-C ) :   1.1850 B( 61-C , 62-C ) :   1.5858
B( 61-C ,101-H ) :   0.9482 B( 62-C , 63-C ) :   1.0523 B( 62-C , 71-C ) :   0.9532
B( 63-C , 64-C ) :   1.6395 B( 63-C , 69-C ) :   1.0117 B( 64-C , 65-C ) :   1.1352
B( 64-C , 67-C ) :   1.1536 B( 65-C , 66-N ) :   2.9882 B( 67-C , 68-N ) :   3.0244
B( 69-C , 70-C ) :   1.2775 B( 69-C , 76-C ) :   1.4197 B( 70-C , 71-C ) :   0.9194
B( 70-C , 73-C ) :   1.4281 B( 71-C , 72-O ) :   2.2632 B( 73-C , 74-C ) :   1.2505
B( 73-C ,102-H ) :   1.0157 B( 74-C , 75-C ) :   1.3127 B( 74-C , 79-C ) :   1.1616
B( 75-C , 76-C ) :   1.3224 B( 75-C , 77-S ) :   1.0823 B( 76-C ,103-H ) :   0.9837
B( 77-S , 78-C ) :   1.0861 B( 78-C , 79-C ) :   1.6215 B( 78-C , 80-Br) :   1.0168
B( 79-C ,104-H ) :   0.9997

-----------------------------------------------------------------------------
         ABSORPTION SPECTRUM VIA TRANSITION ELECTRIC DIPOLE MOMENTS
-----------------------------------------------------------------------------
State   Energy  Wavelength   fosc         T2         TX        TY        TZ
        (cm-1)    (nm)                  (au**2)     (au)      (au)      (au)
-----------------------------------------------------------------------------
   0    8432.6   1185.9   1.189930566  46.45509  -6.43791   2.23384  -0.13545
   1   16373.7    610.7   0.058468089   1.17557   0.26198   0.43113  -0.95972
   2   17573.3    569.0   0.663405367  12.42803  -3.42908   0.12754   0.80819
   3   18916.4    528.6   0.789297093  13.73654  -3.50536   1.13306  -0.40642
   4   23560.9    424.4   0.086608281   1.21016  -1.09660  -0.03051   0.08183
   5   24531.0    407.6   0.192749621   2.58675   1.12962  -1.01937   0.52116
   6   24752.0    404.0   0.012286078   0.16341   0.21917  -0.29689  -0.16502
   7   25170.6    397.3   0.018039665   0.23594  -0.21967   0.27340   0.33607
   8   25821.3    387.3   0.222731889   2.83975   1.11036  -0.72716  -1.03831
   9   26269.5    380.7   0.146952091   1.84162   1.15281  -0.47814   0.53294
  10   26415.6    378.6   0.006151225   0.07666   0.17150   0.17894  -0.12341
  11   26602.3    375.9   0.046557515   0.57616  -0.41808   0.24339  -0.58493
  12   26697.3    374.6   0.106527045   1.31362   0.64892   0.31884  -0.88930
  13   27550.0    363.0   0.078947176   0.94339   0.92703  -0.13654   0.25567
  14   28739.4    348.0   0.022316911   0.25564   0.15411  -0.24313   0.41566
  15   29193.9    342.5   0.006136951   0.06920   0.10235  -0.23074  -0.07409
  16   29492.9    339.1   0.028982927   0.32352  -0.51367  -0.20869  -0.12693
  17   29625.9    337.5   0.031954170   0.35508   0.49427  -0.30001  -0.14411
  18   29697.9    336.7   0.027894426   0.30922  -0.30074   0.29953  -0.35925
  19   30378.2    329.2   0.004355885   0.04721  -0.07474  -0.09071   0.18273
  20   30468.3    328.2   0.380753849   4.11406  -1.49980   0.44882   1.28966
  21   30657.9    326.2   0.227122737   2.43890   0.35177  -0.64474   1.37821
  22   31108.7    321.5   0.177400299   1.87736  -0.36494   0.29304  -1.28775
  23   31244.0    320.1   0.016017488   0.16877  -0.00802   0.09485  -0.39964
  24   31296.0    319.5   0.094462103   0.99367   0.19223  -0.31017   0.92764
  25   31534.6    317.1   0.051209025   0.53461   0.54302   0.36912   0.32171
  26   31890.6    313.6   0.033082053   0.34151   0.18022   0.07286  -0.55111
  27   32627.2    306.5   0.152667238   1.54043  -1.01297   0.69890   0.16079
  28   32668.2    306.1   0.090301099   0.91000   0.26663   0.38693   0.83018
  29   32835.3    304.6   0.259248534   2.59927   0.24716   0.51445  -1.50782
  30   33203.9    301.2   0.008540917   0.08468  -0.18778  -0.13525   0.17643
  31   33286.8    300.4   0.020733111   0.20505   0.06416  -0.08619   0.43990
  32   33558.9    298.0   0.008951870   0.08782  -0.26797   0.06530  -0.10838
  33   34004.8    294.1   0.015054382   0.14575  -0.37900   0.01683   0.04271
  34   34211.1    292.3   0.012415397   0.11947  -0.15308   0.22817  -0.20970
  35   34523.7    289.7   0.088401286   0.84298  -0.56093   0.12843   0.71543
  36   35082.7    285.0   0.112972973   1.06012   0.33270  -0.48403   0.84566
  37   35231.3    283.8   0.160026918   1.49534   0.61266  -0.52101  -0.92116
  38   35302.7    283.3   0.056634832   0.52814   0.58758  -0.25535  -0.34306
  39   35496.6    281.7   0.127277766   1.18043   0.01978  -1.00642   0.40885
  40   35609.0    280.8   0.095018017   0.87846   0.08186  -0.04639  -0.93253
  41   36238.6    275.9   0.663545595   6.02802  -1.12576  -0.58807   2.10116
  42   36376.3    274.9   0.002411248   0.02182   0.13779   0.02373   0.04767
  43   36882.1    271.1   0.197471753   1.76265  -0.24005  -0.48534   1.21222
  44   37381.0    267.5   0.008366438   0.07368   0.07577  -0.22372   0.13376
  45   37404.5    267.3   0.009060932   0.07975   0.04202   0.26021  -0.10136
  46   37572.7    266.2   0.004316198   0.03782  -0.13649   0.04258   0.13181
  47   37876.3    264.0   0.153348118   1.33287  -0.20036   0.74180  -0.86166
  48   38268.3    261.3   0.009547943   0.08214   0.08273   0.09674  -0.25678
  49   38511.0    259.7   0.007743561   0.06620   0.00098  -0.05026   0.25233
  50   39062.6    256.0   0.068931817   0.58094  -0.71795  -0.17937   0.18254
  51   39312.7    254.4   0.079658409   0.66707  -0.54021  -0.42697   0.43926
  52   39545.2    252.9   0.003408612   0.02838  -0.15551   0.04928   0.04200
  53   39673.4    252.1   0.030535773   0.25339   0.09294  -0.22466  -0.44077
  54   39927.1    250.5   0.035554116   0.29316  -0.32992  -0.08248   0.42131
  55   40097.7    249.4   0.030947963   0.25409  -0.38247   0.32423  -0.05182

FINAL SINGLE POINT ENERGY    -11019.454804310210

DIPOLE MOMENT
-------------
                                X             Y             Z
Electronic contribution:     20.83602     -32.12841     113.51628
Nuclear contribution   :    -22.15920      33.44317    -110.67846
                        -----------------------------------------
Total Dipole Moment    :     -1.32318       1.31476       2.83783
                        -----------------------------------------
Magnitude (a.u.)       :      3.39598
Magnitude (Debye)      :      8.63189

Rotational constants in cm-1:     0.001051     0.000110     0.000101
Rotational constants in MHz :    31.510247     3.303426     3.036087

                             ****ORCA TERMINATED NORMALLY****
TOTAL RUN TIME: 0 days 0 hours 12 minutes 3 seconds 869 msec
