                         Program Version 4.2.0 -  RELEASE  -
|  1> # ORCA input file
|  2> # SCF done       -205.352747852854          0.000609143603
|  3> ! CAM-B3LYP def2-SVP def2/J RIJCOSX Grid4 TightSCF
|  4> %maxcore 5000
|  5> %tddft
|  6>     Mode sTDDFT
|  7>     Ethresh 5.0
|  8>     maxcore 5000
|  9> end
| 10>
| 11> %pal
| 12>   nprocs 6
| 13>   end
| 14> * xyz 0 1
| 15>    C       -2.73360        -2.06519         0.43378
| 16>    C       -1.40490        -1.87366         0.72184
| 17>    C       -0.42082        -2.87831         0.61811
| 18>    N        0.42886        -3.64826         0.55780
| 19>    C       -0.81890        -0.66505         1.14974
| 20>    N       -0.25959         0.27670         1.49749
| 21>    C       -3.31785        -3.32032        -0.03305
| 22>    C       -4.70132        -3.11942        -0.26045
| 23>    C       -5.53542        -4.11512        -0.70507
| 24>    C       -4.97653        -5.37641        -0.93766
| 25>    C       -3.59397        -5.56979        -0.70907
| 26>    C       -2.75088        -4.56013        -0.25925
| 27>    S       -3.11111        -7.20196        -1.05902
| 28>    C       -4.75102        -7.59634        -1.50110
| 29>    C       -5.61715        -6.56108        -1.39317
| 30>   Br       -5.16525        -9.33729        -2.06284
| 31>    C       -5.04241        -1.72131         0.05718
| 32>    O       -6.14624        -1.21216        -0.03946
| 33>    C       -3.80142        -1.08970         0.50982
| 34>    C       -3.68131         0.20212         0.96624
| 35>    C       -4.63350         1.21935         1.07788
| 36>    C       -4.30800         2.48022         1.61049
| 37>    C       -5.37502         3.34248         1.63132
| 38>    C       -6.53988         2.75494         1.10115
| 39>    S       -6.32377         1.13644         0.59557
| 40>    C       -7.57939         3.70458         1.16285
| 41>    C       -7.10230         4.88787         1.73317
| 42>    C       -5.63728         4.76259         2.07805
| 43>    C       -5.40014         4.92870         3.58137
| 44>    C       -4.79487         5.76419         1.28301
| 45>    C       -8.07409         5.86911         1.84105
| 46>    C       -9.30587         5.45817         1.34432
| 47>    S       -9.23884         3.80328         0.74649
| 48>    C      -10.53627         6.17008         1.28976
| 49>    C      -11.70463         5.56000         0.94335
| 50>    C      -12.95575         6.21537         0.92337
| 51>    C      -13.07338         7.56359         1.07519
| 52>    C      -11.80565         8.38556         1.15891
| 53>    C      -10.59209         7.62579         1.73449
| 54>    N       -9.35179         8.30167         1.42541
| 55>    C       -9.26854         8.93651         0.34221
| 56>    C      -10.41887         9.11509        -0.56221
| 57>    N      -11.59511         8.88376        -0.18563
| 58>    F      -10.19039         9.54694        -1.79570
| 59>    F       -8.12206         9.52990         0.02900
| 60>    C      -14.30988         8.25956         1.01372
| 61>    C      -15.57605         7.73558         0.76915
| 62>    C      -16.56480         8.70298         0.77870
| 63>    C      -16.06889         9.98495         1.03670
| 64>    S      -14.36967         9.99590         1.25681
| 65>    C      -17.13741        10.90383         1.02438
| 66>    C      -18.32739        10.21142         0.75337
| 67>    C      -18.06001         8.73699         0.56890
| 68>    C      -18.42904         8.29800        -0.85173
| 69>    C      -18.79197         7.88845         1.61179
| 70>    C      -19.42265        11.04376         0.66325
| 71>    C      -19.09625        12.38418         0.87348
| 72>    S      -17.38308        12.58186         1.22018
| 73>    C      -19.92389        13.51851         0.89040
| 74>    C      -21.18488        13.68614         0.38520
| 75>    C      -21.97622        12.94202        -0.56367
| 76>    C      -21.51167        12.15108        -1.58681
| 77>    C      -22.34251        11.49868        -2.51848
| 78>    N      -22.96840        10.91549        -3.28483
| 79>    C      -20.14892        11.95558        -1.88150
| 80>    N      -19.05682        11.78673        -2.19410
| 81>    C      -23.36042        13.38999        -0.42477
| 82>    C      -23.38683        14.52504         0.42339
| 83>    C      -22.01800        14.79929         0.90716
| 84>    O      -21.65130        15.71063         1.61463
| 85>    C      -24.54483        15.20525         0.70969
| 86>    C      -25.73459        14.73747         0.14050
| 87>    C      -25.69933        13.59490        -0.69320
| 88>    C      -24.52630        12.91077        -0.98944
| 89>    S      -27.28138        13.18426        -1.28274
| 90>    C      -27.95904        14.53833        -0.41782
| 91>    C      -27.04985        15.25994         0.27933
| 92>   Br      -29.80279        14.86875        -0.51570
| 93>    H       -6.58525        -3.92805        -0.86781
| 94>    H       -1.70480        -4.76069        -0.09994
| 95>    H       -6.66456        -6.62762        -1.62448
| 96>    H       -2.69918         0.50438         1.30902
| 97>    H       -3.31453         2.70553         1.95598
| 98>    H       -6.00228         4.21640         4.14090
| 99>    H       -5.66999         5.93483         3.89176
|100>    H       -4.35223         4.75811         3.81401
|101>    H       -4.96046         5.63553         0.21584
|102>    H       -3.73921         5.61214         1.49246
|103>    H       -5.06617         6.78040         1.55730
|104>    H       -7.91964         6.84578         2.25847
|105>    H      -11.68635         4.50977         0.69079
|106>    H      -13.83352         5.60741         0.77537
|107>    H      -11.98830         9.27156         1.78455
|108>    H      -10.66056         7.62041         2.83173
|109>    H      -15.75033         6.69217         0.58455
|110>    H      -17.94516         8.94173        -1.58217
|111>    H      -19.50457         8.36434        -0.99515
|112>    H      -18.11392         7.27159        -1.02099
|113>    H      -18.52134         8.20481         2.61677
|114>    H      -18.52645         6.84119         1.49215
|115>    H      -19.86712         7.99265         1.49031
|116>    H      -20.43216        10.71341         0.49600
|117>    H      -19.54453        14.37710         1.43705
|118>    H      -24.53452        16.07289         1.35045
|119>    H      -24.54970        12.04281        -1.62743
|120>    H      -27.29420        16.12553         0.86756
|121> *
|122>
|123>                          ****END OF INPUT****

CARTESIAN COORDINATES (ANGSTROEM)
---------------------------------
  C     -2.733600   -2.065190    0.433780
  C     -1.404900   -1.873660    0.721840
  C     -0.420820   -2.878310    0.618110
  N      0.428860   -3.648260    0.557800
  C     -0.818900   -0.665050    1.149740
  N     -0.259590    0.276700    1.497490
  C     -3.317850   -3.320320   -0.033050
  C     -4.701320   -3.119420   -0.260450
  C     -5.535420   -4.115120   -0.705070
  C     -4.976530   -5.376410   -0.937660
  C     -3.593970   -5.569790   -0.709070
  C     -2.750880   -4.560130   -0.259250
  S     -3.111110   -7.201960   -1.059020
  C     -4.751020   -7.596340   -1.501100
  C     -5.617150   -6.561080   -1.393170
  Br    -5.165250   -9.337290   -2.062840
  C     -5.042410   -1.721310    0.057180
  O     -6.146240   -1.212160   -0.039460
  C     -3.801420   -1.089700    0.509820
  C     -3.681310    0.202120    0.966240
  C     -4.633500    1.219350    1.077880
  C     -4.308000    2.480220    1.610490
  C     -5.375020    3.342480    1.631320
  C     -6.539880    2.754940    1.101150
  S     -6.323770    1.136440    0.595570
  C     -7.579390    3.704580    1.162850
  C     -7.102300    4.887870    1.733170
  C     -5.637280    4.762590    2.078050
  C     -5.400140    4.928700    3.581370
  C     -4.794870    5.764190    1.283010
  C     -8.074090    5.869110    1.841050
  C     -9.305870    5.458170    1.344320
  S     -9.238840    3.803280    0.746490
  C    -10.536270    6.170080    1.289760
  C    -11.704630    5.560000    0.943350
  C    -12.955750    6.215370    0.923370
  C    -13.073380    7.563590    1.075190
  C    -11.805650    8.385560    1.158910
  C    -10.592090    7.625790    1.734490
  N     -9.351790    8.301670    1.425410
  C     -9.268540    8.936510    0.342210
  C    -10.418870    9.115090   -0.562210
  N    -11.595110    8.883760   -0.185630
  F    -10.190390    9.546940   -1.795700
  F     -8.122060    9.529900    0.029000
  C    -14.309880    8.259560    1.013720
  C    -15.576050    7.735580    0.769150
  C    -16.564800    8.702980    0.778700
  C    -16.068890    9.984950    1.036700
  S    -14.369670    9.995900    1.256810
  C    -17.137410   10.903830    1.024380
  C    -18.327390   10.211420    0.753370
  C    -18.060010    8.736990    0.568900
  C    -18.429040    8.298000   -0.851730
  C    -18.791970    7.888450    1.611790
  C    -19.422650   11.043760    0.663250
  C    -19.096250   12.384180    0.873480
  S    -17.383080   12.581860    1.220180
  C    -19.923890   13.518510    0.890400
  C    -21.184880   13.686140    0.385200
  C    -21.976220   12.942020   -0.563670
  C    -21.511670   12.151080   -1.586810
  C    -22.342510   11.498680   -2.518480
  N    -22.968400   10.915490   -3.284830
  C    -20.148920   11.955580   -1.881500
  N    -19.056820   11.786730   -2.194100
  C    -23.360420   13.389990   -0.424770
  C    -23.386830   14.525040    0.423390
  C    -22.018000   14.799290    0.907160
  O    -21.651300   15.710630    1.614630
  C    -24.544830   15.205250    0.709690
  C    -25.734590   14.737470    0.140500
  C    -25.699330   13.594900   -0.693200
  C    -24.526300   12.910770   -0.989440
  S    -27.281380   13.184260   -1.282740
  C    -27.959040   14.538330   -0.417820
  C    -27.049850   15.259940    0.279330
  Br   -29.802790   14.868750   -0.515700
  H     -6.585250   -3.928050   -0.867810
  H     -1.704800   -4.760690   -0.099940
  H     -6.664560   -6.627620   -1.624480
  H     -2.699180    0.504380    1.309020
  H     -3.314530    2.705530    1.955980
  H     -6.002280    4.216400    4.140900
  H     -5.669990    5.934830    3.891760
  H     -4.352230    4.758110    3.814010
  H     -4.960460    5.635530    0.215840
  H     -3.739210    5.612140    1.492460
  H     -5.066170    6.780400    1.557300
  H     -7.919640    6.845780    2.258470
  H    -11.686350    4.509770    0.690790
  H    -13.833520    5.607410    0.775370
  H    -11.988300    9.271560    1.784550
  H    -10.660560    7.620410    2.831730
  H    -15.750330    6.692170    0.584550
  H    -17.945160    8.941730   -1.582170
  H    -19.504570    8.364340   -0.995150
  H    -18.113920    7.271590   -1.020990
  H    -18.521340    8.204810    2.616770
  H    -18.526450    6.841190    1.492150
  H    -19.867120    7.992650    1.490310
  H    -20.432160   10.713410    0.496000
  H    -19.544530   14.377100    1.437050
  H    -24.534520   16.072890    1.350450
  H    -24.549700   12.042810   -1.627430
  H    -27.294200   16.125530    0.867560

 Total Charge           Charge          ....    0
 Multiplicity           Mult            ....    1
 Number of Electrons    NEL             ....  630
 Basis Dimension        Dim             .... 1292

ORBITAL ENERGIES
----------------

  NO   OCC          E(Eh)            E(eV)
   0   2.0000    -482.884238    -13139.9481
   1   2.0000    -482.882909    -13139.9120
   2   2.0000     -88.977062     -2421.1889
   3   2.0000     -88.976152     -2421.1642
   4   2.0000     -88.973770     -2421.0994
   5   2.0000     -88.972040     -2421.0523
   6   2.0000     -88.970165     -2421.0013
   7   2.0000     -88.968086     -2420.9447
   8   2.0000     -62.561943     -1702.3970
   9   2.0000     -62.560594     -1702.3603
  10   2.0000     -56.395893     -1534.6103
  11   2.0000     -56.394541     -1534.5735
  12   2.0000     -56.393183     -1534.5365
  13   2.0000     -56.393145     -1534.5355
  14   2.0000     -56.391835     -1534.4998
  15   2.0000     -56.391799     -1534.4989
  16   2.0000     -24.816089      -675.2801
  17   2.0000     -24.811982      -675.1684
  18   2.0000     -19.214666      -522.8577
  19   2.0000     -19.209186      -522.7085
  20   2.0000     -14.442814      -393.0090
  21   2.0000     -14.440804      -392.9543
  22   2.0000     -14.412609      -392.1870
  23   2.0000     -14.412501      -392.1841
  24   2.0000     -14.411086      -392.1456
  25   2.0000     -14.407387      -392.0449
  26   2.0000     -10.430161      -283.8191
  27   2.0000     -10.426295      -283.7139
  28   2.0000     -10.362794      -281.9860
  29   2.0000     -10.360470      -281.9227
  30   2.0000     -10.356788      -281.8225
  31   2.0000     -10.355385      -281.7843
  32   2.0000     -10.343918      -281.4723
  33   2.0000     -10.342217      -281.4260
  34   2.0000     -10.339218      -281.3444
  35   2.0000     -10.337168      -281.2887
  36   2.0000     -10.335202      -281.2351
  37   2.0000     -10.333055      -281.1767
  38   2.0000     -10.324111      -280.9333
  39   2.0000     -10.323437      -280.9150
  40   2.0000     -10.321050      -280.8500
  41   2.0000     -10.320458      -280.8339
  42   2.0000     -10.318417      -280.7784
  43   2.0000     -10.318087      -280.7694
  44   2.0000     -10.316179      -280.7175
  45   2.0000     -10.316053      -280.7141
  46   2.0000     -10.314946      -280.6839
  47   2.0000     -10.314672      -280.6765
  48   2.0000     -10.314504      -280.6719
  49   2.0000     -10.314335      -280.6673
  50   2.0000     -10.313445      -280.6431
  51   2.0000     -10.311840      -280.5994
  52   2.0000     -10.311226      -280.5827
  53   2.0000     -10.311198      -280.5820
  54   2.0000     -10.308745      -280.5152
  55   2.0000     -10.306877      -280.4644
  56   2.0000     -10.305710      -280.4326
  57   2.0000     -10.304865      -280.4096
  58   2.0000     -10.304197      -280.3914
  59   2.0000     -10.303145      -280.3628
  60   2.0000     -10.303112      -280.3619
  61   2.0000     -10.302645      -280.3492
  62   2.0000     -10.301901      -280.3290
  63   2.0000     -10.300549      -280.2922
  64   2.0000     -10.298638      -280.2402
  65   2.0000     -10.298542      -280.2376
  66   2.0000     -10.296799      -280.1901
  67   2.0000     -10.295102      -280.1440
  68   2.0000     -10.294873      -280.1377
  69   2.0000     -10.293362      -280.0966
  70   2.0000     -10.292860      -280.0830
  71   2.0000     -10.292073      -280.0615
  72   2.0000     -10.290190      -280.0103
  73   2.0000     -10.289973      -280.0044
  74   2.0000     -10.289747      -279.9982
  75   2.0000     -10.289412      -279.9891
  76   2.0000     -10.287565      -279.9389
  77   2.0000     -10.287204      -279.9291
  78   2.0000     -10.286340      -279.9055
  79   2.0000     -10.286078      -279.8984
  80   2.0000     -10.283359      -279.8244
  81   2.0000     -10.282120      -279.7907
  82   2.0000     -10.274526      -279.5841
  83   2.0000     -10.271100      -279.4908
  84   2.0000     -10.269899      -279.4582
  85   2.0000     -10.267665      -279.3974
  86   2.0000      -8.791361      -239.2251
  87   2.0000      -8.790010      -239.1883
  88   2.0000      -8.071655      -219.6409
  89   2.0000      -8.071226      -219.6292
  90   2.0000      -8.069747      -219.5890
  91   2.0000      -8.067927      -219.5395
  92   2.0000      -8.065119      -219.4631
  93   2.0000      -8.060929      -219.3490
  94   2.0000      -6.627656      -180.3477
  95   2.0000      -6.626268      -180.3099
  96   2.0000      -6.613083      -179.9511
  97   2.0000      -6.612914      -179.9465
  98   2.0000      -6.611761      -179.9152
  99   2.0000      -6.611569      -179.9099
 100   2.0000      -6.040930      -164.3821
 101   2.0000      -6.040483      -164.3699
 102   2.0000      -6.039443      -164.3416
 103   2.0000      -6.037634      -164.2924
 104   2.0000      -6.036882      -164.2719
 105   2.0000      -6.036456      -164.2603
 106   2.0000      -6.035169      -164.2253
 107   2.0000      -6.034518      -164.2076
 108   2.0000      -6.033862      -164.1897
 109   2.0000      -6.033350      -164.1758
 110   2.0000      -6.033331      -164.1753
 111   2.0000      -6.030974      -164.1111
 112   2.0000      -6.030448      -164.0968
 113   2.0000      -6.030408      -164.0958
 114   2.0000      -6.029188      -164.0625
 115   2.0000      -6.027059      -164.0046
 116   2.0000      -6.025817      -163.9708
 117   2.0000      -6.023106      -163.8970
 118   2.0000      -2.743521       -74.6550
 119   2.0000      -2.742174       -74.6184
 120   2.0000      -2.739451       -74.5442
 121   2.0000      -2.739297       -74.5401
 122   2.0000      -2.738057       -74.5063
 123   2.0000      -2.737926       -74.5028
 124   2.0000      -2.727723       -74.2251
 125   2.0000      -2.727718       -74.2250
 126   2.0000      -2.726383       -74.1887
 127   2.0000      -2.726375       -74.1884
 128   2.0000      -1.343980       -36.5716
 129   2.0000      -1.329325       -36.1728
 130   2.0000      -1.130121       -30.7522
 131   2.0000      -1.124463       -30.5982
 132   2.0000      -1.095899       -29.8209
 133   2.0000      -1.029158       -28.0048
 134   2.0000      -1.025574       -27.9073
 135   2.0000      -1.020771       -27.7766
 136   2.0000      -1.020049       -27.7569
 137   2.0000      -1.018062       -27.7029
 138   2.0000      -1.010762       -27.5042
 139   2.0000      -1.008385       -27.4396
 140   2.0000      -0.993359       -27.0307
 141   2.0000      -0.989483       -26.9252
 142   2.0000      -0.988514       -26.8988
 143   2.0000      -0.986691       -26.8492
 144   2.0000      -0.985449       -26.8154
 145   2.0000      -0.982958       -26.7476
 146   2.0000      -0.961842       -26.1731
 147   2.0000      -0.943520       -25.6745
 148   2.0000      -0.939354       -25.5611
 149   2.0000      -0.935154       -25.4468
 150   2.0000      -0.928467       -25.2649
 151   2.0000      -0.905778       -24.6475
 152   2.0000      -0.903856       -24.5952
 153   2.0000      -0.899342       -24.4723
 154   2.0000      -0.896738       -24.4015
 155   2.0000      -0.893013       -24.3001
 156   2.0000      -0.883462       -24.0402
 157   2.0000      -0.881379       -23.9835
 158   2.0000      -0.875817       -23.8322
 159   2.0000      -0.872927       -23.7536
 160   2.0000      -0.867623       -23.6092
 161   2.0000      -0.850537       -23.1443
 162   2.0000      -0.844194       -22.9717
 163   2.0000      -0.840883       -22.8816
 164   2.0000      -0.838186       -22.8082
 165   2.0000      -0.834655       -22.7121
 166   2.0000      -0.830058       -22.5870
 167   2.0000      -0.826752       -22.4971
 168   2.0000      -0.824836       -22.4449
 169   2.0000      -0.802628       -21.8406
 170   2.0000      -0.790613       -21.5137
 171   2.0000      -0.785683       -21.3795
 172   2.0000      -0.783130       -21.3100
 173   2.0000      -0.782439       -21.2912
 174   2.0000      -0.773833       -21.0571
 175   2.0000      -0.773116       -21.0376
 176   2.0000      -0.758127       -20.6297
 177   2.0000      -0.755597       -20.5608
 178   2.0000      -0.743645       -20.2356
 179   2.0000      -0.728757       -19.8305
 180   2.0000      -0.717391       -19.5212
 181   2.0000      -0.711001       -19.3473
 182   2.0000      -0.705895       -19.2084
 183   2.0000      -0.701772       -19.0962
 184   2.0000      -0.691405       -18.8141
 185   2.0000      -0.686769       -18.6879
 186   2.0000      -0.684445       -18.6247
 187   2.0000      -0.682839       -18.5810
 188   2.0000      -0.679359       -18.4863
 189   2.0000      -0.673314       -18.3218
 190   2.0000      -0.662698       -18.0329
 191   2.0000      -0.658260       -17.9122
 192   2.0000      -0.653574       -17.7847
 193   2.0000      -0.651578       -17.7303
 194   2.0000      -0.643536       -17.5115
 195   2.0000      -0.642812       -17.4918
 196   2.0000      -0.638205       -17.3664
 197   2.0000      -0.634434       -17.2638
 198   2.0000      -0.632061       -17.1993
 199   2.0000      -0.628846       -17.1118
 200   2.0000      -0.626994       -17.0614
 201   2.0000      -0.620380       -16.8814
 202   2.0000      -0.618186       -16.8217
 203   2.0000      -0.609716       -16.5912
 204   2.0000      -0.601116       -16.3572
 205   2.0000      -0.599247       -16.3063
 206   2.0000      -0.595105       -16.1936
 207   2.0000      -0.592040       -16.1102
 208   2.0000      -0.588589       -16.0163
 209   2.0000      -0.583550       -15.8792
 210   2.0000      -0.576595       -15.6899
 211   2.0000      -0.571228       -15.5439
 212   2.0000      -0.571092       -15.5402
 213   2.0000      -0.564545       -15.3620
 214   2.0000      -0.558885       -15.2080
 215   2.0000      -0.557439       -15.1687
 216   2.0000      -0.555388       -15.1129
 217   2.0000      -0.552032       -15.0216
 218   2.0000      -0.546758       -14.8781
 219   2.0000      -0.542998       -14.7757
 220   2.0000      -0.539073       -14.6689
 221   2.0000      -0.538682       -14.6583
 222   2.0000      -0.538080       -14.6419
 223   2.0000      -0.536035       -14.5863
 224   2.0000      -0.534093       -14.5334
 225   2.0000      -0.533528       -14.5180
 226   2.0000      -0.532407       -14.4875
 227   2.0000      -0.530053       -14.4235
 228   2.0000      -0.527585       -14.3563
 229   2.0000      -0.525127       -14.2894
 230   2.0000      -0.522087       -14.2067
 231   2.0000      -0.516197       -14.0464
 232   2.0000      -0.515921       -14.0389
 233   2.0000      -0.511894       -13.9293
 234   2.0000      -0.510297       -13.8859
 235   2.0000      -0.508298       -13.8315
 236   2.0000      -0.507400       -13.8071
 237   2.0000      -0.505394       -13.7525
 238   2.0000      -0.505207       -13.7474
 239   2.0000      -0.501273       -13.6403
 240   2.0000      -0.499878       -13.6024
 241   2.0000      -0.496589       -13.5129
 242   2.0000      -0.494128       -13.4459
 243   2.0000      -0.491439       -13.3727
 244   2.0000      -0.490468       -13.3463
 245   2.0000      -0.487618       -13.2688
 246   2.0000      -0.485091       -13.2000
 247   2.0000      -0.483083       -13.1454
 248   2.0000      -0.482653       -13.1337
 249   2.0000      -0.479827       -13.0568
 250   2.0000      -0.479074       -13.0363
 251   2.0000      -0.477780       -13.0011
 252   2.0000      -0.471681       -12.8351
 253   2.0000      -0.470290       -12.7972
 254   2.0000      -0.469655       -12.7800
 255   2.0000      -0.469061       -12.7638
 256   2.0000      -0.465504       -12.6670
 257   2.0000      -0.461840       -12.5673
 258   2.0000      -0.460967       -12.5435
 259   2.0000      -0.456017       -12.4089
 260   2.0000      -0.455186       -12.3862
 261   2.0000      -0.448018       -12.1912
 262   2.0000      -0.447622       -12.1804
 263   2.0000      -0.444602       -12.0982
 264   2.0000      -0.444314       -12.0904
 265   2.0000      -0.443978       -12.0813
 266   2.0000      -0.443680       -12.0732
 267   2.0000      -0.441086       -12.0026
 268   2.0000      -0.438991       -11.9456
 269   2.0000      -0.438317       -11.9272
 270   2.0000      -0.437318       -11.9000
 271   2.0000      -0.435841       -11.8598
 272   2.0000      -0.434606       -11.8262
 273   2.0000      -0.432073       -11.7573
 274   2.0000      -0.431043       -11.7293
 275   2.0000      -0.426784       -11.6134
 276   2.0000      -0.425665       -11.5829
 277   2.0000      -0.424880       -11.5616
 278   2.0000      -0.421827       -11.4785
 279   2.0000      -0.420916       -11.4537
 280   2.0000      -0.419906       -11.4262
 281   2.0000      -0.415847       -11.3158
 282   2.0000      -0.414780       -11.2867
 283   2.0000      -0.413935       -11.2637
 284   2.0000      -0.411710       -11.2032
 285   2.0000      -0.409950       -11.1553
 286   2.0000      -0.407103       -11.0778
 287   2.0000      -0.404292       -11.0013
 288   2.0000      -0.403728       -10.9860
 289   2.0000      -0.398458       -10.8426
 290   2.0000      -0.394047       -10.7226
 291   2.0000      -0.387932       -10.5562
 292   2.0000      -0.383709       -10.4412
 293   2.0000      -0.381026       -10.3682
 294   2.0000      -0.373719       -10.1694
 295   2.0000      -0.372238       -10.1291
 296   2.0000      -0.370953       -10.0941
 297   2.0000      -0.366596        -9.9756
 298   2.0000      -0.357407        -9.7255
 299   2.0000      -0.355298        -9.6682
 300   2.0000      -0.344714        -9.3801
 301   2.0000      -0.336938        -9.1686
 302   2.0000      -0.333840        -9.0843
 303   2.0000      -0.332252        -9.0410
 304   2.0000      -0.331347        -9.0164
 305   2.0000      -0.330474        -8.9927
 306   2.0000      -0.327797        -8.9198
 307   2.0000      -0.320736        -8.7277
 308   2.0000      -0.312965        -8.5162
 309   2.0000      -0.311443        -8.4748
 310   2.0000      -0.295663        -8.0454
 311   2.0000      -0.291750        -7.9389
 312   2.0000      -0.288643        -7.8544
 313   2.0000      -0.260158        -7.0793
 314   2.0000      -0.231929        -6.3111
 315   0.0000      -0.101525        -2.7626
 316   0.0000      -0.087830        -2.3900
 317   0.0000      -0.066358        -1.8057
 318   0.0000      -0.056542        -1.5386
 319   0.0000      -0.047273        -1.2864

MULLIKEN ATOMIC CHARGES
-----------------------
   0 C :    0.329172
   1 C :   -0.365473
   2 C :   -0.187800
   3 N :    0.146064
   4 C :   -0.189600
   5 N :    0.138982
   6 C :    0.012387
   7 C :   -0.008439
   8 C :   -0.077229
   9 C :    0.118544
  10 C :   -0.092522
  11 C :   -0.023533
  12 S :    0.184004
  13 C :   -0.123980
  14 C :    0.039621
  15 Br:    0.019787
  16 C :    0.159803
  17 O :   -0.188293
  18 C :   -0.098376
  19 C :   -0.032877
  20 C :   -0.055118
  21 C :   -0.065449
  22 C :    0.045423
  23 C :   -0.050060
  24 S :    0.207978
  25 C :   -0.084816
  26 C :    0.030672
  27 C :   -0.108662
  28 C :    0.103966
  29 C :    0.101052
  30 C :   -0.054606
  31 C :   -0.070717
  32 S :    0.134335
  33 C :    0.021327
  34 C :   -0.031036
  35 C :   -0.048027
  36 C :    0.081522
  37 C :    0.012562
  38 C :    0.125095
  39 N :   -0.109293
  40 C :    0.127523
  41 C :    0.120787
  42 N :   -0.065834
  43 F :   -0.137680
  44 F :   -0.140991
  45 C :   -0.049913
  46 C :   -0.041725
  47 C :    0.021264
  48 C :   -0.082732
  49 S :    0.146298
  50 C :   -0.055105
  51 C :   -0.002590
  52 C :   -0.115187
  53 C :    0.105767
  54 C :    0.103092
  55 C :    0.006170
  56 C :   -0.119589
  57 S :    0.177595
  58 C :    0.077908
  59 C :   -0.149466
  60 C :    0.279938
  61 C :   -0.359258
  62 C :   -0.177778
  63 N :    0.148348
  64 C :   -0.201887
  65 N :    0.168746
  66 C :    0.000716
  67 C :    0.005699
  68 C :    0.134607
  69 O :   -0.151134
  70 C :   -0.073803
  71 C :    0.112945
  72 C :   -0.089371
  73 C :   -0.026626
  74 S :    0.182099
  75 C :   -0.124249
  76 C :    0.040196
  77 Br:    0.020585
  78 H :   -0.013121
  79 H :   -0.007225
  80 H :   -0.004450
  81 H :    0.006558
  82 H :   -0.000792
  83 H :    0.020947
  84 H :    0.014238
  85 H :    0.015536
  86 H :    0.023077
  87 H :    0.016890
  88 H :    0.018158
  89 H :    0.003802
  90 H :   -0.006495
  91 H :   -0.020797
  92 H :    0.042854
  93 H :    0.038447
  94 H :   -0.022332
  95 H :    0.040686
  96 H :    0.015394
  97 H :    0.009112
  98 H :    0.021314
  99 H :    0.012658
 100 H :    0.015399
 101 H :   -0.003019
 102 H :    0.020445
 103 H :   -0.010067
 104 H :   -0.005402
 105 H :   -0.003573
Sum of atomic charges:   -0.0000000

LOEWDIN ATOMIC CHARGES
----------------------
   0 C :    0.078437
   1 C :   -0.151864
   2 C :   -0.018641
   3 N :   -0.061234
   4 C :   -0.020573
   5 N :   -0.062119
   6 C :   -0.019677
   7 C :   -0.049205
   8 C :    0.019439
   9 C :   -0.034435
  10 C :   -0.145084
  11 C :   -0.010470
  12 S :    0.431423
  13 C :   -0.273083
  14 C :   -0.071005
  15 Br:    0.134099
  16 C :    0.082766
  17 O :   -0.175201
  18 C :   -0.122643
  19 C :    0.052550
  20 C :   -0.184672
  21 C :   -0.011216
  22 C :   -0.044624
  23 C :   -0.172564
  24 S :    0.511014
  25 C :   -0.198595
  26 C :   -0.023565
  27 C :   -0.035958
  28 C :   -0.024033
  29 C :   -0.023713
  30 C :   -0.052144
  31 C :   -0.152248
  32 S :    0.441598
  33 C :   -0.045127
  34 C :   -0.036124
  35 C :   -0.020866
  36 C :   -0.035448
  37 C :    0.010870
  38 C :    0.026440
  39 N :   -0.069215
  40 C :    0.057782
  41 C :    0.046029
  42 N :   -0.065550
  43 F :   -0.027394
  44 F :   -0.029516
  45 C :   -0.144949
  46 C :   -0.048102
  47 C :   -0.018417
  48 C :   -0.203260
  49 S :    0.456457
  50 C :   -0.164094
  51 C :   -0.034644
  52 C :   -0.035222
  53 C :   -0.021872
  54 C :   -0.024614
  55 C :   -0.006968
  56 C :   -0.184517
  57 S :    0.464382
  58 C :    0.047989
  59 C :   -0.110407
  60 C :    0.067685
  61 C :   -0.153989
  62 C :   -0.021967
  63 N :   -0.060558
  64 C :   -0.016431
  65 N :   -0.049929
  66 C :   -0.018200
  67 C :   -0.051610
  68 C :    0.081352
  69 O :   -0.150487
  70 C :    0.021230
  71 C :   -0.034834
  72 C :   -0.144238
  73 C :   -0.014991
  74 S :    0.429784
  75 C :   -0.273102
  76 C :   -0.070085
  77 Br:    0.134551
  78 H :    0.039808
  79 H :    0.040815
  80 H :    0.038219
  81 H :    0.050107
  82 H :    0.038197
  83 H :    0.029720
  84 H :    0.025261
  85 H :    0.025885
  86 H :    0.030725
  87 H :    0.026071
  88 H :    0.026592
  89 H :    0.031393
  90 H :    0.023998
  91 H :    0.031028
  92 H :    0.028208
  93 H :    0.047193
  94 H :    0.030003
  95 H :    0.036905
  96 H :    0.025946
  97 H :    0.023289
  98 H :    0.029616
  99 H :    0.024783
 100 H :    0.025730
 101 H :    0.035264
 102 H :    0.044950
 103 H :    0.040947
 104 H :    0.040084
 105 H :    0.038679

  Mayer bond orders larger than 0.100000
B(  0-C ,  1-C ) :   1.6010 B(  0-C ,  6-C ) :   0.9926 B(  0-C , 18-C ) :   1.1015
B(  1-C ,  2-C ) :   1.1492 B(  1-C ,  4-C ) :   1.1506 B(  2-C ,  3-N ) :   2.9665
B(  4-C ,  5-N ) :   2.9561 B(  6-C ,  7-C ) :   1.2773 B(  6-C , 11-C ) :   1.4181
B(  7-C ,  8-C ) :   1.4261 B(  7-C , 16-C ) :   0.9560 B(  8-C ,  9-C ) :   1.2392
B(  8-C , 78-H ) :   1.0170 B(  9-C , 10-C ) :   1.3127 B(  9-C , 14-C ) :   1.1631
B( 10-C , 11-C ) :   1.3238 B( 10-C , 12-S ) :   1.0848 B( 11-C , 79-H ) :   0.9793
B( 12-S , 13-C ) :   1.0876 B( 13-C , 14-C ) :   1.6168 B( 13-C , 15-Br) :   1.0169
B( 14-C , 80-H ) :   0.9999 B( 16-C , 17-O ) :   2.1217 B( 16-C , 18-C ) :   0.9882
B( 18-C , 19-C ) :   1.4434 B( 19-C , 20-C ) :   1.3090 B( 19-C , 81-H ) :   0.9387
B( 20-C , 21-C ) :   1.2930 B( 20-C , 24-S ) :   1.0709 B( 21-C , 22-C ) :   1.3811
B( 21-C , 82-H ) :   1.0198 B( 22-C , 23-C ) :   1.4186 B( 22-C , 27-C ) :   0.9292
B( 23-C , 24-S ) :   1.0888 B( 23-C , 25-C ) :   1.1982 B( 25-C , 26-C ) :   1.5053
B( 25-C , 32-S ) :   1.0760 B( 26-C , 27-C ) :   0.9431 B( 26-C , 30-C ) :   1.2921
B( 27-C , 28-C ) :   1.0376 B( 27-C , 29-C ) :   1.0322 B( 28-C , 83-H ) :   0.9642
B( 28-C , 84-H ) :   0.9649 B( 28-C , 85-H ) :   0.9645 B( 29-C , 86-H ) :   0.9643
B( 29-C , 87-H ) :   0.9652 B( 29-C , 88-H ) :   0.9655 B( 30-C , 31-C ) :   1.4407
B( 30-C , 89-H ) :   0.9902 B( 31-C , 32-S ) :   1.1081 B( 31-C , 33-C ) :   1.1679
B( 33-C , 34-C ) :   1.6481 B( 33-C , 38-C ) :   0.9465 B( 34-C , 35-C ) :   1.1430
B( 34-C , 90-H ) :   0.9679 B( 35-C , 36-C ) :   1.6595 B( 35-C , 91-H ) :   0.9780
B( 36-C , 37-C ) :   0.9874 B( 36-C , 45-C ) :   1.1376 B( 37-C , 38-C ) :   0.9880
B( 37-C , 42-N ) :   1.0319 B( 37-C , 92-H ) :   0.8926 B( 38-C , 39-N ) :   1.0071
B( 38-C , 93-H ) :   0.8774 B( 39-N , 40-C ) :   1.9208 B( 40-C , 41-C ) :   0.9341
B( 40-C , 44-F ) :   1.1682 B( 41-C , 42-N ) :   1.9513 B( 41-C , 43-F ) :   1.1719
B( 45-C , 46-C ) :   1.4447 B( 45-C , 49-S ) :   1.1119 B( 46-C , 47-C ) :   1.3385
B( 46-C , 94-H ) :   0.9977 B( 47-C , 48-C ) :   1.4966 B( 47-C , 52-C ) :   0.9389
B( 48-C , 49-S ) :   1.0833 B( 48-C , 50-C ) :   1.1923 B( 50-C , 51-C ) :   1.4694
B( 50-C , 57-S ) :   1.1222 B( 51-C , 52-C ) :   0.9372 B( 51-C , 55-C ) :   1.4085
B( 52-C , 53-C ) :   1.0391 B( 52-C , 54-C ) :   1.0329 B( 53-C , 95-H ) :   0.9611
B( 53-C , 96-H ) :   0.9630 B( 53-C , 97-H ) :   0.9627 B( 54-C , 98-H ) :   0.9645
B( 54-C , 99-H ) :   0.9649 B( 54-C ,100-H ) :   0.9653 B( 55-C , 56-C ) :   1.3571
B( 55-C ,101-H ) :   0.9905 B( 56-C , 57-S ) :   1.0811 B( 56-C , 58-C ) :   1.1842
B( 58-C , 59-C ) :   1.6010 B( 58-C ,102-H ) :   0.9285 B( 59-C , 60-C ) :   1.0670
B( 59-C , 68-C ) :   0.9579 B( 60-C , 61-C ) :   1.6124 B( 60-C , 66-C ) :   1.0101
B( 61-C , 62-C ) :   1.1315 B( 61-C , 64-C ) :   1.1780 B( 62-C , 63-N ) :   2.9832
B( 64-C , 65-N ) :   2.9789 B( 66-C , 67-C ) :   1.2781 B( 66-C , 73-C ) :   1.4154
B( 67-C , 68-C ) :   0.9169 B( 67-C , 70-C ) :   1.4301 B( 68-C , 69-O ) :   2.2571
B( 70-C , 71-C ) :   1.2459 B( 70-C ,103-H ) :   1.0167 B( 71-C , 72-C ) :   1.3118
B( 71-C , 76-C ) :   1.1636 B( 72-C , 73-C ) :   1.3243 B( 72-C , 74-S ) :   1.0839
B( 73-C ,104-H ) :   0.9832 B( 74-S , 75-C ) :   1.0862 B( 75-C , 76-C ) :   1.6187
B( 75-C , 77-Br) :   1.0167 B( 76-C ,105-H ) :   1.0004

-----------------------------------------------------------------------------
         ABSORPTION SPECTRUM VIA TRANSITION ELECTRIC DIPOLE MOMENTS
-----------------------------------------------------------------------------
State   Energy  Wavelength   fosc         T2         TX        TY        TZ
        (cm-1)    (nm)                  (au**2)     (au)      (au)      (au)
-----------------------------------------------------------------------------
   0   14459.8    691.6   2.970501807  67.63070   6.43948  -5.09789   0.41871
   1   18302.3    546.4   0.255245900   4.59122   0.44304  -1.80159  -1.07200
   2   22075.9    453.0   0.010867579   0.16207  -0.33830   0.02235   0.21706
   3   22664.9    441.2   0.023399607   0.33988  -0.09649  -0.40354  -0.40955
   4   22945.1    435.8   0.055966981   0.80300   0.79938  -0.36698  -0.17121
   5   24802.6    403.2   0.024110278   0.32002  -0.53839  -0.09661  -0.14432
   6   26308.2    380.1   0.068102511   0.85221   0.35169  -0.80053   0.29611
   7   27110.5    368.9   0.135926508   1.65060   1.26275  -0.18211   0.15134
   8   27915.5    358.2   0.322746476   3.80620   1.82487  -0.59929  -0.34189
   9   28109.1    355.8   0.356218960   4.17201  -0.33039  -1.91275  -0.63581
  10   29460.0    339.4   0.001926819   0.02153  -0.05524  -0.00704  -0.13576
  11   29815.0    335.4   0.013711035   0.15139  -0.18426  -0.24590  -0.23869
  12   30320.2    329.8   0.001693768   0.01839  -0.06333   0.10932  -0.04930
  13   30624.7    326.5   0.042501407   0.45688   0.12854  -0.62535  -0.22202
  14   30663.2    326.1   0.069540432   0.74661   0.06504   0.80335   0.31145
  15   31081.2    321.7   0.020727275   0.21954  -0.21939   0.31528   0.26835
  16   31622.6    316.2   0.020670629   0.21519   0.31346  -0.30385  -0.15688
  17   32536.6    307.3   0.047163736   0.47721   0.66001  -0.18188  -0.09229
  18   33051.9    302.6   0.331161340   3.29852   0.29196   1.57963   0.84737
  19   33317.7    300.1   0.143254093   1.41549   1.16263   0.24404  -0.06494
  20   33453.0    298.9   0.000187919   0.00185  -0.00726   0.03771  -0.01935
  21   33599.6    297.6   0.000965455   0.00946  -0.03987  -0.05394  -0.07043
  22   33828.1    295.6   0.137349455   1.33667   1.14811  -0.09501  -0.09743
  23   33871.0    295.2   0.140797489   1.36849  -1.15255  -0.07924   0.18394
  24   34162.1    292.7   0.298453463   2.87613  -1.38070   0.89967   0.40047
  25   34627.1    288.8   0.453935460   4.31573   1.35403   1.34871   0.81445
  26   35316.1    283.2   0.018132887   0.16903  -0.03949   0.40694   0.04326
  27   35530.1    281.5   0.121236229   1.12334   0.77246   0.66310   0.29487
  28   35859.0    278.9   0.048606790   0.44625   0.56875   0.32030   0.14203
  29   36212.2    276.1   0.006325941   0.05751  -0.10735   0.06387  -0.20472
  30   36530.2    273.7   0.017387195   0.15669  -0.27572  -0.14597  -0.24364
  31   36775.6    271.9   0.013730774   0.12292   0.23253   0.26203   0.01363
  32   36918.1    270.9   0.001144433   0.01021  -0.00346  -0.06679  -0.07572
  33   37577.0    266.1   0.002331851   0.02043  -0.09138   0.10923  -0.01218
  34   37766.7    264.8   0.004846105   0.04224  -0.05945  -0.15823  -0.11693
  35   38552.6    259.4   0.028713510   0.24519  -0.48300   0.08943   0.06249
  36   38678.9    258.5   0.100514878   0.85552   0.78550  -0.45846   0.16830
  37   38816.9    257.6   0.084553591   0.71711   0.47112   0.54305   0.44750
  38   39402.8    253.8   0.084965141   0.70989  -0.55299   0.57301   0.27521
  39   39442.8    253.5   0.087027542   0.72638   0.63898  -0.48351  -0.29035
  40   39869.0    250.8   0.024142609   0.19935  -0.19176   0.04249   0.40097

FINAL SINGLE POINT ENERGY    -10514.371094041702

DIPOLE MOMENT
-------------
                                X             Y             Z
Electronic contribution:    -91.14673     -64.76352     -50.28136
Nuclear contribution   :     88.30108      64.97268      52.26629
                        -----------------------------------------
Total Dipole Moment    :     -2.84566       0.20917       1.98492
                        -----------------------------------------
Magnitude (a.u.)       :      3.47584
Magnitude (Debye)      :      8.83488

Rotational constants in cm-1:     0.001217     0.000106     0.000099
Rotational constants in MHz :    36.472523     3.187869     2.964771

                             ****ORCA TERMINATED NORMALLY****
TOTAL RUN TIME: 0 days 0 hours 12 minutes 20 seconds 493 msec
