                         Program Version 4.2.0 -  RELEASE  -
|  1> # ORCA input file
|  2> # SCF done       -206.009761241295          0.000721727278
|  3> ! CAM-B3LYP def2-SVP def2/J RIJCOSX Grid4 TightSCF
|  4> %maxcore 5000
|  5> %tddft
|  6>     Mode sTDDFT
|  7>     Ethresh 5.0
|  8>     maxcore 5000
|  9> end
| 10>
| 11> %pal
| 12>   nprocs 6
| 13>   end
| 14> * xyz 0 1
| 15>    C       -4.61221        -2.99415         4.39703
| 16>    C       -3.29094        -3.16395         4.72489
| 17>    C       -2.69010        -4.41866         4.95920
| 18>    N       -2.14034        -5.40574         5.16271
| 19>    C       -2.33822        -2.13498         4.87482
| 20>    N       -1.49972        -1.36216         5.01486
| 21>    C       -5.58404        -4.07348         4.24020
| 22>    C       -6.83717        -3.51005         3.89411
| 23>    C       -7.96099        -4.26853         3.67594
| 24>    C       -7.84385        -5.65661         3.80424
| 25>    C       -6.58924        -6.21296         4.14925
| 26>    C       -5.45297        -5.44313         4.37081
| 27>    S       -6.66605        -7.94527         4.25329
| 28>    C       -8.35874        -7.89954         3.83766
| 29>    C       -8.84386        -6.65190         3.63133
| 30>   Br       -9.32561        -9.50155         3.71456
| 31>    C       -6.70020        -2.04672         3.81819
| 32>    O       -7.58595        -1.25373         3.54463
| 33>    C       -5.30248        -1.74547         4.13687
| 34>    C       -4.75133        -0.48790         4.18155
| 35>    C       -5.33387         0.76194         3.93016
| 36>    C       -4.59745         1.95022         4.00798
| 37>    C       -5.33610         3.07965         3.70187
| 38>    C       -6.67222         2.76273         3.39971
| 39>    S       -6.99392         1.07279         3.47458
| 40>    C       -7.56037         3.81619         3.12516
| 41>    C       -7.07453         5.11973         3.02041
| 42>    C       -5.59883         5.36927         3.10756
| 43>    O       -4.85605         4.33734         3.75316
| 44>    C       -8.07112         6.05103         2.77585
| 45>    C       -9.33518         5.47335         2.69186
| 46>    S       -9.27260         3.74293         2.92717
| 47>    C      -10.54712         6.13687         2.44346
| 48>    C      -10.73131         7.50769         2.20031
| 49>    C      -12.10762         7.84929         1.96710
| 50>    N      -12.48633         9.09885         1.70557
| 51>    C      -11.53991        10.01369         1.67387
| 52>    C      -11.95152        11.40758         1.37522
| 53>    O      -13.10134        11.71704         1.14410
| 54>    C      -10.85542        12.39240         1.37627
| 55>    C       -9.57548        12.08044         1.60636
| 56>    C       -9.10736        10.71347         1.88722
| 57>    O       -7.93750        10.45255         2.08242
| 58>    C      -10.16991         9.67894         1.91408
| 59>    N       -9.78396         8.44535         2.16958
| 60>    C      -12.97461         6.75225         2.03783
| 61>    S      -12.07663         5.30808         2.38664
| 62>    C      -14.36416         6.79094         1.85263
| 63>    C      -15.26145         5.73408         1.92605
| 64>    C      -16.57313         6.13576         1.70097
| 65>    C      -16.67759         7.50986         1.43338
| 66>    S      -15.14377         8.30673         1.49211
| 67>    C      -17.93998         8.03358         1.09806
| 68>    C      -19.06196         7.20750         1.19735
| 69>    C      -18.92351         5.83231         1.77497
| 70>    O      -17.61396         5.28261         1.66843
| 71>    C      -20.22886         7.83890         0.80840
| 72>    C      -20.03372         9.15708         0.40300
| 73>    S      -18.33982         9.58851         0.48640
| 74>    C      -20.95836        10.08984        -0.09916
| 75>    C      -22.32422        10.08449        -0.03514
| 76>    C      -23.27605         9.36471         0.77601
| 77>    C      -23.07780         8.88304         2.04700
| 78>    C      -24.08130         8.26606         2.81996
| 79>    N      -24.85434         7.73252         3.48069
| 80>    C      -21.87264         9.01688         2.76227
| 81>    N      -20.92330         9.11939         3.40028
| 82>    C      -24.57722         9.47260         0.12038
| 83>    C      -24.47798        10.41542        -0.93326
| 84>    C      -23.08478        10.89811        -1.02120
| 85>    O      -22.63705        11.74080        -1.76462
| 86>    C      -25.55144        10.76135        -1.71680
| 87>    C      -26.77743        10.13916        -1.45581
| 88>    C      -26.86231         9.18919        -0.41037
| 89>    C      -25.77816         8.84534         0.38858
| 90>    S      -28.46544         8.53531        -0.26899
| 91>    C      -28.99489         9.53645        -1.59501
| 92>    C      -28.02215        10.31920        -2.11918
| 93>   Br      -30.78024         9.45083        -2.16256
| 94>    H       -8.89982        -3.80638         3.41413
| 95>    H       -4.52202        -5.91760         4.63158
| 96>    H       -9.86414        -6.44066         3.36795
| 97>    H       -3.70327        -0.42066         4.44567
| 98>    H       -3.55824         1.97245         4.28041
| 99>    H       -5.39199         6.28216         3.67354
|100>    H       -5.19453         5.50047         2.08978
|101>    H       -7.92364         7.10878         2.65342
|102>    H      -11.15723        13.41063         1.17078
|103>    H       -8.80146        12.83602         1.59475
|104>    H      -14.96773         4.72182         2.13335
|105>    H      -19.58313         5.12135         1.26926
|106>    H      -19.20400         5.86532         2.84148
|107>    H      -21.18713         7.35234         0.77852
|108>    H      -20.54172        10.89852        -0.69236
|109>    H      -25.45030        11.48880        -2.50673
|110>    H      -25.88914         8.11195         1.17007
|111>    H      -28.17379        10.99599        -2.94008
|112> *
|113>
|114>                          ****END OF INPUT****

CARTESIAN COORDINATES (ANGSTROEM)
---------------------------------
  C     -4.612210   -2.994150    4.397030
  C     -3.290940   -3.163950    4.724890
  C     -2.690100   -4.418660    4.959200
  N     -2.140340   -5.405740    5.162710
  C     -2.338220   -2.134980    4.874820
  N     -1.499720   -1.362160    5.014860
  C     -5.584040   -4.073480    4.240200
  C     -6.837170   -3.510050    3.894110
  C     -7.960990   -4.268530    3.675940
  C     -7.843850   -5.656610    3.804240
  C     -6.589240   -6.212960    4.149250
  C     -5.452970   -5.443130    4.370810
  S     -6.666050   -7.945270    4.253290
  C     -8.358740   -7.899540    3.837660
  C     -8.843860   -6.651900    3.631330
  Br    -9.325610   -9.501550    3.714560
  C     -6.700200   -2.046720    3.818190
  O     -7.585950   -1.253730    3.544630
  C     -5.302480   -1.745470    4.136870
  C     -4.751330   -0.487900    4.181550
  C     -5.333870    0.761940    3.930160
  C     -4.597450    1.950220    4.007980
  C     -5.336100    3.079650    3.701870
  C     -6.672220    2.762730    3.399710
  S     -6.993920    1.072790    3.474580
  C     -7.560370    3.816190    3.125160
  C     -7.074530    5.119730    3.020410
  C     -5.598830    5.369270    3.107560
  O     -4.856050    4.337340    3.753160
  C     -8.071120    6.051030    2.775850
  C     -9.335180    5.473350    2.691860
  S     -9.272600    3.742930    2.927170
  C    -10.547120    6.136870    2.443460
  C    -10.731310    7.507690    2.200310
  C    -12.107620    7.849290    1.967100
  N    -12.486330    9.098850    1.705570
  C    -11.539910   10.013690    1.673870
  C    -11.951520   11.407580    1.375220
  O    -13.101340   11.717040    1.144100
  C    -10.855420   12.392400    1.376270
  C     -9.575480   12.080440    1.606360
  C     -9.107360   10.713470    1.887220
  O     -7.937500   10.452550    2.082420
  C    -10.169910    9.678940    1.914080
  N     -9.783960    8.445350    2.169580
  C    -12.974610    6.752250    2.037830
  S    -12.076630    5.308080    2.386640
  C    -14.364160    6.790940    1.852630
  C    -15.261450    5.734080    1.926050
  C    -16.573130    6.135760    1.700970
  C    -16.677590    7.509860    1.433380
  S    -15.143770    8.306730    1.492110
  C    -17.939980    8.033580    1.098060
  C    -19.061960    7.207500    1.197350
  C    -18.923510    5.832310    1.774970
  O    -17.613960    5.282610    1.668430
  C    -20.228860    7.838900    0.808400
  C    -20.033720    9.157080    0.403000
  S    -18.339820    9.588510    0.486400
  C    -20.958360   10.089840   -0.099160
  C    -22.324220   10.084490   -0.035140
  C    -23.276050    9.364710    0.776010
  C    -23.077800    8.883040    2.047000
  C    -24.081300    8.266060    2.819960
  N    -24.854340    7.732520    3.480690
  C    -21.872640    9.016880    2.762270
  N    -20.923300    9.119390    3.400280
  C    -24.577220    9.472600    0.120380
  C    -24.477980   10.415420   -0.933260
  C    -23.084780   10.898110   -1.021200
  O    -22.637050   11.740800   -1.764620
  C    -25.551440   10.761350   -1.716800
  C    -26.777430   10.139160   -1.455810
  C    -26.862310    9.189190   -0.410370
  C    -25.778160    8.845340    0.388580
  S    -28.465440    8.535310   -0.268990
  C    -28.994890    9.536450   -1.595010
  C    -28.022150   10.319200   -2.119180
  Br   -30.780240    9.450830   -2.162560
  H     -8.899820   -3.806380    3.414130
  H     -4.522020   -5.917600    4.631580
  H     -9.864140   -6.440660    3.367950
  H     -3.703270   -0.420660    4.445670
  H     -3.558240    1.972450    4.280410
  H     -5.391990    6.282160    3.673540
  H     -5.194530    5.500470    2.089780
  H     -7.923640    7.108780    2.653420
  H    -11.157230   13.410630    1.170780
  H     -8.801460   12.836020    1.594750
  H    -14.967730    4.721820    2.133350
  H    -19.583130    5.121350    1.269260
  H    -19.204000    5.865320    2.841480
  H    -21.187130    7.352340    0.778520
  H    -20.541720   10.898520   -0.692360
  H    -25.450300   11.488800   -2.506730
  H    -25.889140    8.111950    1.170070
  H    -28.173790   10.995990   -2.940080

 Total Charge           Charge          ....    0
 Multiplicity           Mult            ....    1
 Number of Electrons    NEL             ....  638
 Basis Dimension        Dim             .... 1260

ORBITAL ENERGIES
----------------

  NO   OCC          E(Eh)            E(eV)
   0   2.0000    -482.886125    -13139.9995
   1   2.0000    -482.884417    -13139.9530
   2   2.0000     -89.003824     -2421.9172
   3   2.0000     -88.981039     -2421.2972
   4   2.0000     -88.976124     -2421.1634
   5   2.0000     -88.974987     -2421.1325
   6   2.0000     -88.973962     -2421.1046
   7   2.0000     -88.972516     -2421.0653
   8   2.0000     -88.972036     -2421.0522
   9   2.0000     -62.563857     -1702.4491
  10   2.0000     -62.562141     -1702.4024
  11   2.0000     -56.397806     -1534.6623
  12   2.0000     -56.396091     -1534.6157
  13   2.0000     -56.395090     -1534.5884
  14   2.0000     -56.395054     -1534.5874
  15   2.0000     -56.393378     -1534.5418
  16   2.0000     -56.393342     -1534.5409
  17   2.0000     -19.265463      -524.2399
  18   2.0000     -19.262517      -524.1597
  19   2.0000     -19.233419      -523.3679
  20   2.0000     -19.232273      -523.3368
  21   2.0000     -19.222637      -523.0745
  22   2.0000     -19.210250      -522.7375
  23   2.0000     -14.457281      -393.4026
  24   2.0000     -14.456321      -393.3765
  25   2.0000     -14.416258      -392.2863
  26   2.0000     -14.413314      -392.2062
  27   2.0000     -14.413225      -392.2038
  28   2.0000     -14.413202      -392.2032
  29   2.0000     -10.382405      -282.5196
  30   2.0000     -10.381858      -282.5047
  31   2.0000     -10.369763      -282.1756
  32   2.0000     -10.361599      -281.9535
  33   2.0000     -10.359389      -281.8933
  34   2.0000     -10.357155      -281.8325
  35   2.0000     -10.353684      -281.7381
  36   2.0000     -10.349311      -281.6191
  37   2.0000     -10.349029      -281.6114
  38   2.0000     -10.348595      -281.5996
  39   2.0000     -10.347914      -281.5810
  40   2.0000     -10.347143      -281.5601
  41   2.0000     -10.342492      -281.4335
  42   2.0000     -10.341271      -281.4003
  43   2.0000     -10.340556      -281.3808
  44   2.0000     -10.340240      -281.3722
  45   2.0000     -10.339937      -281.3640
  46   2.0000     -10.339163      -281.3429
  47   2.0000     -10.338672      -281.3296
  48   2.0000     -10.338471      -281.3241
  49   2.0000     -10.331122      -281.1241
  50   2.0000     -10.330962      -281.1198
  51   2.0000     -10.330292      -281.1015
  52   2.0000     -10.327194      -281.0172
  53   2.0000     -10.325746      -280.9778
  54   2.0000     -10.323890      -280.9273
  55   2.0000     -10.322768      -280.8968
  56   2.0000     -10.320987      -280.8483
  57   2.0000     -10.319298      -280.8024
  58   2.0000     -10.318683      -280.7856
  59   2.0000     -10.316666      -280.7308
  60   2.0000     -10.316571      -280.7282
  61   2.0000     -10.316469      -280.7254
  62   2.0000     -10.316012      -280.7130
  63   2.0000     -10.314911      -280.6830
  64   2.0000     -10.314895      -280.6826
  65   2.0000     -10.314213      -280.6640
  66   2.0000     -10.311181      -280.5815
  67   2.0000     -10.308195      -280.5002
  68   2.0000     -10.307869      -280.4914
  69   2.0000     -10.306462      -280.4531
  70   2.0000     -10.305552      -280.4283
  71   2.0000     -10.305433      -280.4251
  72   2.0000     -10.303849      -280.3820
  73   2.0000     -10.302228      -280.3379
  74   2.0000     -10.301991      -280.3314
  75   2.0000     -10.300636      -280.2946
  76   2.0000     -10.299213      -280.2558
  77   2.0000     -10.297309      -280.2040
  78   2.0000     -10.296589      -280.1844
  79   2.0000     -10.295819      -280.1635
  80   2.0000     -10.295275      -280.1487
  81   2.0000     -10.294794      -280.1356
  82   2.0000     -10.292914      -280.0844
  83   2.0000     -10.292881      -280.0835
  84   2.0000     -10.292797      -280.0812
  85   2.0000     -10.291554      -280.0474
  86   2.0000     -10.290174      -280.0099
  87   2.0000      -8.793304      -239.2780
  88   2.0000      -8.791576      -239.2309
  89   2.0000      -8.098326      -220.3667
  90   2.0000      -8.076576      -219.7748
  91   2.0000      -8.072084      -219.6526
  92   2.0000      -8.070452      -219.6082
  93   2.0000      -8.070048      -219.5972
  94   2.0000      -8.066044      -219.4882
  95   2.0000      -8.065378      -219.4701
  96   2.0000      -6.629620      -180.4011
  97   2.0000      -6.627883      -180.3539
  98   2.0000      -6.615032      -180.0042
  99   2.0000      -6.614829      -179.9986
 100   2.0000      -6.613300      -179.9570
 101   2.0000      -6.613115      -179.9520
 102   2.0000      -6.067397      -165.1023
 103   2.0000      -6.063303      -164.9909
 104   2.0000      -6.060963      -164.9272
 105   2.0000      -6.045921      -164.5179
 106   2.0000      -6.041834      -164.4067
 107   2.0000      -6.041766      -164.4048
 108   2.0000      -6.039738      -164.3496
 109   2.0000      -6.039690      -164.3483
 110   2.0000      -6.038510      -164.3162
 111   2.0000      -6.037494      -164.2886
 112   2.0000      -6.035633      -164.2379
 113   2.0000      -6.035605      -164.2372
 114   2.0000      -6.035467      -164.2334
 115   2.0000      -6.035010      -164.2210
 116   2.0000      -6.033326      -164.1751
 117   2.0000      -6.032560      -164.1543
 118   2.0000      -6.031356      -164.1215
 119   2.0000      -6.031245      -164.1185
 120   2.0000      -6.030353      -164.0942
 121   2.0000      -6.027700      -164.0221
 122   2.0000      -6.027355      -164.0127
 123   2.0000      -2.745463       -74.7078
 124   2.0000      -2.743729       -74.6607
 125   2.0000      -2.741412       -74.5976
 126   2.0000      -2.741250       -74.5932
 127   2.0000      -2.739678       -74.5504
 128   2.0000      -2.739523       -74.5462
 129   2.0000      -2.729659       -74.2778
 130   2.0000      -2.729640       -74.2773
 131   2.0000      -2.727942       -74.2311
 132   2.0000      -2.727922       -74.2305
 133   2.0000      -1.173772       -31.9400
 134   2.0000      -1.170669       -31.8555
 135   2.0000      -1.149777       -31.2870
 136   2.0000      -1.145075       -31.1591
 137   2.0000      -1.137954       -30.9653
 138   2.0000      -1.125901       -30.6373
 139   2.0000      -1.107678       -30.1415
 140   2.0000      -1.035886       -28.1879
 141   2.0000      -1.023161       -27.8416
 142   2.0000      -1.022415       -27.8213
 143   2.0000      -1.021309       -27.7912
 144   2.0000      -1.013487       -27.5784
 145   2.0000      -1.013120       -27.5684
 146   2.0000      -1.009421       -27.4677
 147   2.0000      -1.005042       -27.3486
 148   2.0000      -0.994480       -27.0612
 149   2.0000      -0.993715       -27.0404
 150   2.0000      -0.991579       -26.9822
 151   2.0000      -0.989277       -26.9196
 152   2.0000      -0.987179       -26.8625
 153   2.0000      -0.984719       -26.7956
 154   2.0000      -0.945541       -25.7295
 155   2.0000      -0.942985       -25.6599
 156   2.0000      -0.941013       -25.6063
 157   2.0000      -0.915861       -24.9218
 158   2.0000      -0.909686       -24.7538
 159   2.0000      -0.908850       -24.7311
 160   2.0000      -0.906402       -24.6645
 161   2.0000      -0.902763       -24.5654
 162   2.0000      -0.886213       -24.1151
 163   2.0000      -0.885328       -24.0910
 164   2.0000      -0.884099       -24.0576
 165   2.0000      -0.881443       -23.9853
 166   2.0000      -0.879426       -23.9304
 167   2.0000      -0.877109       -23.8673
 168   2.0000      -0.864293       -23.5186
 169   2.0000      -0.856542       -23.3077
 170   2.0000      -0.853518       -23.2254
 171   2.0000      -0.846822       -23.0432
 172   2.0000      -0.834861       -22.7177
 173   2.0000      -0.829924       -22.5834
 174   2.0000      -0.827368       -22.5138
 175   2.0000      -0.817214       -22.2375
 176   2.0000      -0.813425       -22.1344
 177   2.0000      -0.799724       -21.7616
 178   2.0000      -0.795086       -21.6354
 179   2.0000      -0.785378       -21.3712
 180   2.0000      -0.781494       -21.2655
 181   2.0000      -0.771948       -21.0058
 182   2.0000      -0.761618       -20.7247
 183   2.0000      -0.759100       -20.6562
 184   2.0000      -0.756134       -20.5754
 185   2.0000      -0.733780       -19.9672
 186   2.0000      -0.728917       -19.8349
 187   2.0000      -0.708780       -19.2869
 188   2.0000      -0.704016       -19.1573
 189   2.0000      -0.699303       -19.0290
 190   2.0000      -0.696970       -18.9655
 191   2.0000      -0.692022       -18.8309
 192   2.0000      -0.687119       -18.6974
 193   2.0000      -0.684684       -18.6312
 194   2.0000      -0.682216       -18.5640
 195   2.0000      -0.680574       -18.5193
 196   2.0000      -0.670872       -18.2554
 197   2.0000      -0.666259       -18.1298
 198   2.0000      -0.659114       -17.9354
 199   2.0000      -0.657551       -17.8929
 200   2.0000      -0.655852       -17.8466
 201   2.0000      -0.653003       -17.7691
 202   2.0000      -0.638198       -17.3662
 203   2.0000      -0.630441       -17.1552
 204   2.0000      -0.627284       -17.0693
 205   2.0000      -0.622585       -16.9414
 206   2.0000      -0.622238       -16.9320
 207   2.0000      -0.620555       -16.8862
 208   2.0000      -0.608583       -16.5604
 209   2.0000      -0.606431       -16.5018
 210   2.0000      -0.601162       -16.3585
 211   2.0000      -0.596347       -16.2274
 212   2.0000      -0.595070       -16.1927
 213   2.0000      -0.590270       -16.0621
 214   2.0000      -0.585077       -15.9207
 215   2.0000      -0.581210       -15.8155
 216   2.0000      -0.578287       -15.7360
 217   2.0000      -0.575436       -15.6584
 218   2.0000      -0.573234       -15.5985
 219   2.0000      -0.570479       -15.5235
 220   2.0000      -0.567073       -15.4308
 221   2.0000      -0.565426       -15.3860
 222   2.0000      -0.564330       -15.3562
 223   2.0000      -0.557776       -15.1779
 224   2.0000      -0.550543       -14.9810
 225   2.0000      -0.547606       -14.9011
 226   2.0000      -0.543372       -14.7859
 227   2.0000      -0.542893       -14.7729
 228   2.0000      -0.542015       -14.7490
 229   2.0000      -0.537923       -14.6376
 230   2.0000      -0.536711       -14.6047
 231   2.0000      -0.533922       -14.5288
 232   2.0000      -0.531744       -14.4695
 233   2.0000      -0.530325       -14.4309
 234   2.0000      -0.529550       -14.4098
 235   2.0000      -0.526248       -14.3199
 236   2.0000      -0.522509       -14.2182
 237   2.0000      -0.516299       -14.0492
 238   2.0000      -0.514949       -14.0125
 239   2.0000      -0.511252       -13.9119
 240   2.0000      -0.510478       -13.8908
 241   2.0000      -0.508717       -13.8429
 242   2.0000      -0.507412       -13.8074
 243   2.0000      -0.506305       -13.7773
 244   2.0000      -0.505676       -13.7601
 245   2.0000      -0.504081       -13.7167
 246   2.0000      -0.501293       -13.6409
 247   2.0000      -0.499738       -13.5986
 248   2.0000      -0.497362       -13.5339
 249   2.0000      -0.496915       -13.5217
 250   2.0000      -0.495509       -13.4835
 251   2.0000      -0.494834       -13.4651
 252   2.0000      -0.493771       -13.4362
 253   2.0000      -0.492430       -13.3997
 254   2.0000      -0.490962       -13.3598
 255   2.0000      -0.484553       -13.1854
 256   2.0000      -0.483113       -13.1462
 257   2.0000      -0.477789       -13.0013
 258   2.0000      -0.476421       -12.9641
 259   2.0000      -0.473595       -12.8872
 260   2.0000      -0.471811       -12.8386
 261   2.0000      -0.468595       -12.7511
 262   2.0000      -0.461635       -12.5617
 263   2.0000      -0.460223       -12.5233
 264   2.0000      -0.456637       -12.4257
 265   2.0000      -0.452423       -12.3110
 266   2.0000      -0.450138       -12.2489
 267   2.0000      -0.449096       -12.2205
 268   2.0000      -0.448476       -12.2036
 269   2.0000      -0.447992       -12.1905
 270   2.0000      -0.444636       -12.0991
 271   2.0000      -0.443973       -12.0811
 272   2.0000      -0.442962       -12.0536
 273   2.0000      -0.441497       -12.0137
 274   2.0000      -0.441110       -12.0032
 275   2.0000      -0.440215       -11.9788
 276   2.0000      -0.437599       -11.9077
 277   2.0000      -0.436716       -11.8837
 278   2.0000      -0.432510       -11.7692
 279   2.0000      -0.429439       -11.6856
 280   2.0000      -0.426383       -11.6025
 281   2.0000      -0.425551       -11.5798
 282   2.0000      -0.422651       -11.5009
 283   2.0000      -0.421925       -11.4812
 284   2.0000      -0.416568       -11.3354
 285   2.0000      -0.415483       -11.3059
 286   2.0000      -0.411670       -11.2021
 287   2.0000      -0.408024       -11.1029
 288   2.0000      -0.407939       -11.1006
 289   2.0000      -0.401676       -10.9302
 290   2.0000      -0.400002       -10.8846
 291   2.0000      -0.396188       -10.7808
 292   2.0000      -0.389521       -10.5994
 293   2.0000      -0.387291       -10.5387
 294   2.0000      -0.383228       -10.4282
 295   2.0000      -0.378833       -10.3086
 296   2.0000      -0.375536       -10.2188
 297   2.0000      -0.373934       -10.1753
 298   2.0000      -0.369939       -10.0666
 299   2.0000      -0.369500       -10.0546
 300   2.0000      -0.360136        -9.7998
 301   2.0000      -0.356503        -9.7009
 302   2.0000      -0.353227        -9.6118
 303   2.0000      -0.347003        -9.4424
 304   2.0000      -0.342506        -9.3201
 305   2.0000      -0.341778        -9.3002
 306   2.0000      -0.337156        -9.1745
 307   2.0000      -0.336943        -9.1687
 308   2.0000      -0.335384        -9.1263
 309   2.0000      -0.327401        -8.9090
 310   2.0000      -0.317865        -8.6495
 311   2.0000      -0.313477        -8.5301
 312   2.0000      -0.313008        -8.5174
 313   2.0000      -0.312262        -8.4971
 314   2.0000      -0.297743        -8.1020
 315   2.0000      -0.293377        -7.9832
 316   2.0000      -0.292074        -7.9477
 317   2.0000      -0.260320        -7.0837
 318   2.0000      -0.229947        -6.2572
 319   0.0000      -0.118166        -3.2155
 320   0.0000      -0.099083        -2.6962
 321   0.0000      -0.087434        -2.3792
 322   0.0000      -0.085054        -2.3144
 323   0.0000      -0.062584        -1.7030

MULLIKEN ATOMIC CHARGES
-----------------------
   0 C :    0.330854
   1 C :   -0.356346
   2 C :   -0.186930
   3 N :    0.146758
   4 C :   -0.188900
   5 N :    0.145852
   6 C :    0.010402
   7 C :   -0.009839
   8 C :   -0.071923
   9 C :    0.117216
  10 C :   -0.092359
  11 C :   -0.019571
  12 S :    0.187283
  13 C :   -0.125383
  14 C :    0.040403
  15 Br:    0.023734
  16 C :    0.165691
  17 O :   -0.190525
  18 C :   -0.097575
  19 C :   -0.014505
  20 C :   -0.041353
  21 C :   -0.058603
  22 C :    0.238407
  23 C :   -0.147416
  24 S :    0.212319
  25 C :   -0.052967
  26 C :   -0.115548
  27 C :    0.358614
  28 O :   -0.298224
  29 C :   -0.045775
  30 C :   -0.092151
  31 S :    0.158597
  32 C :   -0.099348
  33 C :    0.028676
  34 C :    0.006543
  35 N :    0.045336
  36 C :   -0.115453
  37 C :    0.137852
  38 O :   -0.101646
  39 C :   -0.017372
  40 C :   -0.017403
  41 C :    0.143933
  42 O :   -0.112699
  43 C :   -0.118033
  44 N :    0.066753
  45 C :   -0.105181
  46 S :    0.212819
  47 C :   -0.051543
  48 C :   -0.097143
  49 C :    0.232550
  50 C :   -0.168682
  51 S :    0.215635
  52 C :   -0.032878
  53 C :   -0.142051
  54 C :    0.355085
  55 O :   -0.295127
  56 C :    0.014206
  57 C :   -0.105283
  58 S :    0.190603
  59 C :    0.087041
  60 C :   -0.141109
  61 C :    0.269026
  62 C :   -0.352319
  63 C :   -0.175437
  64 N :    0.148656
  65 C :   -0.205443
  66 N :    0.166358
  67 C :    0.002315
  68 C :    0.006100
  69 C :    0.131619
  70 O :   -0.147304
  71 C :   -0.076835
  72 C :    0.114515
  73 C :   -0.086832
  74 C :   -0.027864
  75 S :    0.182658
  76 C :   -0.124334
  77 C :    0.038506
  78 Br:    0.021287
  79 H :   -0.012319
  80 H :   -0.006684
  81 H :   -0.003960
  82 H :    0.008853
  83 H :    0.005372
  84 H :    0.035174
  85 H :    0.034491
  86 H :    0.009055
  87 H :    0.020321
  88 H :    0.019841
  89 H :   -0.012277
  90 H :    0.026672
  91 H :    0.041416
  92 H :   -0.002943
  93 H :    0.022578
  94 H :   -0.009043
  95 H :   -0.004391
  96 H :   -0.003145
Sum of atomic charges:   -0.0000000

LOEWDIN ATOMIC CHARGES
----------------------
   0 C :    0.076966
   1 C :   -0.144912
   2 C :   -0.018118
   3 N :   -0.056232
   4 C :   -0.021205
   5 N :   -0.054852
   6 C :   -0.019792
   7 C :   -0.050081
   8 C :    0.021073
   9 C :   -0.033543
  10 C :   -0.144476
  11 C :   -0.009356
  12 S :    0.434135
  13 C :   -0.272105
  14 C :   -0.070603
  15 Br:    0.136796
  16 C :    0.084681
  17 O :   -0.172615
  18 C :   -0.112147
  19 C :    0.053889
  20 C :   -0.176152
  21 C :   -0.033886
  22 C :    0.022627
  23 C :   -0.222493
  24 S :    0.510671
  25 C :   -0.186403
  26 C :   -0.064556
  27 C :    0.109703
  28 O :   -0.095283
  29 C :   -0.029150
  30 C :   -0.181121
  31 S :    0.439758
  32 C :   -0.185412
  33 C :   -0.044396
  34 C :   -0.050644
  35 N :   -0.005713
  36 C :   -0.038619
  37 C :    0.055129
  38 O :   -0.098898
  39 C :   -0.010502
  40 C :   -0.012929
  41 C :    0.056450
  42 O :   -0.107844
  43 C :   -0.043585
  44 N :    0.009269
  45 C :   -0.191896
  46 S :    0.504293
  47 C :   -0.168794
  48 C :   -0.073813
  49 C :    0.040812
  50 C :   -0.246350
  51 S :    0.494150
  52 C :   -0.158696
  53 C :   -0.078170
  54 C :    0.107944
  55 O :   -0.090603
  56 C :   -0.006324
  57 C :   -0.185690
  58 S :    0.474187
  59 C :    0.047468
  60 C :   -0.106551
  61 C :    0.066544
  62 C :   -0.152677
  63 C :   -0.021789
  64 N :   -0.059038
  65 C :   -0.018704
  66 N :   -0.049364
  67 C :   -0.018164
  68 C :   -0.051882
  69 C :    0.081753
  70 O :   -0.147633
  71 C :    0.021603
  72 C :   -0.034546
  73 C :   -0.144157
  74 C :   -0.014574
  75 S :    0.430297
  76 C :   -0.273078
  77 C :   -0.069957
  78 Br:    0.135158
  79 H :    0.040297
  80 H :    0.041146
  81 H :    0.038519
  82 H :    0.051249
  83 H :    0.044025
  84 H :    0.038510
  85 H :    0.028838
  86 H :    0.038372
  87 H :    0.046699
  88 H :    0.046361
  89 H :    0.033062
  90 H :    0.035199
  91 H :    0.030770
  92 H :    0.035604
  93 H :    0.045866
  94 H :    0.041206
  95 H :    0.040210
  96 H :    0.038784

  Mayer bond orders larger than 0.100000
B(  0-C ,  1-C ) :   1.6136 B(  0-C ,  6-C ) :   0.9978 B(  0-C , 18-C ) :   1.0848
B(  1-C ,  2-C ) :   1.1467 B(  1-C ,  4-C ) :   1.1476 B(  2-C ,  3-N ) :   2.9653
B(  4-C ,  5-N ) :   2.9564 B(  6-C ,  7-C ) :   1.2738 B(  6-C , 11-C ) :   1.4171
B(  7-C ,  8-C ) :   1.4234 B(  7-C , 16-C ) :   0.9632 B(  8-C ,  9-C ) :   1.2419
B(  8-C , 79-H ) :   1.0170 B(  9-C , 10-C ) :   1.3083 B(  9-C , 14-C ) :   1.1636
B( 10-C , 11-C ) :   1.3257 B( 10-C , 12-S ) :   1.0868 B( 11-C , 80-H ) :   0.9790
B( 12-S , 13-C ) :   1.0880 B( 13-C , 14-C ) :   1.6169 B( 13-C , 15-Br) :   1.0188
B( 14-C , 81-H ) :   1.0000 B( 16-C , 17-O ) :   2.1054 B( 16-C , 18-C ) :   0.9867
B( 18-C , 19-C ) :   1.4747 B( 19-C , 20-C ) :   1.2850 B( 19-C , 82-H ) :   0.9385
B( 20-C , 21-C ) :   1.3048 B( 20-C , 24-S ) :   1.0857 B( 21-C , 22-C ) :   1.3260
B( 21-C , 83-H ) :   1.0205 B( 22-C , 23-C ) :   1.3472 B( 22-C , 28-O ) :   1.1615
B( 23-C , 24-S ) :   1.0770 B( 23-C , 25-C ) :   1.1896 B( 25-C , 26-C ) :   1.4864
B( 25-C , 31-S ) :   1.1136 B( 26-C , 27-C ) :   1.0212 B( 26-C , 29-C ) :   1.2850
B( 27-C , 28-O ) :   0.9488 B( 27-C , 84-H ) :   0.9356 B( 27-C , 85-H ) :   0.9326
B( 29-C , 30-C ) :   1.4543 B( 29-C , 86-H ) :   0.9949 B( 30-C , 31-S ) :   1.0966
B( 30-C , 32-C ) :   1.2076 B( 32-C , 33-C ) :   1.3518 B( 32-C , 45-C ) :   0.1297
B( 32-C , 46-S ) :   1.1567 B( 33-C , 34-C ) :   1.1840 B( 33-C , 44-N ) :   1.4500
B( 34-C , 35-N ) :   1.4272 B( 34-C , 45-C ) :   1.3181 B( 35-N , 36-C ) :   1.6992
B( 36-C , 37-C ) :   0.8951 B( 36-C , 43-C ) :   1.1008 B( 37-C , 38-O ) :   2.2516
B( 37-C , 39-C ) :   1.0210 B( 39-C , 40-C ) :   1.6779 B( 39-C , 87-H ) :   0.9986
B( 40-C , 41-C ) :   1.0281 B( 40-C , 88-H ) :   0.9998 B( 41-C , 42-O ) :   2.2240
B( 41-C , 43-C ) :   0.8994 B( 43-C , 44-N ) :   1.7031 B( 45-C , 46-S ) :   1.1474
B( 45-C , 47-C ) :   1.2504 B( 47-C , 48-C ) :   1.3660 B( 47-C , 51-S ) :   1.1381
B( 48-C , 49-C ) :   1.3017 B( 48-C , 89-H ) :   1.0125 B( 49-C , 50-C ) :   1.3966
B( 49-C , 55-O ) :   1.1714 B( 50-C , 51-S ) :   1.0486 B( 50-C , 52-C ) :   1.1903
B( 52-C , 53-C ) :   1.4562 B( 52-C , 58-S ) :   1.1588 B( 53-C , 54-C ) :   1.0255
B( 53-C , 56-C ) :   1.3845 B( 54-C , 55-O ) :   0.9422 B( 54-C , 90-H ) :   0.9351
B( 54-C , 91-H ) :   0.9321 B( 56-C , 57-C ) :   1.3787 B( 56-C , 92-H ) :   0.9910
B( 57-C , 58-S ) :   1.0877 B( 57-C , 59-C ) :   1.1805 B( 59-C , 60-C ) :   1.6116
B( 59-C , 93-H ) :   0.9283 B( 60-C , 61-C ) :   1.0636 B( 60-C , 69-C ) :   0.9524
B( 61-C , 62-C ) :   1.6198 B( 61-C , 67-C ) :   1.0091 B( 62-C , 63-C ) :   1.1283
B( 62-C , 65-C ) :   1.1730 B( 63-C , 64-N ) :   2.9858 B( 65-C , 66-N ) :   2.9933
B( 67-C , 68-C ) :   1.2775 B( 67-C , 74-C ) :   1.4157 B( 68-C , 69-C ) :   0.9184
B( 68-C , 71-C ) :   1.4269 B( 69-C , 70-O ) :   2.2608 B( 71-C , 72-C ) :   1.2466
B( 71-C , 94-H ) :   1.0177 B( 72-C , 73-C ) :   1.3109 B( 72-C , 77-C ) :   1.1628
B( 73-C , 74-C ) :   1.3233 B( 73-C , 75-S ) :   1.0835 B( 74-C , 95-H ) :   0.9841
B( 75-S , 76-C ) :   1.0864 B( 76-C , 77-C ) :   1.6185 B( 76-C , 78-Br) :   1.0175
B( 77-C , 96-H ) :   1.0011

-----------------------------------------------------------------------------
         ABSORPTION SPECTRUM VIA TRANSITION ELECTRIC DIPOLE MOMENTS
-----------------------------------------------------------------------------
State   Energy  Wavelength   fosc         T2         TX        TY        TZ
        (cm-1)    (nm)                  (au**2)     (au)      (au)      (au)
-----------------------------------------------------------------------------
   0    9675.6   1033.5   1.245031478  42.36212  -5.51531   3.27579  -1.10119
   1   14506.0    689.4   0.318767930   7.23438  -1.12059  -2.42782   0.29039
   2   17069.0    585.9   0.659355296  12.71710  -3.08348   1.76042  -0.33190
   3   17469.2    572.4   0.371343015   6.99808   0.58321  -2.54285   0.43800
   4   18365.3    544.5   0.072042920   1.29143  -0.06844   1.09411  -0.29945
   5   22661.6    441.3   0.041676317   0.60544   0.29761  -0.71832   0.02968
   6   23303.5    429.1   0.084976149   1.20047  -0.76136   0.71499  -0.33104
   7   24087.9    415.1   0.171706197   2.34672  -1.38806   0.29438  -0.57736
   8   24815.6    403.0   0.001794278   0.02380   0.08346   0.01552  -0.12883
   9   25008.4    399.9   0.005058551   0.06659  -0.00378  -0.22197  -0.13156
  10   25811.6    387.4   0.000285544   0.00364   0.02638   0.00161  -0.05425
  11   26073.3    383.5   0.028358767   0.35807  -0.50456  -0.29142   0.13624
  12   26315.8    380.0   0.022344435   0.27953   0.14342  -0.17694  -0.47713
  13   26523.8    377.0   0.000673669   0.00836   0.08944   0.01351  -0.01341
  14   26621.4    375.6   0.102643412   1.26933  -0.86005  -0.71473  -0.13716
  15   26920.4    371.5   0.079226836   0.96887  -0.79960  -0.54300  -0.18620
  16   27196.4    367.7   0.387719217   4.69333   1.94788  -0.18862   0.92927
  17   28117.5    355.7   0.209324492   2.45086   0.21443  -1.55075  -0.00859
  18   28706.2    348.4   0.004520588   0.05184   0.20116  -0.04659   0.09596
  19   28992.6    344.9   0.160105785   1.81801   0.90074   1.00000  -0.08177
  20   29444.0    339.6   0.035864087   0.40099   0.48944   0.38857  -0.10227
  21   29767.2    335.9   0.003013382   0.03333  -0.05020   0.16999  -0.04368
  22   29986.0    333.5   0.000728958   0.00800  -0.07870   0.03730  -0.02046
  23   30298.9    330.0   0.001286304   0.01398   0.07002   0.09334  -0.01899
  24   30745.6    325.2   0.000066225   0.00071   0.02597   0.00229  -0.00542
  25   30871.7    323.9   0.025048503   0.26711  -0.47533  -0.12305  -0.16136
  26   31545.2    317.0   0.086601339   0.90379   0.77105   0.50309   0.23702
  27   31789.7    314.6   0.053378964   0.55279   0.25190  -0.18627   0.67427
  28   31967.6    312.8   0.070925360   0.73041  -0.30682   0.35053  -0.71652
  29   32148.3    311.1   0.060993593   0.62460   0.27438  -0.63168   0.38769
  30   32313.1    309.5   0.584747149   5.95752  -2.17010  -0.96681  -0.55987
  31   32703.2    305.8   0.068011534   0.68465  -0.53693   0.19614  -0.59823
  32   32822.5    304.7   0.061491520   0.61677  -0.64458  -0.29675  -0.33649
  33   33024.1    302.8   0.028637030   0.28548   0.45571   0.00587   0.27888
  34   33081.1    302.3   0.020069167   0.19972  -0.12819  -0.41481   0.10593
  35   33415.1    299.3   0.089153989   0.87836   0.56995   0.74236   0.04918
  36   33496.7    298.5   0.080315140   0.78935   0.41960  -0.63431   0.45928
  37   33607.7    297.6   0.000736341   0.00721  -0.04087  -0.07152  -0.02069
  38   33794.7    295.9   0.000279071   0.00272  -0.04658  -0.02296   0.00463
  39   33850.1    295.4   0.229810452   2.23504   1.32210  -0.12665   0.68633
  40   34043.8    293.7   0.003001180   0.02902   0.14116  -0.08587   0.04151
  41   34208.9    292.3   0.030770553   0.29612  -0.29377  -0.36142   0.28143
  42   34546.0    289.5   0.163813897   1.56109   0.07235   1.22180  -0.25114
  43   34803.3    287.3   0.009533976   0.09018   0.14167  -0.12235   0.23482
  44   35077.1    285.1   0.001631401   0.01531   0.02105  -0.11733   0.03319
  45   35139.3    284.6   0.056656185   0.53080   0.11869  -0.68303   0.22401
  46   35492.0    281.8   0.017917634   0.16620  -0.04137  -0.36023   0.18633
  47   36023.3    277.6   0.004091878   0.03740  -0.01739  -0.19117  -0.02336
  48   36081.5    277.2   0.027658565   0.25236   0.46225   0.17498   0.08984
  49   36364.1    275.0   0.090433129   0.81871  -0.23337  -0.86008   0.15655
  50   36609.6    273.2   0.135831586   1.22147  -0.49477   0.58803  -0.79428
  51   36724.0    272.3   0.131237151   1.17648  -0.52631  -0.88977   0.32830
  52   36811.7    271.7   0.011456153   0.10245  -0.24637   0.20433  -0.00218
  53   36967.4    270.5   0.124564538   1.10930   0.95194  -0.39927   0.20904
  54   37183.0    268.9   0.279622796   2.47574   1.02092   1.07789   0.52117
  55   37253.6    268.4   0.003152784   0.02786   0.10906  -0.12401   0.02428
  56   37277.9    268.3   0.050810303   0.44872   0.08959   0.66366  -0.01565
  57   37795.3    264.6   0.019821015   0.17265  -0.39178  -0.13424  -0.03376
  58   38316.9    261.0   0.000355747   0.00306   0.03053  -0.03718   0.02724
  59   38676.3    258.6   0.004956480   0.04219  -0.02889   0.19630  -0.05312
  60   38783.0    257.8   0.093374867   0.79262  -0.53119  -0.71295  -0.04642
  61   38903.7    257.0   0.108224472   0.91582  -0.88665  -0.33972  -0.11943
  62   39143.5    255.5   0.003326570   0.02798  -0.13630   0.09244   0.02921
  63   39258.0    254.7   0.002844857   0.02386  -0.13890  -0.01830   0.06504
  64   39410.4    253.7   0.011739884   0.09807   0.09398   0.29486  -0.04787
  65   39449.1    253.5   0.005325796   0.04444   0.08320   0.18572  -0.05506
  66   39698.4    251.9   0.025031150   0.20758  -0.10568   0.02439  -0.44251
  67   39771.1    251.4   0.013132070   0.10870   0.04563   0.30154  -0.12528
  68   39854.3    250.9   0.033392598   0.27584  -0.19213   0.48705   0.04130
  69   39905.7    250.6   0.005508520   0.04544  -0.20958   0.03743  -0.01094
  70   39953.2    250.3   0.049822152   0.41053   0.37784  -0.51534   0.04678
  71   40110.1    249.3   0.026826025   0.22018   0.44682  -0.03449   0.13908
  72   40302.0    248.1   0.002337130   0.01909  -0.01919   0.11155  -0.07925

FINAL SINGLE POINT ENERGY    -10931.430069773047

DIPOLE MOMENT
-------------
                                X             Y             Z
Electronic contribution:   -121.22430     -96.66586     -22.24997
Nuclear contribution   :    119.71893      97.08065      20.27972
                        -----------------------------------------
Total Dipole Moment    :     -1.50537       0.41478      -1.97025
                        -----------------------------------------
Magnitude (a.u.)       :      2.51398
Magnitude (Debye)      :      6.39002

Rotational constants in cm-1:     0.000681     0.000133     0.000112
Rotational constants in MHz :    20.426875     3.986493     3.369488

                             ****ORCA TERMINATED NORMALLY****
TOTAL RUN TIME: 0 days 0 hours 11 minutes 10 seconds 865 msec
