                         Program Version 4.2.0 -  RELEASE  -
|  1> # ORCA input file
|  2> # SCF done       -203.241393868180          0.000946428454
|  3> ! CAM-B3LYP def2-SVP def2/J RIJCOSX Grid4 TightSCF
|  4> %maxcore 5000
|  5> %tddft
|  6>     Mode sTDDFT
|  7>     Ethresh 5.0
|  8>     maxcore 5000
|  9> end
| 10>
| 11> %pal
| 12>   nprocs 6
| 13>   end
| 14> * xyz 0 1
| 15>    C       -0.08854         2.37023         1.36001
| 16>    C       -0.00900         1.35892         2.28203
| 17>    C        1.10055         0.49646         2.40997
| 18>    N        1.96873        -0.23894         2.56250
| 19>    C       -0.97708         1.05420         3.26303
| 20>    N       -1.69660         0.74917         4.10466
| 21>    C        0.97037         2.73942         0.42872
| 22>    C        0.59804         3.93970        -0.22185
| 23>    C        1.39219         4.55440        -1.15915
| 24>    C        2.61167         3.94858        -1.47776
| 25>    C        2.97360         2.74420        -0.82771
| 26>    C        2.17272         2.12744         0.12550
| 27>    S        4.51515         2.16054        -1.37690
| 28>    C        4.65063         3.52278        -2.45690
| 29>    C        3.59755         4.37302        -2.40988
| 30>   Br        6.16799         3.69305        -3.54551
| 31>    C       -0.72844         4.37350         0.25797
| 32>    O       -1.29412         5.39503        -0.07031
| 33>    C       -1.18641         3.30915         1.18238
| 34>    C       -2.43881         3.10906         1.69701
| 35>    C       -3.60967         3.88871         1.62611
| 36>    C       -3.87172         5.16656         1.16077
| 37>    C       -5.20460         5.52931         1.29744
| 38>   Cl       -5.79375         7.05642         0.80053
| 39>    C       -6.02431         4.54989         1.86950
| 40>    S       -5.06983         3.15514         2.25670
| 41>    C       -7.41560         4.60603         2.09760
| 42>    C       -8.23014         3.61171         2.63788
| 43>   Cl       -7.63827         2.09674         3.17738
| 44>    C       -9.57675         3.94906         2.69478
| 45>    C       -9.83358         5.21677         2.20348
| 46>    S       -8.38108         6.00457         1.67610
| 47>    C      -11.09253         5.85832         2.07291
| 48>    C      -11.16882         7.16722         1.54335
| 49>    C      -12.41392         7.83414         1.33066
| 50>    N      -12.42376         9.07732         0.82068
| 51>    C      -11.29252         9.65280         0.52335
| 52>    C      -10.06283         8.99099         0.72620
| 53>    N      -10.02008         7.78642         1.22263
| 54>    C      -13.65703         7.22640         1.62161
| 55>    C      -13.59008         5.93353         2.18440
| 56>    C      -12.32639         5.26116         2.41063
| 57>    N      -12.50583         4.05046         2.94292
| 58>    S      -14.07382         3.78463         3.14004
| 59>    N      -14.62127         5.17601         2.56414
| 60>    C      -14.86618         7.90158         1.31332
| 61>    C      -16.15925         7.43656         1.47461
| 62>    C      -17.11454         8.33698         1.02001
| 63>   Cl      -18.79525         8.00541         1.07910
| 64>    C      -16.58595         9.51824         0.50428
| 65>    S      -14.83910         9.48383         0.60233
| 66>    C      -17.28953        10.59867        -0.06822
| 67>    C      -16.77755        11.78501        -0.59123
| 68>   Cl      -15.10969        12.15757        -0.59416
| 69>    C      -17.74058        12.64797        -1.10701
| 70>    C      -19.02102        12.13486        -1.03944
| 71>    S      -19.01858        10.58289        -0.24561
| 72>    C      -20.20774        12.78075        -1.46250
| 73>    C      -21.42029        12.23399        -1.74421
| 74>    C      -21.83914        10.86664        -1.97885
| 75>    C      -21.09471         9.88628        -2.57994
| 76>    C      -21.58272         8.59642        -2.86946
| 77>    N      -21.92886         7.52888        -3.11093
| 78>    C      -19.78816        10.09725        -3.06854
| 79>    N      -18.74712        10.24154        -3.52973
| 80>    C      -23.27878        10.81265        -1.75477
| 81>    C      -23.77041        12.13881        -1.64572
| 82>    C      -22.64077        13.08725        -1.72296
| 83>    O      -22.68115        14.29542        -1.71975
| 84>    C      -25.10671        12.41633        -1.48726
| 85>    C      -25.99466        11.33717        -1.42247
| 86>    C      -25.49027        10.01724        -1.51576
| 87>    C      -24.14030         9.73513        -1.68463
| 88>    S      -26.76053         8.83806        -1.40397
| 89>    C      -27.93711        10.11477        -1.24105
| 90>    C      -27.40778        11.36106        -1.26649
| 91>   Br      -29.75183         9.68146        -1.05514
| 92>    H        1.07992         5.47131        -1.63389
| 93>    H        2.49196         1.20885         0.58832
| 94>    H        3.51690         5.26226        -3.00795
| 95>    H       -2.59101         2.17628         2.22838
| 96>    H       -3.12020         5.80330         0.73149
| 97>    H      -10.34748         3.30331         3.07163
| 98>    H      -11.34297        10.65322         0.11869
| 99>    H       -9.11783         9.45412         0.48204
|100>    H      -16.38438         6.47624         1.89914
|101>    H      -17.50635        13.59656        -1.55409
|102>    H      -20.16646        13.86531        -1.49930
|103>    H      -25.45773        13.43388        -1.41735
|104>    H      -23.79741         8.71543        -1.74672
|105>    H      -27.98827        12.26132        -1.17984
|106> *
|107>
|108>                          ****END OF INPUT****

CARTESIAN COORDINATES (ANGSTROEM)
---------------------------------
  C     -0.088540    2.370230    1.360010
  C     -0.009000    1.358920    2.282030
  C      1.100550    0.496460    2.409970
  N      1.968730   -0.238940    2.562500
  C     -0.977080    1.054200    3.263030
  N     -1.696600    0.749170    4.104660
  C      0.970370    2.739420    0.428720
  C      0.598040    3.939700   -0.221850
  C      1.392190    4.554400   -1.159150
  C      2.611670    3.948580   -1.477760
  C      2.973600    2.744200   -0.827710
  C      2.172720    2.127440    0.125500
  S      4.515150    2.160540   -1.376900
  C      4.650630    3.522780   -2.456900
  C      3.597550    4.373020   -2.409880
  Br     6.167990    3.693050   -3.545510
  C     -0.728440    4.373500    0.257970
  O     -1.294120    5.395030   -0.070310
  C     -1.186410    3.309150    1.182380
  C     -2.438810    3.109060    1.697010
  C     -3.609670    3.888710    1.626110
  C     -3.871720    5.166560    1.160770
  C     -5.204600    5.529310    1.297440
  Cl    -5.793750    7.056420    0.800530
  C     -6.024310    4.549890    1.869500
  S     -5.069830    3.155140    2.256700
  C     -7.415600    4.606030    2.097600
  C     -8.230140    3.611710    2.637880
  Cl    -7.638270    2.096740    3.177380
  C     -9.576750    3.949060    2.694780
  C     -9.833580    5.216770    2.203480
  S     -8.381080    6.004570    1.676100
  C    -11.092530    5.858320    2.072910
  C    -11.168820    7.167220    1.543350
  C    -12.413920    7.834140    1.330660
  N    -12.423760    9.077320    0.820680
  C    -11.292520    9.652800    0.523350
  C    -10.062830    8.990990    0.726200
  N    -10.020080    7.786420    1.222630
  C    -13.657030    7.226400    1.621610
  C    -13.590080    5.933530    2.184400
  C    -12.326390    5.261160    2.410630
  N    -12.505830    4.050460    2.942920
  S    -14.073820    3.784630    3.140040
  N    -14.621270    5.176010    2.564140
  C    -14.866180    7.901580    1.313320
  C    -16.159250    7.436560    1.474610
  C    -17.114540    8.336980    1.020010
  Cl   -18.795250    8.005410    1.079100
  C    -16.585950    9.518240    0.504280
  S    -14.839100    9.483830    0.602330
  C    -17.289530   10.598670   -0.068220
  C    -16.777550   11.785010   -0.591230
  Cl   -15.109690   12.157570   -0.594160
  C    -17.740580   12.647970   -1.107010
  C    -19.021020   12.134860   -1.039440
  S    -19.018580   10.582890   -0.245610
  C    -20.207740   12.780750   -1.462500
  C    -21.420290   12.233990   -1.744210
  C    -21.839140   10.866640   -1.978850
  C    -21.094710    9.886280   -2.579940
  C    -21.582720    8.596420   -2.869460
  N    -21.928860    7.528880   -3.110930
  C    -19.788160   10.097250   -3.068540
  N    -18.747120   10.241540   -3.529730
  C    -23.278780   10.812650   -1.754770
  C    -23.770410   12.138810   -1.645720
  C    -22.640770   13.087250   -1.722960
  O    -22.681150   14.295420   -1.719750
  C    -25.106710   12.416330   -1.487260
  C    -25.994660   11.337170   -1.422470
  C    -25.490270   10.017240   -1.515760
  C    -24.140300    9.735130   -1.684630
  S    -26.760530    8.838060   -1.403970
  C    -27.937110   10.114770   -1.241050
  C    -27.407780   11.361060   -1.266490
  Br   -29.751830    9.681460   -1.055140
  H      1.079920    5.471310   -1.633890
  H      2.491960    1.208850    0.588320
  H      3.516900    5.262260   -3.007950
  H     -2.591010    2.176280    2.228380
  H     -3.120200    5.803300    0.731490
  H    -10.347480    3.303310    3.071630
  H    -11.342970   10.653220    0.118690
  H     -9.117830    9.454120    0.482040
  H    -16.384380    6.476240    1.899140
  H    -17.506350   13.596560   -1.554090
  H    -20.166460   13.865310   -1.499300
  H    -25.457730   13.433880   -1.417350
  H    -23.797410    8.715430   -1.746720
  H    -27.988270   12.261320   -1.179840

 Total Charge           Charge          ....    0
 Multiplicity           Mult            ....    1
 Number of Electrons    NEL             ....  660
 Basis Dimension        Dim             .... 1228

ORBITAL ENERGIES
----------------

  NO   OCC          E(Eh)            E(eV)
   0   2.0000    -482.885834    -13139.9916
   1   2.0000    -482.885080    -13139.9710
   2   2.0000    -101.601458     -2764.7162
   3   2.0000    -101.599778     -2764.6705
   4   2.0000    -101.599563     -2764.6647
   5   2.0000    -101.599305     -2764.6576
   6   2.0000     -89.049076     -2423.1486
   7   2.0000     -88.976238     -2421.1665
   8   2.0000     -88.974849     -2421.1287
   9   2.0000     -88.971757     -2421.0446
  10   2.0000     -88.971366     -2421.0340
  11   2.0000     -88.963486     -2420.8195
  12   2.0000     -88.963107     -2420.8092
  13   2.0000     -62.563578     -1702.4415
  14   2.0000     -62.562805     -1702.4205
  15   2.0000     -56.397527     -1534.6547
  16   2.0000     -56.396753     -1534.6337
  17   2.0000     -56.394812     -1534.5809
  18   2.0000     -56.394778     -1534.5799
  19   2.0000     -56.394040     -1534.5599
  20   2.0000     -56.394007     -1534.5589
  21   2.0000     -19.218572      -522.9639
  22   2.0000     -19.214655      -522.8573
  23   2.0000     -14.457495      -393.4084
  24   2.0000     -14.457198      -393.4004
  25   2.0000     -14.452672      -393.2772
  26   2.0000     -14.452460      -393.2714
  27   2.0000     -14.415350      -392.2616
  28   2.0000     -14.413610      -392.2143
  29   2.0000     -14.412393      -392.1811
  30   2.0000     -14.411114      -392.1464
  31   2.0000     -10.369494      -282.1683
  32   2.0000     -10.366369      -282.0833
  33   2.0000     -10.359117      -281.8859
  34   2.0000     -10.358247      -281.8622
  35   2.0000     -10.347629      -281.5733
  36   2.0000     -10.347235      -281.5626
  37   2.0000     -10.346561      -281.5442
  38   2.0000     -10.346321      -281.5377
  39   2.0000     -10.342620      -281.4370
  40   2.0000     -10.341916      -281.4178
  41   2.0000     -10.341593      -281.4091
  42   2.0000     -10.341338      -281.4021
  43   2.0000     -10.339936      -281.3640
  44   2.0000     -10.339368      -281.3485
  45   2.0000     -10.338484      -281.3244
  46   2.0000     -10.336811      -281.2789
  47   2.0000     -10.334742      -281.2226
  48   2.0000     -10.334453      -281.2148
  49   2.0000     -10.334079      -281.2046
  50   2.0000     -10.332359      -281.1578
  51   2.0000     -10.326569      -281.0002
  52   2.0000     -10.324676      -280.9487
  53   2.0000     -10.322841      -280.8988
  54   2.0000     -10.321296      -280.8568
  55   2.0000     -10.319722      -280.8139
  56   2.0000     -10.318914      -280.7919
  57   2.0000     -10.317737      -280.7599
  58   2.0000     -10.316499      -280.7262
  59   2.0000     -10.316280      -280.7203
  60   2.0000     -10.315600      -280.7017
  61   2.0000     -10.315570      -280.7009
  62   2.0000     -10.315176      -280.6902
  63   2.0000     -10.315051      -280.6868
  64   2.0000     -10.314954      -280.6842
  65   2.0000     -10.314407      -280.6693
  66   2.0000     -10.313431      -280.6427
  67   2.0000     -10.309242      -280.5287
  68   2.0000     -10.307751      -280.4882
  69   2.0000     -10.306797      -280.4622
  70   2.0000     -10.306724      -280.4602
  71   2.0000     -10.305996      -280.4404
  72   2.0000     -10.304371      -280.3962
  73   2.0000     -10.301792      -280.3260
  74   2.0000     -10.300399      -280.2881
  75   2.0000     -10.300070      -280.2792
  76   2.0000     -10.298659      -280.2407
  77   2.0000     -10.297523      -280.2098
  78   2.0000     -10.297029      -280.1964
  79   2.0000     -10.296055      -280.1699
  80   2.0000     -10.293498      -280.1003
  81   2.0000     -10.291113      -280.0354
  82   2.0000     -10.290322      -280.0139
  83   2.0000     -10.285250      -279.8759
  84   2.0000     -10.284853      -279.8651
  85   2.0000      -9.556321      -260.0407
  86   2.0000      -9.554567      -259.9930
  87   2.0000      -9.554379      -259.9879
  88   2.0000      -9.554044      -259.9788
  89   2.0000      -8.793030      -239.2705
  90   2.0000      -8.792243      -239.2491
  91   2.0000      -8.140247      -221.5074
  92   2.0000      -8.072132      -219.6539
  93   2.0000      -8.070797      -219.6176
  94   2.0000      -8.066214      -219.4929
  95   2.0000      -8.066132      -219.4906
  96   2.0000      -8.056247      -219.2216
  97   2.0000      -8.055946      -219.2134
  98   2.0000      -7.326475      -199.3635
  99   2.0000      -7.324569      -199.3117
 100   2.0000      -7.324482      -199.3093
 101   2.0000      -7.324027      -199.2969
 102   2.0000      -7.316397      -199.0893
 103   2.0000      -7.316258      -199.0855
 104   2.0000      -7.314708      -199.0433
 105   2.0000      -7.314608      -199.0406
 106   2.0000      -7.314514      -199.0381
 107   2.0000      -7.314332      -199.0331
 108   2.0000      -7.314214      -199.0299
 109   2.0000      -7.314099      -199.0268
 110   2.0000      -6.629338      -180.3935
 111   2.0000      -6.628541      -180.3718
 112   2.0000      -6.614751      -179.9965
 113   2.0000      -6.614567      -179.9915
 114   2.0000      -6.613966      -179.9752
 115   2.0000      -6.613791      -179.9704
 116   2.0000      -6.111319      -166.2975
 117   2.0000      -6.103437      -166.0830
 118   2.0000      -6.103180      -166.0760
 119   2.0000      -6.041828      -164.4065
 120   2.0000      -6.040491      -164.3701
 121   2.0000      -6.037548      -164.2900
 122   2.0000      -6.036207      -164.2535
 123   2.0000      -6.035668      -164.2389
 124   2.0000      -6.035587      -164.2367
 125   2.0000      -6.033391      -164.1769
 126   2.0000      -6.032044      -164.1403
 127   2.0000      -6.031286      -164.1196
 128   2.0000      -6.031282      -164.1195
 129   2.0000      -6.028194      -164.0355
 130   2.0000      -6.027897      -164.0274
 131   2.0000      -6.026097      -163.9784
 132   2.0000      -6.025782      -163.9699
 133   2.0000      -6.021128      -163.8432
 134   2.0000      -6.020841      -163.8354
 135   2.0000      -6.017976      -163.7574
 136   2.0000      -6.017663      -163.7489
 137   2.0000      -2.745205       -74.7008
 138   2.0000      -2.744418       -74.6794
 139   2.0000      -2.741132       -74.5900
 140   2.0000      -2.740958       -74.5853
 141   2.0000      -2.740343       -74.5685
 142   2.0000      -2.740158       -74.5635
 143   2.0000      -2.729382       -74.2703
 144   2.0000      -2.729367       -74.2698
 145   2.0000      -2.728598       -74.2489
 146   2.0000      -2.728591       -74.2487
 147   2.0000      -1.145638       -31.1744
 148   2.0000      -1.133670       -30.8487
 149   2.0000      -1.130201       -30.7543
 150   2.0000      -1.111057       -30.2334
 151   2.0000      -1.039508       -28.2865
 152   2.0000      -1.028162       -27.9777
 153   2.0000      -1.025847       -27.9147
 154   2.0000      -1.022611       -27.8266
 155   2.0000      -1.021777       -27.8040
 156   2.0000      -1.012352       -27.5475
 157   2.0000      -1.011906       -27.5354
 158   2.0000      -1.004934       -27.3456
 159   2.0000      -1.004343       -27.3296
 160   2.0000      -0.996550       -27.1175
 161   2.0000      -0.991974       -26.9930
 162   2.0000      -0.991831       -26.9891
 163   2.0000      -0.988931       -26.9102
 164   2.0000      -0.988471       -26.8977
 165   2.0000      -0.979416       -26.6513
 166   2.0000      -0.963048       -26.2059
 167   2.0000      -0.961252       -26.1570
 168   2.0000      -0.952293       -25.9132
 169   2.0000      -0.945259       -25.7218
 170   2.0000      -0.941370       -25.6160
 171   2.0000      -0.940825       -25.6012
 172   2.0000      -0.908389       -24.7185
 173   2.0000      -0.907455       -24.6931
 174   2.0000      -0.906895       -24.6779
 175   2.0000      -0.903541       -24.5866
 176   2.0000      -0.893340       -24.3090
 177   2.0000      -0.890573       -24.2337
 178   2.0000      -0.886217       -24.1152
 179   2.0000      -0.884873       -24.0786
 180   2.0000      -0.878643       -23.9091
 181   2.0000      -0.870621       -23.6908
 182   2.0000      -0.854201       -23.2440
 183   2.0000      -0.848984       -23.1020
 184   2.0000      -0.830370       -22.5955
 185   2.0000      -0.829535       -22.5728
 186   2.0000      -0.828705       -22.5502
 187   2.0000      -0.826902       -22.5011
 188   2.0000      -0.823897       -22.4194
 189   2.0000      -0.816107       -22.2074
 190   2.0000      -0.812486       -22.1089
 191   2.0000      -0.801029       -21.7971
 192   2.0000      -0.791163       -21.5286
 193   2.0000      -0.771615       -20.9967
 194   2.0000      -0.769354       -20.9352
 195   2.0000      -0.761021       -20.7084
 196   2.0000      -0.758032       -20.6271
 197   2.0000      -0.752095       -20.4655
 198   2.0000      -0.736402       -20.0385
 199   2.0000      -0.720580       -19.6080
 200   2.0000      -0.714512       -19.4429
 201   2.0000      -0.711312       -19.3558
 202   2.0000      -0.696154       -18.9433
 203   2.0000      -0.694744       -18.9050
 204   2.0000      -0.690725       -18.7956
 205   2.0000      -0.686744       -18.6873
 206   2.0000      -0.685631       -18.6570
 207   2.0000      -0.675413       -18.3789
 208   2.0000      -0.670642       -18.2491
 209   2.0000      -0.662325       -18.0228
 210   2.0000      -0.658936       -17.9306
 211   2.0000      -0.655279       -17.8311
 212   2.0000      -0.650887       -17.7115
 213   2.0000      -0.646913       -17.6034
 214   2.0000      -0.637862       -17.3571
 215   2.0000      -0.633398       -17.2356
 216   2.0000      -0.624591       -16.9960
 217   2.0000      -0.622850       -16.9486
 218   2.0000      -0.621123       -16.9016
 219   2.0000      -0.619717       -16.8634
 220   2.0000      -0.616162       -16.7666
 221   2.0000      -0.606175       -16.4949
 222   2.0000      -0.598488       -16.2857
 223   2.0000      -0.597366       -16.2551
 224   2.0000      -0.595517       -16.2048
 225   2.0000      -0.590588       -16.0707
 226   2.0000      -0.583544       -15.8790
 227   2.0000      -0.578705       -15.7474
 228   2.0000      -0.576038       -15.6748
 229   2.0000      -0.573131       -15.5957
 230   2.0000      -0.569594       -15.4994
 231   2.0000      -0.561287       -15.2734
 232   2.0000      -0.558175       -15.1887
 233   2.0000      -0.553418       -15.0593
 234   2.0000      -0.549742       -14.9592
 235   2.0000      -0.546889       -14.8816
 236   2.0000      -0.543374       -14.7859
 237   2.0000      -0.540305       -14.7025
 238   2.0000      -0.540215       -14.7000
 239   2.0000      -0.535274       -14.5655
 240   2.0000      -0.533611       -14.5203
 241   2.0000      -0.530385       -14.4325
 242   2.0000      -0.529169       -14.3994
 243   2.0000      -0.526907       -14.3379
 244   2.0000      -0.525457       -14.2984
 245   2.0000      -0.523663       -14.2496
 246   2.0000      -0.522543       -14.2191
 247   2.0000      -0.518531       -14.1100
 248   2.0000      -0.514926       -14.0118
 249   2.0000      -0.514177       -13.9915
 250   2.0000      -0.509543       -13.8654
 251   2.0000      -0.507878       -13.8201
 252   2.0000      -0.507483       -13.8093
 253   2.0000      -0.504038       -13.7156
 254   2.0000      -0.502840       -13.6830
 255   2.0000      -0.501713       -13.6523
 256   2.0000      -0.499637       -13.5958
 257   2.0000      -0.495250       -13.4764
 258   2.0000      -0.494899       -13.4669
 259   2.0000      -0.493967       -13.4415
 260   2.0000      -0.492107       -13.3909
 261   2.0000      -0.491538       -13.3754
 262   2.0000      -0.490166       -13.3381
 263   2.0000      -0.486875       -13.2485
 264   2.0000      -0.482911       -13.1407
 265   2.0000      -0.476628       -12.9697
 266   2.0000      -0.472534       -12.8583
 267   2.0000      -0.467949       -12.7335
 268   2.0000      -0.466216       -12.6864
 269   2.0000      -0.464489       -12.6394
 270   2.0000      -0.460399       -12.5281
 271   2.0000      -0.457998       -12.4628
 272   2.0000      -0.456210       -12.4141
 273   2.0000      -0.455806       -12.4031
 274   2.0000      -0.450967       -12.2714
 275   2.0000      -0.449188       -12.2230
 276   2.0000      -0.447545       -12.1783
 277   2.0000      -0.447181       -12.1684
 278   2.0000      -0.446451       -12.1485
 279   2.0000      -0.445682       -12.1276
 280   2.0000      -0.445061       -12.1107
 281   2.0000      -0.442154       -12.0316
 282   2.0000      -0.441754       -12.0207
 283   2.0000      -0.441326       -12.0091
 284   2.0000      -0.438025       -11.9193
 285   2.0000      -0.437461       -11.9039
 286   2.0000      -0.437170       -11.8960
 287   2.0000      -0.427638       -11.6366
 288   2.0000      -0.425554       -11.5799
 289   2.0000      -0.424514       -11.5516
 290   2.0000      -0.421312       -11.4645
 291   2.0000      -0.420635       -11.4461
 292   2.0000      -0.418169       -11.3790
 293   2.0000      -0.413517       -11.2524
 294   2.0000      -0.413116       -11.2415
 295   2.0000      -0.411502       -11.1975
 296   2.0000      -0.408657       -11.1201
 297   2.0000      -0.406083       -11.0501
 298   2.0000      -0.404431       -11.0051
 299   2.0000      -0.402647       -10.9566
 300   2.0000      -0.391546       -10.6545
 301   2.0000      -0.390057       -10.6140
 302   2.0000      -0.386863       -10.5271
 303   2.0000      -0.385815       -10.4986
 304   2.0000      -0.385033       -10.4773
 305   2.0000      -0.383917       -10.4469
 306   2.0000      -0.378664       -10.3040
 307   2.0000      -0.377349       -10.2682
 308   2.0000      -0.375230       -10.2105
 309   2.0000      -0.374473       -10.1899
 310   2.0000      -0.365089        -9.9346
 311   2.0000      -0.360464        -9.8087
 312   2.0000      -0.354731        -9.6527
 313   2.0000      -0.351812        -9.5733
 314   2.0000      -0.345168        -9.3925
 315   2.0000      -0.340517        -9.2659
 316   2.0000      -0.335790        -9.1373
 317   2.0000      -0.327948        -8.9239
 318   2.0000      -0.326827        -8.8934
 319   2.0000      -0.325343        -8.8530
 320   2.0000      -0.324567        -8.8319
 321   2.0000      -0.316135        -8.6025
 322   2.0000      -0.315519        -8.5857
 323   2.0000      -0.315463        -8.5842
 324   2.0000      -0.314582        -8.5602
 325   2.0000      -0.299956        -8.1622
 326   2.0000      -0.293507        -7.9867
 327   2.0000      -0.291905        -7.9431
 328   2.0000      -0.268967        -7.3190
 329   2.0000      -0.238153        -6.4805
 330   0.0000      -0.125409        -3.4126
 331   0.0000      -0.091996        -2.5033
 332   0.0000      -0.088472        -2.4075
 333   0.0000      -0.060562        -1.6480
 334   0.0000      -0.058100        -1.5810

MULLIKEN ATOMIC CHARGES
-----------------------
   0 C :    0.300213
   1 C :   -0.350747
   2 C :   -0.184899
   3 N :    0.148921
   4 C :   -0.198544
   5 N :    0.156658
   6 C :    0.016875
   7 C :   -0.014552
   8 C :   -0.072039
   9 C :    0.119344
  10 C :   -0.092579
  11 C :   -0.017846
  12 S :    0.186820
  13 C :   -0.123258
  14 C :    0.038348
  15 Br:    0.023408
  16 C :    0.156249
  17 O :   -0.156856
  18 C :   -0.091743
  19 C :    0.056777
  20 C :   -0.101956
  21 C :    0.033212
  22 C :    0.052286
  23 Cl:   -0.061474
  24 C :   -0.083311
  25 S :    0.168584
  26 C :   -0.064895
  27 C :    0.077500
  28 Cl:   -0.057906
  29 C :   -0.000937
  30 C :   -0.150366
  31 S :    0.169818
  32 C :    0.185667
  33 C :   -0.042887
  34 C :   -0.042465
  35 N :   -0.072918
  36 C :    0.049167
  37 C :    0.048300
  38 N :   -0.073429
  39 C :    0.189277
  40 C :   -0.011774
  41 C :   -0.012677
  42 N :   -0.289494
  43 S :    0.554368
  44 N :   -0.291605
  45 C :   -0.147998
  46 C :   -0.004929
  47 C :    0.080874
  48 Cl:   -0.063846
  49 C :   -0.060973
  50 S :    0.170875
  51 C :   -0.087681
  52 C :    0.075829
  53 Cl:   -0.064824
  54 C :    0.057597
  55 C :   -0.090702
  56 S :    0.165202
  57 C :    0.060892
  58 C :   -0.131867
  59 C :    0.245889
  60 C :   -0.322306
  61 C :   -0.175470
  62 N :    0.154329
  63 C :   -0.204174
  64 N :    0.175290
  65 C :    0.007480
  66 C :   -0.002778
  67 C :    0.138719
  68 O :   -0.145306
  69 C :   -0.067574
  70 C :    0.109944
  71 C :   -0.087076
  72 C :   -0.020992
  73 S :    0.185044
  74 C :   -0.126212
  75 C :    0.042389
  76 Br:    0.023852
  77 H :   -0.011469
  78 H :   -0.005832
  79 H :   -0.003177
  80 H :    0.011381
  81 H :    0.010904
  82 H :   -0.008069
  83 H :    0.023328
  84 H :    0.023262
  85 H :   -0.007404
  86 H :   -0.007528
  87 H :    0.027445
  88 H :   -0.008429
  89 H :   -0.001707
  90 H :   -0.002834
Sum of atomic charges:   -0.0000000

LOEWDIN ATOMIC CHARGES
----------------------
   0 C :    0.076512
   1 C :   -0.143485
   2 C :   -0.018058
   3 N :   -0.055273
   4 C :   -0.026054
   5 N :   -0.050772
   6 C :   -0.020831
   7 C :   -0.050183
   8 C :    0.021367
   9 C :   -0.032863
  10 C :   -0.143936
  11 C :   -0.009670
  12 S :    0.432832
  13 C :   -0.271863
  14 C :   -0.070540
  15 Br:    0.136617
  16 C :    0.087978
  17 O :   -0.142746
  18 C :   -0.097853
  19 C :    0.047566
  20 C :   -0.187170
  21 C :   -0.023916
  22 C :   -0.176480
  23 Cl:    0.160097
  24 C :   -0.182643
  25 S :    0.469234
  26 C :   -0.221436
  27 C :   -0.163914
  28 Cl:    0.162535
  29 C :   -0.054892
  30 C :   -0.163733
  31 S :    0.487825
  32 C :   -0.041080
  33 C :   -0.013508
  34 C :   -0.014580
  35 N :   -0.040302
  36 C :    0.024980
  37 C :    0.025580
  38 N :   -0.040963
  39 C :   -0.037841
  40 C :   -0.038251
  41 C :   -0.037836
  42 N :   -0.279868
  43 S :    0.680863
  44 N :   -0.279245
  45 C :   -0.165129
  46 C :   -0.052424
  47 C :   -0.165640
  48 Cl:    0.159503
  49 C :   -0.216601
  50 S :    0.488795
  51 C :   -0.179722
  52 C :   -0.172329
  53 Cl:    0.160920
  54 C :   -0.027058
  55 C :   -0.187551
  56 S :    0.479586
  57 C :    0.051565
  58 C :   -0.096473
  59 C :    0.059939
  60 C :   -0.140255
  61 C :   -0.019315
  62 N :   -0.051695
  63 C :   -0.035369
  64 N :   -0.047354
  65 C :   -0.016555
  66 C :   -0.052974
  67 C :    0.083534
  68 O :   -0.143534
  69 C :    0.022927
  70 C :   -0.033917
  71 C :   -0.142819
  72 C :   -0.013061
  73 S :    0.432298
  74 C :   -0.272426
  75 C :   -0.069772
  76 Br:    0.136861
  77 H :    0.040406
  78 H :    0.041012
  79 H :    0.038790
  80 H :    0.043347
  81 H :    0.037111
  82 H :    0.032933
  83 H :    0.032226
  84 H :    0.032193
  85 H :    0.033181
  86 H :    0.039070
  87 H :    0.051870
  88 H :    0.041596
  89 H :    0.041123
  90 H :    0.038985

  Mayer bond orders larger than 0.100000
B(  0-C ,  1-C ) :   1.6255 B(  0-C ,  6-C ) :   0.9981 B(  0-C , 18-C ) :   1.0776
B(  1-C ,  2-C ) :   1.1438 B(  1-C ,  4-C ) :   1.1390 B(  2-C ,  3-N ) :   2.9716
B(  4-C ,  5-N ) :   2.9861 B(  6-C ,  7-C ) :   1.2768 B(  6-C , 11-C ) :   1.4094
B(  7-C ,  8-C ) :   1.4233 B(  7-C , 16-C ) :   0.9530 B(  8-C ,  9-C ) :   1.2442
B(  8-C , 77-H ) :   1.0170 B(  9-C , 10-C ) :   1.3063 B(  9-C , 14-C ) :   1.1633
B( 10-C , 11-C ) :   1.3300 B( 10-C , 12-S ) :   1.0866 B( 11-C , 78-H ) :   0.9806
B( 12-S , 13-C ) :   1.0864 B( 13-C , 14-C ) :   1.6181 B( 13-C , 15-Br) :   1.0186
B( 14-C , 79-H ) :   1.0001 B( 16-C , 17-O ) :   2.1694 B( 16-C , 18-C ) :   0.9424
B( 18-C , 19-C ) :   1.5839 B( 19-C , 20-C ) :   1.2243 B( 19-C , 80-H ) :   0.9154
B( 20-C , 21-C ) :   1.4021 B( 20-C , 25-S ) :   1.0789 B( 21-C , 22-C ) :   1.3031
B( 21-C , 81-H ) :   0.9855 B( 22-C , 23-Cl) :   1.0453 B( 22-C , 24-C ) :   1.3981
B( 24-C , 25-S ) :   1.1648 B( 24-C , 26-C ) :   1.2108 B( 26-C , 27-C ) :   1.4282
B( 26-C , 31-S ) :   1.0626 B( 27-C , 28-Cl) :   1.0347 B( 27-C , 29-C ) :   1.2771
B( 29-C , 30-C ) :   1.4230 B( 29-C , 82-H ) :   0.9955 B( 30-C , 31-S ) :   1.1101
B( 30-C , 32-C ) :   1.1905 B( 32-C , 33-C ) :   1.2697 B( 32-C , 39-C ) :   0.1340
B( 32-C , 41-C ) :   1.2043 B( 33-C , 34-C ) :   1.1388 B( 33-C , 38-N ) :   1.3925
B( 34-C , 35-N ) :   1.3938 B( 34-C , 39-C ) :   1.2717 B( 35-N , 36-C ) :   1.6607
B( 36-C , 37-C ) :   1.1948 B( 36-C , 83-H ) :   0.9740 B( 37-C , 38-N ) :   1.6606
B( 37-C , 84-H ) :   0.9746 B( 39-C , 40-C ) :   1.1998 B( 39-C , 45-C ) :   1.1917
B( 40-C , 41-C ) :   1.1005 B( 40-C , 44-N ) :   1.5039 B( 41-C , 42-N ) :   1.5058
B( 42-N , 43-S ) :   1.2845 B( 42-N , 44-N ) :   0.1537 B( 43-S , 44-N ) :   1.2855
B( 45-C , 46-C ) :   1.4256 B( 45-C , 50-S ) :   1.1069 B( 46-C , 47-C ) :   1.2750
B( 46-C , 85-H ) :   0.9948 B( 47-C , 48-Cl) :   1.0286 B( 47-C , 49-C ) :   1.4284
B( 49-C , 50-S ) :   1.0638 B( 49-C , 51-C ) :   1.2189 B( 51-C , 52-C ) :   1.4207
B( 51-C , 56-S ) :   1.1486 B( 52-C , 53-Cl) :   1.0335 B( 52-C , 54-C ) :   1.2991
B( 54-C , 55-C ) :   1.4151 B( 54-C , 86-H ) :   1.0071 B( 55-C , 56-S ) :   1.0923
B( 55-C , 57-C ) :   1.1263 B( 57-C , 58-C ) :   1.6524 B( 57-C , 87-H ) :   0.9489
B( 58-C , 59-C ) :   1.0308 B( 58-C , 67-C ) :   0.9407 B( 59-C , 60-C ) :   1.6581
B( 59-C , 65-C ) :   1.0179 B( 60-C , 61-C ) :   1.1359 B( 60-C , 63-C ) :   1.1540
B( 61-C , 62-N ) :   2.9903 B( 63-C , 64-N ) :   3.0260 B( 65-C , 66-C ) :   1.2757
B( 65-C , 72-C ) :   1.4132 B( 66-C , 67-C ) :   0.9210 B( 66-C , 69-C ) :   1.4275
B( 67-C , 68-O ) :   2.2678 B( 69-C , 70-C ) :   1.2520 B( 69-C , 88-H ) :   1.0166
B( 70-C , 71-C ) :   1.3068 B( 70-C , 75-C ) :   1.1636 B( 71-C , 72-C ) :   1.3269
B( 71-C , 73-S ) :   1.0842 B( 72-C , 89-H ) :   0.9850 B( 73-S , 74-C ) :   1.0862
B( 74-C , 75-C ) :   1.6199 B( 74-C , 76-Br) :   1.0187 B( 75-C , 90-H ) :   1.0001

-----------------------------------------------------------------------------
         ABSORPTION SPECTRUM VIA TRANSITION ELECTRIC DIPOLE MOMENTS
-----------------------------------------------------------------------------
State   Energy  Wavelength   fosc         T2         TX        TY        TZ
        (cm-1)    (nm)                  (au**2)     (au)      (au)      (au)
-----------------------------------------------------------------------------
   0    9679.5   1033.1   1.077124217  36.63452  -5.50019   2.40010  -0.78860
   1   17307.9    577.8   0.079910338   1.51997  -0.09448  -0.32592   1.18525
   2   18340.9    545.2   0.448197943   8.04496   2.69178  -0.46901   0.76114
   3   19459.6    513.9   0.748624334  12.66502  -3.38289   1.01635   0.43368
   4   21634.7    462.2   0.000866837   0.01319  -0.00305  -0.01672   0.11359
   5   24042.6    415.9   0.037451016   0.51281  -0.67586   0.05362  -0.23055
   6   24482.4    408.5   0.022716276   0.30546  -0.52615   0.13812  -0.09775
   7   24685.8    405.1   0.013360337   0.17817   0.18397  -0.37730   0.04446
   8   25560.4    391.2   0.046075909   0.59345   0.40499  -0.60849   0.24326
   9   25686.8    389.3   0.066020726   0.84615  -0.70352  -0.43138   0.40635
  10   26179.6    382.0   0.241280995   3.03414   1.32422  -1.12702  -0.10204
  11   26794.7    373.2   0.193730366   2.38026   1.17896   0.39988  -0.91126
  12   27098.2    369.0   0.009239297   0.11225  -0.29926   0.15064   0.00036
  13   27171.8    368.0   0.188987667   2.28977  -1.44173   0.31226  -0.33715
  14   27845.2    359.1   0.169360318   2.00234   1.23958   0.02849  -0.68188
  15   28977.2    345.1   0.030402653   0.34541   0.56129   0.16582   0.05348
  16   29250.8    341.9   0.003965915   0.04464   0.03464  -0.20495  -0.03785
  17   29316.5    341.1   0.063667520   0.71496   0.61135   0.56826  -0.13521
  18   29606.2    337.8   0.032503161   0.36142  -0.58738   0.08303   0.09752
  19   29684.9    336.9   0.012190731   0.13520  -0.21483   0.08369   0.28643
  20   29919.7    334.2   0.068840348   0.75746  -0.86301   0.08422   0.07474
  21   29983.9    333.5   0.243445161   2.67293  -1.50636   0.62446  -0.11772
  22   30266.5    330.4   0.061487264   0.66880   0.70517   0.10141  -0.40157
  23   30466.3    328.2   0.134336071   1.45161  -1.07981  -0.40632   0.34715
  24   30950.8    323.1   0.151720646   1.61380  -0.93216   0.01141   0.86299
  25   31402.1    318.5   0.121344307   1.27214  -0.40605   0.70294  -0.78304
  26   31735.8    315.1   0.141988505   1.47292  -0.14199  -1.11016   0.46938
  27   32297.7    309.6   0.031916977   0.32533  -0.23795   0.51394  -0.06762
  28   32408.9    308.6   0.001270668   0.01291  -0.03973   0.10169  -0.03142
  29   32816.0    304.7   0.048261201   0.48416  -0.19766   0.57137   0.34442
  30   32932.7    303.7   0.457838844   4.57680   1.57068   0.77427  -1.22893
  31   32992.5    303.1   0.069447590   0.69297  -0.72651   0.31272  -0.25953
  32   33250.6    300.7   0.126050574   1.24802   1.01537   0.08525  -0.45802
  33   33453.7    298.9   0.029060509   0.28598   0.30997  -0.29119   0.32421
  34   33646.1    297.2   0.012012003   0.11753  -0.08362   0.33094  -0.03196
  35   33789.6    295.9   0.033914214   0.33043   0.51477  -0.13807  -0.21534
  36   34098.1    293.3   0.016379863   0.15815  -0.21909  -0.23351   0.23584
  37   34438.1    290.4   0.024659372   0.23573  -0.35170  -0.24764   0.22520
  38   34740.8    287.8   0.063492844   0.60167  -0.51171   0.58267   0.01788
  39   34986.1    285.8   0.002732843   0.02572  -0.10084   0.12434  -0.00935
  40   35156.6    284.4   0.326815292   3.06035  -1.44451   0.98509   0.05791
  41   35374.7    282.7   0.092056983   0.85672   0.19121   0.28597  -0.85929
  42   35471.0    281.9   0.149536836   1.38787  -0.70644  -0.78853   0.51675
  43   35807.7    279.3   0.012922857   0.11881   0.01139   0.03407   0.34281
  44   36157.7    276.6   0.081625908   0.74319   0.33344   0.65752  -0.44686
  45   36626.2    273.0   0.154722767   1.39072   0.76278   0.79477  -0.42097
  46   36772.9    271.9   0.004431139   0.03967   0.16617   0.10964  -0.00590
  47   37428.1    267.2   0.455207618   4.00394  -1.26695  -1.34654   0.76526
  48   37761.1    264.8   0.029663654   0.25862  -0.07371  -0.49257   0.10274
  49   37991.4    263.2   0.001284142   0.01113  -0.02921   0.00991  -0.10088
  50   38104.9    262.4   0.028136336   0.24309  -0.27937   0.39641   0.08886
  51   38351.6    260.7   0.013713265   0.11772   0.31732   0.05203  -0.11964
  52   38532.0    259.5   0.077687699   0.66375  -0.71963   0.01062   0.38180
  53   38959.5    256.7   0.025901770   0.21887   0.33424  -0.32621   0.02730
  54   39163.7    255.3   0.003498772   0.02941   0.10073   0.08975   0.10587
  55   39404.1    253.8   0.011123265   0.09293  -0.02524  -0.28818  -0.09618
  56   39457.9    253.4   0.032191837   0.26859  -0.51824   0.00047  -0.00375
  57   39614.5    252.4   0.012783788   0.10624  -0.26816   0.17979  -0.04476
  58   39691.8    251.9   0.020775966   0.17232  -0.02150  -0.41365   0.02743
  59   39906.9    250.6   0.031554962   0.26031   0.11643   0.32427   0.37630
  60   40203.4    248.7   0.023097494   0.18914   0.23060  -0.35026   0.11524
  61   40218.8    248.6   0.059420168   0.48639   0.43225   0.51957  -0.17201

FINAL SINGLE POINT ENERGY    -12425.858608926559

DIPOLE MOMENT
-------------
                                X             Y             Z
Electronic contribution:     -7.26221     -13.63849     -34.69750
Nuclear contribution   :      5.97049      15.84663      34.62730
                        -----------------------------------------
Total Dipole Moment    :     -1.29172       2.20814      -0.07020
                        -----------------------------------------
Magnitude (a.u.)       :      2.55917
Magnitude (Debye)      :      6.50489

Rotational constants in cm-1:     0.001609     0.000104     0.000101
Rotational constants in MHz :    48.246692     3.117730     3.013607

                             ****ORCA TERMINATED NORMALLY****
TOTAL RUN TIME: 0 days 0 hours 9 minutes 43 seconds 212 msec
