                         Program Version 4.2.0 -  RELEASE  -
|  1> # ORCA input file
|  2> # SCF done       -213.188652643233          0.000720514348
|  3> ! CAM-B3LYP def2-SVP def2/J RIJCOSX Grid4 TightSCF
|  4> %maxcore 5000
|  5> %tddft
|  6>     Mode sTDDFT
|  7>     Ethresh 5.0
|  8>     maxcore 5000
|  9> end
| 10>
| 11> %pal
| 12>   nprocs 6
| 13>   end
| 14> * xyz 0 1
| 15>    C       -3.36581        -1.62465         1.29938
| 16>    C       -3.09990        -2.48500         0.26526
| 17>    C       -2.68766        -3.82423         0.43265
| 18>    N       -2.34526        -4.91749         0.50120
| 19>    C       -3.17321        -2.14769        -1.10195
| 20>    N       -3.20992        -1.93066        -2.22903
| 21>    C       -3.28405        -1.94281         2.71850
| 22>    C       -3.55663        -0.77394         3.47396
| 23>    C       -3.55219        -0.76014         4.84754
| 24>    C       -3.27593        -1.95989         5.51037
| 25>    C       -3.00568        -3.12406         4.74871
| 26>    C       -3.00360        -3.13638         3.36016
| 27>    S       -2.68353        -4.49308         5.76758
| 28>    C       -2.91127        -3.49941         7.18261
| 29>    C       -3.21533        -2.20801         6.90826
| 30>   Br       -2.72565        -4.26025         8.88489
| 31>    C       -3.80050         0.35334         2.56152
| 32>    O       -3.83696         1.52760         2.84071
| 33>    C       -3.80541        -0.24492         1.18724
| 34>    C       -4.11100         0.44467         0.05834
| 35>    C       -4.80893         1.68538         0.06145
| 36>    C       -5.81511         2.10755         0.92230
| 37>    C       -6.30301         3.35117         0.46037
| 38>    C       -5.53731         3.73064        -0.71128
| 39>    O       -5.53883         4.71687        -1.41648
| 40>    N       -4.67889         2.63105        -0.92052
| 41>    C       -3.72944         2.59295        -1.99894
| 42>    C       -7.29151         3.78151         1.34607
| 43>    N       -7.45477         2.82350         2.29945
| 44>    C       -6.59023         1.72430         2.08428
| 45>    O       -6.60700         0.71823         2.75691
| 46>    C       -8.45175         2.77565         3.33488
| 47>    C       -7.94381         5.05489         1.22831
| 48>    C       -8.17284         5.96507         2.28103
| 49>    C       -8.61850         7.30685         2.01091
| 50>    N       -8.64630         8.20801         3.00177
| 51>    C       -8.43696         7.81850         4.23153
| 52>    C       -8.11265         6.45151         4.51704
| 53>    N       -7.92671         5.59180         3.54787
| 54>    C       -7.93331         6.02268         5.85656
| 55>    N       -7.79941         5.69491         6.94564
| 56>    C       -8.50448         8.78044         5.27036
| 57>    N       -8.57956         9.54261         6.12179
| 58>    C       -8.94828         7.75664         0.70802
| 59>    C       -8.75729         6.83822        -0.33595
| 60>    C       -8.27110         5.50330        -0.06583
| 61>    N       -8.25282         4.75229        -1.16806
| 62>    S       -8.72879         5.63041        -2.40930
| 63>    N       -9.04228         6.99757        -1.63274
| 64>    C       -9.53793         9.05776         0.59236
| 65>    C      -10.43372         9.60751         1.50789
| 66>    C      -10.77684        10.90730         1.07182
| 67>    C      -10.02335        11.17198        -0.13433
| 68>    O       -9.94457        12.15680        -0.84344
| 69>    N       -9.32401         9.97826        -0.38931
| 70>    C       -8.38836         9.88397        -1.47704
| 71>    C      -11.71910        11.43449         1.96167
| 72>    N      -11.94948        10.47637         2.91989
| 73>    C      -11.21985         9.29962         2.68755
| 74>    O      -11.31252         8.30493         3.37507
| 75>    C      -12.87380        10.58172         4.01586
| 76>    C      -12.29352        12.72144         2.06545
| 77>    C      -12.38667        13.73693         1.16147
| 78>    C      -12.20111        13.84593        -0.26286
| 79>    C      -12.35820        12.84719        -1.18965
| 80>    C      -12.23678        13.03206        -2.58309
| 81>    N      -12.15611        13.12362        -3.72364
| 82>    C      -12.79002        11.54867        -0.85959
| 83>    N      -13.15404        10.48429        -0.63138
| 84>    C      -12.00440        15.25917        -0.56881
| 85>    C      -12.29476        16.02590         0.58880
| 86>    C      -12.63624        15.11742         1.69453
| 87>    O      -13.00269        15.39279         2.81207
| 88>    C      -12.22227        17.39854         0.60193
| 89>    C      -11.83042        18.04136        -0.57687
| 90>    C      -11.52514        17.26468        -1.72125
| 91>    C      -11.60938        15.87700        -1.73833
| 92>    S      -11.04740        18.26093        -3.05974
| 93>    C      -11.26342        19.68884        -2.08128
| 94>    C      -11.67173        19.43410        -0.81551
| 95>   Br      -10.92870        21.37767        -2.82282
| 96>    H       -3.76371         0.14674         5.39123
| 97>    H       -2.79093        -4.04785         2.82683
| 98>    H       -3.38932        -1.45965         7.65964
| 99>    H       -3.87042         0.03656        -0.91462
|100>    H       -3.82830         3.53090        -2.54498
|101>    H       -3.93857         1.76023        -2.67371
|102>    H       -2.71079         2.50003        -1.61864
|103>    H       -9.39769         3.17387         2.96969
|104>    H       -8.13539         3.34476         4.20961
|105>    H       -8.57181         1.72908         3.61663
|106>    H       -8.37630        10.85440        -1.97269
|107>    H       -8.69942         9.11181        -2.18096
|108>    H       -7.38990         9.64837        -1.10482
|109>    H      -13.87423        10.83057         3.65934
|110>    H      -12.54364        11.33186         4.73752
|111>    H      -12.89501         9.60810         4.50538
|112>    H      -12.64258        12.99265         3.05858
|113>    H      -12.45470        17.95906         1.49376
|114>    H      -11.35696        15.32301        -2.62694
|115>    H      -11.85304        20.19521        -0.07880
|116> *
|117>
|118>                          ****END OF INPUT****

CARTESIAN COORDINATES (ANGSTROEM)
---------------------------------
  C     -3.365810   -1.624650    1.299380
  C     -3.099900   -2.485000    0.265260
  C     -2.687660   -3.824230    0.432650
  N     -2.345260   -4.917490    0.501200
  C     -3.173210   -2.147690   -1.101950
  N     -3.209920   -1.930660   -2.229030
  C     -3.284050   -1.942810    2.718500
  C     -3.556630   -0.773940    3.473960
  C     -3.552190   -0.760140    4.847540
  C     -3.275930   -1.959890    5.510370
  C     -3.005680   -3.124060    4.748710
  C     -3.003600   -3.136380    3.360160
  S     -2.683530   -4.493080    5.767580
  C     -2.911270   -3.499410    7.182610
  C     -3.215330   -2.208010    6.908260
  Br    -2.725650   -4.260250    8.884890
  C     -3.800500    0.353340    2.561520
  O     -3.836960    1.527600    2.840710
  C     -3.805410   -0.244920    1.187240
  C     -4.111000    0.444670    0.058340
  C     -4.808930    1.685380    0.061450
  C     -5.815110    2.107550    0.922300
  C     -6.303010    3.351170    0.460370
  C     -5.537310    3.730640   -0.711280
  O     -5.538830    4.716870   -1.416480
  N     -4.678890    2.631050   -0.920520
  C     -3.729440    2.592950   -1.998940
  C     -7.291510    3.781510    1.346070
  N     -7.454770    2.823500    2.299450
  C     -6.590230    1.724300    2.084280
  O     -6.607000    0.718230    2.756910
  C     -8.451750    2.775650    3.334880
  C     -7.943810    5.054890    1.228310
  C     -8.172840    5.965070    2.281030
  C     -8.618500    7.306850    2.010910
  N     -8.646300    8.208010    3.001770
  C     -8.436960    7.818500    4.231530
  C     -8.112650    6.451510    4.517040
  N     -7.926710    5.591800    3.547870
  C     -7.933310    6.022680    5.856560
  N     -7.799410    5.694910    6.945640
  C     -8.504480    8.780440    5.270360
  N     -8.579560    9.542610    6.121790
  C     -8.948280    7.756640    0.708020
  C     -8.757290    6.838220   -0.335950
  C     -8.271100    5.503300   -0.065830
  N     -8.252820    4.752290   -1.168060
  S     -8.728790    5.630410   -2.409300
  N     -9.042280    6.997570   -1.632740
  C     -9.537930    9.057760    0.592360
  C    -10.433720    9.607510    1.507890
  C    -10.776840   10.907300    1.071820
  C    -10.023350   11.171980   -0.134330
  O     -9.944570   12.156800   -0.843440
  N     -9.324010    9.978260   -0.389310
  C     -8.388360    9.883970   -1.477040
  C    -11.719100   11.434490    1.961670
  N    -11.949480   10.476370    2.919890
  C    -11.219850    9.299620    2.687550
  O    -11.312520    8.304930    3.375070
  C    -12.873800   10.581720    4.015860
  C    -12.293520   12.721440    2.065450
  C    -12.386670   13.736930    1.161470
  C    -12.201110   13.845930   -0.262860
  C    -12.358200   12.847190   -1.189650
  C    -12.236780   13.032060   -2.583090
  N    -12.156110   13.123620   -3.723640
  C    -12.790020   11.548670   -0.859590
  N    -13.154040   10.484290   -0.631380
  C    -12.004400   15.259170   -0.568810
  C    -12.294760   16.025900    0.588800
  C    -12.636240   15.117420    1.694530
  O    -13.002690   15.392790    2.812070
  C    -12.222270   17.398540    0.601930
  C    -11.830420   18.041360   -0.576870
  C    -11.525140   17.264680   -1.721250
  C    -11.609380   15.877000   -1.738330
  S    -11.047400   18.260930   -3.059740
  C    -11.263420   19.688840   -2.081280
  C    -11.671730   19.434100   -0.815510
  Br   -10.928700   21.377670   -2.822820
  H     -3.763710    0.146740    5.391230
  H     -2.790930   -4.047850    2.826830
  H     -3.389320   -1.459650    7.659640
  H     -3.870420    0.036560   -0.914620
  H     -3.828300    3.530900   -2.544980
  H     -3.938570    1.760230   -2.673710
  H     -2.710790    2.500030   -1.618640
  H     -9.397690    3.173870    2.969690
  H     -8.135390    3.344760    4.209610
  H     -8.571810    1.729080    3.616630
  H     -8.376300   10.854400   -1.972690
  H     -8.699420    9.111810   -2.180960
  H     -7.389900    9.648370   -1.104820
  H    -13.874230   10.830570    3.659340
  H    -12.543640   11.331860    4.737520
  H    -12.895010    9.608100    4.505380
  H    -12.642580   12.992650    3.058580
  H    -12.454700   17.959060    1.493760
  H    -11.356960   15.323010   -2.626940
  H    -11.853040   20.195210   -0.078800

 Total Charge           Charge          ....    0
 Multiplicity           Mult            ....    1
 Number of Electrons    NEL             ....  620
 Basis Dimension        Dim             .... 1282

ORBITAL ENERGIES
----------------

  NO   OCC          E(Eh)            E(eV)
   0   2.0000    -482.888660    -13140.0685
   1   2.0000    -482.886176    -13140.0009
   2   2.0000     -89.058485     -2423.4046
   3   2.0000     -88.979590     -2421.2577
   4   2.0000     -88.976556     -2421.1752
   5   2.0000     -62.566398     -1702.5182
   6   2.0000     -62.563889     -1702.4500
   7   2.0000     -56.400355     -1534.7317
   8   2.0000     -56.397839     -1534.6632
   9   2.0000     -56.397622     -1534.6573
  10   2.0000     -56.397597     -1534.6566
  11   2.0000     -56.395125     -1534.5894
  12   2.0000     -56.395089     -1534.5884
  13   2.0000     -19.226350      -523.1756
  14   2.0000     -19.222213      -523.0630
  15   2.0000     -19.216939      -522.9195
  16   2.0000     -19.211599      -522.7742
  17   2.0000     -19.206348      -522.6313
  18   2.0000     -19.205765      -522.6154
  19   2.0000     -14.475585      -393.9007
  20   2.0000     -14.473251      -393.8372
  21   2.0000     -14.472648      -393.8208
  22   2.0000     -14.469366      -393.7315
  23   2.0000     -14.468482      -393.7074
  24   2.0000     -14.467455      -393.6795
  25   2.0000     -14.463593      -393.5744
  26   2.0000     -14.463274      -393.5657
  27   2.0000     -14.439336      -392.9143
  28   2.0000     -14.434365      -392.7791
  29   2.0000     -14.427773      -392.5997
  30   2.0000     -14.424186      -392.5021
  31   2.0000     -14.422893      -392.4669
  32   2.0000     -14.417593      -392.3227
  33   2.0000     -10.394039      -282.8362
  34   2.0000     -10.393087      -282.8103
  35   2.0000     -10.391100      -282.7562
  36   2.0000     -10.390055      -282.7278
  37   2.0000     -10.389113      -282.7021
  38   2.0000     -10.388439      -282.6838
  39   2.0000     -10.375064      -282.3199
  40   2.0000     -10.374730      -282.3107
  41   2.0000     -10.366975      -282.0997
  42   2.0000     -10.365184      -282.0510
  43   2.0000     -10.364573      -282.0344
  44   2.0000     -10.363114      -281.9947
  45   2.0000     -10.362223      -281.9704
  46   2.0000     -10.360565      -281.9253
  47   2.0000     -10.359149      -281.8868
  48   2.0000     -10.359010      -281.8830
  49   2.0000     -10.356989      -281.8280
  50   2.0000     -10.355715      -281.7933
  51   2.0000     -10.353937      -281.7449
  52   2.0000     -10.351939      -281.6906
  53   2.0000     -10.350969      -281.6642
  54   2.0000     -10.340325      -281.3745
  55   2.0000     -10.338321      -281.3200
  56   2.0000     -10.337598      -281.3004
  57   2.0000     -10.331930      -281.1461
  58   2.0000     -10.330916      -281.1185
  59   2.0000     -10.330179      -281.0985
  60   2.0000     -10.327966      -281.0382
  61   2.0000     -10.327939      -281.0375
  62   2.0000     -10.327646      -281.0295
  63   2.0000     -10.326406      -280.9958
  64   2.0000     -10.322694      -280.8948
  65   2.0000     -10.322250      -280.8827
  66   2.0000     -10.319859      -280.8176
  67   2.0000     -10.318629      -280.7842
  68   2.0000     -10.316497      -280.7261
  69   2.0000     -10.315639      -280.7028
  70   2.0000     -10.315432      -280.6972
  71   2.0000     -10.312759      -280.6244
  72   2.0000     -10.312372      -280.6139
  73   2.0000     -10.311266      -280.5838
  74   2.0000     -10.310631      -280.5665
  75   2.0000     -10.308230      -280.5012
  76   2.0000     -10.306445      -280.4526
  77   2.0000     -10.305415      -280.4246
  78   2.0000     -10.305168      -280.4179
  79   2.0000     -10.304816      -280.4083
  80   2.0000     -10.304731      -280.4060
  81   2.0000     -10.300125      -280.2806
  82   2.0000     -10.297973      -280.2221
  83   2.0000     -10.297616      -280.2124
  84   2.0000     -10.295566      -280.1566
  85   2.0000     -10.289079      -279.9801
  86   2.0000     -10.284538      -279.8565
  87   2.0000     -10.283909      -279.8394
  88   2.0000     -10.283135      -279.8183
  89   2.0000      -8.795845      -239.3471
  90   2.0000      -8.793319      -239.2784
  91   2.0000      -8.149505      -221.7593
  92   2.0000      -8.075646      -219.7495
  93   2.0000      -8.072655      -219.6681
  94   2.0000      -6.632189      -180.4710
  95   2.0000      -6.629619      -180.4011
  96   2.0000      -6.617571      -180.0733
  97   2.0000      -6.617344      -180.0671
  98   2.0000      -6.615044      -180.0045
  99   2.0000      -6.614868      -179.9997
 100   2.0000      -6.120401      -166.5446
 101   2.0000      -6.112741      -166.3361
 102   2.0000      -6.112538      -166.3306
 103   2.0000      -6.045332      -164.5019
 104   2.0000      -6.042323      -164.4200
 105   2.0000      -6.041050      -164.3853
 106   2.0000      -6.038056      -164.3039
 107   2.0000      -6.036854      -164.2711
 108   2.0000      -6.033876      -164.1901
 109   2.0000      -2.748038       -74.7779
 110   2.0000      -2.745500       -74.7089
 111   2.0000      -2.743965       -74.6671
 112   2.0000      -2.743788       -74.6623
 113   2.0000      -2.741391       -74.5971
 114   2.0000      -2.741258       -74.5934
 115   2.0000      -2.732181       -74.3464
 116   2.0000      -2.732162       -74.3459
 117   2.0000      -2.729675       -74.2782
 118   2.0000      -2.729666       -74.2780
 119   2.0000      -1.156981       -31.4831
 120   2.0000      -1.154581       -31.4177
 121   2.0000      -1.151364       -31.3302
 122   2.0000      -1.145057       -31.1586
 123   2.0000      -1.143076       -31.1047
 124   2.0000      -1.141243       -31.0548
 125   2.0000      -1.138146       -30.9705
 126   2.0000      -1.131710       -30.7954
 127   2.0000      -1.084807       -29.5191
 128   2.0000      -1.082554       -29.4578
 129   2.0000      -1.074155       -29.2292
 130   2.0000      -1.072453       -29.1829
 131   2.0000      -1.056086       -28.7376
 132   2.0000      -1.030418       -28.0391
 133   2.0000      -1.025326       -27.9005
 134   2.0000      -1.021830       -27.8054
 135   2.0000      -1.020867       -27.7792
 136   2.0000      -1.016128       -27.6503
 137   2.0000      -1.011234       -27.5171
 138   2.0000      -1.007811       -27.4239
 139   2.0000      -1.004370       -27.3303
 140   2.0000      -0.998609       -27.1735
 141   2.0000      -0.997456       -27.1422
 142   2.0000      -0.992996       -27.0208
 143   2.0000      -0.991478       -26.9795
 144   2.0000      -0.950302       -25.8590
 145   2.0000      -0.945922       -25.7398
 146   2.0000      -0.938858       -25.5476
 147   2.0000      -0.936810       -25.4919
 148   2.0000      -0.920571       -25.0500
 149   2.0000      -0.918044       -24.9812
 150   2.0000      -0.916347       -24.9351
 151   2.0000      -0.912629       -24.8339
 152   2.0000      -0.911434       -24.8014
 153   2.0000      -0.908580       -24.7237
 154   2.0000      -0.891276       -24.2529
 155   2.0000      -0.887700       -24.1556
 156   2.0000      -0.875937       -23.8355
 157   2.0000      -0.872682       -23.7469
 158   2.0000      -0.861997       -23.4561
 159   2.0000      -0.854538       -23.2532
 160   2.0000      -0.848672       -23.0935
 161   2.0000      -0.834856       -22.7176
 162   2.0000      -0.834023       -22.6949
 163   2.0000      -0.831514       -22.6266
 164   2.0000      -0.823852       -22.4181
 165   2.0000      -0.812433       -22.1074
 166   2.0000      -0.809834       -22.0367
 167   2.0000      -0.785863       -21.3844
 168   2.0000      -0.777119       -21.1465
 169   2.0000      -0.776258       -21.1231
 170   2.0000      -0.769784       -20.9469
 171   2.0000      -0.767543       -20.8859
 172   2.0000      -0.758608       -20.6428
 173   2.0000      -0.751061       -20.4374
 174   2.0000      -0.749105       -20.3842
 175   2.0000      -0.723183       -19.6788
 176   2.0000      -0.718669       -19.5560
 177   2.0000      -0.717586       -19.5265
 178   2.0000      -0.708055       -19.2672
 179   2.0000      -0.702766       -19.1232
 180   2.0000      -0.700871       -19.0717
 181   2.0000      -0.694133       -18.8883
 182   2.0000      -0.692826       -18.8527
 183   2.0000      -0.688721       -18.7411
 184   2.0000      -0.683839       -18.6082
 185   2.0000      -0.680992       -18.5307
 186   2.0000      -0.676542       -18.4096
 187   2.0000      -0.672694       -18.3049
 188   2.0000      -0.665353       -18.1052
 189   2.0000      -0.661163       -17.9912
 190   2.0000      -0.658732       -17.9250
 191   2.0000      -0.647464       -17.6184
 192   2.0000      -0.632561       -17.2129
 193   2.0000      -0.630836       -17.1659
 194   2.0000      -0.627284       -17.0693
 195   2.0000      -0.620678       -16.8895
 196   2.0000      -0.617613       -16.8061
 197   2.0000      -0.613766       -16.7014
 198   2.0000      -0.608603       -16.5609
 199   2.0000      -0.608196       -16.5498
 200   2.0000      -0.601612       -16.3707
 201   2.0000      -0.596137       -16.2217
 202   2.0000      -0.594026       -16.1643
 203   2.0000      -0.590946       -16.0804
 204   2.0000      -0.589763       -16.0483
 205   2.0000      -0.586786       -15.9672
 206   2.0000      -0.583433       -15.8760
 207   2.0000      -0.580428       -15.7943
 208   2.0000      -0.572172       -15.5696
 209   2.0000      -0.570748       -15.5309
 210   2.0000      -0.569146       -15.4872
 211   2.0000      -0.564340       -15.3565
 212   2.0000      -0.563740       -15.3401
 213   2.0000      -0.561573       -15.2812
 214   2.0000      -0.559258       -15.2182
 215   2.0000      -0.551180       -14.9984
 216   2.0000      -0.549079       -14.9412
 217   2.0000      -0.548408       -14.9229
 218   2.0000      -0.545683       -14.8488
 219   2.0000      -0.544528       -14.8174
 220   2.0000      -0.537595       -14.6287
 221   2.0000      -0.536837       -14.6081
 222   2.0000      -0.533861       -14.5271
 223   2.0000      -0.533371       -14.5138
 224   2.0000      -0.530977       -14.4486
 225   2.0000      -0.529698       -14.4138
 226   2.0000      -0.522186       -14.2094
 227   2.0000      -0.522090       -14.2068
 228   2.0000      -0.519035       -14.1237
 229   2.0000      -0.515902       -14.0384
 230   2.0000      -0.515570       -14.0294
 231   2.0000      -0.514550       -14.0016
 232   2.0000      -0.513539       -13.9741
 233   2.0000      -0.509593       -13.8667
 234   2.0000      -0.507145       -13.8001
 235   2.0000      -0.505864       -13.7652
 236   2.0000      -0.502866       -13.6837
 237   2.0000      -0.501642       -13.6504
 238   2.0000      -0.498592       -13.5674
 239   2.0000      -0.496966       -13.5231
 240   2.0000      -0.495868       -13.4933
 241   2.0000      -0.493814       -13.4374
 242   2.0000      -0.490969       -13.3599
 243   2.0000      -0.487281       -13.2596
 244   2.0000      -0.484988       -13.1972
 245   2.0000      -0.483740       -13.1632
 246   2.0000      -0.482089       -13.1183
 247   2.0000      -0.480414       -13.0727
 248   2.0000      -0.478903       -13.0316
 249   2.0000      -0.476950       -12.9785
 250   2.0000      -0.476518       -12.9667
 251   2.0000      -0.475546       -12.9403
 252   2.0000      -0.466508       -12.6943
 253   2.0000      -0.463744       -12.6191
 254   2.0000      -0.462919       -12.5967
 255   2.0000      -0.460851       -12.5404
 256   2.0000      -0.459494       -12.5035
 257   2.0000      -0.459147       -12.4940
 258   2.0000      -0.457208       -12.4413
 259   2.0000      -0.454689       -12.3727
 260   2.0000      -0.453302       -12.3350
 261   2.0000      -0.452925       -12.3247
 262   2.0000      -0.450921       -12.2702
 263   2.0000      -0.450407       -12.2562
 264   2.0000      -0.447912       -12.1883
 265   2.0000      -0.446028       -12.1370
 266   2.0000      -0.444981       -12.1086
 267   2.0000      -0.443576       -12.0703
 268   2.0000      -0.439833       -11.9685
 269   2.0000      -0.439118       -11.9490
 270   2.0000      -0.436497       -11.8777
 271   2.0000      -0.436283       -11.8719
 272   2.0000      -0.432745       -11.7756
 273   2.0000      -0.429829       -11.6962
 274   2.0000      -0.427342       -11.6286
 275   2.0000      -0.426508       -11.6059
 276   2.0000      -0.423462       -11.5230
 277   2.0000      -0.419222       -11.4076
 278   2.0000      -0.418703       -11.3935
 279   2.0000      -0.415873       -11.3165
 280   2.0000      -0.414033       -11.2664
 281   2.0000      -0.413129       -11.2418
 282   2.0000      -0.410966       -11.1829
 283   2.0000      -0.405717       -11.0401
 284   2.0000      -0.391702       -10.6587
 285   2.0000      -0.390521       -10.6266
 286   2.0000      -0.389470       -10.5980
 287   2.0000      -0.377910       -10.2835
 288   2.0000      -0.376937       -10.2570
 289   2.0000      -0.376313       -10.2400
 290   2.0000      -0.375639       -10.2217
 291   2.0000      -0.372794       -10.1443
 292   2.0000      -0.366777        -9.9805
 293   2.0000      -0.364999        -9.9321
 294   2.0000      -0.358115        -9.7448
 295   2.0000      -0.354172        -9.6375
 296   2.0000      -0.350460        -9.5365
 297   2.0000      -0.348511        -9.4835
 298   2.0000      -0.345372        -9.3980
 299   2.0000      -0.339693        -9.2435
 300   2.0000      -0.331482        -9.0201
 301   2.0000      -0.329612        -8.9692
 302   2.0000      -0.327711        -8.9175
 303   2.0000      -0.323640        -8.8067
 304   2.0000      -0.319086        -8.6828
 305   2.0000      -0.316141        -8.6026
 306   2.0000      -0.298677        -8.1274
 307   2.0000      -0.292511        -7.9596
 308   2.0000      -0.272388        -7.4121
 309   2.0000      -0.253077        -6.8866
 310   0.0000      -0.145009        -3.9459
 311   0.0000      -0.108381        -2.9492
 312   0.0000      -0.098784        -2.6881
 313   0.0000      -0.072165        -1.9637
 314   0.0000      -0.069819        -1.8999

MULLIKEN ATOMIC CHARGES
-----------------------
   0 C :    0.300461
   1 C :   -0.343110
   2 C :   -0.182017
   3 N :    0.159378
   4 C :   -0.177033
   5 N :    0.143512
   6 C :    0.025174
   7 C :   -0.003013
   8 C :   -0.057726
   9 C :    0.115945
  10 C :   -0.089584
  11 C :   -0.023286
  12 S :    0.189999
  13 C :   -0.122997
  14 C :    0.040896
  15 Br:    0.030134
  16 C :    0.153983
  17 O :   -0.137851
  18 C :   -0.048098
  19 C :   -0.079013
  20 C :    0.141180
  21 C :   -0.030922
  22 C :   -0.045246
  23 C :    0.148666
  24 O :   -0.191153
  25 N :   -0.269363
  26 C :    0.108940
  27 C :    0.022405
  28 N :   -0.244442
  29 C :    0.165782
  30 O :   -0.178227
  31 C :    0.139206
  32 C :    0.093285
  33 C :   -0.044034
  34 C :   -0.055798
  35 N :    0.061011
  36 C :   -0.106766
  37 C :   -0.107662
  38 N :    0.041506
  39 C :   -0.220008
  40 N :    0.244409
  41 C :   -0.215086
  42 N :    0.242840
  43 C :    0.060795
  44 C :    0.048766
  45 C :   -0.028404
  46 N :   -0.235832
  47 S :    0.583465
  48 N :   -0.285332
  49 C :    0.032912
  50 C :   -0.016648
  51 C :   -0.065010
  52 C :    0.161763
  53 O :   -0.179969
  54 N :   -0.239995
  55 C :    0.120011
  56 C :    0.179421
  57 N :   -0.273289
  58 C :    0.157158
  59 O :   -0.195370
  60 C :    0.114815
  61 C :   -0.049741
  62 C :   -0.092787
  63 C :    0.299302
  64 C :   -0.274830
  65 C :   -0.181601
  66 N :    0.159683
  67 C :   -0.240413
  68 N :    0.176209
  69 C :    0.009399
  70 C :    0.001921
  71 C :    0.128293
  72 O :   -0.134837
  73 C :   -0.067484
  74 C :    0.107941
  75 C :   -0.084774
  76 C :   -0.022869
  77 S :    0.187613
  78 C :   -0.126820
  79 C :    0.042236
  80 Br:    0.024013
  81 H :   -0.005813
  82 H :   -0.004653
  83 H :    0.000562
  84 H :    0.023706
  85 H :    0.060115
  86 H :    0.051643
  87 H :    0.041623
  88 H :    0.026642
  89 H :    0.054750
  90 H :    0.051794
  91 H :    0.056545
  92 H :    0.055958
  93 H :    0.031824
  94 H :    0.043288
  95 H :    0.049060
  96 H :    0.063599
  97 H :    0.015593
  98 H :   -0.008787
  99 H :   -0.000443
 100 H :   -0.002994
Sum of atomic charges:   -0.0000000

LOEWDIN ATOMIC CHARGES
----------------------
   0 C :    0.073400
   1 C :   -0.132144
   2 C :   -0.018877
   3 N :   -0.044627
   4 C :   -0.017048
   5 N :   -0.050368
   6 C :   -0.018939
   7 C :   -0.042282
   8 C :    0.029802
   9 C :   -0.028367
  10 C :   -0.141420
  11 C :   -0.009456
  12 S :    0.435082
  13 C :   -0.269196
  14 C :   -0.068690
  15 Br:    0.142077
  16 C :    0.089433
  17 O :   -0.126318
  18 C :   -0.044472
  19 C :    0.031835
  20 C :    0.072653
  21 C :   -0.088178
  22 C :   -0.098574
  23 C :    0.083922
  24 O :   -0.194604
  25 N :   -0.002824
  26 C :    0.029440
  27 C :    0.089355
  28 N :    0.011013
  29 C :    0.091587
  30 O :   -0.169345
  31 C :    0.028454
  32 C :   -0.025244
  33 C :    0.000767
  34 C :    0.014774
  35 N :    0.020698
  36 C :   -0.017908
  37 C :   -0.014023
  38 N :    0.000158
  39 C :   -0.036691
  40 N :    0.001161
  41 C :   -0.033747
  42 N :   -0.005403
  43 C :   -0.032892
  44 C :   -0.032212
  45 C :   -0.032090
  46 N :   -0.254970
  47 S :    0.717297
  48 N :   -0.281612
  49 C :    0.089292
  50 C :   -0.089670
  51 C :   -0.088919
  52 C :    0.083732
  53 O :   -0.165540
  54 N :    0.017862
  55 C :    0.024460
  56 C :    0.074047
  57 N :    0.002520
  58 C :    0.084818
  59 O :   -0.195043
  60 C :    0.030515
  61 C :    0.016046
  62 C :   -0.038326
  63 C :    0.054113
  64 C :   -0.105292
  65 C :   -0.014516
  66 N :   -0.046964
  67 C :   -0.016308
  68 N :   -0.044597
  69 C :   -0.009043
  70 C :   -0.059355
  71 C :    0.087020
  72 O :   -0.131686
  73 C :    0.026605
  74 C :   -0.036663
  75 C :   -0.139843
  76 C :   -0.012295
  77 S :    0.434559
  78 C :   -0.273451
  79 C :   -0.069362
  80 Br:    0.136954
  81 H :    0.043723
  82 H :    0.041322
  83 H :    0.040579
  84 H :    0.046911
  85 H :    0.042368
  86 H :    0.032324
  87 H :    0.030899
  88 H :    0.027500
  89 H :    0.028842
  90 H :    0.037007
  91 H :    0.039061
  92 H :    0.026172
  93 H :    0.027445
  94 H :    0.032009
  95 H :    0.031961
  96 H :    0.043893
  97 H :    0.048862
  98 H :    0.041702
  99 H :    0.042351
 100 H :    0.039010

  Mayer bond orders larger than 0.100000
B(  0-C ,  1-C ) :   1.6355 B(  0-C ,  6-C ) :   1.0193 B(  0-C , 18-C ) :   1.0640
B(  1-C ,  2-C ) :   1.1378 B(  1-C ,  4-C ) :   1.1457 B(  2-C ,  3-N ) :   2.9716
B(  4-C ,  5-N ) :   2.9593 B(  6-C ,  7-C ) :   1.2680 B(  6-C , 11-C ) :   1.3962
B(  7-C ,  8-C ) :   1.4248 B(  7-C , 16-C ) :   0.9386 B(  8-C ,  9-C ) :   1.2518
B(  8-C , 81-H ) :   1.0157 B(  9-C , 10-C ) :   1.2940 B(  9-C , 14-C ) :   1.1654
B( 10-C , 11-C ) :   1.3439 B( 10-C , 12-S ) :   1.0880 B( 11-C , 82-H ) :   0.9787
B( 12-S , 13-C ) :   1.0856 B( 13-C , 14-C ) :   1.6158 B( 13-C , 15-Br) :   1.0226
B( 14-C , 83-H ) :   1.0006 B( 16-C , 17-O ) :   2.2427 B( 16-C , 18-C ) :   0.9071
B( 18-C , 19-C ) :   1.6563 B( 19-C , 20-C ) :   1.1045 B( 19-C , 84-H ) :   0.9219
B( 20-C , 21-C ) :   1.3874 B( 20-C , 25-N ) :   1.1823 B( 21-C , 22-C ) :   1.2628
B( 21-C , 29-C ) :   0.9664 B( 22-C , 23-C ) :   0.9576 B( 22-C , 27-C ) :   1.4078
B( 23-C , 24-O ) :   2.1403 B( 23-C , 25-N ) :   1.0396 B( 25-N , 26-C ) :   0.9619
B( 26-C , 85-H ) :   0.9528 B( 26-C , 86-H ) :   0.9693 B( 26-C , 87-H ) :   0.9741
B( 27-C , 28-N ) :   1.2651 B( 27-C , 32-C ) :   1.0042 B( 28-N , 29-C ) :   1.0143
B( 28-N , 31-C ) :   0.9538 B( 29-C , 30-O ) :   2.1339 B( 31-C , 88-H ) :   0.9731
B( 31-C , 89-H ) :   0.9639 B( 31-C , 90-H ) :   0.9501 B( 32-C , 33-C ) :   1.2784
B( 32-C , 43-C ) :   0.1438 B( 32-C , 45-C ) :   1.2591 B( 33-C , 34-C ) :   1.1147
B( 33-C , 38-N ) :   1.4477 B( 34-C , 35-N ) :   1.4502 B( 34-C , 43-C ) :   1.2911
B( 35-N , 36-C ) :   1.7098 B( 36-C , 37-C ) :   1.1989 B( 36-C , 41-C ) :   1.1586
B( 37-C , 38-N ) :   1.7210 B( 37-C , 39-C ) :   1.1535 B( 39-C , 40-N ) :   3.0439
B( 41-C , 42-N ) :   3.0526 B( 43-C , 44-C ) :   1.2348 B( 43-C , 49-C ) :   1.0294
B( 44-C , 45-C ) :   1.0785 B( 44-C , 48-N ) :   1.4928 B( 45-C , 46-N ) :   1.5250
B( 46-N , 47-S ) :   1.3177 B( 46-N , 48-N ) :   0.1475 B( 47-S , 48-N ) :   1.2849
B( 49-C , 50-C ) :   1.3865 B( 49-C , 54-N ) :   1.2615 B( 50-C , 51-C ) :   1.2810
B( 50-C , 58-C ) :   0.9569 B( 51-C , 52-C ) :   0.9727 B( 51-C , 56-C ) :   1.3208
B( 52-C , 53-O ) :   2.0573 B( 52-C , 54-N ) :   1.0454 B( 54-N , 55-C ) :   0.9521
B( 55-C , 91-H ) :   0.9503 B( 55-C , 92-H ) :   0.9534 B( 55-C , 93-H ) :   0.9719
B( 56-C , 57-N ) :   1.1825 B( 56-C , 61-C ) :   1.1256 B( 57-N , 58-C ) :   1.0515
B( 57-N , 60-C ) :   0.9639 B( 58-C , 59-O ) :   2.1174 B( 60-C , 94-H ) :   0.9727
B( 60-C , 95-H ) :   0.9677 B( 60-C , 96-H ) :   0.9505 B( 61-C , 62-C ) :   1.6398
B( 61-C , 97-H ) :   0.9226 B( 62-C , 63-C ) :   1.0642 B( 62-C , 71-C ) :   0.9226
B( 63-C , 64-C ) :   1.6227 B( 63-C , 69-C ) :   1.0098 B( 64-C , 65-C ) :   1.1280
B( 64-C , 67-C ) :   1.1756 B( 65-C , 66-N ) :   2.9938 B( 67-C , 68-N ) :   2.9854
B( 69-C , 70-C ) :   1.2643 B( 69-C , 76-C ) :   1.4283 B( 70-C , 71-C ) :   0.9306
B( 70-C , 73-C ) :   1.4193 B( 71-C , 72-O ) :   2.2556 B( 73-C , 74-C ) :   1.2570
B( 73-C , 98-H ) :   1.0159 B( 74-C , 75-C ) :   1.3065 B( 74-C , 79-C ) :   1.1616
B( 75-C , 76-C ) :   1.3189 B( 75-C , 77-S ) :   1.0895 B( 76-C , 99-H ) :   0.9827
B( 77-S , 78-C ) :   1.0849 B( 78-C , 79-C ) :   1.6211 B( 78-C , 80-Br) :   1.0191
B( 79-C ,100-H ) :   1.0004

-----------------------------------------------------------------------------
         ABSORPTION SPECTRUM VIA TRANSITION ELECTRIC DIPOLE MOMENTS
-----------------------------------------------------------------------------
State   Energy  Wavelength   fosc         T2         TX        TY        TZ
        (cm-1)    (nm)                  (au**2)     (au)      (au)      (au)
-----------------------------------------------------------------------------
   0    7753.5   1289.7   0.536503102  22.77993   2.70703  -3.92673  -0.18080
   1   11478.6    871.2   0.017717546   0.50815   0.22566  -0.62547   0.25692
   2   15623.7    640.1   0.137163004   2.89020  -1.18115   1.20915   0.18182
   3   17802.0    561.7   0.210381673   3.89059   1.10229  -1.62263   0.20646
   4   19495.9    512.9   0.062308162   1.05215   0.67618  -0.62983   0.44524
   5   20557.2    486.4   0.003888848   0.06228   0.09259   0.22679  -0.04766
   6   21003.3    476.1   0.010224459   0.16026   0.30317  -0.26059   0.02093
   7   21787.9    459.0   0.065594535   0.99112   0.14488  -0.04362  -0.98399
   8   22613.4    442.2   0.109903758   1.60001   0.33592  -1.21328   0.12293
   9   23025.5    434.3   0.037464230   0.53565  -0.05591   0.72670   0.06662
  10   23208.0    430.9   0.034480039   0.48911   0.06177  -0.54058   0.43940
  11   23428.9    426.8   0.003053208   0.04290  -0.16508   0.05735   0.11118
  12   24099.3    415.0   0.029497514   0.40296  -0.02330  -0.57561   0.26663
  13   24480.4    408.5   0.014952517   0.20108   0.19549  -0.05158   0.40025
  14   24525.9    407.7   0.019486344   0.26157   0.09170   0.35664  -0.35491
  15   24765.1    403.8   0.034429399   0.45768   0.35213   0.30047  -0.49336
  16   25252.3    396.0   0.024551348   0.32007   0.01160   0.02006  -0.56528
  17   25272.9    395.7   0.009719054   0.12660  -0.06187   0.17401  -0.30413
  18   25488.0    392.3   0.025698966   0.33194  -0.03582   0.52549  -0.23348
  19   26026.6    384.2   0.011505513   0.14553   0.17569   0.24262   0.23622
  20   26175.4    382.0   0.019581792   0.24628   0.22881   0.36368  -0.24832
  21   26701.9    374.5   0.033511225   0.41316  -0.18893   0.43816  -0.43068
  22   26976.5    370.7   0.065062191   0.79400  -0.11138  -0.76226   0.44782
  23   27526.6    363.3   0.155534672   1.86016   0.15131  -0.26031   1.33023
  24   27584.6    362.5   0.004424250   0.05280  -0.05887  -0.15574  -0.15837
  25   27895.1    358.5   0.008699114   0.10267   0.09383  -0.07825  -0.29620
  26   28167.3    355.0   0.033277398   0.38894  -0.01459  -0.32695   0.53088
  27   28561.4    350.1   0.022390155   0.25808   0.47034  -0.14192  -0.12929
  28   28927.5    345.7   0.097294466   1.10727  -0.58639   0.87193  -0.05617
  29   29376.1    340.4   0.042730880   0.47888  -0.11034   0.62505   0.27571
  30   29810.1    335.5   0.263040946   2.90493  -0.10617  -0.02511  -1.70089
  31   30130.5    331.9   0.144086549   1.57432  -0.33313   1.20836  -0.05658
  32   30246.4    330.6   0.026625079   0.28980   0.08279  -0.42206   0.32375
  33   30291.5    330.1   0.159137110   1.72952   0.14514   0.94712   0.90079
  34   30583.8    327.0   0.248941276   2.67967   0.42043   1.51918  -0.44160
  35   30610.5    326.7   0.001662305   0.01788   0.02128  -0.00096  -0.13200
  36   30931.5    323.3   0.283885805   3.02147   0.20748  -1.03683   1.37964
  37   31721.3    315.2   0.067241679   0.69785   0.01836   0.49113  -0.67550
  38   32087.7    311.6   0.016654244   0.17087   0.06908   0.32235  -0.24938
  39   32338.8    309.2   0.123153258   1.25371  -0.23789   1.05745   0.28094
  40   32493.4    307.8   0.464572405   4.70688   0.39280   1.29709   1.69415
  41   32517.5    307.5   0.421538257   4.26772   0.28664   1.04631  -1.75807
  42   32810.0    304.8   0.041656758   0.41798  -0.11720  -0.17114  -0.61233
  43   32922.1    303.7   0.091202090   0.91200  -0.15926   0.87488  -0.34817
  44   33029.0    302.8   0.041220145   0.41086  -0.07753  -0.63626  -0.00369
  45   33325.2    300.1   0.146501184   1.44725   0.04181   1.02001  -0.63647
  46   33538.6    298.2   0.016728203   0.16420   0.12055   0.28712   0.25929
  47   33721.9    296.5   0.123588112   1.20653  -0.07216   0.94463  -0.55587
  48   33860.7    295.3   0.087466400   0.85039  -0.06178   0.44398  -0.80589
  49   34063.1    293.6   0.037209618   0.35962   0.15792  -0.32688  -0.47732
  50   34923.9    286.3   0.025863817   0.24381  -0.22541   0.36373  -0.24637
  51   35131.2    284.6   0.010905567   0.10220  -0.07351   0.07305   0.30242
  52   35393.7    282.5   0.116842748   1.08681   0.32689  -0.01801  -0.98976
  53   35456.0    282.0   0.082171116   0.76297   0.14359  -0.82029   0.26357
  54   35980.5    277.9   0.015009135   0.13733  -0.07356  -0.07670   0.35502
  55   36216.7    276.1   0.011100050   0.10090  -0.10073   0.07052  -0.29288
  56   36423.4    274.5   0.005046833   0.04562  -0.05350  -0.17474   0.11055
  57   36561.8    273.5   0.004978418   0.04483   0.06374  -0.20080   0.02108
  58   36855.1    271.3   0.424979634   3.79617   0.43012  -1.84849   0.44075
  59   36899.6    271.0   0.010649600   0.09501   0.03177   0.23779   0.19355
  60   37241.0    268.5   0.033869201   0.29941   0.01379   0.49661  -0.22934
  61   37365.4    267.6   0.008452968   0.07448  -0.01512   0.26703   0.05424
  62   37484.7    266.8   0.185983481   1.63341  -0.23443  -0.36695   1.20158
  63   37702.2    265.2   0.055605719   0.48554   0.03751  -0.59285   0.36423
  64   37882.8    264.0   0.015504312   0.13474  -0.04083  -0.33876  -0.13531
  65   38100.0    262.5   0.011675713   0.10089   0.24633  -0.16392   0.11548
  66   38170.3    262.0   0.043604939   0.37609  -0.01515   0.59903  -0.13047
  67   38669.6    258.6   0.082630860   0.70347   0.04476  -0.29420   0.78417
  68   38874.7    257.2   0.011167499   0.09457   0.12031  -0.28225  -0.02085
  69   38975.7    256.6   0.010703957   0.09041  -0.03557   0.17985  -0.23833
  70   39150.8    255.4   0.030115877   0.25324  -0.04759   0.43035   0.25646
  71   39297.8    254.5   0.052157440   0.43694   0.03808   0.53780   0.38244
  72   39420.5    253.7   0.050968103   0.42565   0.18806  -0.53539  -0.32194
  73   39574.4    252.7   0.019914459   0.16566   0.14024   0.01485   0.38181
  74   39722.1    251.7   0.038070453   0.31552   0.02745  -0.42038   0.37155
  75   39936.8    250.4   0.022926878   0.18899   0.27120   0.14886   0.30543
  76   40027.4    249.8   0.019077535   0.15691   0.23556  -0.28978  -0.13209
  77   40201.2    248.7   0.119313866   0.97707   0.16274  -0.67290  -0.70555

FINAL SINGLE POINT ENERGY     -9701.721075134074

DIPOLE MOMENT
-------------
                                X             Y             Z
Electronic contribution:     24.49772      31.40067      29.84077
Nuclear contribution   :    -24.23506     -30.26805     -29.81855
                        -----------------------------------------
Total Dipole Moment    :      0.26266       1.13262       0.02222
                        -----------------------------------------
Magnitude (a.u.)       :      1.16289
Magnitude (Debye)      :      2.95583

Rotational constants in cm-1:     0.001594     0.000176     0.000166
Rotational constants in MHz :    47.791788     5.279898     4.962919

                             ****ORCA TERMINATED NORMALLY****
TOTAL RUN TIME: 0 days 0 hours 11 minutes 51 seconds 561 msec
