                         Program Version 4.2.0 -  RELEASE  -
|  1> # ORCA input file
|  2> # SCF done       -187.671265245849          0.000207656412
|  3> ! CAM-B3LYP def2-SVP def2/J RIJCOSX Grid4 TightSCF
|  4> %maxcore 5000
|  5> %tddft
|  6>     Mode sTDDFT
|  7>     Ethresh 5.0
|  8>     maxcore 5000
|  9> end
| 10>
| 11> %pal
| 12>   nprocs 6
| 13>   end
| 14> * xyz 0 1
| 15>    C       -9.18984         9.39594        -1.87554
| 16>    C       -9.49870         9.43313        -3.20797
| 17>    C      -10.28462        10.43917        -3.81206
| 18>    N      -10.90955        11.22939        -4.36096
| 19>    C       -9.05431         8.50128        -4.17084
| 20>    N       -8.72285         7.78576        -5.00489
| 21>    C       -9.61180        10.36452        -0.87329
| 22>    C       -9.00401        10.04645         0.36759
| 23>    C       -9.20621        10.79110         1.50466
| 24>    C      -10.05696        11.89707         1.41764
| 25>    C      -10.66463        12.20501         0.17502
| 26>    C      -10.45555        11.45678        -0.97544
| 27>    S      -11.67368        13.61421         0.28908
| 28>    C      -11.27214        13.77033         1.97892
| 29>    C      -10.42664        12.81594         2.43693
| 30>   Br      -12.00654        15.17652         2.97715
| 31>    C       -8.15153         8.85665         0.20695
| 32>    O       -7.34701         8.42018         0.99674
| 33>    C       -8.39044         8.38667        -1.19350
| 34>    C       -7.90415         7.23125        -1.70263
| 35>    C       -7.30961         6.18769        -0.92942
| 36>    C       -6.18173         5.35120        -1.37343
| 37>    N       -5.83565         4.43014        -0.52748
| 38>    C       -6.70546         4.54153         0.51593
| 39>    C       -7.65694         5.64890         0.28255
| 40>    C       -8.62295         5.70400         1.35367
| 41>    S       -9.93557         6.68922         1.45639
| 42>    C       -8.20764         4.66414         2.26083
| 43>    C       -7.02708         3.96394         1.71062
| 44>    N       -6.63403         2.95989         2.54291
| 45>    C       -7.43333         3.00563         3.56026
| 46>    C       -8.45900         4.06728         3.47658
| 47>    C       -9.49541         4.31465         4.41670
| 48>    C       -9.58345         3.90436         5.75070
| 49>    N       -8.45439         3.36414         6.44707
| 50>    O       -7.38170         3.88814         6.23253
| 51>    O       -8.63758         2.43812         7.20689
| 52>    C      -10.81198         4.18746         6.37298
| 53>    C      -11.13571         3.82146         7.78056
| 54>    C      -11.67592         4.84753         5.49989
| 55>    S      -10.96094         5.07723         3.92975
| 56>    C      -12.98630         5.34574         5.73314
| 57>    C      -13.60306         5.64697         7.03684
| 58>    N      -14.80794         6.12264         6.96278
| 59>    C      -15.10580         6.17583         5.63489
| 60>    C      -13.95502         5.72870         4.82582
| 61>    C      -14.30203         5.76728         3.42791
| 62>    S      -13.43075         5.29407         2.11634
| 63>    C      -15.65725         6.26131         3.41281
| 64>    C      -16.13157         6.49435         4.78621
| 65>    N      -17.42030         6.93824         4.77718
| 66>    C      -17.78309         6.94060         3.53082
| 67>    C      -16.73021         6.51172         2.59301
| 68>    C      -16.81331         6.47670         1.17391
| 69>    C      -17.91771         6.25441         0.42144
| 70>    C      -19.24062         5.77550         0.77647
| 71>    C      -19.53229         4.92479         1.80943
| 72>    C      -20.82856         4.43576         2.07621
| 73>    N      -21.87144         4.03192         2.33147
| 74>    C      -18.55109         4.35880         2.65219
| 75>    N      -17.78281         3.81964         3.31257
| 76>    C      -20.14182         6.16710        -0.29908
| 77>    C      -19.37069         6.65779        -1.38584
| 78>    C      -17.94224         6.65105        -1.01941
| 79>    O      -16.99207         6.95216        -1.69928
| 80>    C      -19.94101         7.06932        -2.56659
| 81>    C      -21.33363         7.00343        -2.67701
| 82>    C      -22.09498         6.52385        -1.58179
| 83>    C      -21.51951         6.10010        -0.39042
| 84>    S      -23.79517         6.53738        -1.93139
| 85>    C      -23.46843         7.17330        -3.52222
| 86>    C      -22.15240         7.36791        -3.77965
| 87>   Br      -24.89280         7.52207        -4.68888
| 88>    H       -8.72467        10.52497         2.43239
| 89>    H      -10.94042        11.73281        -1.89683
| 90>    H      -10.07541        12.76266         3.45120
| 91>    H       -7.96643         7.03558        -2.76623
| 92>    H       -5.65706         5.47518        -2.30482
| 93>    H       -7.34098         2.27361         4.34180
| 94>    H      -10.47817         3.02798         8.12631
| 95>    H      -12.16320         3.47464         7.85603
| 96>    H      -11.00553         4.68185         8.43784
| 97>    H      -13.12696         5.55122         7.99437
| 98>    H      -18.75794         7.29761         3.24614
| 99>    H      -15.90288         6.71021         0.63022
|100>    H      -19.33142         7.43011        -3.38005
|101>    H      -22.13698         5.74745         0.41931
|102>    H      -21.77354         7.75316        -4.70858
|103> *
|104>
|105>                          ****END OF INPUT****

CARTESIAN COORDINATES (ANGSTROEM)
---------------------------------
  C     -9.189840    9.395940   -1.875540
  C     -9.498700    9.433130   -3.207970
  C    -10.284620   10.439170   -3.812060
  N    -10.909550   11.229390   -4.360960
  C     -9.054310    8.501280   -4.170840
  N     -8.722850    7.785760   -5.004890
  C     -9.611800   10.364520   -0.873290
  C     -9.004010   10.046450    0.367590
  C     -9.206210   10.791100    1.504660
  C    -10.056960   11.897070    1.417640
  C    -10.664630   12.205010    0.175020
  C    -10.455550   11.456780   -0.975440
  S    -11.673680   13.614210    0.289080
  C    -11.272140   13.770330    1.978920
  C    -10.426640   12.815940    2.436930
  Br   -12.006540   15.176520    2.977150
  C     -8.151530    8.856650    0.206950
  O     -7.347010    8.420180    0.996740
  C     -8.390440    8.386670   -1.193500
  C     -7.904150    7.231250   -1.702630
  C     -7.309610    6.187690   -0.929420
  C     -6.181730    5.351200   -1.373430
  N     -5.835650    4.430140   -0.527480
  C     -6.705460    4.541530    0.515930
  C     -7.656940    5.648900    0.282550
  C     -8.622950    5.704000    1.353670
  S     -9.935570    6.689220    1.456390
  C     -8.207640    4.664140    2.260830
  C     -7.027080    3.963940    1.710620
  N     -6.634030    2.959890    2.542910
  C     -7.433330    3.005630    3.560260
  C     -8.459000    4.067280    3.476580
  C     -9.495410    4.314650    4.416700
  C     -9.583450    3.904360    5.750700
  N     -8.454390    3.364140    6.447070
  O     -7.381700    3.888140    6.232530
  O     -8.637580    2.438120    7.206890
  C    -10.811980    4.187460    6.372980
  C    -11.135710    3.821460    7.780560
  C    -11.675920    4.847530    5.499890
  S    -10.960940    5.077230    3.929750
  C    -12.986300    5.345740    5.733140
  C    -13.603060    5.646970    7.036840
  N    -14.807940    6.122640    6.962780
  C    -15.105800    6.175830    5.634890
  C    -13.955020    5.728700    4.825820
  C    -14.302030    5.767280    3.427910
  S    -13.430750    5.294070    2.116340
  C    -15.657250    6.261310    3.412810
  C    -16.131570    6.494350    4.786210
  N    -17.420300    6.938240    4.777180
  C    -17.783090    6.940600    3.530820
  C    -16.730210    6.511720    2.593010
  C    -16.813310    6.476700    1.173910
  C    -17.917710    6.254410    0.421440
  C    -19.240620    5.775500    0.776470
  C    -19.532290    4.924790    1.809430
  C    -20.828560    4.435760    2.076210
  N    -21.871440    4.031920    2.331470
  C    -18.551090    4.358800    2.652190
  N    -17.782810    3.819640    3.312570
  C    -20.141820    6.167100   -0.299080
  C    -19.370690    6.657790   -1.385840
  C    -17.942240    6.651050   -1.019410
  O    -16.992070    6.952160   -1.699280
  C    -19.941010    7.069320   -2.566590
  C    -21.333630    7.003430   -2.677010
  C    -22.094980    6.523850   -1.581790
  C    -21.519510    6.100100   -0.390420
  S    -23.795170    6.537380   -1.931390
  C    -23.468430    7.173300   -3.522220
  C    -22.152400    7.367910   -3.779650
  Br   -24.892800    7.522070   -4.688880
  H     -8.724670   10.524970    2.432390
  H    -10.940420   11.732810   -1.896830
  H    -10.075410   12.762660    3.451200
  H     -7.966430    7.035580   -2.766230
  H     -5.657060    5.475180   -2.304820
  H     -7.340980    2.273610    4.341800
  H    -10.478170    3.027980    8.126310
  H    -12.163200    3.474640    7.856030
  H    -11.005530    4.681850    8.437840
  H    -13.126960    5.551220    7.994370
  H    -18.757940    7.297610    3.246140
  H    -15.902880    6.710210    0.630220
  H    -19.331420    7.430110   -3.380050
  H    -22.136980    5.747450    0.419310
  H    -21.773540    7.753160   -4.708580

 Total Charge           Charge          ....    0
 Multiplicity           Mult            ....    1
 Number of Electrons    NEL             ....  578
 Basis Dimension        Dim             .... 1153

ORBITAL ENERGIES
----------------

  NO   OCC          E(Eh)            E(eV)
   0   2.0000    -482.893116    -13140.1897
   1   2.0000    -482.891782    -13140.1534
   2   2.0000     -88.986600     -2421.4485
   3   2.0000     -88.985372     -2421.4151
   4   2.0000     -88.982490     -2421.3367
   5   2.0000     -88.919543     -2419.6238
   6   2.0000     -88.918030     -2419.5826
   7   2.0000     -62.570851     -1702.6394
   8   2.0000     -62.569521     -1702.6032
   9   2.0000     -56.404812     -1534.8530
  10   2.0000     -56.403477     -1534.8166
  11   2.0000     -56.402073     -1534.7784
  12   2.0000     -56.402046     -1534.7777
  13   2.0000     -56.400748     -1534.7424
  14   2.0000     -56.400718     -1534.7416
  15   2.0000     -19.263084      -524.1752
  16   2.0000     -19.261569      -524.1339
  17   2.0000     -19.228954      -523.2464
  18   2.0000     -19.222537      -523.0718
  19   2.0000     -14.668072      -399.1385
  20   2.0000     -14.432208      -392.7203
  21   2.0000     -14.429567      -392.6485
  22   2.0000     -14.429203      -392.6386
  23   2.0000     -14.428288      -392.6137
  24   2.0000     -14.428002      -392.6059
  25   2.0000     -14.426031      -392.5523
  26   2.0000     -14.424833      -392.5197
  27   2.0000     -14.424213      -392.5028
  28   2.0000     -10.379604      -282.4434
  29   2.0000     -10.375830      -282.3407
  30   2.0000     -10.368206      -282.1332
  31   2.0000     -10.366215      -282.0791
  32   2.0000     -10.360806      -281.9319
  33   2.0000     -10.358743      -281.8757
  34   2.0000     -10.358188      -281.8606
  35   2.0000     -10.357066      -281.8301
  36   2.0000     -10.353887      -281.7436
  37   2.0000     -10.352834      -281.7149
  38   2.0000     -10.351528      -281.6794
  39   2.0000     -10.351241      -281.6716
  40   2.0000     -10.350503      -281.6515
  41   2.0000     -10.348166      -281.5879
  42   2.0000     -10.346599      -281.5453
  43   2.0000     -10.346225      -281.5351
  44   2.0000     -10.345622      -281.5187
  45   2.0000     -10.345593      -281.5179
  46   2.0000     -10.344659      -281.4925
  47   2.0000     -10.341918      -281.4179
  48   2.0000     -10.337129      -281.2876
  49   2.0000     -10.333542      -281.1900
  50   2.0000     -10.332562      -281.1633
  51   2.0000     -10.331502      -281.1345
  52   2.0000     -10.331304      -281.1291
  53   2.0000     -10.331142      -281.1247
  54   2.0000     -10.330332      -281.1026
  55   2.0000     -10.329850      -281.0895
  56   2.0000     -10.328166      -281.0437
  57   2.0000     -10.326468      -280.9975
  58   2.0000     -10.326241      -280.9913
  59   2.0000     -10.324490      -280.9437
  60   2.0000     -10.322484      -280.8891
  61   2.0000     -10.322131      -280.8795
  62   2.0000     -10.318741      -280.7872
  63   2.0000     -10.318151      -280.7712
  64   2.0000     -10.317377      -280.7501
  65   2.0000     -10.316971      -280.7391
  66   2.0000     -10.316598      -280.7289
  67   2.0000     -10.316093      -280.7152
  68   2.0000     -10.316072      -280.7146
  69   2.0000     -10.315623      -280.7024
  70   2.0000     -10.314766      -280.6791
  71   2.0000     -10.314018      -280.6587
  72   2.0000     -10.313800      -280.6528
  73   2.0000     -10.313378      -280.6413
  74   2.0000     -10.312759      -280.6244
  75   2.0000     -10.308331      -280.5040
  76   2.0000     -10.305695      -280.4322
  77   2.0000     -10.305591      -280.4294
  78   2.0000     -10.303467      -280.3716
  79   2.0000     -10.300455      -280.2896
  80   2.0000     -10.287496      -279.9370
  81   2.0000      -8.800301      -239.4684
  82   2.0000      -8.798975      -239.4323
  83   2.0000      -8.081390      -219.9058
  84   2.0000      -8.080435      -219.8798
  85   2.0000      -8.078519      -219.8277
  86   2.0000      -8.014853      -218.0953
  87   2.0000      -8.013650      -218.0625
  88   2.0000      -6.636665      -180.5928
  89   2.0000      -6.635315      -180.5561
  90   2.0000      -6.622011      -180.1941
  91   2.0000      -6.621789      -180.1880
  92   2.0000      -6.620691      -180.1582
  93   2.0000      -6.620477      -180.1523
  94   2.0000      -6.051044      -164.6573
  95   2.0000      -6.049432      -164.6134
  96   2.0000      -6.048209      -164.5801
  97   2.0000      -6.046805      -164.5419
  98   2.0000      -6.045332      -164.5018
  99   2.0000      -6.043927      -164.4636
 100   2.0000      -6.042848      -164.4342
 101   2.0000      -6.042627      -164.4282
 102   2.0000      -6.039726      -164.3493
 103   2.0000      -5.983630      -162.8229
 104   2.0000      -5.983422      -162.8172
 105   2.0000      -5.982511      -162.7924
 106   2.0000      -5.982203      -162.7840
 107   2.0000      -5.974134      -162.5644
 108   2.0000      -5.972767      -162.5273
 109   2.0000      -2.752514       -74.8997
 110   2.0000      -2.751160       -74.8629
 111   2.0000      -2.748446       -74.7890
 112   2.0000      -2.748229       -74.7831
 113   2.0000      -2.747109       -74.7526
 114   2.0000      -2.746908       -74.7472
 115   2.0000      -2.736614       -74.4671
 116   2.0000      -2.736586       -74.4663
 117   2.0000      -2.735301       -74.4313
 118   2.0000      -2.735286       -74.4309
 119   2.0000      -1.343839       -36.5677
 120   2.0000      -1.162593       -31.6358
 121   2.0000      -1.144632       -31.1470
 122   2.0000      -1.139420       -31.0052
 123   2.0000      -1.100839       -29.9553
 124   2.0000      -1.097778       -29.8721
 125   2.0000      -1.081764       -29.4363
 126   2.0000      -1.077913       -29.3315
 127   2.0000      -1.035682       -28.1823
 128   2.0000      -1.031232       -28.0612
 129   2.0000      -1.026451       -27.9312
 130   2.0000      -1.025205       -27.8973
 131   2.0000      -1.021982       -27.8095
 132   2.0000      -1.007461       -27.4144
 133   2.0000      -1.003661       -27.3110
 134   2.0000      -1.002771       -27.2868
 135   2.0000      -0.998142       -27.1608
 136   2.0000      -0.980661       -26.6851
 137   2.0000      -0.978604       -26.6292
 138   2.0000      -0.956369       -26.0241
 139   2.0000      -0.952246       -25.9119
 140   2.0000      -0.934675       -25.4338
 141   2.0000      -0.927208       -25.2306
 142   2.0000      -0.924835       -25.1660
 143   2.0000      -0.920575       -25.0501
 144   2.0000      -0.920141       -25.0383
 145   2.0000      -0.916417       -24.9370
 146   2.0000      -0.897572       -24.4242
 147   2.0000      -0.893758       -24.3204
 148   2.0000      -0.890036       -24.2191
 149   2.0000      -0.885867       -24.1057
 150   2.0000      -0.885125       -24.0855
 151   2.0000      -0.873608       -23.7721
 152   2.0000      -0.868761       -23.6402
 153   2.0000      -0.863663       -23.5015
 154   2.0000      -0.845301       -23.0018
 155   2.0000      -0.841422       -22.8962
 156   2.0000      -0.839383       -22.8408
 157   2.0000      -0.836182       -22.7537
 158   2.0000      -0.806348       -21.9418
 159   2.0000      -0.800406       -21.7802
 160   2.0000      -0.790916       -21.5219
 161   2.0000      -0.783275       -21.3140
 162   2.0000      -0.777537       -21.1579
 163   2.0000      -0.774852       -21.0848
 164   2.0000      -0.768524       -20.9126
 165   2.0000      -0.764953       -20.8154
 166   2.0000      -0.754808       -20.5394
 167   2.0000      -0.746751       -20.3201
 168   2.0000      -0.727124       -19.7860
 169   2.0000      -0.721601       -19.6358
 170   2.0000      -0.718642       -19.5552
 171   2.0000      -0.714638       -19.4463
 172   2.0000      -0.708641       -19.2831
 173   2.0000      -0.702183       -19.1074
 174   2.0000      -0.699089       -19.0232
 175   2.0000      -0.691518       -18.8172
 176   2.0000      -0.686891       -18.6913
 177   2.0000      -0.671978       -18.2855
 178   2.0000      -0.670374       -18.2418
 179   2.0000      -0.666815       -18.1450
 180   2.0000      -0.662690       -18.0327
 181   2.0000      -0.660579       -17.9753
 182   2.0000      -0.656005       -17.8508
 183   2.0000      -0.640252       -17.4221
 184   2.0000      -0.636795       -17.3281
 185   2.0000      -0.635630       -17.2964
 186   2.0000      -0.633457       -17.2373
 187   2.0000      -0.627883       -17.0856
 188   2.0000      -0.616407       -16.7733
 189   2.0000      -0.612891       -16.6776
 190   2.0000      -0.612524       -16.6676
 191   2.0000      -0.606873       -16.5139
 192   2.0000      -0.599807       -16.3216
 193   2.0000      -0.597867       -16.2688
 194   2.0000      -0.593359       -16.1461
 195   2.0000      -0.587946       -15.9988
 196   2.0000      -0.583334       -15.8733
 197   2.0000      -0.581203       -15.8154
 198   2.0000      -0.569860       -15.5067
 199   2.0000      -0.568176       -15.4608
 200   2.0000      -0.564245       -15.3539
 201   2.0000      -0.561330       -15.2746
 202   2.0000      -0.558791       -15.2055
 203   2.0000      -0.557093       -15.1593
 204   2.0000      -0.551753       -15.0140
 205   2.0000      -0.550845       -14.9892
 206   2.0000      -0.549954       -14.9650
 207   2.0000      -0.547471       -14.8974
 208   2.0000      -0.541460       -14.7339
 209   2.0000      -0.539771       -14.6879
 210   2.0000      -0.539202       -14.6724
 211   2.0000      -0.534236       -14.5373
 212   2.0000      -0.533606       -14.5202
 213   2.0000      -0.528137       -14.3713
 214   2.0000      -0.522767       -14.2252
 215   2.0000      -0.521310       -14.1856
 216   2.0000      -0.519666       -14.1408
 217   2.0000      -0.516334       -14.0502
 218   2.0000      -0.516066       -14.0429
 219   2.0000      -0.514497       -14.0002
 220   2.0000      -0.511612       -13.9217
 221   2.0000      -0.510058       -13.8794
 222   2.0000      -0.507829       -13.8187
 223   2.0000      -0.504414       -13.7258
 224   2.0000      -0.503283       -13.6950
 225   2.0000      -0.501672       -13.6512
 226   2.0000      -0.500481       -13.6188
 227   2.0000      -0.498138       -13.5550
 228   2.0000      -0.496684       -13.5154
 229   2.0000      -0.494926       -13.4676
 230   2.0000      -0.493568       -13.4307
 231   2.0000      -0.483638       -13.1605
 232   2.0000      -0.481373       -13.0988
 233   2.0000      -0.477554       -12.9949
 234   2.0000      -0.475458       -12.9379
 235   2.0000      -0.469067       -12.7639
 236   2.0000      -0.465908       -12.6780
 237   2.0000      -0.463429       -12.6106
 238   2.0000      -0.461731       -12.5643
 239   2.0000      -0.457894       -12.4599
 240   2.0000      -0.457777       -12.4568
 241   2.0000      -0.457006       -12.4358
 242   2.0000      -0.456075       -12.4104
 243   2.0000      -0.454046       -12.3552
 244   2.0000      -0.452407       -12.3106
 245   2.0000      -0.450337       -12.2543
 246   2.0000      -0.446855       -12.1596
 247   2.0000      -0.445118       -12.1123
 248   2.0000      -0.441853       -12.0234
 249   2.0000      -0.440653       -11.9908
 250   2.0000      -0.438486       -11.9318
 251   2.0000      -0.436871       -11.8879
 252   2.0000      -0.435598       -11.8532
 253   2.0000      -0.432135       -11.7590
 254   2.0000      -0.430810       -11.7229
 255   2.0000      -0.422898       -11.5076
 256   2.0000      -0.422470       -11.4960
 257   2.0000      -0.418081       -11.3766
 258   2.0000      -0.410163       -11.1611
 259   2.0000      -0.401538       -10.9264
 260   2.0000      -0.399652       -10.8751
 261   2.0000      -0.397716       -10.8224
 262   2.0000      -0.396643       -10.7932
 263   2.0000      -0.393092       -10.6966
 264   2.0000      -0.390461       -10.6250
 265   2.0000      -0.387545       -10.5456
 266   2.0000      -0.382347       -10.4042
 267   2.0000      -0.381055       -10.3690
 268   2.0000      -0.372398       -10.1335
 269   2.0000      -0.370551       -10.0832
 270   2.0000      -0.366848        -9.9825
 271   2.0000      -0.365123        -9.9355
 272   2.0000      -0.363358        -9.8875
 273   2.0000      -0.362794        -9.8721
 274   2.0000      -0.353253        -9.6125
 275   2.0000      -0.347514        -9.4563
 276   2.0000      -0.346112        -9.4182
 277   2.0000      -0.342389        -9.3169
 278   2.0000      -0.333200        -9.0668
 279   2.0000      -0.327506        -8.9119
 280   2.0000      -0.326050        -8.8723
 281   2.0000      -0.322422        -8.7736
 282   2.0000      -0.314179        -8.5492
 283   2.0000      -0.311361        -8.4726
 284   2.0000      -0.304538        -8.2869
 285   2.0000      -0.301065        -8.1924
 286   2.0000      -0.296717        -8.0741
 287   2.0000      -0.295572        -8.0429
 288   2.0000      -0.285340        -7.7645
 289   0.0000      -0.134333        -3.6554
 290   0.0000      -0.125148        -3.4054
 291   0.0000      -0.109245        -2.9727
 292   0.0000      -0.102873        -2.7993
 293   0.0000      -0.084128        -2.2892

MULLIKEN ATOMIC CHARGES
-----------------------
   0 C :    0.307982
   1 C :   -0.340236
   2 C :   -0.183099
   3 N :    0.155966
   4 C :   -0.179778
   5 N :    0.152437
   6 C :    0.021387
   7 C :   -0.010063
   8 C :   -0.064809
   9 C :    0.116833
  10 C :   -0.089277
  11 C :   -0.021406
  12 S :    0.189834
  13 C :   -0.123872
  14 C :    0.041312
  15 Br:    0.029242
  16 C :    0.138855
  17 O :   -0.136393
  18 C :   -0.039132
  19 C :   -0.055348
  20 C :   -0.011959
  21 C :    0.072828
  22 N :   -0.022269
  23 C :    0.004017
  24 C :    0.045545
  25 C :    0.005125
  26 S :   -0.106177
  27 C :   -0.032495
  28 C :    0.020482
  29 N :   -0.016309
  30 C :    0.071709
  31 C :    0.007126
  32 C :   -0.132088
  33 C :    0.126177
  34 N :    0.228543
  35 O :   -0.225363
  36 O :   -0.223248
  37 C :   -0.086875
  38 C :    0.097490
  39 C :   -0.151896
  40 S :    0.264240
  41 C :    0.014319
  42 C :    0.047608
  43 N :   -0.013374
  44 C :   -0.005293
  45 C :   -0.032566
  46 C :   -0.012417
  47 S :   -0.087166
  48 C :    0.049928
  49 C :    0.038944
  50 N :   -0.010186
  51 C :    0.067248
  52 C :   -0.062694
  53 C :    0.027098
  54 C :   -0.117567
  55 C :    0.260802
  56 C :   -0.331153
  57 C :   -0.176238
  58 N :    0.164887
  59 C :   -0.192889
  60 N :    0.174520
  61 C :    0.006764
  62 C :   -0.003485
  63 C :    0.140767
  64 O :   -0.127364
  65 C :   -0.065730
  66 C :    0.111593
  67 C :   -0.088798
  68 C :   -0.018231
  69 S :    0.192870
  70 C :   -0.125615
  71 C :    0.043667
  72 Br:    0.033144
  73 H :   -0.008624
  74 H :   -0.004682
  75 H :   -0.001857
  76 H :    0.030726
  77 H :    0.016969
  78 H :    0.025476
  79 H :    0.049854
  80 H :    0.035677
  81 H :    0.046565
  82 H :    0.008849
  83 H :    0.022660
  84 H :    0.033396
  85 H :   -0.003083
  86 H :   -0.001587
  87 H :    0.001232
Sum of atomic charges:   -0.0000000

LOEWDIN ATOMIC CHARGES
----------------------
   0 C :    0.075673
   1 C :   -0.129776
   2 C :   -0.017817
   3 N :   -0.045307
   4 C :   -0.018659
   5 N :   -0.044676
   6 C :   -0.018945
   7 C :   -0.048031
   8 C :    0.024366
   9 C :   -0.029876
  10 C :   -0.142063
  11 C :   -0.008191
  12 S :    0.434901
  13 C :   -0.269693
  14 C :   -0.069964
  15 Br:    0.141348
  16 C :    0.074926
  17 O :   -0.134163
  18 C :   -0.058388
  19 C :    0.053796
  20 C :   -0.045116
  21 C :    0.095629
  22 N :   -0.075119
  23 C :    0.038721
  24 C :    0.002222
  25 C :   -0.139286
  26 S :    0.091147
  27 C :   -0.026536
  28 C :    0.049071
  29 N :   -0.069502
  30 C :    0.100701
  31 C :   -0.055047
  32 C :   -0.159310
  33 C :   -0.066433
  34 N :    0.280810
  35 O :   -0.189130
  36 O :   -0.187539
  37 C :   -0.029141
  38 C :   -0.054660
  39 C :   -0.182048
  40 S :    0.556350
  41 C :   -0.049649
  42 C :    0.089693
  43 N :   -0.069639
  44 C :    0.046473
  45 C :   -0.042842
  46 C :   -0.147736
  47 S :    0.083240
  48 C :    0.000906
  49 C :    0.043382
  50 N :   -0.070425
  51 C :    0.091887
  52 C :   -0.053946
  53 C :    0.070757
  54 C :   -0.071182
  55 C :    0.064690
  56 C :   -0.130334
  57 C :   -0.019783
  58 N :   -0.039361
  59 C :   -0.020905
  60 N :   -0.037366
  61 C :   -0.020841
  62 C :   -0.053603
  63 C :    0.084252
  64 O :   -0.127030
  65 C :    0.026810
  66 C :   -0.030271
  67 C :   -0.142158
  68 C :   -0.009739
  69 S :    0.438061
  70 C :   -0.269190
  71 C :   -0.068934
  72 Br:    0.144093
  73 H :    0.041978
  74 H :    0.041579
  75 H :    0.039630
  76 H :    0.048443
  77 H :    0.030343
  78 H :    0.027633
  79 H :    0.039882
  80 H :    0.040613
  81 H :    0.041802
  82 H :    0.027490
  83 H :    0.027431
  84 H :    0.052185
  85 H :    0.043974
  86 H :    0.041824
  87 H :    0.040637

  Mayer bond orders larger than 0.100000
B(  0-C ,  1-C ) :   1.6489 B(  0-C ,  6-C ) :   1.0173 B(  0-C , 18-C ) :   1.0490
B(  1-C ,  2-C ) :   1.1362 B(  1-C ,  4-C ) :   1.1423 B(  2-C ,  3-N ) :   2.9727
B(  4-C ,  5-N ) :   2.9640 B(  6-C ,  7-C ) :   1.2716 B(  6-C , 11-C ) :   1.3960
B(  7-C ,  8-C ) :   1.4214 B(  7-C , 16-C ) :   0.9356 B(  8-C ,  9-C ) :   1.2511
B(  8-C , 73-H ) :   1.0161 B(  9-C , 10-C ) :   1.2958 B(  9-C , 14-C ) :   1.1638
B( 10-C , 11-C ) :   1.3416 B( 10-C , 12-S ) :   1.0871 B( 11-C , 74-H ) :   0.9792
B( 12-S , 13-C ) :   1.0862 B( 13-C , 14-C ) :   1.6172 B( 13-C , 15-Br) :   1.0221
B( 14-C , 75-H ) :   1.0001 B( 16-C , 17-O ) :   2.2480 B( 16-C , 18-C ) :   0.9048
B( 18-C , 19-C ) :   1.7222 B( 19-C , 20-C ) :   1.0531 B( 19-C , 76-H ) :   0.9289
B( 20-C , 21-C ) :   1.0201 B( 20-C , 24-C ) :   1.5619 B( 21-C , 22-N ) :   1.7175
B( 21-C , 77-H ) :   0.9944 B( 22-N , 23-C ) :   1.2692 B( 23-C , 24-C ) :   1.0697
B( 23-C , 28-C ) :   1.5256 B( 24-C , 25-C ) :   1.0276 B( 25-C , 26-S ) :   1.6873
B( 25-C , 27-C ) :   1.0331 B( 27-C , 28-C ) :   1.0615 B( 27-C , 31-C ) :   1.5605
B( 28-C , 29-N ) :   1.2680 B( 29-N , 30-C ) :   1.7421 B( 30-C , 31-C ) :   1.0041
B( 30-C , 78-H ) :   0.9884 B( 31-C , 32-C ) :   1.1096 B( 32-C , 33-C ) :   1.4049
B( 32-C , 39-C ) :   0.1082 B( 32-C , 40-S ) :   1.2025 B( 33-C , 34-N ) :   0.8904
B( 33-C , 37-C ) :   1.3460 B( 34-N , 35-O ) :   1.5239 B( 34-N , 36-O ) :   1.5180
B( 35-O , 36-O ) :   0.2697 B( 37-C , 38-C ) :   1.1094 B( 37-C , 39-C ) :   1.4555
B( 38-C , 79-H ) :   0.9245 B( 38-C , 80-H ) :   0.9342 B( 38-C , 81-H ) :   0.9325
B( 39-C , 40-S ) :   1.1256 B( 39-C , 41-C ) :   1.1158 B( 41-C , 42-C ) :   1.0232
B( 41-C , 45-C ) :   1.5269 B( 42-C , 43-N ) :   1.7265 B( 42-C , 82-H ) :   0.9906
B( 43-N , 44-C ) :   1.2688 B( 44-C , 45-C ) :   1.0721 B( 44-C , 49-C ) :   1.5148
B( 45-C , 46-C ) :   1.0325 B( 46-C , 47-S ) :   1.7022 B( 46-C , 48-C ) :   1.0202
B( 48-C , 49-C ) :   1.0685 B( 48-C , 52-C ) :   1.5622 B( 49-C , 50-N ) :   1.2589
B( 50-N , 51-C ) :   1.7433 B( 51-C , 52-C ) :   1.0002 B( 51-C , 83-H ) :   0.9874
B( 52-C , 53-C ) :   1.0344 B( 53-C , 54-C ) :   1.7070 B( 53-C , 84-H ) :   0.9510
B( 54-C , 55-C ) :   1.0201 B( 54-C , 63-C ) :   0.9211 B( 55-C , 56-C ) :   1.6565
B( 55-C , 61-C ) :   1.0237 B( 56-C , 57-C ) :   1.1301 B( 56-C , 59-C ) :   1.1526
B( 57-C , 58-N ) :   2.9900 B( 59-C , 60-N ) :   3.0054 B( 61-C , 62-C ) :   1.2698
B( 61-C , 68-C ) :   1.4096 B( 62-C , 63-C ) :   0.9228 B( 62-C , 65-C ) :   1.4216
B( 63-C , 64-O ) :   2.2847 B( 65-C , 66-C ) :   1.2549 B( 65-C , 85-H ) :   1.0159
B( 66-C , 67-C ) :   1.2991 B( 66-C , 71-C ) :   1.1680 B( 67-C , 68-C ) :   1.3311
B( 67-C , 69-S ) :   1.0885 B( 68-C , 86-H ) :   0.9835 B( 69-S , 70-C ) :   1.0881
B( 70-C , 71-C ) :   1.6153 B( 70-C , 72-Br) :   1.0245 B( 71-C , 87-H ) :   0.9996

-----------------------------------------------------------------------------
         ABSORPTION SPECTRUM VIA TRANSITION ELECTRIC DIPOLE MOMENTS
-----------------------------------------------------------------------------
State   Energy  Wavelength   fosc         T2         TX        TY        TZ
        (cm-1)    (nm)                  (au**2)     (au)      (au)      (au)
-----------------------------------------------------------------------------
   0   14191.3    704.7   0.001658125   0.03847  -0.18478   0.02737   0.05978
   1   15204.3    657.7   0.020942983   0.45347  -0.60445  -0.09170   0.28230
   2   15729.8    635.7   0.191300059   4.00376  -1.99773   0.08035  -0.07989
   3   16295.4    613.7   0.000767877   0.01551  -0.11655   0.03613   0.02496
   4   16549.3    604.3   0.000615339   0.01224  -0.09910   0.01526  -0.04677
   5   17664.1    566.1   0.064985353   1.21115   0.62231   0.38748  -0.82082
   6   19958.8    501.0   0.036979283   0.60996  -0.48196   0.22520  -0.57180
   7   20143.8    496.4   0.026915572   0.43988   0.28470   0.56117  -0.20957
   8   21589.4    463.2   0.311136913   4.74446  -1.97407  -0.29714   0.87134
   9   21797.6    458.8   0.004788009   0.07231   0.25821   0.04444   0.06057
  10   21926.4    456.1   0.007074161   0.10621   0.28416   0.05280  -0.15059
  11   22585.9    442.8   0.044785356   0.65279   0.26040  -0.54513   0.53649
  12   22953.2    435.7   0.033108165   0.47486  -0.67771   0.09380   0.08226
  13   23159.3    431.8   0.119852709   1.70372   0.20588  -0.25289   1.26387
  14   23445.3    426.5   0.066976201   0.94046  -0.15681   0.77327  -0.56386
  15   23996.1    416.7   0.009741993   0.13365  -0.15534   0.26254   0.20149
  16   24110.6    414.8   0.021922502   0.29934   0.16877   0.50508   0.12548
  17   24590.1    406.7   0.147633313   1.97651  -0.95302   0.54081  -0.88079
  18   24773.6    403.7   0.050453916   0.67047   0.66051   0.08696   0.47606
  19   25102.0    398.4   0.054152296   0.71021  -0.77129   0.23381  -0.24629
  20   25177.5    397.2   0.012216691   0.15974   0.15282   0.24411   0.27712
  21   25410.0    393.5   0.033062072   0.42835  -0.39924   0.29752   0.42478
  22   25588.1    390.8   0.396680266   5.10362  -1.94841  -0.23374  -1.11923
  23   26190.5    381.8   0.153979713   1.93551  -1.20709  -0.08172  -0.68684
  24   26317.2    380.0   0.018439280   0.23066   0.41868   0.14330  -0.18664
  25   26793.8    373.2   0.031132940   0.38253   0.07944  -0.49780   0.35835
  26   27107.3    368.9   0.006837790   0.08304   0.09503   0.23538  -0.13642
  27   27373.8    365.3   0.066487800   0.79962  -0.27039  -0.83521  -0.17009
  28   27550.4    363.0   0.046438883   0.55492  -0.06618  -0.71270   0.20638
  29   27615.2    362.1   0.239962940   2.86069  -0.86333   1.02386  -1.03300
  30   27864.8    358.9   0.084095174   0.99355   0.50917  -0.63587   0.57443
  31   28349.1    352.7   0.099988452   1.16115   0.51427  -0.83057   0.45479
  32   28452.2    351.5   0.015446293   0.17872   0.03150  -0.23347  -0.35103
  33   28531.9    350.5   0.204756994   2.36257   1.00700  -0.40546   1.08817
  34   28726.9    348.1   0.029784238   0.34133   0.30772   0.24365  -0.43275
  35   28987.0    345.0   0.023344431   0.26513  -0.46204   0.03922  -0.22384
  36   29431.4    339.8   0.011821422   0.13223  -0.09999   0.22987   0.26343
  37   29516.4    338.8   0.006772017   0.07553   0.03999  -0.08186   0.25929
  38   29601.6    337.8   0.012984552   0.14441  -0.04918   0.09203   0.36540
  39   29764.2    336.0   0.020383160   0.22545  -0.28628   0.36347   0.10669
  40   29888.2    334.6   0.296694155   3.26802   0.92970  -0.98763   1.19510
  41   30291.5    330.1   0.113313578   1.23151   0.43251   0.24867   0.99126
  42   30585.8    326.9   0.044423776   0.47816  -0.28203   0.61138  -0.15758
  43   30919.5    323.4   0.195472053   2.08127   0.61414  -0.40706   1.24032
  44   30972.0    322.9   0.057193612   0.60793   0.31759  -0.55062  -0.45154
  45   31047.2    322.1   0.028439311   0.30156  -0.50730   0.15908  -0.13748
  46   31079.6    321.8   0.221222161   2.34331   0.46786  -1.08838  -0.96945
  47   31180.8    320.7   0.065452409   0.69106   0.14685  -0.73583  -0.35783
  48   31198.7    320.5   0.053325064   0.56269   0.15180   0.10291   0.72736
  49   31351.1    319.0   0.079617212   0.83605   0.16694   0.20118  -0.87619
  50   31623.0    316.2   0.020932782   0.21792   0.11366  -0.08474  -0.44477
  51   31771.3    314.7   0.118550377   1.22841  -0.53066   0.36899  -0.90036
  52   32088.4    311.6   0.013331242   0.13677   0.24261  -0.27810  -0.02401
  53   32206.9    310.5   0.112522986   1.15018  -0.78323   0.47414  -0.55851
  54   32356.4    309.1   0.014970342   0.15232   0.18513  -0.33763   0.06362
  55   32473.9    307.9   0.168035742   1.70350   0.02109  -0.42238  -1.23477
  56   32556.4    307.2   0.007784024   0.07871  -0.16750   0.07884   0.21081
  57   32895.0    304.0   0.115458930   1.15551  -0.68595  -0.04436   0.82645
  58   32990.2    303.1   0.067452541   0.67311  -0.30987   0.74563  -0.14536
  59   33263.7    300.6   0.178190973   1.76356  -0.73693   0.86783  -0.68364
  60   33459.7    298.9   0.037452235   0.36850   0.19314   0.53674  -0.20762
  61   33572.6    297.9   0.005281941   0.05179   0.16753  -0.03131   0.15083
  62   33654.5    297.1   0.041852839   0.40941  -0.33166   0.36884  -0.40419
  63   33724.5    296.5   0.040588099   0.39621   0.22948  -0.00441  -0.58611
  64   33811.6    295.8   0.084774528   0.82542   0.54269  -0.43857   0.58187
  65   33946.4    294.6   0.088430743   0.85760  -0.48442   0.72529  -0.31128
  66   34026.7    293.9   0.090563037   0.87621   0.88576  -0.29442  -0.07037
  67   34203.8    292.4   0.091981631   0.88532   0.11324  -0.28869   0.88834
  68   34336.3    291.2   0.180543543   1.73103  -0.61841   0.45513  -1.06839
  69   34549.2    289.4   0.055044342   0.52451  -0.61371   0.26603  -0.27766
  70   34603.4    289.0   0.004773302   0.04541   0.11612   0.02848   0.17640
  71   34820.0    287.2   0.010847906   0.10256  -0.01059   0.09873   0.30447
  72   34861.4    286.9   0.026667379   0.25183   0.35793   0.07616   0.34340
  73   34906.2    286.5   0.018976432   0.17897   0.40536  -0.12095  -0.00492
  74   35045.6    285.3   0.010499538   0.09863   0.13777  -0.02189   0.28137
  75   35257.4    283.6   0.005871610   0.05483  -0.17200   0.01531   0.15813
  76   35444.1    282.1   0.042950161   0.39893  -0.32965   0.37220   0.38953
  77   35476.3    281.9   0.013746824   0.12757  -0.22228   0.19839   0.19698
  78   35563.3    281.2   0.036284260   0.33589   0.28828   0.04237   0.50099
  79   35630.9    280.7   0.009700912   0.08963   0.24448   0.14608  -0.09233
  80   35678.9    280.3   0.004896463   0.04518  -0.02254  -0.20977   0.02583
  81   35855.8    278.9   0.031102534   0.28557   0.23473  -0.11263   0.46668
  82   35937.4    278.3   0.099769864   0.91396  -0.34476   0.46743  -0.75935
  83   36313.5    275.4   0.083616804   0.75806  -0.38753  -0.32101   0.71051
  84   36462.2    274.3   0.002839632   0.02564   0.02126   0.15868  -0.00252
  85   36740.5    272.2   0.331569563   2.97102  -0.38487   0.05190  -1.67935
  86   36846.7    271.4   0.031340934   0.28002  -0.51531   0.03926   0.11371
  87   37081.0    269.7   0.058844841   0.52243   0.36012  -0.55195   0.29681
  88   37123.5    269.4   0.032058704   0.28430   0.24126  -0.39212   0.26895
  89   37163.9    269.1   0.005696154   0.05046  -0.08438   0.20196  -0.05051
  90   37347.8    267.8   0.054702945   0.48219  -0.16324   0.19021  -0.64759
  91   38066.8    262.7   0.022405226   0.19377  -0.27447  -0.34404   0.00803
  92   38089.2    262.5   0.018152376   0.15689  -0.15757  -0.16828   0.32210
  93   38418.5    260.3   0.043546336   0.37315   0.48471   0.37158  -0.01146
  94   38426.2    260.2   0.033358968   0.28580  -0.07676   0.31559  -0.42463
  95   38533.3    259.5   0.109951174   0.93938  -0.52084   0.56835   0.58744
  96   38615.0    259.0   0.034883671   0.29740   0.47450  -0.06425  -0.26101
  97   38711.6    258.3   0.079493152   0.67603  -0.22736  -0.41048   0.67516
  98   38832.2    257.5   0.073786625   0.62555   0.59005  -0.27955  -0.44637
  99   38910.1    257.0   0.012848659   0.10871  -0.17860   0.00550   0.27709
 100   39094.0    255.8   0.074589740   0.62812   0.13173  -0.28921  -0.72604
 101   39258.7    254.7   0.013952635   0.11700   0.08155   0.20658  -0.26015
 102   39474.0    253.3   0.011246846   0.09380  -0.04313   0.24449   0.17934
 103   39600.4    252.5   0.050111444   0.41659   0.00009  -0.10347   0.63709
 104   39836.0    251.0   0.000087171   0.00072   0.01532   0.01778   0.01302
 105   39877.4    250.8   0.002987464   0.02466  -0.07780  -0.03973   0.13050
 106   39977.1    250.1   0.007586144   0.06247  -0.07701   0.22321  -0.08197
 107   40089.3    249.4   0.069978400   0.57466   0.29725   0.01424   0.69721
 108   40228.7    248.6   0.043660136   0.35729   0.39728   0.28996  -0.33968

FINAL SINGLE POINT ENERGY     -9956.711451853245

DIPOLE MOMENT
-------------
                                X             Y             Z
Electronic contribution:    -99.24109      84.59495     -50.56975
Nuclear contribution   :     97.61245     -82.54539      50.91347
                        -----------------------------------------
Total Dipole Moment    :     -1.62864       2.04956       0.34372
                        -----------------------------------------
Magnitude (a.u.)       :      2.64032
Magnitude (Debye)      :      6.71116

Rotational constants in cm-1:     0.000738     0.000356     0.000309
Rotational constants in MHz :    22.130049    10.684684     9.263410

                             ****ORCA TERMINATED NORMALLY****
TOTAL RUN TIME: 0 days 0 hours 19 minutes 42 seconds 766 msec
