                         Program Version 4.2.0 -  RELEASE  -
|  1> # ORCA input file
|  2> # SCF done       -194.010512981454          0.000752158783
|  3> ! CAM-B3LYP def2-SVP def2/J RIJCOSX Grid4 TightSCF
|  4> %maxcore 5000
|  5> %tddft
|  6>     Mode sTDDFT
|  7>     Ethresh 5.0
|  8>     maxcore 5000
|  9> end
| 10>
| 11> %pal
| 12>   nprocs 6
| 13>   end
| 14> * xyz 0 1
| 15>    C       -6.24544        -1.32189         1.03765
| 16>    C       -5.48997        -2.25293         0.37572
| 17>    C       -5.63147        -3.64671         0.54233
| 18>    N       -5.70258        -4.78801         0.64022
| 19>    C       -4.44236        -1.94954        -0.52040
| 20>    N       -3.56394        -1.78377        -1.24068
| 21>    C       -7.24741        -1.60142         2.05803
| 22>    C       -7.68540        -0.37292         2.61188
| 23>    C       -8.62404        -0.30540         3.61242
| 24>    C       -9.15479        -1.50764         4.09196
| 25>    C       -8.71497        -2.72960         3.52915
| 26>    C       -7.76684        -2.79785         2.51563
| 27>    S       -9.50286        -4.09212         4.26472
| 28>    C      -10.39695        -3.01755         5.30650
| 29>    C      -10.12276        -1.70514         5.11394
| 30>   Br      -11.60742        -3.72785         6.55000
| 31>    C       -6.98769         0.74236         1.94770
| 32>    O       -7.14508         1.92714         2.16544
| 33>    C       -6.11974         0.12002         0.92478
| 34>    C       -5.48484         0.78575        -0.08494
| 35>    C       -5.26384         2.17793        -0.20993
| 36>    C       -5.00297         3.15407         0.74531
| 37>    C       -4.91938         4.45376         0.19511
| 38>    S       -4.92555         5.94674         1.10384
| 39>    C       -4.36221         5.42148         2.75886
| 40>    C       -5.09876         4.20544         3.26334
| 41>    S       -4.56900         2.70731         2.37519
| 42>    C       -5.05772         4.46136        -1.19365
| 43>    S       -5.36583         2.86624        -1.80860
| 44>    C       -4.94301         5.54557        -2.11329
| 45>    C       -5.56732         5.47761        -3.38151
| 46>    C       -5.51594         6.56192        -4.32728
| 47>    N       -6.08565         6.41918        -5.52673
| 48>    C       -6.71267         5.30942        -5.83291
| 49>    C       -6.80195         4.24787        -4.87546
| 50>    N       -6.23120         4.36088        -3.70218
| 51>    C       -7.50650         3.05747        -5.18628
| 52>    N       -8.08488         2.10860        -5.46240
| 53>    C       -7.29539         5.16923        -7.11663
| 54>    N       -7.78307         5.02000        -8.14195
| 55>    C       -4.86102         7.78531        -4.04616
| 56>    C       -4.10424         7.78443        -2.85590
| 57>    C       -4.13287         6.68618        -1.91536
| 58>    N       -3.24644         6.86331        -0.93598
| 59>    S       -2.47338         8.24749        -1.15514
| 60>    N       -3.20498         8.70306        -2.50707
| 61>    C       -4.91914         8.86242        -4.97003
| 62>    C       -4.60727        10.21088        -4.78131
| 63>    C       -4.75312        10.98240        -5.95499
| 64>    S       -4.19332        12.62169        -6.19205
| 65>    C       -4.12802        13.33814        -4.50682
| 66>    C       -4.98045        12.56263        -3.53777
| 67>    S       -4.24230        10.91635        -3.22665
| 68>    C       -5.22096        10.23911        -7.03942
| 69>    S       -5.45088         8.56332        -6.59226
| 70>    C       -5.48671        10.55976        -8.38478
| 71>    C       -5.77108        11.72103        -9.04899
| 72>    C       -6.15880        13.04352        -8.64616
| 73>    C       -6.74769        13.39219        -7.45320
| 74>    C       -7.05576        14.71224        -7.07146
| 75>    N       -7.28396        15.76482        -6.67283
| 76>    C       -7.17204        12.46084        -6.49001
| 77>    N       -7.53996        11.74439        -5.67016
| 78>    C       -5.97889        13.93051        -9.79016
| 79>    C       -5.67184        13.14599       -10.92990
| 80>    C       -5.60224        11.72594       -10.53316
| 81>    O       -5.41007        10.76568       -11.24062
| 82>    C       -5.47523        13.69544       -12.17275
| 83>    C       -5.57527        15.08619       -12.29443
| 84>    C       -5.87420        15.86095       -11.14862
| 85>    C       -6.08382        15.30375        -9.89242
| 86>    S       -5.94210        17.55569       -11.52325
| 87>    C       -5.57590        17.20617       -13.19215
| 88>    C       -5.41021        15.88850       -13.45661
| 89>   Br       -5.44483        18.61377       -14.42418
| 90>    H       -8.93817         0.64436         4.01615
| 91>    H       -7.46754        -3.75214         2.11551
| 92>    H      -10.58405        -0.90860         5.66868
| 93>    H       -5.18951         0.21369        -0.95732
| 94>    H       -4.55708         6.28805         3.39132
| 95>    H       -3.28772         5.24257         2.70981
| 96>    H       -6.17772         4.29164         3.13927
| 97>    H       -4.86244         4.01407         4.30985
| 98>    H       -4.48924        14.36063        -4.62892
| 99>    H       -3.08517        13.35539        -4.18820
|100>    H       -5.99981        12.42841        -3.90094
|101>    H       -4.99721        13.05658        -2.56732
|102>    H       -5.42799         9.69992        -9.05021
|103>    H       -5.25085        13.07416       -13.02546
|104>    H       -6.30677        15.93420        -9.04751
|105>    H       -5.18023        15.49635       -14.43039
|106> *
|107>
|108>                          ****END OF INPUT****

CARTESIAN COORDINATES (ANGSTROEM)
---------------------------------
  C     -6.245440   -1.321890    1.037650
  C     -5.489970   -2.252930    0.375720
  C     -5.631470   -3.646710    0.542330
  N     -5.702580   -4.788010    0.640220
  C     -4.442360   -1.949540   -0.520400
  N     -3.563940   -1.783770   -1.240680
  C     -7.247410   -1.601420    2.058030
  C     -7.685400   -0.372920    2.611880
  C     -8.624040   -0.305400    3.612420
  C     -9.154790   -1.507640    4.091960
  C     -8.714970   -2.729600    3.529150
  C     -7.766840   -2.797850    2.515630
  S     -9.502860   -4.092120    4.264720
  C    -10.396950   -3.017550    5.306500
  C    -10.122760   -1.705140    5.113940
  Br   -11.607420   -3.727850    6.550000
  C     -6.987690    0.742360    1.947700
  O     -7.145080    1.927140    2.165440
  C     -6.119740    0.120020    0.924780
  C     -5.484840    0.785750   -0.084940
  C     -5.263840    2.177930   -0.209930
  C     -5.002970    3.154070    0.745310
  C     -4.919380    4.453760    0.195110
  S     -4.925550    5.946740    1.103840
  C     -4.362210    5.421480    2.758860
  C     -5.098760    4.205440    3.263340
  S     -4.569000    2.707310    2.375190
  C     -5.057720    4.461360   -1.193650
  S     -5.365830    2.866240   -1.808600
  C     -4.943010    5.545570   -2.113290
  C     -5.567320    5.477610   -3.381510
  C     -5.515940    6.561920   -4.327280
  N     -6.085650    6.419180   -5.526730
  C     -6.712670    5.309420   -5.832910
  C     -6.801950    4.247870   -4.875460
  N     -6.231200    4.360880   -3.702180
  C     -7.506500    3.057470   -5.186280
  N     -8.084880    2.108600   -5.462400
  C     -7.295390    5.169230   -7.116630
  N     -7.783070    5.020000   -8.141950
  C     -4.861020    7.785310   -4.046160
  C     -4.104240    7.784430   -2.855900
  C     -4.132870    6.686180   -1.915360
  N     -3.246440    6.863310   -0.935980
  S     -2.473380    8.247490   -1.155140
  N     -3.204980    8.703060   -2.507070
  C     -4.919140    8.862420   -4.970030
  C     -4.607270   10.210880   -4.781310
  C     -4.753120   10.982400   -5.954990
  S     -4.193320   12.621690   -6.192050
  C     -4.128020   13.338140   -4.506820
  C     -4.980450   12.562630   -3.537770
  S     -4.242300   10.916350   -3.226650
  C     -5.220960   10.239110   -7.039420
  S     -5.450880    8.563320   -6.592260
  C     -5.486710   10.559760   -8.384780
  C     -5.771080   11.721030   -9.048990
  C     -6.158800   13.043520   -8.646160
  C     -6.747690   13.392190   -7.453200
  C     -7.055760   14.712240   -7.071460
  N     -7.283960   15.764820   -6.672830
  C     -7.172040   12.460840   -6.490010
  N     -7.539960   11.744390   -5.670160
  C     -5.978890   13.930510   -9.790160
  C     -5.671840   13.145990  -10.929900
  C     -5.602240   11.725940  -10.533160
  O     -5.410070   10.765680  -11.240620
  C     -5.475230   13.695440  -12.172750
  C     -5.575270   15.086190  -12.294430
  C     -5.874200   15.860950  -11.148620
  C     -6.083820   15.303750   -9.892420
  S     -5.942100   17.555690  -11.523250
  C     -5.575900   17.206170  -13.192150
  C     -5.410210   15.888500  -13.456610
  Br    -5.444830   18.613770  -14.424180
  H     -8.938170    0.644360    4.016150
  H     -7.467540   -3.752140    2.115510
  H    -10.584050   -0.908600    5.668680
  H     -5.189510    0.213690   -0.957320
  H     -4.557080    6.288050    3.391320
  H     -3.287720    5.242570    2.709810
  H     -6.177720    4.291640    3.139270
  H     -4.862440    4.014070    4.309850
  H     -4.489240   14.360630   -4.628920
  H     -3.085170   13.355390   -4.188200
  H     -5.999810   12.428410   -3.900940
  H     -4.997210   13.056580   -2.567320
  H     -5.427990    9.699920   -9.050210
  H     -5.250850   13.074160  -13.025460
  H     -6.306770   15.934200   -9.047510
  H     -5.180230   15.496350  -14.430390

 Total Charge           Charge          ....    0
 Multiplicity           Mult            ....    1
 Number of Electrons    NEL             ....  628
 Basis Dimension        Dim             .... 1202

ORBITAL ENERGIES
----------------

  NO   OCC          E(Eh)            E(eV)
   0   2.0000    -482.886020    -13139.9966
   1   2.0000    -482.884657    -13139.9595
   2   2.0000     -89.055250     -2423.3165
   3   2.0000     -88.975836     -2421.1556
   4   2.0000     -88.974582     -2421.1215
   5   2.0000     -88.966956     -2420.9139
   6   2.0000     -88.965984     -2420.8875
   7   2.0000     -88.951855     -2420.5030
   8   2.0000     -88.943129     -2420.2656
   9   2.0000     -88.939380     -2420.1636
  10   2.0000     -88.936809     -2420.0936
  11   2.0000     -62.563741     -1702.4459
  12   2.0000     -62.562350     -1702.4081
  13   2.0000     -56.397692     -1534.6592
  14   2.0000     -56.396297     -1534.6213
  15   2.0000     -56.394973     -1534.5852
  16   2.0000     -56.394943     -1534.5844
  17   2.0000     -56.393589     -1534.5476
  18   2.0000     -56.393553     -1534.5466
  19   2.0000     -19.216627      -522.9110
  20   2.0000     -19.215614      -522.8834
  21   2.0000     -14.475376      -393.8950
  22   2.0000     -14.473088      -393.8327
  23   2.0000     -14.462811      -393.5531
  24   2.0000     -14.458086      -393.4245
  25   2.0000     -14.436505      -392.8373
  26   2.0000     -14.436435      -392.8354
  27   2.0000     -14.420065      -392.3899
  28   2.0000     -14.417929      -392.3318
  29   2.0000     -14.415324      -392.2609
  30   2.0000     -14.414408      -392.2360
  31   2.0000     -10.393510      -282.8218
  32   2.0000     -10.393277      -282.8154
  33   2.0000     -10.364934      -282.0442
  34   2.0000     -10.364113      -282.0218
  35   2.0000     -10.360245      -281.9166
  36   2.0000     -10.359914      -281.9076
  37   2.0000     -10.359308      -281.8911
  38   2.0000     -10.357204      -281.8338
  39   2.0000     -10.355371      -281.7840
  40   2.0000     -10.352630      -281.7094
  41   2.0000     -10.344143      -281.4785
  42   2.0000     -10.343156      -281.4516
  43   2.0000     -10.340577      -281.3814
  44   2.0000     -10.335462      -281.2422
  45   2.0000     -10.334250      -281.2093
  46   2.0000     -10.331484      -281.1340
  47   2.0000     -10.331407      -281.1319
  48   2.0000     -10.331091      -281.1233
  49   2.0000     -10.329493      -281.0798
  50   2.0000     -10.329416      -281.0777
  51   2.0000     -10.328512      -281.0531
  52   2.0000     -10.327117      -281.0151
  53   2.0000     -10.325320      -280.9662
  54   2.0000     -10.324772      -280.9513
  55   2.0000     -10.324638      -280.9477
  56   2.0000     -10.322889      -280.9001
  57   2.0000     -10.322840      -280.8988
  58   2.0000     -10.322064      -280.8776
  59   2.0000     -10.321008      -280.8489
  60   2.0000     -10.318657      -280.7849
  61   2.0000     -10.318061      -280.7687
  62   2.0000     -10.317858      -280.7632
  63   2.0000     -10.317467      -280.7526
  64   2.0000     -10.316972      -280.7391
  65   2.0000     -10.315946      -280.7112
  66   2.0000     -10.314854      -280.6814
  67   2.0000     -10.312026      -280.6045
  68   2.0000     -10.307761      -280.4884
  69   2.0000     -10.307629      -280.4848
  70   2.0000     -10.307114      -280.4708
  71   2.0000     -10.306990      -280.4675
  72   2.0000     -10.305618      -280.4301
  73   2.0000     -10.305270      -280.4207
  74   2.0000     -10.303703      -280.3780
  75   2.0000     -10.300972      -280.3037
  76   2.0000     -10.300748      -280.2976
  77   2.0000     -10.300315      -280.2858
  78   2.0000     -10.298783      -280.2441
  79   2.0000     -10.296992      -280.1954
  80   2.0000     -10.295447      -280.1534
  81   2.0000     -10.292307      -280.0679
  82   2.0000     -10.290546      -280.0200
  83   2.0000      -8.793169      -239.2743
  84   2.0000      -8.791773      -239.2363
  85   2.0000      -8.146416      -221.6752
  86   2.0000      -8.071741      -219.6432
  87   2.0000      -8.070600      -219.6122
  88   2.0000      -8.060955      -219.3497
  89   2.0000      -8.060494      -219.3372
  90   2.0000      -8.046686      -218.9615
  91   2.0000      -8.037463      -218.7105
  92   2.0000      -8.035042      -218.6446
  93   2.0000      -8.032050      -218.5632
  94   2.0000      -6.629485      -180.3975
  95   2.0000      -6.628040      -180.3581
  96   2.0000      -6.614914      -180.0010
  97   2.0000      -6.614686      -179.9947
  98   2.0000      -6.613510      -179.9628
  99   2.0000      -6.613336      -179.9580
 100   2.0000      -6.117444      -166.4641
 101   2.0000      -6.109611      -166.2510
 102   2.0000      -6.109392      -166.2450
 103   2.0000      -6.041428      -164.3956
 104   2.0000      -6.040267      -164.3640
 105   2.0000      -6.037154      -164.2793
 106   2.0000      -6.036035      -164.2489
 107   2.0000      -6.032997      -164.1662
 108   2.0000      -6.031825      -164.1343
 109   2.0000      -6.030627      -164.1017
 110   2.0000      -6.030070      -164.0865
 111   2.0000      -6.026103      -163.9786
 112   2.0000      -6.025669      -163.9668
 113   2.0000      -6.022558      -163.8821
 114   2.0000      -6.022184      -163.8720
 115   2.0000      -6.017007      -163.7311
 116   2.0000      -6.012599      -163.6111
 117   2.0000      -6.007785      -163.4801
 118   2.0000      -6.006879      -163.4555
 119   2.0000      -6.005533      -163.4189
 120   2.0000      -6.003808      -163.3719
 121   2.0000      -6.002467      -163.3354
 122   2.0000      -6.001270      -163.3029
 123   2.0000      -5.998529      -163.2283
 124   2.0000      -5.997117      -163.1898
 125   2.0000      -5.994574      -163.1207
 126   2.0000      -5.991538      -163.0380
 127   2.0000      -2.745344       -74.7046
 128   2.0000      -2.743956       -74.6668
 129   2.0000      -2.741244       -74.5930
 130   2.0000      -2.741129       -74.5899
 131   2.0000      -2.739812       -74.5541
 132   2.0000      -2.739696       -74.5509
 133   2.0000      -2.729534       -74.2744
 134   2.0000      -2.729512       -74.2738
 135   2.0000      -2.728137       -74.2364
 136   2.0000      -2.728127       -74.2361
 137   2.0000      -1.152626       -31.3646
 138   2.0000      -1.135356       -30.8946
 139   2.0000      -1.131032       -30.7769
 140   2.0000      -1.129964       -30.7479
 141   2.0000      -1.063446       -28.9378
 142   2.0000      -1.025980       -27.9183
 143   2.0000      -1.023296       -27.8453
 144   2.0000      -1.022810       -27.8321
 145   2.0000      -1.018770       -27.7221
 146   2.0000      -1.015257       -27.6266
 147   2.0000      -1.013415       -27.5764
 148   2.0000      -1.012352       -27.5475
 149   2.0000      -1.009749       -27.4767
 150   2.0000      -1.001753       -27.2591
 151   2.0000      -0.997218       -27.1357
 152   2.0000      -0.993461       -27.0335
 153   2.0000      -0.989752       -26.9325
 154   2.0000      -0.989184       -26.9171
 155   2.0000      -0.984719       -26.7956
 156   2.0000      -0.946422       -25.7534
 157   2.0000      -0.945100       -25.7175
 158   2.0000      -0.942845       -25.6561
 159   2.0000      -0.939937       -25.5770
 160   2.0000      -0.923922       -25.1412
 161   2.0000      -0.920299       -25.0426
 162   2.0000      -0.909537       -24.7498
 163   2.0000      -0.908616       -24.7247
 164   2.0000      -0.908418       -24.7193
 165   2.0000      -0.893285       -24.3075
 166   2.0000      -0.886963       -24.1355
 167   2.0000      -0.885960       -24.1082
 168   2.0000      -0.884502       -24.0685
 169   2.0000      -0.881591       -23.9893
 170   2.0000      -0.862479       -23.4693
 171   2.0000      -0.861753       -23.4495
 172   2.0000      -0.859242       -23.3812
 173   2.0000      -0.850892       -23.1539
 174   2.0000      -0.844248       -22.9732
 175   2.0000      -0.829491       -22.5716
 176   2.0000      -0.828380       -22.5414
 177   2.0000      -0.820275       -22.3208
 178   2.0000      -0.819201       -22.2916
 179   2.0000      -0.798178       -21.7195
 180   2.0000      -0.779096       -21.2003
 181   2.0000      -0.765784       -20.8380
 182   2.0000      -0.759968       -20.6798
 183   2.0000      -0.757863       -20.6225
 184   2.0000      -0.753923       -20.5153
 185   2.0000      -0.750962       -20.4347
 186   2.0000      -0.749461       -20.3939
 187   2.0000      -0.732819       -19.9410
 188   2.0000      -0.722296       -19.6547
 189   2.0000      -0.719894       -19.5893
 190   2.0000      -0.710528       -19.3345
 191   2.0000      -0.701883       -19.0992
 192   2.0000      -0.696608       -18.9557
 193   2.0000      -0.695684       -18.9305
 194   2.0000      -0.691564       -18.8184
 195   2.0000      -0.687901       -18.7187
 196   2.0000      -0.682202       -18.5637
 197   2.0000      -0.669303       -18.2126
 198   2.0000      -0.663441       -18.0532
 199   2.0000      -0.662151       -18.0180
 200   2.0000      -0.657457       -17.8903
 201   2.0000      -0.652029       -17.7426
 202   2.0000      -0.637830       -17.3562
 203   2.0000      -0.635561       -17.2945
 204   2.0000      -0.628171       -17.0934
 205   2.0000      -0.626425       -17.0459
 206   2.0000      -0.622677       -16.9439
 207   2.0000      -0.620318       -16.8797
 208   2.0000      -0.613404       -16.6916
 209   2.0000      -0.601225       -16.3602
 210   2.0000      -0.597262       -16.2523
 211   2.0000      -0.596125       -16.2214
 212   2.0000      -0.592505       -16.1229
 213   2.0000      -0.583150       -15.8683
 214   2.0000      -0.581327       -15.8187
 215   2.0000      -0.576658       -15.6917
 216   2.0000      -0.569354       -15.4929
 217   2.0000      -0.567549       -15.4438
 218   2.0000      -0.560069       -15.2402
 219   2.0000      -0.555043       -15.1035
 220   2.0000      -0.552546       -15.0355
 221   2.0000      -0.550523       -14.9805
 222   2.0000      -0.548200       -14.9173
 223   2.0000      -0.543904       -14.8004
 224   2.0000      -0.542881       -14.7725
 225   2.0000      -0.540658       -14.7120
 226   2.0000      -0.538417       -14.6511
 227   2.0000      -0.537868       -14.6361
 228   2.0000      -0.537149       -14.6166
 229   2.0000      -0.535277       -14.5656
 230   2.0000      -0.529341       -14.4041
 231   2.0000      -0.527616       -14.3571
 232   2.0000      -0.520843       -14.1729
 233   2.0000      -0.519493       -14.1361
 234   2.0000      -0.516605       -14.0575
 235   2.0000      -0.515281       -14.0215
 236   2.0000      -0.509353       -13.8602
 237   2.0000      -0.509191       -13.8558
 238   2.0000      -0.507234       -13.8025
 239   2.0000      -0.503686       -13.7060
 240   2.0000      -0.502465       -13.6728
 241   2.0000      -0.498535       -13.5658
 242   2.0000      -0.497722       -13.5437
 243   2.0000      -0.495148       -13.4736
 244   2.0000      -0.494055       -13.4439
 245   2.0000      -0.492454       -13.4004
 246   2.0000      -0.492182       -13.3930
 247   2.0000      -0.486642       -13.2422
 248   2.0000      -0.485754       -13.2180
 249   2.0000      -0.485673       -13.2158
 250   2.0000      -0.481586       -13.1046
 251   2.0000      -0.474409       -12.9093
 252   2.0000      -0.471832       -12.8392
 253   2.0000      -0.469452       -12.7744
 254   2.0000      -0.463173       -12.6036
 255   2.0000      -0.459903       -12.5146
 256   2.0000      -0.459413       -12.5013
 257   2.0000      -0.458586       -12.4788
 258   2.0000      -0.458379       -12.4731
 259   2.0000      -0.455486       -12.3944
 260   2.0000      -0.453319       -12.3354
 261   2.0000      -0.449993       -12.2449
 262   2.0000      -0.449501       -12.2315
 263   2.0000      -0.448119       -12.1939
 264   2.0000      -0.447353       -12.1731
 265   2.0000      -0.446954       -12.1622
 266   2.0000      -0.443418       -12.0660
 267   2.0000      -0.443063       -12.0564
 268   2.0000      -0.442349       -12.0369
 269   2.0000      -0.440131       -11.9766
 270   2.0000      -0.438903       -11.9432
 271   2.0000      -0.438303       -11.9268
 272   2.0000      -0.433889       -11.8067
 273   2.0000      -0.432653       -11.7731
 274   2.0000      -0.431381       -11.7385
 275   2.0000      -0.431282       -11.7358
 276   2.0000      -0.426732       -11.6120
 277   2.0000      -0.424179       -11.5425
 278   2.0000      -0.423737       -11.5305
 279   2.0000      -0.421996       -11.4831
 280   2.0000      -0.415595       -11.3089
 281   2.0000      -0.414020       -11.2661
 282   2.0000      -0.413382       -11.2487
 283   2.0000      -0.410558       -11.1718
 284   2.0000      -0.408311       -11.1107
 285   2.0000      -0.404027       -10.9941
 286   2.0000      -0.396555       -10.7908
 287   2.0000      -0.392769       -10.6878
 288   2.0000      -0.390322       -10.6212
 289   2.0000      -0.387062       -10.5325
 290   2.0000      -0.384687       -10.4679
 291   2.0000      -0.382719       -10.4143
 292   2.0000      -0.375586       -10.2202
 293   2.0000      -0.374516       -10.1911
 294   2.0000      -0.374065       -10.1788
 295   2.0000      -0.368473       -10.0267
 296   2.0000      -0.363390        -9.8883
 297   2.0000      -0.360824        -9.8185
 298   2.0000      -0.357067        -9.7163
 299   2.0000      -0.356649        -9.7049
 300   2.0000      -0.349739        -9.5169
 301   2.0000      -0.339551        -9.2397
 302   2.0000      -0.338477        -9.2104
 303   2.0000      -0.328477        -8.9383
 304   2.0000      -0.322551        -8.7771
 305   2.0000      -0.318608        -8.6698
 306   2.0000      -0.314420        -8.5558
 307   2.0000      -0.310096        -8.4381
 308   2.0000      -0.296548        -8.0695
 309   2.0000      -0.293967        -7.9992
 310   2.0000      -0.285914        -7.7801
 311   2.0000      -0.276279        -7.5179
 312   2.0000      -0.271209        -7.3800
 313   2.0000      -0.252428        -6.8689
 314   0.0000      -0.137773        -3.7490
 315   0.0000      -0.089803        -2.4437
 316   0.0000      -0.084922        -2.3109
 317   0.0000      -0.064190        -1.7467
 318   0.0000      -0.059376        -1.6157

MULLIKEN ATOMIC CHARGES
-----------------------
   0 C :    0.287308
   1 C :   -0.333320
   2 C :   -0.185277
   3 N :    0.152368
   4 C :   -0.204604
   5 N :    0.163744
   6 C :    0.017647
   7 C :   -0.017849
   8 C :   -0.069475
   9 C :    0.117871
  10 C :   -0.092240
  11 C :   -0.017958
  12 S :    0.187174
  13 C :   -0.123545
  14 C :    0.038279
  15 Br:    0.023655
  16 C :    0.151978
  17 O :   -0.148451
  18 C :   -0.072348
  19 C :   -0.005891
  20 C :   -0.107444
  21 C :   -0.002296
  22 C :    0.008087
  23 S :    0.025447
  24 C :   -0.044964
  25 C :   -0.054762
  26 S :    0.029164
  27 C :   -0.203026
  28 S :    0.186513
  29 C :    0.123423
  30 C :   -0.044260
  31 C :   -0.043568
  32 N :    0.003038
  33 C :   -0.096349
  34 C :   -0.117446
  35 N :    0.019483
  36 C :   -0.224799
  37 N :    0.250534
  38 C :   -0.232863
  39 N :    0.252241
  40 C :    0.169456
  41 C :   -0.000627
  42 C :   -0.016966
  43 N :   -0.256216
  44 S :    0.555978
  45 N :   -0.304937
  46 C :   -0.179858
  47 C :   -0.003905
  48 C :   -0.040067
  49 S :    0.022969
  50 C :    0.005703
  51 C :   -0.100827
  52 S :    0.039574
  53 C :   -0.097986
  54 S :    0.182734
  55 C :    0.038621
  56 C :   -0.123315
  57 C :    0.301340
  58 C :   -0.332177
  59 C :   -0.189866
  60 N :    0.146654
  61 C :   -0.167845
  62 N :    0.140585
  63 C :    0.011929
  64 C :    0.002505
  65 C :    0.130311
  66 O :   -0.138635
  67 C :   -0.067863
  68 C :    0.108851
  69 C :   -0.086992
  70 C :   -0.031654
  71 S :    0.181196
  72 C :   -0.125904
  73 C :    0.041932
  74 Br:    0.021774
  75 H :   -0.015344
  76 H :   -0.005527
  77 H :   -0.005061
  78 H :    0.035663
  79 H :    0.059015
  80 H :    0.070939
  81 H :    0.079243
  82 H :    0.059175
  83 H :    0.068723
  84 H :    0.065083
  85 H :    0.086175
  86 H :    0.059006
  87 H :    0.033166
  88 H :   -0.009063
  89 H :   -0.009963
  90 H :   -0.002924
Sum of atomic charges:   -0.0000000

LOEWDIN ATOMIC CHARGES
----------------------
   0 C :    0.074512
   1 C :   -0.135184
   2 C :   -0.017853
   3 N :   -0.050551
   4 C :   -0.025352
   5 N :   -0.046857
   6 C :   -0.021957
   7 C :   -0.047584
   8 C :    0.018792
   9 C :   -0.032302
  10 C :   -0.145106
  11 C :   -0.008541
  12 S :    0.433413
  13 C :   -0.271514
  14 C :   -0.071048
  15 Br:    0.136998
  16 C :    0.073121
  17 O :   -0.147688
  18 C :   -0.086378
  19 C :    0.043150
  20 C :   -0.198622
  21 C :   -0.178425
  22 C :   -0.187066
  23 S :    0.331473
  24 C :   -0.143716
  25 C :   -0.137381
  26 S :    0.339998
  27 C :   -0.182293
  28 S :    0.485756
  29 C :   -0.042967
  30 C :   -0.006207
  31 C :   -0.007976
  32 N :   -0.013502
  33 C :   -0.019435
  34 C :   -0.018385
  35 N :   -0.012467
  36 C :   -0.037298
  37 N :    0.004050
  38 C :   -0.038700
  39 N :    0.005258
  40 C :   -0.032953
  41 C :   -0.039945
  42 C :   -0.048355
  43 N :   -0.278001
  44 S :    0.688785
  45 N :   -0.286812
  46 C :   -0.171849
  47 C :   -0.183385
  48 C :   -0.187133
  49 S :    0.369626
  50 C :   -0.136877
  51 C :   -0.151823
  52 S :    0.347740
  53 C :   -0.196589
  54 S :    0.493747
  55 C :    0.031615
  56 C :   -0.090431
  57 C :    0.051517
  58 C :   -0.147349
  59 C :   -0.020275
  60 N :   -0.058729
  61 C :   -0.016233
  62 N :   -0.061378
  63 C :   -0.014556
  64 C :   -0.055277
  65 C :    0.085780
  66 O :   -0.136039
  67 C :    0.024954
  68 C :   -0.036545
  69 C :   -0.142687
  70 C :   -0.018424
  71 S :    0.429537
  72 C :   -0.273989
  73 C :   -0.069251
  74 Br:    0.135148
  75 H :    0.039043
  76 H :    0.041146
  77 H :    0.038230
  78 H :    0.046765
  79 H :    0.033144
  80 H :    0.027036
  81 H :    0.031629
  82 H :    0.033656
  83 H :    0.034153
  84 H :    0.024945
  85 H :    0.031183
  86 H :    0.034198
  87 H :    0.047453
  88 H :    0.041588
  89 H :    0.039183
  90 H :    0.038918

  Mayer bond orders larger than 0.100000
B(  0-C ,  1-C ) :   1.6463 B(  0-C ,  6-C ) :   1.0095 B(  0-C , 18-C ) :   1.0609
B(  1-C ,  2-C ) :   1.1396 B(  1-C ,  4-C ) :   1.1390 B(  2-C ,  3-N ) :   2.9732
B(  4-C ,  5-N ) :   2.9973 B(  6-C ,  7-C ) :   1.2702 B(  6-C , 11-C ) :   1.4092
B(  7-C ,  8-C ) :   1.4278 B(  7-C , 16-C ) :   0.9417 B(  8-C ,  9-C ) :   1.2448
B(  8-C , 75-H ) :   1.0165 B(  9-C , 10-C ) :   1.3059 B(  9-C , 14-C ) :   1.1641
B( 10-C , 11-C ) :   1.3306 B( 10-C , 12-S ) :   1.0851 B( 11-C , 76-H ) :   0.9810
B( 12-S , 13-C ) :   1.0880 B( 13-C , 14-C ) :   1.6165 B( 13-C , 15-Br) :   1.0179
B( 14-C , 77-H ) :   1.0004 B( 16-C , 17-O ) :   2.1922 B( 16-C , 18-C ) :   0.9596
B( 18-C , 19-C ) :   1.6154 B( 19-C , 20-C ) :   1.1574 B( 19-C , 78-H ) :   0.9297
B( 20-C , 21-C ) :   1.5174 B( 20-C , 27-C ) :   0.1040 B( 20-C , 28-S ) :   1.0811
B( 21-C , 22-C ) :   1.2607 B( 21-C , 26-S ) :   1.0424 B( 22-C , 23-S ) :   1.0452
B( 22-C , 27-C ) :   1.5124 B( 23-S , 24-C ) :   1.0223 B( 24-C , 25-C ) :   1.0201
B( 24-C , 79-H ) :   0.9448 B( 24-C , 80-H ) :   0.9454 B( 25-C , 26-S ) :   1.0132
B( 25-C , 81-H ) :   0.9442 B( 25-C , 82-H ) :   0.9468 B( 27-C , 28-S ) :   1.1356
B( 27-C , 29-C ) :   1.1254 B( 29-C , 30-C ) :   1.2789 B( 29-C , 40-C ) :   0.1166
B( 29-C , 42-C ) :   1.2192 B( 30-C , 31-C ) :   1.1212 B( 30-C , 35-N ) :   1.4058
B( 31-C , 32-N ) :   1.3996 B( 31-C , 40-C ) :   1.2569 B( 32-N , 33-C ) :   1.6905
B( 33-C , 34-C ) :   1.2190 B( 33-C , 38-C ) :   1.1619 B( 34-C , 35-N ) :   1.7108
B( 34-C , 36-C ) :   1.1636 B( 36-C , 37-N ) :   3.0439 B( 38-C , 39-N ) :   3.0375
B( 40-C , 41-C ) :   1.2082 B( 40-C , 46-C ) :   1.1709 B( 41-C , 42-C ) :   1.0888
B( 41-C , 45-N ) :   1.4632 B( 42-C , 43-N ) :   1.5113 B( 43-N , 44-S ) :   1.2946
B( 43-N , 45-N ) :   0.1501 B( 44-S , 45-N ) :   1.2806 B( 46-C , 47-C ) :   1.5028
B( 46-C , 54-S ) :   1.1340 B( 47-C , 48-C ) :   1.2657 B( 47-C , 52-S ) :   1.0457
B( 48-C , 49-S ) :   1.0798 B( 48-C , 53-C ) :   1.4659 B( 49-S , 50-C ) :   0.9737
B( 50-C , 51-C ) :   1.0395 B( 50-C , 83-H ) :   0.9378 B( 50-C , 84-H ) :   0.9430
B( 51-C , 52-S ) :   0.9791 B( 51-C , 85-H ) :   0.9330 B( 51-C , 86-H ) :   0.9462
B( 53-C , 54-S ) :   1.0603 B( 53-C , 55-C ) :   1.1679 B( 55-C , 56-C ) :   1.6209
B( 55-C , 87-H ) :   0.9166 B( 56-C , 57-C ) :   1.0844 B( 56-C , 65-C ) :   0.9340
B( 57-C , 58-C ) :   1.5926 B( 57-C , 63-C ) :   1.0154 B( 58-C , 59-C ) :   1.1373
B( 58-C , 61-C ) :   1.1833 B( 59-C , 60-N ) :   2.9741 B( 61-C , 62-N ) :   2.8995
B( 63-C , 64-C ) :   1.2709 B( 63-C , 70-C ) :   1.4204 B( 64-C , 65-C ) :   0.9217
B( 64-C , 67-C ) :   1.4293 B( 65-C , 66-O ) :   2.2625 B( 67-C , 68-C ) :   1.2495
B( 67-C , 88-H ) :   1.0157 B( 68-C , 69-C ) :   1.3127 B( 68-C , 73-C ) :   1.1617
B( 69-C , 70-C ) :   1.3212 B( 69-C , 71-S ) :   1.0854 B( 70-C , 89-H ) :   0.9826
B( 71-S , 72-C ) :   1.0846 B( 72-C , 73-C ) :   1.6212 B( 72-C , 74-Br) :   1.0181
B( 73-C , 90-H ) :   1.0000

-----------------------------------------------------------------------------
         ABSORPTION SPECTRUM VIA TRANSITION ELECTRIC DIPOLE MOMENTS
-----------------------------------------------------------------------------
State   Energy  Wavelength   fosc         T2         TX        TY        TZ
        (cm-1)    (nm)                  (au**2)     (au)      (au)      (au)
-----------------------------------------------------------------------------
   0    8604.5   1162.2   0.502611708  19.23010  -0.12109  -3.47219   2.67570
   1   12311.1    812.3   0.096821437   2.58912   0.19745   1.57669  -0.25333
   2   14165.0    706.0   0.025672390   0.59666  -0.17952  -0.19218  -0.72629
   3   16476.4    606.9   0.032060475   0.64059  -0.37684   0.53162  -0.46472
   4   20487.7    488.1   0.629451908  10.11451   0.42676   2.78383  -1.47739
   5   21033.4    475.4   0.202596148   3.17101  -0.36686   1.46253  -0.94733
   6   21328.0    468.9   0.050094186   0.77324   0.17186  -0.54225   0.67057
   7   21942.3    455.7   0.037025019   0.55551   0.27502   0.45029   0.52642
   8   22253.3    449.4   0.008104965   0.11990   0.30159   0.01506   0.16947
   9   23618.8    423.4   0.097592887   1.36031   0.71800  -0.75464   0.52469
  10   23686.9    422.2   0.019379209   0.26934  -0.12167   0.30843  -0.39926
  11   23822.2    419.8   0.150546727   2.08048  -0.17544   0.55596  -1.31932
  12   24755.5    403.9   0.040905623   0.54398   0.36821   0.14988   0.62124
  13   25210.5    396.7   0.038783575   0.50646  -0.25543  -0.53955   0.38742
  14   25828.9    387.2   0.013146728   0.16757   0.20234  -0.18891   0.30156
  15   26083.7    383.4   0.091231608   1.15147  -0.27183  -0.70038   0.76618
  16   26278.0    380.5   0.058449911   0.73226   0.21445   0.58793  -0.58362
  17   26548.2    376.7   0.040341749   0.50026  -0.53880  -0.44643   0.10320
  18   27621.1    362.0   0.037396055   0.44572  -0.42495  -0.39458  -0.33082
  19   27633.6    361.9   0.025552537   0.30442  -0.02886  -0.27513   0.47738
  20   27971.9    357.5   0.008718013   0.10261   0.28608  -0.03286   0.14031
  21   28140.0    355.4   0.097604162   1.14188   0.30214   0.50290  -0.89313
  22   28356.5    352.7   0.024910951   0.28921  -0.05247  -0.02480  -0.53464
  23   28511.4    350.7   0.002609746   0.03013   0.06163   0.09553  -0.13118
  24   28551.0    350.3   0.018380402   0.21194  -0.23326   0.31288  -0.24421
  25   29071.7    344.0   0.281337979   3.18591   0.62678   0.02701  -1.67103
  26   29228.7    342.1   0.217488194   2.44963   0.25375   1.23259  -0.93057
  27   29476.0    339.3   0.241804570   2.70067   1.51032   0.27290  -0.58747
  28   29993.9    333.4   0.067671508   0.74276  -0.62302  -0.59515  -0.02007
  29   30356.6    329.4   0.165871001   1.79884   0.08355   0.42153  -1.27050
  30   30491.5    328.0   0.111876611   1.20791  -0.77902  -0.76857  -0.10169
  31   30731.1    325.4   0.041886541   0.44872   0.32040  -0.13742  -0.57200
  32   30966.0    322.9   0.240722224   2.55922   1.09043   0.80409   0.85066
  33   31390.2    318.6   0.110013971   1.15380  -0.54108  -0.72890  -0.57422
  34   31629.2    316.2   0.060164592   0.62622   0.10649  -0.10924   0.77650
  35   31825.2    314.2   0.036235827   0.37484   0.40819   0.26614   0.37066
  36   31912.0    313.4   0.064386020   0.66422   0.53132  -0.16207   0.59637
  37   32166.1    310.9   0.128248941   1.31260  -0.42638  -0.67148  -0.82457
  38   32301.2    309.6   0.027824300   0.28358   0.27794  -0.18519   0.41478
  39   32982.7    303.2   0.008299105   0.08284  -0.14399   0.06022   0.24182
  40   33277.8    300.5   0.038870077   0.38453  -0.27308   0.38844  -0.39884
  41   33336.7    300.0   0.025831244   0.25509  -0.46636  -0.15031   0.12249
  42   33501.9    298.5   0.118806169   1.16747   0.74698   0.66465   0.40955
  43   33836.2    295.5   0.087458136   0.85093  -0.38781  -0.80966  -0.21209
  44   34156.3    292.8   0.241016956   2.32302   0.88078  -0.54082  -1.12016
  45   34353.7    291.1   0.223760292   2.14430  -1.25618   0.34842   0.66703
  46   34582.6    289.2   0.163663394   1.55801  -0.11266  -1.03003   0.69595
  47   34976.8    285.9   0.057754471   0.54360  -0.18969  -0.17204   0.69139
  48   35139.3    284.6   0.192104486   1.79978   0.00422  -0.17948   1.32949
  49   35303.1    283.3   0.014517802   0.13538   0.19813   0.30137  -0.07281
  50   35558.4    281.2   0.222017782   2.05552  -0.33220  -0.18813   1.38194
  51   35774.4    279.5   0.010688259   0.09836   0.22583   0.18923  -0.10747
  52   35969.5    278.0   0.014202092   0.12999  -0.06035   0.09134   0.34351
  53   36243.4    275.9   0.050943627   0.46274   0.00875   0.64658  -0.21119
  54   36675.6    272.7   0.094336682   0.84680   0.67246   0.53393   0.33092
  55   36858.2    271.3   0.103587177   0.92523  -0.29692  -0.54900   0.73189
  56   37252.3    268.4   0.047324408   0.41822  -0.09577   0.60054   0.22000
  57   37847.4    264.2   0.072325455   0.62912   0.23355   0.04029   0.75693
  58   37902.1    263.8   0.081576471   0.70856  -0.03133  -0.17554   0.82266
  59   38184.9    261.9   0.076813081   0.66225  -0.18534  -0.33408   0.71853
  60   38306.6    261.1   0.011217046   0.09640   0.07710  -0.26829   0.13593
  61   38453.7    260.1   0.003360585   0.02877  -0.10528  -0.08144   0.10514
  62   38586.4    259.2   0.129186010   1.10219   0.08296   0.90881  -0.51901
  63   38612.1    259.0   0.053051641   0.45233  -0.27914  -0.60423   0.09651
  64   38948.4    256.8   0.002471280   0.02089   0.00564  -0.14375  -0.01390
  65   39215.0    255.0   0.010002256   0.08397  -0.12537   0.07517  -0.25020
  66   39359.4    254.1   0.036355834   0.30409  -0.39285  -0.22851  -0.31231
  67   39606.7    252.5   0.210635425   1.75081  -0.24422   0.96739   0.86910
  68   39722.7    251.7   0.020214825   0.16754   0.11494  -0.04526  -0.39022
  69   39828.8    251.1   0.035441222   0.29295   0.00172   0.35246   0.41075
  70   40143.5    249.1   0.011231067   0.09210   0.15112   0.02329   0.26216
  71   40306.9    248.1   0.280782884   2.29333  -0.67419  -0.85716   1.05075

FINAL SINGLE POINT ENERGY    -11416.132296898742

DIPOLE MOMENT
-------------
                                X             Y             Z
Electronic contribution:    -48.81125       2.48772     -23.43024
Nuclear contribution   :     50.05067       1.01837      26.48093
                        -----------------------------------------
Total Dipole Moment    :      1.23941       3.50609       3.05069
                        -----------------------------------------
Magnitude (a.u.)       :      4.80994
Magnitude (Debye)      :     12.22589

Rotational constants in cm-1:     0.001802     0.000160     0.000157
Rotational constants in MHz :    54.022045     4.794616     4.711125

                             ****ORCA TERMINATED NORMALLY****
TOTAL RUN TIME: 0 days 0 hours 11 minutes 10 seconds 972 msec
