                         Program Version 4.2.0 -  RELEASE  -
|  1> # ORCA input file
|  2> # SCF done       -173.521785131440          0.000647883970
|  3> ! CAM-B3LYP def2-SVP def2/J RIJCOSX Grid4 TightSCF
|  4> %maxcore 5000
|  5> %tddft
|  6>     Mode sTDDFT
|  7>     Ethresh 5.0
|  8>     maxcore 5000
|  9> end
| 10>
| 11> %pal
| 12>   nprocs 6
| 13>   end
| 14> * xyz 0 1
| 15>    C       -1.57025        -2.32520        -2.18561
| 16>    C       -1.31677        -1.35159        -1.09061
| 17>    C       -1.01905         0.00536        -1.31021
| 18>    C       -0.85228         0.71189        -0.15493
| 19>    C       -0.58916         2.17723         0.02150
| 20>    C        0.91494         2.47513         0.06414
| 21>    N       -1.13138         2.46612         1.35973
| 22>    N       -2.10223         3.12658         1.61937
| 23>    C       -2.97389         3.82493         0.66549
| 24>    C       -4.34755         3.12998         0.74171
| 25>    C       -3.08303         5.24927         1.14030
| 26>    S       -2.87497         6.53500         0.01570
| 27>    C       -3.23308         7.72049         1.24157
| 28>    C       -3.19915         9.08780         0.89299
| 29>    C       -3.69602        10.17227         1.55249
| 30>    C       -3.18106        11.51930         1.19205
| 31>    O       -2.50829        11.81230         0.23324
| 32>    C       -3.62458        12.40838         2.29263
| 33>    C       -3.31804        13.73155         2.51269
| 34>    C       -3.82397        14.35107         3.66299
| 35>    C       -3.49287        15.71450         3.84751
| 36>    N       -3.21601        16.82399         3.94227
| 37>    C       -4.60269        13.62574         4.58155
| 38>    C       -5.10614        14.17383         5.89261
| 39>    O       -5.32264        13.43764         6.81359
| 40>    O       -5.31838        15.48603         5.99552
| 41>    C       -4.90604        12.28611         4.33573
| 42>    C       -4.43640        11.68152         3.18371
| 43>    C       -4.62556        10.33078         2.65019
| 44>    C       -5.67718         9.51321         2.96499
| 45>    C       -5.99357         8.33586         2.25605
| 46>    N       -6.30526         7.38718         1.69112
| 47>    C       -6.62806         9.80450         3.96749
| 48>    N       -7.42939         9.98889         4.76680
| 49>    C       -3.45243         7.09982         2.45562
| 50>    C       -3.36519         5.70140         2.41311
| 51>    C       -3.59355         4.85557         3.62076
| 52>    C       -2.43927         3.73672        -0.71674
| 53>    N       -2.84904         4.29089        -1.82194
| 54>    O       -2.01441         3.88301        -2.78190
| 55>    N       -1.06507         3.06646        -2.30522
| 56>    C       -1.29344         2.95118        -1.02832
| 57>    S       -1.06629        -0.25376         1.25159
| 58>    C       -1.42445        -1.65141         0.26022
| 59>    C       -1.74678        -2.90548         0.82768
| 60>    C       -2.27491        -3.16287         2.05509
| 61>    C       -2.15850        -4.52393         2.64264
| 62>    O       -1.82525        -5.53520         2.07481
| 63>    C       -2.48904        -4.35114         4.07888
| 64>    C       -2.42356        -5.27109         5.10271
| 65>    C       -2.75418        -4.84918         6.39447
| 66>    C       -2.71674        -5.81045         7.43726
| 67>    N       -2.69319        -6.66407         8.19979
| 68>    C       -3.13775        -3.51915         6.63600
| 69>    C       -3.41177        -3.10283         8.05434
| 70>    O       -2.84464        -3.60148         8.98288
| 71>    O       -4.31842        -2.13423         8.22421
| 72>    C       -3.20022        -2.60120         5.59064
| 73>    C       -2.88782        -3.02112         4.30800
| 74>    C       -2.92083        -2.31077         3.03055
| 75>    C       -3.69247        -1.20686         2.77945
| 76>    C       -3.95393        -0.69299         1.49313
| 77>    N       -4.24681        -0.25477         0.47290
| 78>    C       -4.39826        -0.51398         3.78368
| 79>    N       -4.98308         0.06924         4.58071
| 80>    H       -1.21487        -1.92682        -3.13168
| 81>    H       -2.63924        -2.51902        -2.27328
| 82>    H       -1.07442        -3.27371        -1.98764
| 83>    H       -0.92629         0.44901        -2.28568
| 84>    H        1.36818         1.91962         0.88067
| 85>    H        1.07979         3.53830         0.22486
| 86>    H        1.36655         2.18269        -0.87986
| 87>    H       -4.69889         3.11957         1.76825
| 88>    H       -4.27297         2.10386         0.38343
| 89>    H       -5.05196         3.67645         0.12044
| 90>    H       -2.64000         9.32929        -0.00650
| 91>    H       -2.70000        14.27975         1.81772
| 92>    H       -5.07045        16.01288         5.22143
| 93>    H       -5.48980        11.75682         5.07302
| 94>    H       -3.62975         7.63999         3.36907
| 95>    H       -4.66327         4.70056         3.76175
| 96>    H       -3.21280         5.36514         4.50275
| 97>    H       -3.10293         3.89263         3.52474
| 98>    H       -1.48905        -3.78230         0.24087
| 99>    H       -2.12412        -6.29065         4.91331
|100>    H       -4.73406        -1.82422         7.40749
|101>    H       -3.44147        -1.56657         5.78503
|102> *
|103>
|104>                          ****END OF INPUT****

CARTESIAN COORDINATES (ANGSTROEM)
---------------------------------
  C     -1.570250   -2.325200   -2.185610
  C     -1.316770   -1.351590   -1.090610
  C     -1.019050    0.005360   -1.310210
  C     -0.852280    0.711890   -0.154930
  C     -0.589160    2.177230    0.021500
  C      0.914940    2.475130    0.064140
  N     -1.131380    2.466120    1.359730
  N     -2.102230    3.126580    1.619370
  C     -2.973890    3.824930    0.665490
  C     -4.347550    3.129980    0.741710
  C     -3.083030    5.249270    1.140300
  S     -2.874970    6.535000    0.015700
  C     -3.233080    7.720490    1.241570
  C     -3.199150    9.087800    0.892990
  C     -3.696020   10.172270    1.552490
  C     -3.181060   11.519300    1.192050
  O     -2.508290   11.812300    0.233240
  C     -3.624580   12.408380    2.292630
  C     -3.318040   13.731550    2.512690
  C     -3.823970   14.351070    3.662990
  C     -3.492870   15.714500    3.847510
  N     -3.216010   16.823990    3.942270
  C     -4.602690   13.625740    4.581550
  C     -5.106140   14.173830    5.892610
  O     -5.322640   13.437640    6.813590
  O     -5.318380   15.486030    5.995520
  C     -4.906040   12.286110    4.335730
  C     -4.436400   11.681520    3.183710
  C     -4.625560   10.330780    2.650190
  C     -5.677180    9.513210    2.964990
  C     -5.993570    8.335860    2.256050
  N     -6.305260    7.387180    1.691120
  C     -6.628060    9.804500    3.967490
  N     -7.429390    9.988890    4.766800
  C     -3.452430    7.099820    2.455620
  C     -3.365190    5.701400    2.413110
  C     -3.593550    4.855570    3.620760
  C     -2.439270    3.736720   -0.716740
  N     -2.849040    4.290890   -1.821940
  O     -2.014410    3.883010   -2.781900
  N     -1.065070    3.066460   -2.305220
  C     -1.293440    2.951180   -1.028320
  S     -1.066290   -0.253760    1.251590
  C     -1.424450   -1.651410    0.260220
  C     -1.746780   -2.905480    0.827680
  C     -2.274910   -3.162870    2.055090
  C     -2.158500   -4.523930    2.642640
  O     -1.825250   -5.535200    2.074810
  C     -2.489040   -4.351140    4.078880
  C     -2.423560   -5.271090    5.102710
  C     -2.754180   -4.849180    6.394470
  C     -2.716740   -5.810450    7.437260
  N     -2.693190   -6.664070    8.199790
  C     -3.137750   -3.519150    6.636000
  C     -3.411770   -3.102830    8.054340
  O     -2.844640   -3.601480    8.982880
  O     -4.318420   -2.134230    8.224210
  C     -3.200220   -2.601200    5.590640
  C     -2.887820   -3.021120    4.308000
  C     -2.920830   -2.310770    3.030550
  C     -3.692470   -1.206860    2.779450
  C     -3.953930   -0.692990    1.493130
  N     -4.246810   -0.254770    0.472900
  C     -4.398260   -0.513980    3.783680
  N     -4.983080    0.069240    4.580710
  H     -1.214870   -1.926820   -3.131680
  H     -2.639240   -2.519020   -2.273280
  H     -1.074420   -3.273710   -1.987640
  H     -0.926290    0.449010   -2.285680
  H      1.368180    1.919620    0.880670
  H      1.079790    3.538300    0.224860
  H      1.366550    2.182690   -0.879860
  H     -4.698890    3.119570    1.768250
  H     -4.272970    2.103860    0.383430
  H     -5.051960    3.676450    0.120440
  H     -2.640000    9.329290   -0.006500
  H     -2.700000   14.279750    1.817720
  H     -5.070450   16.012880    5.221430
  H     -5.489800   11.756820    5.073020
  H     -3.629750    7.639990    3.369070
  H     -4.663270    4.700560    3.761750
  H     -3.212800    5.365140    4.502750
  H     -3.102930    3.892630    3.524740
  H     -1.489050   -3.782300    0.240870
  H     -2.124120   -6.290650    4.913310
  H     -4.734060   -1.824220    7.407490
  H     -3.441470   -1.566570    5.785030

 Total Charge           Charge          ....    0
 Multiplicity           Mult            ....    1
 Number of Electrons    NEL             ....  456
 Basis Dimension        Dim             .... 1028

ORBITAL ENERGIES
----------------

  NO   OCC          E(Eh)            E(eV)
   0   2.0000     -88.988913     -2421.5114
   1   2.0000     -88.981872     -2421.3198
   2   2.0000     -19.367010      -527.0031
   3   2.0000     -19.280837      -524.6582
   4   2.0000     -19.274494      -524.4856
   5   2.0000     -19.241599      -523.5905
   6   2.0000     -19.236102      -523.4409
   7   2.0000     -19.220244      -523.0094
   8   2.0000     -19.215396      -522.8775
   9   2.0000     -14.506167      -394.7329
  10   2.0000     -14.505382      -394.7115
  11   2.0000     -14.501320      -394.6010
  12   2.0000     -14.499580      -394.5536
  13   2.0000     -14.447321      -393.1316
  14   2.0000     -14.444636      -393.0585
  15   2.0000     -14.443067      -393.0158
  16   2.0000     -14.432468      -392.7274
  17   2.0000     -14.429888      -392.6572
  18   2.0000     -14.417291      -392.3144
  19   2.0000     -10.426036      -283.7069
  20   2.0000     -10.423812      -283.6463
  21   2.0000     -10.393156      -282.8122
  22   2.0000     -10.387320      -282.6533
  23   2.0000     -10.372144      -282.2404
  24   2.0000     -10.371126      -282.2127
  25   2.0000     -10.370862      -282.2055
  26   2.0000     -10.367471      -282.1132
  27   2.0000     -10.364554      -282.0339
  28   2.0000     -10.360951      -281.9358
  29   2.0000     -10.360434      -281.9217
  30   2.0000     -10.356456      -281.8135
  31   2.0000     -10.352972      -281.7187
  32   2.0000     -10.350793      -281.6594
  33   2.0000     -10.347247      -281.5629
  34   2.0000     -10.346497      -281.5425
  35   2.0000     -10.345702      -281.5209
  36   2.0000     -10.344244      -281.4812
  37   2.0000     -10.344054      -281.4760
  38   2.0000     -10.343733      -281.4673
  39   2.0000     -10.343552      -281.4624
  40   2.0000     -10.342133      -281.4237
  41   2.0000     -10.338894      -281.3356
  42   2.0000     -10.338102      -281.3140
  43   2.0000     -10.337679      -281.3026
  44   2.0000     -10.335084      -281.2319
  45   2.0000     -10.334777      -281.2236
  46   2.0000     -10.332366      -281.1580
  47   2.0000     -10.332090      -281.1505
  48   2.0000     -10.330951      -281.1195
  49   2.0000     -10.328222      -281.0452
  50   2.0000     -10.328088      -281.0416
  51   2.0000     -10.325223      -280.9636
  52   2.0000     -10.325117      -280.9607
  53   2.0000     -10.323304      -280.9114
  54   2.0000     -10.323295      -280.9111
  55   2.0000     -10.320280      -280.8291
  56   2.0000     -10.316516      -280.7267
  57   2.0000     -10.314023      -280.6588
  58   2.0000     -10.304422      -280.3976
  59   2.0000     -10.303152      -280.3630
  60   2.0000     -10.302602      -280.3481
  61   2.0000     -10.301237      -280.3109
  62   2.0000     -10.296209      -280.1741
  63   2.0000     -10.288066      -279.9525
  64   2.0000     -10.272273      -279.5228
  65   2.0000      -8.083287      -219.9574
  66   2.0000      -8.077075      -219.7884
  67   2.0000      -6.052600      -164.6996
  68   2.0000      -6.048390      -164.5850
  69   2.0000      -6.046277      -164.5276
  70   2.0000      -6.045472      -164.5057
  71   2.0000      -6.042010      -164.4114
  72   2.0000      -6.039434      -164.3413
  73   2.0000      -1.325870       -36.0788
  74   2.0000      -1.204891       -32.7868
  75   2.0000      -1.200653       -32.6714
  76   2.0000      -1.185207       -32.2511
  77   2.0000      -1.157499       -31.4972
  78   2.0000      -1.152033       -31.3484
  79   2.0000      -1.120261       -30.4838
  80   2.0000      -1.114751       -30.3339
  81   2.0000      -1.049846       -28.5678
  82   2.0000      -1.042673       -28.3726
  83   2.0000      -1.041632       -28.3443
  84   2.0000      -1.033275       -28.1168
  85   2.0000      -1.030812       -28.0498
  86   2.0000      -1.027247       -27.9528
  87   2.0000      -1.021547       -27.7977
  88   2.0000      -1.018649       -27.7188
  89   2.0000      -1.017626       -27.6910
  90   2.0000      -1.008943       -27.4547
  91   2.0000      -1.005604       -27.3639
  92   2.0000      -1.002530       -27.2802
  93   2.0000      -0.982511       -26.7355
  94   2.0000      -0.981148       -26.6984
  95   2.0000      -0.969274       -26.3753
  96   2.0000      -0.934188       -25.4205
  97   2.0000      -0.929963       -25.3056
  98   2.0000      -0.924791       -25.1648
  99   2.0000      -0.916659       -24.9436
 100   2.0000      -0.907864       -24.7042
 101   2.0000      -0.904627       -24.6162
 102   2.0000      -0.900012       -24.4906
 103   2.0000      -0.889008       -24.1911
 104   2.0000      -0.880175       -23.9508
 105   2.0000      -0.860432       -23.4136
 106   2.0000      -0.851648       -23.1745
 107   2.0000      -0.822718       -22.3873
 108   2.0000      -0.816397       -22.2153
 109   2.0000      -0.810842       -22.0641
 110   2.0000      -0.807123       -21.9629
 111   2.0000      -0.803954       -21.8767
 112   2.0000      -0.794636       -21.6231
 113   2.0000      -0.784936       -21.3592
 114   2.0000      -0.782885       -21.3034
 115   2.0000      -0.775854       -21.1121
 116   2.0000      -0.758577       -20.6419
 117   2.0000      -0.755098       -20.5473
 118   2.0000      -0.743901       -20.2426
 119   2.0000      -0.736441       -20.0396
 120   2.0000      -0.725439       -19.7402
 121   2.0000      -0.722003       -19.6467
 122   2.0000      -0.716685       -19.5020
 123   2.0000      -0.710254       -19.3270
 124   2.0000      -0.708433       -19.2774
 125   2.0000      -0.698891       -19.0178
 126   2.0000      -0.692675       -18.8486
 127   2.0000      -0.688652       -18.7392
 128   2.0000      -0.680941       -18.5294
 129   2.0000      -0.664484       -18.0815
 130   2.0000      -0.661564       -18.0021
 131   2.0000      -0.659935       -17.9578
 132   2.0000      -0.655204       -17.8290
 133   2.0000      -0.648389       -17.6436
 134   2.0000      -0.643663       -17.5150
 135   2.0000      -0.631546       -17.1852
 136   2.0000      -0.622680       -16.9440
 137   2.0000      -0.618003       -16.8167
 138   2.0000      -0.615926       -16.7602
 139   2.0000      -0.611936       -16.6516
 140   2.0000      -0.606562       -16.5054
 141   2.0000      -0.600886       -16.3509
 142   2.0000      -0.592635       -16.1264
 143   2.0000      -0.577400       -15.7119
 144   2.0000      -0.575271       -15.6539
 145   2.0000      -0.571813       -15.5598
 146   2.0000      -0.570685       -15.5291
 147   2.0000      -0.566390       -15.4123
 148   2.0000      -0.563861       -15.3434
 149   2.0000      -0.563078       -15.3221
 150   2.0000      -0.562197       -15.2982
 151   2.0000      -0.559914       -15.2360
 152   2.0000      -0.552316       -15.0293
 153   2.0000      -0.550533       -14.9808
 154   2.0000      -0.547202       -14.8901
 155   2.0000      -0.545755       -14.8507
 156   2.0000      -0.544325       -14.8118
 157   2.0000      -0.542408       -14.7597
 158   2.0000      -0.537894       -14.6369
 159   2.0000      -0.535420       -14.5695
 160   2.0000      -0.531235       -14.4556
 161   2.0000      -0.530158       -14.4263
 162   2.0000      -0.529611       -14.4114
 163   2.0000      -0.526911       -14.3380
 164   2.0000      -0.524546       -14.2736
 165   2.0000      -0.523269       -14.2389
 166   2.0000      -0.517964       -14.0945
 167   2.0000      -0.514733       -14.0066
 168   2.0000      -0.509078       -13.8527
 169   2.0000      -0.507587       -13.8121
 170   2.0000      -0.506432       -13.7807
 171   2.0000      -0.505446       -13.7539
 172   2.0000      -0.502594       -13.6763
 173   2.0000      -0.495911       -13.4944
 174   2.0000      -0.493088       -13.4176
 175   2.0000      -0.492407       -13.3991
 176   2.0000      -0.487063       -13.2537
 177   2.0000      -0.485703       -13.2167
 178   2.0000      -0.482445       -13.1280
 179   2.0000      -0.480100       -13.0642
 180   2.0000      -0.479068       -13.0361
 181   2.0000      -0.478440       -13.0190
 182   2.0000      -0.475457       -12.9378
 183   2.0000      -0.473563       -12.8863
 184   2.0000      -0.471713       -12.8360
 185   2.0000      -0.470986       -12.8162
 186   2.0000      -0.469686       -12.7808
 187   2.0000      -0.468638       -12.7523
 188   2.0000      -0.464184       -12.6311
 189   2.0000      -0.463283       -12.6066
 190   2.0000      -0.460823       -12.5396
 191   2.0000      -0.457639       -12.4530
 192   2.0000      -0.455779       -12.4024
 193   2.0000      -0.454824       -12.3764
 194   2.0000      -0.451509       -12.2862
 195   2.0000      -0.449670       -12.2361
 196   2.0000      -0.444526       -12.0962
 197   2.0000      -0.444142       -12.0857
 198   2.0000      -0.444058       -12.0834
 199   2.0000      -0.443207       -12.0603
 200   2.0000      -0.441256       -12.0072
 201   2.0000      -0.439830       -11.9684
 202   2.0000      -0.436898       -11.8886
 203   2.0000      -0.429404       -11.6847
 204   2.0000      -0.427901       -11.6438
 205   2.0000      -0.424508       -11.5514
 206   2.0000      -0.423179       -11.5153
 207   2.0000      -0.421587       -11.4720
 208   2.0000      -0.416790       -11.3414
 209   2.0000      -0.409486       -11.1427
 210   2.0000      -0.407051       -11.0764
 211   2.0000      -0.406974       -11.0743
 212   2.0000      -0.397419       -10.8143
 213   2.0000      -0.387721       -10.5504
 214   2.0000      -0.383931       -10.4473
 215   2.0000      -0.380941       -10.3659
 216   2.0000      -0.379647       -10.3307
 217   2.0000      -0.368303       -10.0220
 218   2.0000      -0.363095        -9.8803
 219   2.0000      -0.361973        -9.8498
 220   2.0000      -0.359979        -9.7955
 221   2.0000      -0.347392        -9.4530
 222   2.0000      -0.340871        -9.2756
 223   2.0000      -0.340427        -9.2635
 224   2.0000      -0.335940        -9.1414
 225   2.0000      -0.323456        -8.8017
 226   2.0000      -0.307398        -8.3647
 227   2.0000      -0.298630        -8.1261
 228   0.0000      -0.117781        -3.2050
 229   0.0000      -0.108975        -2.9654
 230   0.0000      -0.093043        -2.5318
 231   0.0000      -0.090507        -2.4628
 232   0.0000      -0.040816        -1.1107

MULLIKEN ATOMIC CHARGES
-----------------------
   0 C :    0.116247
   1 C :   -0.016605
   2 C :    0.008367
   3 C :   -0.122740
   4 C :   -0.029712
   5 C :    0.161251
   6 N :   -0.118031
   7 N :   -0.066504
   8 C :   -0.018354
   9 C :    0.153877
  10 C :   -0.148412
  11 S :    0.186121
  12 C :   -0.105320
  13 C :    0.106375
  14 C :   -0.142415
  15 C :    0.144958
  16 O :   -0.129814
  17 C :    0.016913
  18 C :   -0.036410
  19 C :   -0.046123
  20 C :   -0.223650
  21 N :    0.133598
  22 C :   -0.000193
  23 C :    0.170228
  24 O :   -0.157320
  25 O :   -0.130277
  26 C :   -0.071255
  27 C :    0.049910
  28 C :    0.262905
  29 C :   -0.318688
  30 C :   -0.199046
  31 N :    0.183793
  32 C :   -0.185834
  33 N :    0.182042
  34 C :    0.013427
  35 C :   -0.067659
  36 C :    0.115044
  37 C :   -0.137555
  38 N :    0.055517
  39 O :   -0.116862
  40 N :    0.049606
  41 C :   -0.055608
  42 S :    0.180809
  43 C :   -0.153028
  44 C :    0.045021
  45 C :   -0.145945
  46 C :    0.150332
  47 O :   -0.124966
  48 C :    0.006534
  49 C :   -0.029629
  50 C :   -0.072158
  51 C :   -0.158665
  52 N :    0.146633
  53 C :    0.004515
  54 C :    0.181828
  55 O :   -0.143655
  56 O :   -0.140852
  57 C :   -0.082467
  58 C :    0.026772
  59 C :    0.255999
  60 C :   -0.316196
  61 C :   -0.147788
  62 N :    0.154153
  63 C :   -0.183960
  64 N :    0.154900
  65 H :    0.024614
  66 H :    0.054718
  67 H :    0.037178
  68 H :   -0.004378
  69 H :    0.033422
  70 H :    0.027742
  71 H :    0.039257
  72 H :    0.030699
  73 H :    0.027805
  74 H :    0.047639
  75 H :    0.028844
  76 H :    0.018353
  77 H :    0.182986
  78 H :    0.034715
  79 H :   -0.006622
  80 H :    0.046684
  81 H :    0.015369
  82 H :    0.038492
  83 H :    0.026707
  84 H :    0.019849
  85 H :    0.192251
  86 H :    0.009696
Sum of atomic charges:    0.0000000

LOEWDIN ATOMIC CHARGES
----------------------
   0 C :   -0.041567
   1 C :   -0.000682
   2 C :   -0.057714
   3 C :   -0.140341
   4 C :   -0.047316
   5 C :   -0.019156
   6 N :   -0.020273
   7 N :    0.015174
   8 C :   -0.044869
   9 C :   -0.018647
  10 C :   -0.160300
  11 S :    0.490495
  12 C :   -0.192625
  13 C :    0.062862
  14 C :   -0.103161
  15 C :    0.083445
  16 O :   -0.130212
  17 C :   -0.034073
  18 C :    0.048157
  19 C :   -0.056273
  20 C :   -0.042881
  21 N :   -0.027805
  22 C :   -0.031654
  23 C :    0.081531
  24 O :   -0.136500
  25 O :   -0.007670
  26 C :    0.034760
  27 C :    0.006172
  28 C :    0.059296
  29 C :   -0.123515
  30 C :   -0.016642
  31 N :   -0.029683
  32 C :   -0.027221
  33 N :   -0.028805
  34 C :   -0.006759
  35 C :   -0.044228
  36 C :   -0.052201
  37 C :   -0.073142
  38 N :   -0.009485
  39 O :    0.056129
  40 N :   -0.011912
  41 C :   -0.058987
  42 S :    0.488405
  43 C :   -0.204754
  44 C :    0.068577
  45 C :   -0.108638
  46 C :    0.084213
  47 O :   -0.126556
  48 C :   -0.032999
  49 C :    0.051442
  50 C :   -0.023314
  51 C :   -0.034774
  52 N :   -0.020490
  53 C :   -0.034840
  54 C :    0.079254
  55 O :   -0.117015
  56 O :   -0.013418
  57 C :   -0.003013
  58 C :    0.002438
  59 C :    0.064281
  60 C :   -0.136573
  61 C :   -0.020307
  62 N :   -0.046721
  63 C :   -0.017451
  64 N :   -0.051785
  65 H :    0.039440
  66 H :    0.050834
  67 H :    0.040740
  68 H :    0.035659
  69 H :    0.035431
  70 H :    0.034069
  71 H :    0.039650
  72 H :    0.036866
  73 H :    0.029341
  74 H :    0.044437
  75 H :    0.048490
  76 H :    0.052870
  77 H :    0.088289
  78 H :    0.051607
  79 H :    0.032491
  80 H :    0.042835
  81 H :    0.035648
  82 H :    0.030683
  83 H :    0.050963
  84 H :    0.054568
  85 H :    0.100034
  86 H :    0.037375

  Mayer bond orders larger than 0.100000
B(  0-C ,  1-C ) :   1.1139 B(  0-C , 65-H ) :   0.9474 B(  0-C , 66-H ) :   0.9396
B(  0-C , 67-H ) :   0.9361 B(  1-C ,  2-C ) :   1.2566 B(  1-C , 43-C ) :   1.4524
B(  2-C ,  3-C ) :   1.5732 B(  2-C , 68-H ) :   0.9928 B(  3-C ,  4-C ) :   0.9275
B(  3-C , 42-S ) :   1.1889 B(  3-C , 43-C ) :   0.1001 B(  4-C ,  5-C ) :   1.0634
B(  4-C ,  6-N ) :   0.9428 B(  4-C , 41-C ) :   0.9562 B(  5-C , 69-H ) :   0.9502
B(  5-C , 70-H ) :   0.9512 B(  5-C , 71-H ) :   0.9575 B(  6-N ,  7-N ) :   1.8966
B(  7-N ,  8-C ) :   0.9573 B(  8-C ,  9-C ) :   1.0680 B(  8-C , 10-C ) :   0.9278
B(  8-C , 37-C ) :   0.9176 B(  9-C , 72-H ) :   0.9513 B(  9-C , 73-H ) :   0.9320
B(  9-C , 74-H ) :   0.9485 B( 10-C , 11-S ) :   1.1948 B( 10-C , 35-C ) :   1.5535
B( 11-S , 12-C ) :   1.1063 B( 12-C , 13-C ) :   1.1403 B( 12-C , 34-C ) :   1.4230
B( 13-C , 14-C ) :   1.6492 B( 13-C , 75-H ) :   0.9284 B( 14-C , 15-C ) :   0.9535
B( 14-C , 28-C ) :   1.0436 B( 15-C , 16-O ) :   2.2735 B( 15-C , 17-C ) :   0.8991
B( 17-C , 18-C ) :   1.3779 B( 17-C , 27-C ) :   1.3316 B( 18-C , 19-C ) :   1.3546
B( 18-C , 76-H ) :   1.0127 B( 19-C , 20-C ) :   1.0587 B( 19-C , 22-C ) :   1.3525
B( 20-C , 21-N ) :   2.9933 B( 22-C , 23-C ) :   0.8603 B( 22-C , 26-C ) :   1.3753
B( 23-C , 24-O ) :   2.1766 B( 23-C , 25-O ) :   1.2766 B( 25-O , 77-H ) :   0.9383
B( 26-C , 27-C ) :   1.3311 B( 26-C , 78-H ) :   0.9911 B( 27-C , 28-C ) :   0.9848
B( 28-C , 29-C ) :   1.6680 B( 29-C , 30-C ) :   1.1679 B( 29-C , 32-C ) :   1.1240
B( 30-C , 31-N ) :   2.9976 B( 32-C , 33-N ) :   3.0016 B( 34-C , 35-C ) :   1.3167
B( 34-C , 79-H ) :   0.9935 B( 35-C , 36-C ) :   1.0963 B( 36-C , 80-H ) :   0.9403
B( 36-C , 81-H ) :   0.9425 B( 36-C , 82-H ) :   0.9277 B( 37-C , 38-N ) :   1.6856
B( 37-C , 41-C ) :   1.2344 B( 38-N , 39-O ) :   1.0471 B( 38-N , 40-N ) :   0.1493
B( 39-O , 40-N ) :   1.0429 B( 40-N , 41-C ) :   1.6893 B( 42-S , 43-C ) :   1.0751
B( 43-C , 44-C ) :   1.1417 B( 44-C , 45-C ) :   1.6462 B( 44-C , 83-H ) :   0.9398
B( 45-C , 46-C ) :   0.9458 B( 45-C , 59-C ) :   1.0397 B( 46-C , 47-O ) :   2.2800
B( 46-C , 48-C ) :   0.9002 B( 48-C , 49-C ) :   1.3594 B( 48-C , 58-C ) :   1.3439
B( 49-C , 50-C ) :   1.3665 B( 49-C , 84-H ) :   1.0152 B( 50-C , 51-C ) :   1.0714
B( 50-C , 53-C ) :   1.3941 B( 51-C , 52-N ) :   3.0394 B( 53-C , 54-C ) :   0.8677
B( 53-C , 57-C ) :   1.3292 B( 54-C , 55-O ) :   2.1721 B( 54-C , 56-O ) :   1.2579
B( 56-O , 85-H ) :   0.9442 B( 57-C , 58-C ) :   1.3831 B( 57-C , 86-H ) :   0.9699
B( 58-C , 59-C ) :   0.9991 B( 59-C , 60-C ) :   1.6593 B( 60-C , 61-C ) :   1.1699
B( 60-C , 63-C ) :   1.1362 B( 61-C , 62-N ) :   2.9055 B( 63-C , 64-N ) :   2.9903

-----------------------------------------------------------------------------
         ABSORPTION SPECTRUM VIA TRANSITION ELECTRIC DIPOLE MOMENTS
-----------------------------------------------------------------------------
State   Energy  Wavelength   fosc         T2         TX        TY        TZ
        (cm-1)    (nm)                  (au**2)     (au)      (au)      (au)
-----------------------------------------------------------------------------
   0   21945.1    455.7   0.235311966   3.53006  -1.03180  -0.79820   1.35216
   1   22830.2    438.0   0.382712406   5.51872   1.32211  -1.73843  -0.86523
   2   26040.9    384.0   0.017099849   0.21618  -0.18379   0.27415   0.32748
   3   27401.9    364.9   0.282713895   3.39659   0.26393  -1.82310  -0.05691
   4   27875.0    358.7   0.079556438   0.93958   0.48056   0.71154  -0.44984
   5   28218.8    354.4   0.072154127   0.84178  -0.06281   0.87228   0.27741
   6   28845.9    346.7   0.014411433   0.16447   0.16880   0.04426  -0.36609
   7   29467.2    339.4   0.088680191   0.99075  -0.19399  -0.37297   0.90223
   8   29715.0    336.5   0.024308549   0.26931   0.08353  -0.51151  -0.02635
   9   29952.1    333.9   0.081369195   0.89435   0.19451   0.58076  -0.72058
  10   30612.2    326.7   0.097697090   1.05066  -0.02370   0.98792  -0.27224
  11   30798.4    324.7   0.125863634   1.34539   0.14681  -0.99113   0.58437
  12   31395.0    318.5   0.188211839   1.97362  -0.56455  -1.28579   0.04071
  13   32040.1    312.1   0.001318098   0.01354   0.07865   0.04286  -0.07431
  14   32259.7    310.0   0.398606713   4.06781   0.20810  -1.42423   1.41282
  15   33332.6    300.0   0.069273308   0.68418   0.22779   0.79316   0.05647
  16   33850.8    295.4   0.000327702   0.00319   0.01367  -0.02100   0.05059
  17   34170.1    292.7   0.037732256   0.36353   0.17056  -0.56963   0.09980
  18   34719.8    288.0   0.517175991   4.90385   0.11964  -2.02037   0.89869
  19   34914.7    286.4   0.393808323   3.71323  -0.91590  -1.42603  -0.91694
  20   35142.1    284.6   0.019600803   0.18362  -0.11303   0.33533   0.24166
  21   35699.4    280.1   0.000014907   0.00014  -0.00447  -0.00940  -0.00540
  22   36223.9    276.1   0.004666319   0.04241   0.00830  -0.01356   0.20532
  23   36326.5    275.3   0.105018447   0.95174   0.55379   0.78454  -0.17192
  24   37036.2    270.0   0.103420227   0.91930   0.48706   0.68984  -0.45408
  25   37379.0    267.5   0.031667688   0.27891   0.05837  -0.38135  -0.36066
  26   37778.5    264.7   0.002788982   0.02430   0.13321  -0.04431  -0.06780
  27   38124.4    262.3   0.041875027   0.36160   0.30619  -0.41709   0.30641
  28   38193.0    261.8   0.024657513   0.21254   0.34855   0.26850  -0.13769
  29   38556.4    259.4   0.004859236   0.04149   0.06837   0.18947  -0.03028
  30   38911.4    257.0   0.071493509   0.60487  -0.26361   0.69838   0.21828
  31   39035.2    256.2   0.039924785   0.33671   0.11335  -0.55751  -0.11425
  32   39117.1    255.6   0.006277586   0.05283  -0.09672   0.20843  -0.00589
  33   39763.0    251.5   0.000121246   0.00100   0.00131  -0.01301  -0.02886
  34   40171.0    248.9   0.041735999   0.34204   0.16183  -0.18877  -0.52935

FINAL SINGLE POINT ENERGY     -3632.595396500151

DIPOLE MOMENT
-------------
                                X             Y             Z
Electronic contribution:     -7.92354      14.37332      12.12638
Nuclear contribution   :     10.15875     -15.23549     -16.08837
                        -----------------------------------------
Total Dipole Moment    :      2.23522      -0.86217      -3.96199
                        -----------------------------------------
Magnitude (a.u.)       :      4.63000
Magnitude (Debye)      :     11.76853

Rotational constants in cm-1:     0.001942     0.000431     0.000369
Rotational constants in MHz :    58.209365    12.911435    11.053211

                             ****ORCA TERMINATED NORMALLY****
TOTAL RUN TIME: 0 days 0 hours 7 minutes 59 seconds 989 msec
