                         Program Version 4.2.0 -  RELEASE  -
|  1> # ORCA input file
|  2> # SCF done       -200.286325454911          0.000904793482
|  3> ! CAM-B3LYP def2-SVP def2/J RIJCOSX Grid4 TightSCF
|  4> %maxcore 5000
|  5> %tddft
|  6>     Mode sTDDFT
|  7>     Ethresh 5.0
|  8>     maxcore 5000
|  9> end
| 10>
| 11> %pal
| 12>   nprocs 6
| 13>   end
| 14> * xyz 0 1
| 15>    C        4.62273        -7.67917         6.25536
| 16>    C        5.24711        -8.03771         7.44569
| 17>    C        4.34253        -8.35581         8.50248
| 18>    C        4.65308        -8.74714         9.78126
| 19>    C        5.96314        -8.90293        10.27413
| 20>    N        6.99696        -9.05024        10.74900
| 21>    C        3.63968        -9.03342        10.71921
| 22>    N        2.82149        -9.26839        11.48786
| 23>    S        2.66548        -8.19745         7.99492
| 24>    C        3.15484        -7.70478         6.35566
| 25>    O        2.37317        -7.44041         5.48211
| 26>    C        6.63739        -8.08972         7.61959
| 27>    N        7.78128        -8.12171         7.71555
| 28>    C        5.18379        -7.31475         5.02113
| 29>    C        6.53694        -7.21756         4.66739
| 30>    C        6.73457        -6.83784         3.36137
| 31>    C        5.51509        -6.63406         2.68511
| 32>    S        4.13786        -6.91297         3.67055
| 33>    C        5.61395        -6.24708         1.34005
| 34>    C        6.91372        -6.11290         0.82413
| 35>   Si        8.18038        -6.50521         2.18069
| 36>    C        9.20796        -4.99208         2.68844
| 37>    C        9.20368        -8.06225         1.81856
| 38>    C        6.89718        -5.73349        -0.50228
| 39>    C        5.61111        -5.56848        -1.02178
| 40>    S        4.38995        -5.89645         0.17777
| 41>    C        5.26518        -5.17919        -2.34133
| 42>    C        3.91770        -5.01488        -2.73765
| 43>    C        3.54411        -4.59913        -4.05586
| 44>    N        2.23889        -4.46429        -4.35706
| 45>    C        1.33983        -4.70679        -3.45866
| 46>    C        1.70946        -5.11486        -2.15133
| 47>    N        2.95397        -5.25725        -1.82773
| 48>    F        0.79140        -5.36566        -1.22552
| 49>    F        0.06353        -4.56757        -3.80128
| 50>    C        4.49351        -4.32378        -5.06897
| 51>    C        5.84650        -4.50628        -4.68737
| 52>    C        6.22402        -4.92053        -3.35294
| 53>    N        7.54762        -5.01700        -3.22871
| 54>    S        8.24533        -4.63366        -4.62205
| 55>    N        6.91494        -4.32320        -5.46286
| 56>    C        4.10034        -3.88615        -6.35802
| 57>    C        4.92676        -3.61475        -7.44996
| 58>    C        4.24245        -3.18008        -8.56819
| 59>    C        2.86249        -3.10884        -8.33015
| 60>    S        2.42247        -3.59478        -6.73987
| 61>    C        2.07492        -2.64618        -9.39888
| 62>    C        2.74185        -2.33404       -10.58888
| 63>   Si        4.60196        -2.61538       -10.34220
| 64>    C        5.58980        -0.99754       -10.42415
| 65>    C        5.28474        -4.01078       -11.43554
| 66>    C        1.86756        -1.89029       -11.56429
| 67>    C        0.54527        -1.80600       -11.13680
| 68>    S        0.38376        -2.36458        -9.48413
| 69>    C       -0.55926        -1.40624       -11.91704
| 70>    C       -1.79154        -0.99332       -11.50171
| 71>    C       -2.95686        -1.09460       -12.41853
| 72>    O       -2.92857        -1.29265       -13.61152
| 73>    C       -4.14365        -0.96704       -11.54544
| 74>    C       -5.46296        -1.11808       -11.86057
| 75>    C       -6.43237        -0.98479       -10.84062
| 76>    C       -6.01344        -0.70139        -9.50807
| 77>    C       -6.98544        -0.58169        -8.49473
| 78>    C       -8.31121        -0.73179        -8.79061
| 79>    C       -8.72475        -1.00868       -10.10902
| 80>    C       -7.80622        -1.13267       -11.11349
| 81>    F      -10.03137        -1.15139       -10.37063
| 82>    F       -9.23384        -0.61684        -7.82623
| 83>    C       -4.64018        -0.53901        -9.21325
| 84>    C       -3.72106        -0.66392       -10.21931
| 85>    C       -2.26799        -0.52026       -10.22160
| 86>    C       -1.54426         0.19920        -9.30548
| 87>    C       -0.19541         0.56076        -9.49870
| 88>    N        0.88663         0.91284        -9.65286
| 89>    C       -2.09317         0.73918        -8.12566
| 90>    N       -2.49307         1.19072        -7.14910
| 91>    H        7.32842        -7.42444         5.36319
| 92>    H        9.92784        -4.73883         1.91691
| 93>    H        9.75901        -5.19282         3.60151
| 94>    H        8.58288        -4.12115         2.86100
| 95>    H        8.57576        -8.89593         1.51913
| 96>    H        9.76207        -8.36484         2.69852
| 97>    H        9.91694        -7.87816         1.02173
| 98>    H        7.77085        -5.57112        -1.10520
| 99>    H        5.99179        -3.73983        -7.39144
|100>    H        5.12064        -0.21628        -9.83385
|101>    H        5.66261        -0.64284       -11.44722
|102>    H        6.59895        -1.14071       -10.05132
|103>    H        4.68360        -4.91193       -11.36223
|104>    H        6.29943        -4.26243       -11.14511
|105>    H        5.30635        -3.70793       -12.47734
|106>    H        2.16227        -1.59223       -12.55465
|107>    H       -0.44275        -1.51424       -12.99145
|108>    H       -5.76463        -1.33807       -12.87330
|109>    H       -6.68584        -0.36651        -7.48095
|110>    H       -8.13922        -1.34545       -12.11727
|111>    H       -4.34652        -0.33195        -8.19635
|112> *
|113>
|114>                          ****END OF INPUT****

CARTESIAN COORDINATES (ANGSTROEM)
---------------------------------
  C      4.622730   -7.679170    6.255360
  C      5.247110   -8.037710    7.445690
  C      4.342530   -8.355810    8.502480
  C      4.653080   -8.747140    9.781260
  C      5.963140   -8.902930   10.274130
  N      6.996960   -9.050240   10.749000
  C      3.639680   -9.033420   10.719210
  N      2.821490   -9.268390   11.487860
  S      2.665480   -8.197450    7.994920
  C      3.154840   -7.704780    6.355660
  O      2.373170   -7.440410    5.482110
  C      6.637390   -8.089720    7.619590
  N      7.781280   -8.121710    7.715550
  C      5.183790   -7.314750    5.021130
  C      6.536940   -7.217560    4.667390
  C      6.734570   -6.837840    3.361370
  C      5.515090   -6.634060    2.685110
  S      4.137860   -6.912970    3.670550
  C      5.613950   -6.247080    1.340050
  C      6.913720   -6.112900    0.824130
  Si     8.180380   -6.505210    2.180690
  C      9.207960   -4.992080    2.688440
  C      9.203680   -8.062250    1.818560
  C      6.897180   -5.733490   -0.502280
  C      5.611110   -5.568480   -1.021780
  S      4.389950   -5.896450    0.177770
  C      5.265180   -5.179190   -2.341330
  C      3.917700   -5.014880   -2.737650
  C      3.544110   -4.599130   -4.055860
  N      2.238890   -4.464290   -4.357060
  C      1.339830   -4.706790   -3.458660
  C      1.709460   -5.114860   -2.151330
  N      2.953970   -5.257250   -1.827730
  F      0.791400   -5.365660   -1.225520
  F      0.063530   -4.567570   -3.801280
  C      4.493510   -4.323780   -5.068970
  C      5.846500   -4.506280   -4.687370
  C      6.224020   -4.920530   -3.352940
  N      7.547620   -5.017000   -3.228710
  S      8.245330   -4.633660   -4.622050
  N      6.914940   -4.323200   -5.462860
  C      4.100340   -3.886150   -6.358020
  C      4.926760   -3.614750   -7.449960
  C      4.242450   -3.180080   -8.568190
  C      2.862490   -3.108840   -8.330150
  S      2.422470   -3.594780   -6.739870
  C      2.074920   -2.646180   -9.398880
  C      2.741850   -2.334040  -10.588880
  Si     4.601960   -2.615380  -10.342200
  C      5.589800   -0.997540  -10.424150
  C      5.284740   -4.010780  -11.435540
  C      1.867560   -1.890290  -11.564290
  C      0.545270   -1.806000  -11.136800
  S      0.383760   -2.364580   -9.484130
  C     -0.559260   -1.406240  -11.917040
  C     -1.791540   -0.993320  -11.501710
  C     -2.956860   -1.094600  -12.418530
  O     -2.928570   -1.292650  -13.611520
  C     -4.143650   -0.967040  -11.545440
  C     -5.462960   -1.118080  -11.860570
  C     -6.432370   -0.984790  -10.840620
  C     -6.013440   -0.701390   -9.508070
  C     -6.985440   -0.581690   -8.494730
  C     -8.311210   -0.731790   -8.790610
  C     -8.724750   -1.008680  -10.109020
  C     -7.806220   -1.132670  -11.113490
  F    -10.031370   -1.151390  -10.370630
  F     -9.233840   -0.616840   -7.826230
  C     -4.640180   -0.539010   -9.213250
  C     -3.721060   -0.663920  -10.219310
  C     -2.267990   -0.520260  -10.221600
  C     -1.544260    0.199200   -9.305480
  C     -0.195410    0.560760   -9.498700
  N      0.886630    0.912840   -9.652860
  C     -2.093170    0.739180   -8.125660
  N     -2.493070    1.190720   -7.149100
  H      7.328420   -7.424440    5.363190
  H      9.927840   -4.738830    1.916910
  H      9.759010   -5.192820    3.601510
  H      8.582880   -4.121150    2.861000
  H      8.575760   -8.895930    1.519130
  H      9.762070   -8.364840    2.698520
  H      9.916940   -7.878160    1.021730
  H      7.770850   -5.571120   -1.105200
  H      5.991790   -3.739830   -7.391440
  H      5.120640   -0.216280   -9.833850
  H      5.662610   -0.642840  -11.447220
  H      6.598950   -1.140710  -10.051320
  H      4.683600   -4.911930  -11.362230
  H      6.299430   -4.262430  -11.145110
  H      5.306350   -3.707930  -12.477340
  H      2.162270   -1.592230  -12.554650
  H     -0.442750   -1.514240  -12.991450
  H     -5.764630   -1.338070  -12.873300
  H     -6.685840   -0.366510   -7.480950
  H     -8.139220   -1.345450  -12.117270
  H     -4.346520   -0.331950   -8.196350

 Total Charge           Charge          ....    0
 Multiplicity           Mult            ....    1
 Number of Electrons    NEL             ....  578
 Basis Dimension        Dim             .... 1201

ORBITAL ENERGIES
----------------

  NO   OCC          E(Eh)            E(eV)
   0   2.0000     -89.052809     -2423.2501
   1   2.0000     -88.978414     -2421.2257
   2   2.0000     -88.976497     -2421.1736
   3   2.0000     -88.976251     -2421.1669
   4   2.0000     -88.972187     -2421.0563
   5   2.0000     -88.971701     -2421.0431
   6   2.0000     -66.213129     -1801.7508
   7   2.0000     -66.212294     -1801.7281
   8   2.0000     -24.828229      -675.6104
   9   2.0000     -24.827023      -675.5776
  10   2.0000     -24.797122      -674.7640
  11   2.0000     -24.796612      -674.7501
  12   2.0000     -19.254962      -523.9542
  13   2.0000     -19.213465      -522.8250
  14   2.0000     -14.469472      -393.7343
  15   2.0000     -14.468797      -393.7160
  16   2.0000     -14.463410      -393.5694
  17   2.0000     -14.461933      -393.5292
  18   2.0000     -14.420609      -392.4047
  19   2.0000     -14.415069      -392.2540
  20   2.0000     -14.414966      -392.2512
  21   2.0000     -14.413003      -392.1977
  22   2.0000     -14.410969      -392.1424
  23   2.0000     -10.445762      -284.2436
  24   2.0000     -10.444124      -284.1991
  25   2.0000     -10.414873      -283.4031
  26   2.0000     -10.380090      -282.4566
  27   2.0000     -10.379707      -282.4462
  28   2.0000     -10.368732      -282.1476
  29   2.0000     -10.365780      -282.0672
  30   2.0000     -10.356792      -281.8226
  31   2.0000     -10.355669      -281.7921
  32   2.0000     -10.352621      -281.7091
  33   2.0000     -10.352565      -281.7076
  34   2.0000     -10.352288      -281.7001
  35   2.0000     -10.344171      -281.4792
  36   2.0000     -10.341743      -281.4131
  37   2.0000     -10.340919      -281.3907
  38   2.0000     -10.339289      -281.3464
  39   2.0000     -10.330846      -281.1166
  40   2.0000     -10.328425      -281.0507
  41   2.0000     -10.327962      -281.0381
  42   2.0000     -10.326178      -280.9896
  43   2.0000     -10.324198      -280.9357
  44   2.0000     -10.323706      -280.9223
  45   2.0000     -10.322003      -280.8760
  46   2.0000     -10.320517      -280.8356
  47   2.0000     -10.320471      -280.8343
  48   2.0000     -10.318134      -280.7707
  49   2.0000     -10.317854      -280.7631
  50   2.0000     -10.315736      -280.7055
  51   2.0000     -10.315357      -280.6951
  52   2.0000     -10.315009      -280.6857
  53   2.0000     -10.313682      -280.6496
  54   2.0000     -10.312023      -280.6044
  55   2.0000     -10.309501      -280.5358
  56   2.0000     -10.309119      -280.5254
  57   2.0000     -10.306601      -280.4569
  58   2.0000     -10.303105      -280.3617
  59   2.0000     -10.301555      -280.3196
  60   2.0000     -10.301119      -280.3077
  61   2.0000     -10.300583      -280.2931
  62   2.0000     -10.300120      -280.2805
  63   2.0000     -10.299345      -280.2594
  64   2.0000     -10.295473      -280.1541
  65   2.0000     -10.292730      -280.0794
  66   2.0000     -10.287473      -279.9364
  67   2.0000     -10.285740      -279.8892
  68   2.0000     -10.274478      -279.5828
  69   2.0000     -10.273307      -279.5509
  70   2.0000     -10.272262      -279.5225
  71   2.0000     -10.269785      -279.4551
  72   2.0000     -10.262596      -279.2594
  73   2.0000     -10.261984      -279.2428
  74   2.0000     -10.261761      -279.2367
  75   2.0000     -10.259964      -279.1878
  76   2.0000      -8.144179      -221.6144
  77   2.0000      -8.073596      -219.6937
  78   2.0000      -8.072711      -219.6696
  79   2.0000      -8.071541      -219.6378
  80   2.0000      -8.065993      -219.4868
  81   2.0000      -8.065410      -219.4710
  82   2.0000      -6.115359      -166.4074
  83   2.0000      -6.107420      -166.1913
  84   2.0000      -6.106899      -166.1772
  85   2.0000      -6.043106      -164.4413
  86   2.0000      -6.042082      -164.4134
  87   2.0000      -6.040684      -164.3754
  88   2.0000      -6.039216      -164.3354
  89   2.0000      -6.037600      -164.2915
  90   2.0000      -6.036712      -164.2673
  91   2.0000      -6.035348      -164.2302
  92   2.0000      -6.034909      -164.2182
  93   2.0000      -6.034775      -164.2146
  94   2.0000      -6.034288      -164.2013
  95   2.0000      -6.033774      -164.1873
  96   2.0000      -6.030885      -164.1087
  97   2.0000      -6.030298      -164.0928
  98   2.0000      -6.028300      -164.0384
  99   2.0000      -6.027758      -164.0236
 100   2.0000      -5.378102      -146.3456
 101   2.0000      -5.377073      -146.3176
 102   2.0000      -3.741791      -101.8193
 103   2.0000      -3.740694      -101.7895
 104   2.0000      -3.740279      -101.7782
 105   2.0000      -3.739338      -101.7525
 106   2.0000      -3.739004      -101.7435
 107   2.0000      -3.738001      -101.7162
 108   2.0000      -1.356466       -36.9113
 109   2.0000      -1.342376       -36.5279
 110   2.0000      -1.319742       -35.9120
 111   2.0000      -1.304907       -35.5083
 112   2.0000      -1.178252       -32.0619
 113   2.0000      -1.150903       -31.3177
 114   2.0000      -1.128933       -30.7198
 115   2.0000      -1.128890       -30.7187
 116   2.0000      -1.055296       -28.7161
 117   2.0000      -1.031522       -28.0691
 118   2.0000      -1.020547       -27.7705
 119   2.0000      -1.014606       -27.6088
 120   2.0000      -1.012708       -27.5572
 121   2.0000      -1.006385       -27.3851
 122   2.0000      -1.003779       -27.3142
 123   2.0000      -1.002566       -27.2812
 124   2.0000      -0.997315       -27.1383
 125   2.0000      -0.993187       -27.0260
 126   2.0000      -0.991250       -26.9733
 127   2.0000      -0.988962       -26.9110
 128   2.0000      -0.984218       -26.7819
 129   2.0000      -0.979568       -26.6554
 130   2.0000      -0.971208       -26.4279
 131   2.0000      -0.931878       -25.3577
 132   2.0000      -0.928613       -25.2689
 133   2.0000      -0.914411       -24.8824
 134   2.0000      -0.904457       -24.6115
 135   2.0000      -0.897723       -24.4283
 136   2.0000      -0.894627       -24.3440
 137   2.0000      -0.891318       -24.2540
 138   2.0000      -0.885361       -24.0919
 139   2.0000      -0.872085       -23.7306
 140   2.0000      -0.858578       -23.3631
 141   2.0000      -0.855853       -23.2889
 142   2.0000      -0.855554       -23.2808
 143   2.0000      -0.839911       -22.8551
 144   2.0000      -0.839412       -22.8416
 145   2.0000      -0.836487       -22.7620
 146   2.0000      -0.833330       -22.6761
 147   2.0000      -0.824933       -22.4476
 148   2.0000      -0.815114       -22.1804
 149   2.0000      -0.802415       -21.8348
 150   2.0000      -0.801294       -21.8043
 151   2.0000      -0.793578       -21.5943
 152   2.0000      -0.784756       -21.3543
 153   2.0000      -0.778694       -21.1893
 154   2.0000      -0.778080       -21.1726
 155   2.0000      -0.766608       -20.8605
 156   2.0000      -0.762509       -20.7489
 157   2.0000      -0.760018       -20.6811
 158   2.0000      -0.743718       -20.2376
 159   2.0000      -0.734280       -19.9808
 160   2.0000      -0.728897       -19.8343
 161   2.0000      -0.717016       -19.5110
 162   2.0000      -0.712698       -19.3935
 163   2.0000      -0.700989       -19.0749
 164   2.0000      -0.698553       -19.0086
 165   2.0000      -0.692372       -18.8404
 166   2.0000      -0.686870       -18.6907
 167   2.0000      -0.684541       -18.6273
 168   2.0000      -0.682407       -18.5692
 169   2.0000      -0.678938       -18.4748
 170   2.0000      -0.668448       -18.1894
 171   2.0000      -0.665605       -18.1120
 172   2.0000      -0.656053       -17.8521
 173   2.0000      -0.652455       -17.7542
 174   2.0000      -0.648651       -17.6507
 175   2.0000      -0.641265       -17.4497
 176   2.0000      -0.636689       -17.3252
 177   2.0000      -0.634316       -17.2606
 178   2.0000      -0.631670       -17.1886
 179   2.0000      -0.628048       -17.0900
 180   2.0000      -0.625751       -17.0276
 181   2.0000      -0.622744       -16.9457
 182   2.0000      -0.615727       -16.7548
 183   2.0000      -0.613045       -16.6818
 184   2.0000      -0.609280       -16.5793
 185   2.0000      -0.603853       -16.4317
 186   2.0000      -0.595202       -16.1963
 187   2.0000      -0.586250       -15.9527
 188   2.0000      -0.584310       -15.8999
 189   2.0000      -0.583127       -15.8677
 190   2.0000      -0.578000       -15.7282
 191   2.0000      -0.576933       -15.6992
 192   2.0000      -0.573720       -15.6117
 193   2.0000      -0.565766       -15.3953
 194   2.0000      -0.561171       -15.2702
 195   2.0000      -0.561100       -15.2683
 196   2.0000      -0.555376       -15.1126
 197   2.0000      -0.553227       -15.0541
 198   2.0000      -0.550867       -14.9899
 199   2.0000      -0.547640       -14.9021
 200   2.0000      -0.545995       -14.8573
 201   2.0000      -0.541018       -14.7219
 202   2.0000      -0.538022       -14.6403
 203   2.0000      -0.535258       -14.5651
 204   2.0000      -0.534936       -14.5564
 205   2.0000      -0.530307       -14.4304
 206   2.0000      -0.528112       -14.3707
 207   2.0000      -0.526695       -14.3321
 208   2.0000      -0.525473       -14.2989
 209   2.0000      -0.523843       -14.2545
 210   2.0000      -0.522163       -14.2088
 211   2.0000      -0.518083       -14.0978
 212   2.0000      -0.515853       -14.0371
 213   2.0000      -0.513305       -13.9677
 214   2.0000      -0.511106       -13.9079
 215   2.0000      -0.510206       -13.8834
 216   2.0000      -0.501709       -13.6522
 217   2.0000      -0.499591       -13.5946
 218   2.0000      -0.498930       -13.5766
 219   2.0000      -0.498715       -13.5707
 220   2.0000      -0.498404       -13.5623
 221   2.0000      -0.496277       -13.5044
 222   2.0000      -0.494809       -13.4644
 223   2.0000      -0.491706       -13.3800
 224   2.0000      -0.489473       -13.3192
 225   2.0000      -0.485681       -13.2160
 226   2.0000      -0.484493       -13.1837
 227   2.0000      -0.483465       -13.1558
 228   2.0000      -0.482988       -13.1428
 229   2.0000      -0.481632       -13.1059
 230   2.0000      -0.479356       -13.0439
 231   2.0000      -0.478780       -13.0283
 232   2.0000      -0.476349       -12.9621
 233   2.0000      -0.475682       -12.9440
 234   2.0000      -0.472724       -12.8635
 235   2.0000      -0.469656       -12.7800
 236   2.0000      -0.465996       -12.6804
 237   2.0000      -0.463163       -12.6033
 238   2.0000      -0.460848       -12.5403
 239   2.0000      -0.458243       -12.4694
 240   2.0000      -0.455129       -12.3847
 241   2.0000      -0.454923       -12.3791
 242   2.0000      -0.449185       -12.2229
 243   2.0000      -0.448426       -12.2023
 244   2.0000      -0.445717       -12.1286
 245   2.0000      -0.444732       -12.1018
 246   2.0000      -0.444157       -12.0861
 247   2.0000      -0.441158       -12.0045
 248   2.0000      -0.440637       -11.9903
 249   2.0000      -0.438688       -11.9373
 250   2.0000      -0.435933       -11.8623
 251   2.0000      -0.432535       -11.7699
 252   2.0000      -0.427266       -11.6265
 253   2.0000      -0.425676       -11.5832
 254   2.0000      -0.424724       -11.5573
 255   2.0000      -0.421879       -11.4799
 256   2.0000      -0.418907       -11.3990
 257   2.0000      -0.418768       -11.3953
 258   2.0000      -0.418525       -11.3886
 259   2.0000      -0.415711       -11.3121
 260   2.0000      -0.414171       -11.2702
 261   2.0000      -0.406217       -11.0537
 262   2.0000      -0.403512       -10.9801
 263   2.0000      -0.401908       -10.9365
 264   2.0000      -0.399111       -10.8604
 265   2.0000      -0.398417       -10.8415
 266   2.0000      -0.393028       -10.6948
 267   2.0000      -0.392366       -10.6768
 268   2.0000      -0.390733       -10.6324
 269   2.0000      -0.386778       -10.5248
 270   2.0000      -0.385571       -10.4919
 271   2.0000      -0.373640       -10.1673
 272   2.0000      -0.371429       -10.1071
 273   2.0000      -0.364877        -9.9288
 274   2.0000      -0.360499        -9.8097
 275   2.0000      -0.356015        -9.6877
 276   2.0000      -0.354699        -9.6519
 277   2.0000      -0.344428        -9.3724
 278   2.0000      -0.340477        -9.2648
 279   2.0000      -0.337724        -9.1899
 280   2.0000      -0.335557        -9.1310
 281   2.0000      -0.334166        -9.0931
 282   2.0000      -0.332982        -9.0609
 283   2.0000      -0.325700        -8.8628
 284   2.0000      -0.315965        -8.5978
 285   2.0000      -0.303941        -8.2706
 286   2.0000      -0.296970        -8.0810
 287   2.0000      -0.269273        -7.3273
 288   2.0000      -0.237104        -6.4519
 289   0.0000      -0.134478        -3.6593
 290   0.0000      -0.110591        -3.0093
 291   0.0000      -0.093018        -2.5311
 292   0.0000      -0.057070        -1.5530
 293   0.0000      -0.043019        -1.1706

MULLIKEN ATOMIC CHARGES
-----------------------
   0 C :    0.165730
   1 C :   -0.104733
   2 C :    0.081604
   3 C :   -0.303084
   4 C :   -0.192191
   5 N :    0.209930
   6 C :   -0.209497
   7 N :    0.164926
   8 S :    0.123670
   9 C :    0.042411
  10 O :   -0.147155
  11 C :   -0.247526
  12 N :    0.180847
  13 C :   -0.153240
  14 C :   -0.018746
  15 C :   -0.127304
  16 C :   -0.043592
  17 S :    0.202049
  18 C :   -0.069031
  19 C :   -0.095732
  20 Si:    0.549976
  21 C :   -0.205052
  22 C :   -0.204882
  23 C :   -0.043697
  24 C :   -0.176489
  25 S :    0.183988
  26 C :    0.193156
  27 C :   -0.053028
  28 C :   -0.066613
  29 N :   -0.039172
  30 C :    0.149637
  31 C :    0.153277
  32 N :   -0.042227
  33 F :   -0.130938
  34 F :   -0.134339
  35 C :    0.209093
  36 C :   -0.016407
  37 C :   -0.017768
  38 N :   -0.292723
  39 S :    0.545212
  40 N :   -0.292143
  41 C :   -0.186936
  42 C :   -0.036958
  43 C :   -0.106836
  44 C :   -0.046474
  45 S :    0.180279
  46 C :   -0.076616
  47 C :   -0.115116
  48 Si:    0.548256
  49 C :   -0.205369
  50 C :   -0.205551
  51 C :    0.023663
  52 C :   -0.103142
  53 S :    0.174161
  54 C :    0.059595
  55 C :   -0.149369
  56 C :    0.144170
  57 O :   -0.145369
  58 C :    0.011193
  59 C :   -0.081415
  60 C :    0.110924
  61 C :    0.109728
  62 C :   -0.105265
  63 C :    0.241174
  64 C :    0.237484
  65 C :   -0.102839
  66 F :   -0.173507
  67 F :   -0.172049
  68 C :   -0.079314
  69 C :    0.036795
  70 C :    0.250388
  71 C :   -0.323442
  72 C :   -0.206255
  73 N :    0.169050
  74 C :   -0.176726
  75 N :    0.151456
  76 H :    0.007453
  77 H :    0.045981
  78 H :    0.053380
  79 H :    0.056285
  80 H :    0.056101
  81 H :    0.053505
  82 H :    0.046732
  83 H :   -0.006708
  84 H :   -0.006018
  85 H :    0.068138
  86 H :    0.046545
  87 H :    0.044274
  88 H :    0.055941
  89 H :    0.045293
  90 H :    0.046424
  91 H :   -0.008386
  92 H :    0.026622
  93 H :   -0.009830
  94 H :    0.004259
  95 H :   -0.000552
  96 H :   -0.003405
Sum of atomic charges:   -0.0000000

LOEWDIN ATOMIC CHARGES
----------------------
   0 C :   -0.032196
   1 C :   -0.118123
   2 C :   -0.068057
   3 C :   -0.143015
   4 C :   -0.033381
   5 N :   -0.020182
   6 C :   -0.038297
   7 N :   -0.031595
   8 S :    0.395784
   9 C :   -0.049478
  10 O :   -0.129636
  11 C :   -0.031227
  12 N :   -0.031709
  13 C :   -0.184966
  14 C :   -0.004703
  15 C :   -0.202028
  16 C :   -0.156714
  17 S :    0.490984
  18 C :   -0.206694
  19 C :   -0.183605
  20 Si:    0.681169
  21 C :   -0.240926
  22 C :   -0.241041
  23 C :   -0.043106
  24 C :   -0.154633
  25 S :    0.484651
  26 C :   -0.053076
  27 C :   -0.011734
  28 C :   -0.019332
  29 N :   -0.050793
  30 C :    0.062596
  31 C :    0.066715
  32 N :   -0.054518
  33 F :   -0.020624
  34 F :   -0.023420
  35 C :   -0.035539
  36 C :   -0.039164
  37 C :   -0.035334
  38 N :   -0.279354
  39 S :    0.668081
  40 N :   -0.275719
  41 C :   -0.167772
  42 C :   -0.031999
  43 C :   -0.194937
  44 C :   -0.193041
  45 S :    0.483844
  46 C :   -0.161962
  47 C :   -0.199366
  48 Si:    0.681495
  49 C :   -0.240244
  50 C :   -0.242528
  51 C :   -0.006221
  52 C :   -0.183430
  53 S :    0.475043
  54 C :    0.053134
  55 C :   -0.107256
  56 C :    0.081945
  57 O :   -0.147074
  58 C :   -0.052933
  59 C :    0.028962
  60 C :   -0.010011
  61 C :   -0.006144
  62 C :   -0.030653
  63 C :    0.066448
  64 C :    0.066254
  65 C :   -0.033146
  66 F :   -0.050526
  67 F :   -0.049514
  68 C :    0.012695
  69 C :   -0.019062
  70 C :    0.060143
  71 C :   -0.145666
  72 C :   -0.033627
  73 N :   -0.052858
  74 C :   -0.019981
  75 N :   -0.055092
  76 H :    0.039431
  77 H :    0.036544
  78 H :    0.039403
  79 H :    0.041677
  80 H :    0.041557
  81 H :    0.039582
  82 H :    0.036598
  83 H :    0.027091
  84 H :    0.027498
  85 H :    0.046317
  86 H :    0.036836
  87 H :    0.035811
  88 H :    0.041056
  89 H :    0.036021
  90 H :    0.036166
  91 H :    0.034958
  92 H :    0.051522
  93 H :    0.040182
  94 H :    0.046735
  95 H :    0.044572
  96 H :    0.039462

  Mayer bond orders larger than 0.100000
B(  0-C ,  1-C ) :   1.4947 B(  0-C ,  9-C ) :   0.8525 B(  0-C , 13-C ) :   1.3058
B(  1-C ,  2-C ) :   1.1455 B(  1-C , 11-C ) :   1.1864 B(  2-C ,  3-C ) :   1.6438
B(  2-C ,  8-S ) :   1.0404 B(  3-C ,  4-C ) :   1.1719 B(  3-C ,  6-C ) :   1.1331
B(  4-C ,  5-N ) :   3.0221 B(  6-C ,  7-N ) :   3.0319 B(  8-S ,  9-C ) :   1.0374
B(  8-S , 10-O ) :   0.1082 B(  9-C , 10-O ) :   2.1126 B( 11-C , 12-N ) :   2.9257
B( 13-C , 14-C ) :   1.3285 B( 13-C , 17-S ) :   1.0680 B( 14-C , 15-C ) :   1.3753
B( 14-C , 76-H ) :   0.9877 B( 15-C , 16-C ) :   1.3926 B( 15-C , 20-Si) :   0.8620
B( 16-C , 17-S ) :   1.1181 B( 16-C , 18-C ) :   1.2132 B( 18-C , 19-C ) :   1.4373
B( 18-C , 25-S ) :   1.0670 B( 19-C , 20-Si) :   0.8714 B( 19-C , 23-C ) :   1.2877
B( 20-Si, 21-C ) :   1.0557 B( 20-Si, 22-C ) :   1.0566 B( 21-C , 77-H ) :   0.9552
B( 21-C , 78-H ) :   0.9550 B( 21-C , 79-H ) :   0.9504 B( 22-C , 80-H ) :   0.9504
B( 22-C , 81-H ) :   0.9552 B( 22-C , 82-H ) :   0.9545 B( 23-C , 24-C ) :   1.4143
B( 23-C , 83-H ) :   0.9866 B( 24-C , 25-S ) :   1.1190 B( 24-C , 26-C ) :   1.1878
B( 26-C , 27-C ) :   1.2863 B( 26-C , 35-C ) :   0.1236 B( 26-C , 37-C ) :   1.1920
B( 27-C , 28-C ) :   1.1242 B( 27-C , 32-N ) :   1.3838 B( 28-C , 29-N ) :   1.3906
B( 28-C , 35-C ) :   1.2737 B( 29-N , 30-C ) :   1.6511 B( 30-C , 31-C ) :   1.1098
B( 30-C , 34-F ) :   1.1867 B( 31-C , 32-N ) :   1.6542 B( 31-C , 33-F ) :   1.1911
B( 35-C , 36-C ) :   1.1874 B( 35-C , 41-C ) :   1.2064 B( 36-C , 37-C ) :   1.1008
B( 36-C , 40-N ) :   1.5152 B( 37-C , 38-N ) :   1.5172 B( 38-N , 39-S ) :   1.2712
B( 38-N , 40-N ) :   0.1500 B( 39-S , 40-N ) :   1.2773 B( 41-C , 42-C ) :   1.4110
B( 41-C , 45-S ) :   1.1037 B( 42-C , 43-C ) :   1.2849 B( 42-C , 84-H ) :   0.9874
B( 43-C , 44-C ) :   1.4516 B( 43-C , 48-Si) :   0.8743 B( 44-C , 45-S ) :   1.0840
B( 44-C , 46-C ) :   1.1919 B( 46-C , 47-C ) :   1.4547 B( 46-C , 53-S ) :   1.1413
B( 47-C , 48-Si) :   0.8631 B( 47-C , 51-C ) :   1.3120 B( 48-Si, 49-C ) :   1.0576
B( 48-Si, 50-C ) :   1.0495 B( 49-C , 85-H ) :   0.9497 B( 49-C , 86-H ) :   0.9541
B( 49-C , 87-H ) :   0.9554 B( 50-C , 88-H ) :   0.9515 B( 50-C , 89-H ) :   0.9560
B( 50-C , 90-H ) :   0.9552 B( 51-C , 52-C ) :   1.3923 B( 51-C , 91-H ) :   1.0009
B( 52-C , 53-S ) :   1.0920 B( 52-C , 54-C ) :   1.1662 B( 54-C , 55-C ) :   1.5985
B( 54-C , 92-H ) :   0.9506 B( 55-C , 56-C ) :   0.9490 B( 55-C , 70-C ) :   1.0513
B( 56-C , 57-O ) :   2.2715 B( 56-C , 58-C ) :   0.9159 B( 58-C , 59-C ) :   1.4783
B( 58-C , 69-C ) :   1.2221 B( 59-C , 60-C ) :   1.1926 B( 59-C , 93-H ) :   1.0159
B( 60-C , 61-C ) :   1.2583 B( 60-C , 65-C ) :   1.1947 B( 61-C , 62-C ) :   1.1902
B( 61-C , 68-C ) :   1.2130 B( 62-C , 63-C ) :   1.4417 B( 62-C , 65-C ) :   0.1085
B( 62-C , 94-H ) :   1.0071 B( 63-C , 64-C ) :   1.1921 B( 63-C , 67-F ) :   1.1333
B( 64-C , 65-C ) :   1.4428 B( 64-C , 66-F ) :   1.1314 B( 65-C , 95-H ) :   1.0068
B( 68-C , 69-C ) :   1.4612 B( 68-C , 96-H ) :   0.9948 B( 69-C , 70-C ) :   0.9964
B( 70-C , 71-C ) :   1.6471 B( 71-C , 72-C ) :   1.1530 B( 71-C , 74-C ) :   1.1389
B( 72-C , 73-N ) :   3.0246 B( 74-C , 75-N ) :   2.9890

-----------------------------------------------------------------------------
         ABSORPTION SPECTRUM VIA TRANSITION ELECTRIC DIPOLE MOMENTS
-----------------------------------------------------------------------------
State   Energy  Wavelength   fosc         T2         TX        TY        TZ
        (cm-1)    (nm)                  (au**2)     (au)      (au)      (au)
-----------------------------------------------------------------------------
   0    8549.5   1169.7   1.227747700  47.27609  -1.96575   2.29741  -6.17526
   1   14898.5    671.2   0.498450851  11.01428   0.99107   0.66849  -3.09599
   2   16411.5    609.3   0.146155425   2.93185   1.57662  -0.66309  -0.08010
   3   17666.2    566.1   0.317162310   5.91036  -1.94085   1.15732  -0.89669
   4   22637.5    441.7   0.044226740   0.64318  -0.05620   0.48369  -0.63723
   5   23632.4    423.1   0.028846827   0.40185  -0.36489   0.37405  -0.35888
   6   25258.7    395.9   0.013872959   0.18081   0.40269   0.05750  -0.12389
   7   25659.3    389.7   0.036209364   0.46457  -0.10552   0.01468  -0.67322
   8   25726.9    388.7   0.385549530   4.93365  -0.62635   0.05717  -2.13027
   9   26626.1    375.6   0.181325602   2.24196   0.75410  -0.50825   1.18953
  10   26757.6    373.7   0.070887066   0.87216   0.02684  -0.29487   0.88571
  11   26853.0    372.4   0.102320389   1.25443  -1.07161   0.07960   0.31581
  12   27186.8    367.8   0.009750772   0.11807   0.19139   0.09693  -0.26842
  13   27791.7    359.8   0.090234266   1.06889   0.40591  -0.16618   0.93622
  14   27995.0    357.2   0.035248665   0.41451  -0.29398  -0.25663   0.51208
  15   28104.7    355.8   0.000374463   0.00439   0.01982   0.06233  -0.01043
  16   28816.2    347.0   0.030650575   0.35017   0.49285  -0.07698   0.31835
  17   29109.2    343.5   0.022272216   0.25189  -0.48497   0.02784  -0.12618
  18   29308.9    341.2   0.097631516   1.09665   1.02687  -0.05679   0.19738
  19   29512.6    338.8   0.002477478   0.02764  -0.16035  -0.04381  -0.00190
  20   29934.2    334.1   0.039871846   0.43850   0.22335  -0.19434   0.59233
  21   30165.5    331.5   0.097610723   1.06528   0.99529   0.23804  -0.13423
  22   30624.7    326.5   0.002902558   0.03120   0.03963   0.01000   0.17185
  23   31034.0    322.2   0.259749457   2.75545  -1.53677  -0.16257   0.60610
  24   31209.1    320.4   0.009015902   0.09511   0.10516   0.20252   0.20744
  25   32115.9    311.4   0.069056427   0.70788   0.82710   0.08017   0.13173
  26   32376.0    308.9   0.002244260   0.02282  -0.14834  -0.01438   0.02471
  27   32668.6    306.1   0.001792814   0.01807  -0.11292   0.00670   0.07261
  28   32926.2    303.7   0.088001473   0.87988  -0.11153  -0.17199  -0.91535
  29   33619.9    297.4   0.007251408   0.07101  -0.25468  -0.06988   0.03551
  30   33671.9    297.0   0.096800804   0.94643  -0.92216  -0.22179   0.21648
  31   34141.7    292.9   0.102042337   0.98394  -0.88229  -0.30425  -0.33607
  32   34470.9    290.1   0.017089987   0.16322  -0.36626  -0.02243   0.16902
  33   34677.9    288.4   0.221910753   2.10669   1.42388   0.19171   0.20619
  34   34879.5    286.7   0.006837735   0.06454   0.24464   0.03332  -0.05984
  35   35079.2    285.1   0.122338849   1.14813  -1.07136   0.00545   0.01700
  36   35298.9    283.3   0.428188649   3.99346   1.95465   0.32283  -0.26191
  37   35340.0    283.0   0.016826744   0.15675  -0.13255  -0.15360  -0.33998
  38   36039.5    277.5   0.149394152   1.36468   0.69948  -0.04608  -0.93449
  39   36121.0    276.8   0.010018969   0.09131  -0.00764  -0.19960  -0.22675
  40   36232.4    276.0   0.136403213   1.23937   1.09704  -0.01757  -0.18860
  41   36327.9    275.3   0.065499879   0.59358   0.67571   0.09861   0.35675
  42   36541.7    273.7   0.064625970   0.58223  -0.75276  -0.04719   0.11557
  43   37028.1    270.1   0.161312911   1.43421  -0.98335   0.15198  -0.66643
  44   37188.0    268.9   0.168328861   1.49016   0.85668   0.29102  -0.81949
  45   37499.9    266.7   0.136429730   1.19772   0.99123   0.10999  -0.45064
  46   37589.8    266.0   0.015186431   0.13300   0.26533   0.23420   0.08805
  47   37886.7    263.9   0.000618696   0.00538   0.06733   0.02665  -0.01150
  48   38354.5    260.7   0.015383868   0.13205   0.23250   0.19981   0.19511
  49   38922.5    256.9   0.015449599   0.13067   0.16727  -0.02703   0.31932
  50   39147.6    255.4   0.001211201   0.01019   0.09907   0.01767   0.00761
  51   39309.5    254.4   0.057842670   0.48442  -0.16091   0.23450  -0.63525
  52   39423.9    253.7   0.000471225   0.00393  -0.03532   0.02822  -0.04349
  53   39867.4    250.8   0.000006792   0.00006  -0.00206   0.00668  -0.00269
  54   40160.8    249.0   0.060948058   0.49961  -0.02015   0.22747   0.66893

FINAL SINGLE POINT ENERGY     -6038.257620878646

DIPOLE MOMENT
-------------
                                X             Y             Z
Electronic contribution:    -61.82197      -6.01153      34.43534
Nuclear contribution   :     64.08287       6.06344     -40.35887
                        -----------------------------------------
Total Dipole Moment    :      2.26090       0.05191      -5.92353
                        -----------------------------------------
Magnitude (a.u.)       :      6.34055
Magnitude (Debye)      :     16.11640

Rotational constants in cm-1:     0.001086     0.000220     0.000186
Rotational constants in MHz :    32.553145     6.585189     5.573194

                             ****ORCA TERMINATED NORMALLY****
TOTAL RUN TIME: 0 days 0 hours 10 minutes 29 seconds 315 msec
