                         Program Version 4.2.0 -  RELEASE  -
|  1> # ORCA input file
|  2> # SCF done       -164.680486628914          0.000798233245
|  3> ! CAM-B3LYP def2-SVP def2/J RIJCOSX Grid4 TightSCF
|  4> %maxcore 5000
|  5> %tddft
|  6>     Mode sTDDFT
|  7>     Ethresh 5.0
|  8>     maxcore 5000
|  9> end
| 10>
| 11> %pal
| 12>   nprocs 6
| 13>   end
| 14> * xyz 0 1
| 15>    C       -1.66233        -6.05109         3.61502
| 16>    C       -0.59147        -5.43528         3.03500
| 17>    C       -0.50972        -3.95104         3.02002
| 18>    O       -0.91999        -3.26700         3.91284
| 19>    O        0.00296        -3.40357         1.90150
| 20>    C        0.30350        -6.37844         2.42535
| 21>    C       -0.16360        -7.65971         2.55827
| 22>    S       -1.64180        -7.74851         3.41561
| 23>    C        1.57858        -6.07405         1.81741
| 24>    C        2.46901        -5.07959         2.15672
| 25>    C        3.63631        -5.14007         1.38527
| 26>    C        3.62032        -6.18883         0.45260
| 27>    S        2.18481        -7.10829         0.53136
| 28>    C        4.83303        -6.17302        -0.28320
| 29>    C        5.62074        -5.10740         0.19620
| 30>    C        4.89554        -4.42625         1.26027
| 31>    C        5.32004        -3.35375         1.98680
| 32>    C        4.54808        -2.78630         3.02365
| 33>    N        3.93787        -2.32424         3.87662
| 34>    C        6.57496        -2.74996         1.75800
| 35>    N        7.59381        -2.25996         1.56846
| 36>    C        6.84386        -5.00894        -0.45537
| 37>    C        6.98302        -5.99077        -1.42773
| 38>    S        5.58513        -7.05005        -1.54115
| 39>    C        8.07443        -6.21731        -2.28414
| 40>    C        8.13331        -7.20953        -3.26788
| 41>    C        9.36662        -7.21473        -4.00700
| 42>    N        9.54577        -8.08250        -5.01786
| 43>    C        8.56420        -8.90285        -5.27069
| 44>    C        8.65747        -9.80431        -6.52598
| 45>    O        8.82755        -9.43119        -7.64173
| 46>    C        8.13458       -10.98785        -5.85531
| 47>    C        6.77164       -10.78791        -5.84154
| 48>    C        6.26916        -9.99538        -4.70610
| 49>    O        5.19016        -9.95736        -4.18231
| 50>    C        7.36521        -8.96527        -4.46286
| 51>    N        7.16609        -8.09863        -3.50012
| 52>    C       10.25850        -6.22934        -3.57433
| 53>    S        9.54502        -5.30090        -2.28346
| 54>    C       11.55185        -5.97599        -4.07447
| 55>    C       12.21911        -6.72462        -5.03528
| 56>    C       13.48248        -6.20948        -5.29976
| 57>    C       13.77948        -5.05638        -4.54762
| 58>    S       12.50634        -4.61607        -3.49903
| 59>    C       15.07038        -4.60138        -4.91144
| 60>    C       15.59300        -5.46547        -5.88971
| 61>    C       14.62273        -6.51462        -6.15304
| 62>    C       14.76300        -7.58218        -6.98902
| 63>    C       13.77640        -8.58564        -7.10559
| 64>    N       12.99761        -9.42282        -7.18458
| 65>    C       15.92645        -7.77440        -7.76447
| 66>    N       16.87354        -7.92816        -8.39197
| 67>    C       16.86919        -5.09212        -6.31297
| 68>    C       17.32547        -3.96415        -5.65811
| 69>    S       16.14713        -3.33948        -4.50826
| 70>    C       18.56176        -3.29193        -5.90556
| 71>    C       19.20868        -2.30620        -5.18178
| 72>    C       18.83078        -1.79141        -3.84016
| 73>    O       18.80445        -0.62761        -3.56506
| 74>    O       18.55623        -2.73324        -2.91114
| 75>    C       20.35568        -1.80807        -5.84491
| 76>    C       20.59124        -2.42366        -7.03059
| 77>    S       19.40626        -3.60844        -7.39922
| 78>    H       -2.47163        -5.56879         4.12597
| 79>    H        0.28055        -4.06549         1.25396
| 80>    H        0.31034        -8.55683         2.21132
| 81>    H        2.28941        -4.36347         2.93874
| 82>    H        7.60604        -4.27694        -0.25666
| 83>    H        8.62567       -11.27621        -4.93104
| 84>    H        6.24580       -10.60104        -6.77080
| 85>    H       11.77168        -7.58529        -5.49756
| 86>    H       17.45094        -5.60712        -7.05615
| 87>    H       18.68491        -3.63327        -3.23786
| 88>    H       20.97127        -1.03247        -5.42799
| 89>    H       21.39394        -2.25204        -7.71934
| 90> *
| 91>
| 92>                          ****END OF INPUT****

CARTESIAN COORDINATES (ANGSTROEM)
---------------------------------
  C     -1.662330   -6.051090    3.615020
  C     -0.591470   -5.435280    3.035000
  C     -0.509720   -3.951040    3.020020
  O     -0.919990   -3.267000    3.912840
  O      0.002960   -3.403570    1.901500
  C      0.303500   -6.378440    2.425350
  C     -0.163600   -7.659710    2.558270
  S     -1.641800   -7.748510    3.415610
  C      1.578580   -6.074050    1.817410
  C      2.469010   -5.079590    2.156720
  C      3.636310   -5.140070    1.385270
  C      3.620320   -6.188830    0.452600
  S      2.184810   -7.108290    0.531360
  C      4.833030   -6.173020   -0.283200
  C      5.620740   -5.107400    0.196200
  C      4.895540   -4.426250    1.260270
  C      5.320040   -3.353750    1.986800
  C      4.548080   -2.786300    3.023650
  N      3.937870   -2.324240    3.876620
  C      6.574960   -2.749960    1.758000
  N      7.593810   -2.259960    1.568460
  C      6.843860   -5.008940   -0.455370
  C      6.983020   -5.990770   -1.427730
  S      5.585130   -7.050050   -1.541150
  C      8.074430   -6.217310   -2.284140
  C      8.133310   -7.209530   -3.267880
  C      9.366620   -7.214730   -4.007000
  N      9.545770   -8.082500   -5.017860
  C      8.564200   -8.902850   -5.270690
  C      8.657470   -9.804310   -6.525980
  O      8.827550   -9.431190   -7.641730
  C      8.134580  -10.987850   -5.855310
  C      6.771640  -10.787910   -5.841540
  C      6.269160   -9.995380   -4.706100
  O      5.190160   -9.957360   -4.182310
  C      7.365210   -8.965270   -4.462860
  N      7.166090   -8.098630   -3.500120
  C     10.258500   -6.229340   -3.574330
  S      9.545020   -5.300900   -2.283460
  C     11.551850   -5.975990   -4.074470
  C     12.219110   -6.724620   -5.035280
  C     13.482480   -6.209480   -5.299760
  C     13.779480   -5.056380   -4.547620
  S     12.506340   -4.616070   -3.499030
  C     15.070380   -4.601380   -4.911440
  C     15.593000   -5.465470   -5.889710
  C     14.622730   -6.514620   -6.153040
  C     14.763000   -7.582180   -6.989020
  C     13.776400   -8.585640   -7.105590
  N     12.997610   -9.422820   -7.184580
  C     15.926450   -7.774400   -7.764470
  N     16.873540   -7.928160   -8.391970
  C     16.869190   -5.092120   -6.312970
  C     17.325470   -3.964150   -5.658110
  S     16.147130   -3.339480   -4.508260
  C     18.561760   -3.291930   -5.905560
  C     19.208680   -2.306200   -5.181780
  C     18.830780   -1.791410   -3.840160
  O     18.804450   -0.627610   -3.565060
  O     18.556230   -2.733240   -2.911140
  C     20.355680   -1.808070   -5.844910
  C     20.591240   -2.423660   -7.030590
  S     19.406260   -3.608440   -7.399220
  H     -2.471630   -5.568790    4.125970
  H      0.280550   -4.065490    1.253960
  H      0.310340   -8.556830    2.211320
  H      2.289410   -4.363470    2.938740
  H      7.606040   -4.276940   -0.256660
  H      8.625670  -11.276210   -4.931040
  H      6.245800  -10.601040   -6.770800
  H     11.771680   -7.585290   -5.497560
  H     17.450940   -5.607120   -7.056150
  H     18.684910   -3.633270   -3.237860
  H     20.971270   -1.032470   -5.427990
  H     21.393940   -2.252040   -7.719340

 Total Charge           Charge          ....    0
 Multiplicity           Mult            ....    1
 Number of Electrons    NEL             ....  478
 Basis Dimension        Dim             ....  970

ORBITAL ENERGIES
----------------

  NO   OCC          E(Eh)            E(eV)
   0   2.0000     -89.008898     -2422.0552
   1   2.0000     -88.999037     -2421.7869
   2   2.0000     -88.998179     -2421.7636
   3   2.0000     -88.996650     -2421.7220
   4   2.0000     -88.992566     -2421.6108
   5   2.0000     -88.979780     -2421.2629
   6   2.0000     -88.976701     -2421.1791
   7   2.0000     -19.266651      -524.2722
   8   2.0000     -19.258990      -524.0637
   9   2.0000     -19.238692      -523.5114
  10   2.0000     -19.234825      -523.4062
  11   2.0000     -19.207434      -522.6609
  12   2.0000     -19.197539      -522.3916
  13   2.0000     -14.465297      -393.6207
  14   2.0000     -14.460926      -393.5018
  15   2.0000     -14.435795      -392.8180
  16   2.0000     -14.434694      -392.7880
  17   2.0000     -14.433612      -392.7586
  18   2.0000     -14.431167      -392.6920
  19   2.0000     -10.411705      -283.3169
  20   2.0000     -10.404708      -283.1265
  21   2.0000     -10.399344      -282.9805
  22   2.0000     -10.390400      -282.7372
  23   2.0000     -10.370821      -282.2044
  24   2.0000     -10.369009      -282.1551
  25   2.0000     -10.360402      -281.9209
  26   2.0000     -10.357252      -281.8352
  27   2.0000     -10.356015      -281.8015
  28   2.0000     -10.355863      -281.7974
  29   2.0000     -10.346442      -281.5410
  30   2.0000     -10.346253      -281.5359
  31   2.0000     -10.344498      -281.4881
  32   2.0000     -10.344224      -281.4806
  33   2.0000     -10.340003      -281.3658
  34   2.0000     -10.339768      -281.3594
  35   2.0000     -10.338196      -281.3166
  36   2.0000     -10.337906      -281.3087
  37   2.0000     -10.337316      -281.2927
  38   2.0000     -10.336432      -281.2686
  39   2.0000     -10.335861      -281.2531
  40   2.0000     -10.334966      -281.2287
  41   2.0000     -10.334744      -281.2227
  42   2.0000     -10.334227      -281.2086
  43   2.0000     -10.333553      -281.1903
  44   2.0000     -10.333260      -281.1823
  45   2.0000     -10.330637      -281.1109
  46   2.0000     -10.319021      -280.7948
  47   2.0000     -10.316456      -280.7250
  48   2.0000     -10.315144      -280.6893
  49   2.0000     -10.314121      -280.6615
  50   2.0000     -10.311782      -280.5979
  51   2.0000     -10.310712      -280.5687
  52   2.0000     -10.310294      -280.5574
  53   2.0000     -10.309958      -280.5482
  54   2.0000     -10.309856      -280.5455
  55   2.0000     -10.309481      -280.5352
  56   2.0000     -10.309029      -280.5229
  57   2.0000     -10.308587      -280.5109
  58   2.0000     -10.308246      -280.5016
  59   2.0000     -10.304363      -280.3960
  60   2.0000     -10.302077      -280.3338
  61   2.0000     -10.300841      -280.3001
  62   2.0000     -10.291563      -280.0477
  63   2.0000      -8.103367      -220.5038
  64   2.0000      -8.093801      -220.2435
  65   2.0000      -8.092467      -220.2072
  66   2.0000      -8.091294      -220.1753
  67   2.0000      -8.085896      -220.0284
  68   2.0000      -8.076109      -219.7621
  69   2.0000      -8.072419      -219.6617
  70   2.0000      -6.072479      -165.2405
  71   2.0000      -6.068340      -165.1279
  72   2.0000      -6.065969      -165.0634
  73   2.0000      -6.063100      -164.9854
  74   2.0000      -6.061774      -164.9493
  75   2.0000      -6.060519      -164.9151
  76   2.0000      -6.058923      -164.8717
  77   2.0000      -6.057437      -164.8312
  78   2.0000      -6.056291      -164.8001
  79   2.0000      -6.056028      -164.7929
  80   2.0000      -6.055308      -164.7733
  81   2.0000      -6.054809      -164.7597
  82   2.0000      -6.053736      -164.7305
  83   2.0000      -6.050810      -164.6509
  84   2.0000      -6.048180      -164.5793
  85   2.0000      -6.045224      -164.4989
  86   2.0000      -6.041819      -164.4062
  87   2.0000      -6.040798      -164.3785
  88   2.0000      -6.038732      -164.3222
  89   2.0000      -6.037332      -164.2842
  90   2.0000      -6.034624      -164.2105
  91   2.0000      -1.189146       -32.3583
  92   2.0000      -1.181773       -32.1577
  93   2.0000      -1.161845       -31.6154
  94   2.0000      -1.152690       -31.3663
  95   2.0000      -1.115336       -30.3498
  96   2.0000      -1.105487       -30.0818
  97   2.0000      -1.097085       -29.8532
  98   2.0000      -1.052065       -28.6281
  99   2.0000      -1.050418       -28.5833
 100   2.0000      -1.042816       -28.3765
 101   2.0000      -1.027735       -27.9661
 102   2.0000      -1.025802       -27.9135
 103   2.0000      -1.023359       -27.8470
 104   2.0000      -1.013262       -27.5723
 105   2.0000      -1.011632       -27.5279
 106   2.0000      -1.010155       -27.4877
 107   2.0000      -1.008943       -27.4547
 108   2.0000      -0.996843       -27.1255
 109   2.0000      -0.991562       -26.9818
 110   2.0000      -0.972063       -26.4512
 111   2.0000      -0.964651       -26.2495
 112   2.0000      -0.960468       -26.1357
 113   2.0000      -0.926045       -25.1990
 114   2.0000      -0.917627       -24.9699
 115   2.0000      -0.889252       -24.1978
 116   2.0000      -0.882182       -24.0054
 117   2.0000      -0.879029       -23.9196
 118   2.0000      -0.876409       -23.8483
 119   2.0000      -0.867127       -23.5957
 120   2.0000      -0.863647       -23.5010
 121   2.0000      -0.861549       -23.4439
 122   2.0000      -0.856779       -23.3141
 123   2.0000      -0.850878       -23.1536
 124   2.0000      -0.846891       -23.0451
 125   2.0000      -0.821900       -22.3650
 126   2.0000      -0.810666       -22.0593
 127   2.0000      -0.788571       -21.4581
 128   2.0000      -0.783500       -21.3201
 129   2.0000      -0.781125       -21.2555
 130   2.0000      -0.779228       -21.2039
 131   2.0000      -0.753030       -20.4910
 132   2.0000      -0.746475       -20.3126
 133   2.0000      -0.724372       -19.7112
 134   2.0000      -0.720570       -19.6077
 135   2.0000      -0.711871       -19.3710
 136   2.0000      -0.708709       -19.2850
 137   2.0000      -0.699492       -19.0341
 138   2.0000      -0.695091       -18.9144
 139   2.0000      -0.691216       -18.8090
 140   2.0000      -0.688122       -18.7248
 141   2.0000      -0.680815       -18.5259
 142   2.0000      -0.679441       -18.4885
 143   2.0000      -0.674850       -18.3636
 144   2.0000      -0.670640       -18.2491
 145   2.0000      -0.666517       -18.1369
 146   2.0000      -0.663245       -18.0478
 147   2.0000      -0.655519       -17.8376
 148   2.0000      -0.643491       -17.5103
 149   2.0000      -0.634219       -17.2580
 150   2.0000      -0.630788       -17.1646
 151   2.0000      -0.626038       -17.0354
 152   2.0000      -0.624671       -16.9982
 153   2.0000      -0.618669       -16.8348
 154   2.0000      -0.614019       -16.7083
 155   2.0000      -0.602868       -16.4049
 156   2.0000      -0.596748       -16.2384
 157   2.0000      -0.585506       -15.9324
 158   2.0000      -0.573138       -15.5959
 159   2.0000      -0.566994       -15.4287
 160   2.0000      -0.563608       -15.3365
 161   2.0000      -0.558904       -15.2085
 162   2.0000      -0.554210       -15.0808
 163   2.0000      -0.551911       -15.0183
 164   2.0000      -0.550338       -14.9755
 165   2.0000      -0.548255       -14.9188
 166   2.0000      -0.544948       -14.8288
 167   2.0000      -0.542718       -14.7681
 168   2.0000      -0.541972       -14.7478
 169   2.0000      -0.537602       -14.6289
 170   2.0000      -0.536643       -14.6028
 171   2.0000      -0.535723       -14.5778
 172   2.0000      -0.532665       -14.4945
 173   2.0000      -0.527547       -14.3553
 174   2.0000      -0.524635       -14.2760
 175   2.0000      -0.515994       -14.0409
 176   2.0000      -0.513238       -13.9659
 177   2.0000      -0.511563       -13.9203
 178   2.0000      -0.510639       -13.8952
 179   2.0000      -0.507442       -13.8082
 180   2.0000      -0.506663       -13.7870
 181   2.0000      -0.506017       -13.7694
 182   2.0000      -0.503481       -13.7004
 183   2.0000      -0.500219       -13.6116
 184   2.0000      -0.497481       -13.5372
 185   2.0000      -0.496155       -13.5011
 186   2.0000      -0.493623       -13.4322
 187   2.0000      -0.488431       -13.2909
 188   2.0000      -0.483964       -13.1693
 189   2.0000      -0.482025       -13.1166
 190   2.0000      -0.478832       -13.0297
 191   2.0000      -0.475843       -12.9483
 192   2.0000      -0.472505       -12.8575
 193   2.0000      -0.469295       -12.7702
 194   2.0000      -0.466492       -12.6939
 195   2.0000      -0.465478       -12.6663
 196   2.0000      -0.464588       -12.6421
 197   2.0000      -0.462418       -12.5830
 198   2.0000      -0.460567       -12.5327
 199   2.0000      -0.460117       -12.5204
 200   2.0000      -0.459603       -12.5064
 201   2.0000      -0.456127       -12.4118
 202   2.0000      -0.453285       -12.3345
 203   2.0000      -0.451539       -12.2870
 204   2.0000      -0.449737       -12.2380
 205   2.0000      -0.445407       -12.1202
 206   2.0000      -0.444533       -12.0964
 207   2.0000      -0.444081       -12.0841
 208   2.0000      -0.442782       -12.0487
 209   2.0000      -0.441475       -12.0132
 210   2.0000      -0.439878       -11.9697
 211   2.0000      -0.438594       -11.9347
 212   2.0000      -0.430392       -11.7116
 213   2.0000      -0.429606       -11.6902
 214   2.0000      -0.423008       -11.5106
 215   2.0000      -0.415833       -11.3154
 216   2.0000      -0.413801       -11.2601
 217   2.0000      -0.400977       -10.9112
 218   2.0000      -0.398218       -10.8361
 219   2.0000      -0.393921       -10.7191
 220   2.0000      -0.386605       -10.5201
 221   2.0000      -0.380766       -10.3612
 222   2.0000      -0.370604       -10.0846
 223   2.0000      -0.364561        -9.9202
 224   2.0000      -0.362863        -9.8740
 225   2.0000      -0.361089        -9.8257
 226   2.0000      -0.356580        -9.7030
 227   2.0000      -0.354836        -9.6556
 228   2.0000      -0.352694        -9.5973
 229   2.0000      -0.340180        -9.2568
 230   2.0000      -0.336422        -9.1545
 231   2.0000      -0.332106        -9.0371
 232   2.0000      -0.329904        -8.9772
 233   2.0000      -0.328419        -8.9367
 234   2.0000      -0.326579        -8.8867
 235   2.0000      -0.324574        -8.8321
 236   2.0000      -0.306872        -8.3504
 237   2.0000      -0.277954        -7.5635
 238   2.0000      -0.242141        -6.5890
 239   0.0000      -0.125864        -3.4249
 240   0.0000      -0.108553        -2.9539
 241   0.0000      -0.103689        -2.8215
 242   0.0000      -0.063679        -1.7328
 243   0.0000      -0.050213        -1.3664

MULLIKEN ATOMIC CHARGES
-----------------------
   0 C :   -0.096378
   1 C :   -0.027075
   2 C :    0.143454
   3 O :   -0.163550
   4 O :   -0.160333
   5 C :    0.111487
   6 C :   -0.142357
   7 S :    0.156067
   8 C :   -0.171838
   9 C :   -0.042945
  10 C :    0.006016
  11 C :   -0.101521
  12 S :    0.199135
  13 C :   -0.085175
  14 C :    0.024913
  15 C :    0.302865
  16 C :   -0.292886
  17 C :   -0.192740
  18 N :    0.188444
  19 C :   -0.189383
  20 N :    0.172887
  21 C :   -0.080687
  22 C :   -0.076063
  23 S :    0.239182
  24 C :   -0.106053
  25 C :    0.009403
  26 C :    0.042618
  27 N :    0.043301
  28 C :   -0.150957
  29 C :    0.163330
  30 O :   -0.112575
  31 C :    0.008567
  32 C :   -0.086968
  33 C :    0.156085
  34 O :   -0.106038
  35 C :   -0.138424
  36 N :    0.024379
  37 C :   -0.126002
  38 S :    0.219119
  39 C :   -0.087281
  40 C :   -0.062635
  41 C :    0.026448
  42 C :   -0.093163
  43 S :    0.190767
  44 C :   -0.098721
  45 C :    0.024623
  46 C :    0.300936
  47 C :   -0.294703
  48 C :   -0.184726
  49 N :    0.183156
  50 C :   -0.191239
  51 N :    0.174672
  52 C :   -0.053138
  53 C :   -0.112825
  54 S :    0.201866
  55 C :   -0.106172
  56 C :   -0.047615
  57 C :    0.135182
  58 O :   -0.158930
  59 O :   -0.171579
  60 C :    0.046169
  61 C :   -0.054157
  62 S :    0.146863
  63 H :    0.048261
  64 H :    0.188224
  65 H :    0.030778
  66 H :    0.031398
  67 H :    0.009570
  68 H :    0.068604
  69 H :    0.075419
  70 H :    0.019160
  71 H :    0.017146
  72 H :    0.187514
  73 H :    0.007691
  74 H :    0.041135
Sum of atomic charges:    0.0000000

LOEWDIN ATOMIC CHARGES
----------------------
   0 C :   -0.141791
   1 C :   -0.116226
   2 C :    0.074968
   3 O :   -0.146003
   4 O :   -0.028229
   5 C :   -0.086807
   6 C :   -0.191307
   7 S :    0.480314
   8 C :   -0.179666
   9 C :   -0.032313
  10 C :   -0.068987
  11 C :   -0.179005
  12 S :    0.482043
  13 C :   -0.181758
  14 C :   -0.069224
  15 C :    0.078699
  16 C :   -0.097401
  17 C :   -0.021432
  18 N :   -0.018931
  19 C :   -0.014956
  20 N :   -0.033199
  21 C :   -0.026768
  22 C :   -0.184446
  23 S :    0.528147
  24 C :   -0.187247
  25 C :   -0.054634
  26 C :   -0.038358
  27 N :   -0.010473
  28 C :   -0.021596
  29 C :    0.084785
  30 O :   -0.085739
  31 C :   -0.016499
  32 C :   -0.044504
  33 C :    0.059167
  34 O :   -0.098277
  35 C :   -0.043612
  36 N :   -0.009609
  37 C :   -0.196942
  38 S :    0.506952
  39 C :   -0.184453
  40 C :   -0.013399
  41 C :   -0.065498
  42 C :   -0.180183
  43 S :    0.468704
  44 C :   -0.179144
  45 C :   -0.070436
  46 C :    0.079885
  47 C :   -0.096183
  48 C :   -0.018192
  49 N :   -0.024114
  50 C :   -0.016130
  51 N :   -0.030286
  52 C :   -0.031328
  53 C :   -0.197653
  54 S :    0.499508
  55 C :   -0.187199
  56 C :   -0.120877
  57 C :    0.066192
  58 O :   -0.138068
  59 O :   -0.038400
  60 C :   -0.036379
  61 C :   -0.172869
  62 S :    0.462441
  63 H :    0.037139
  64 H :    0.087305
  65 H :    0.022047
  66 H :    0.045421
  67 H :    0.037366
  68 H :    0.036592
  69 H :    0.051109
  70 H :    0.040436
  71 H :    0.037487
  72 H :    0.089014
  73 H :    0.040840
  74 H :    0.030168

  Mayer bond orders larger than 0.100000
B(  0-C ,  1-C ) :   1.5727 B(  0-C ,  7-S ) :   1.2084 B(  0-C , 63-H ) :   0.9656
B(  1-C ,  2-C ) :   0.9004 B(  1-C ,  5-C ) :   1.2335 B(  2-C ,  3-O ) :   2.2105
B(  2-C ,  4-O ) :   1.2200 B(  4-O , 64-H ) :   0.9470 B(  5-C ,  6-C ) :   1.5507
B(  5-C ,  8-C ) :   1.0355 B(  6-C ,  7-S ) :   1.1766 B(  6-C , 65-H ) :   0.9669
B(  8-C ,  9-C ) :   1.4916 B(  8-C , 12-S ) :   1.1112 B(  9-C , 10-C ) :   1.2728
B(  9-C , 66-H ) :   0.9907 B( 10-C , 11-C ) :   1.4504 B( 10-C , 15-C ) :   0.9945
B( 11-C , 12-S ) :   1.1179 B( 11-C , 13-C ) :   1.1915 B( 13-C , 14-C ) :   1.4184
B( 13-C , 23-S ) :   1.1018 B( 14-C , 15-C ) :   0.9900 B( 14-C , 21-C ) :   1.3218
B( 15-C , 16-C ) :   1.7181 B( 16-C , 17-C ) :   1.1333 B( 16-C , 19-C ) :   1.1335
B( 17-C , 18-N ) :   2.9934 B( 19-C , 20-N ) :   2.9917 B( 21-C , 22-C ) :   1.3906
B( 21-C , 67-H ) :   0.9943 B( 22-C , 23-S ) :   1.1121 B( 22-C , 24-C ) :   1.2356
B( 24-C , 25-C ) :   1.3213 B( 24-C , 37-C ) :   0.1344 B( 24-C , 38-S ) :   1.1660
B( 25-C , 26-C ) :   1.1775 B( 25-C , 36-N ) :   1.4178 B( 26-C , 27-N ) :   1.4108
B( 26-C , 37-C ) :   1.3988 B( 27-N , 28-C ) :   1.7198 B( 28-C , 29-C ) :   0.8095
B( 28-C , 35-C ) :   1.0960 B( 29-C , 30-O ) :   2.2522 B( 29-C , 31-C ) :   0.9559
B( 29-C , 32-C ) :   0.1331 B( 31-C , 32-C ) :   1.7121 B( 31-C , 68-H ) :   0.9514
B( 32-C , 33-C ) :   1.0115 B( 32-C , 69-H ) :   0.9429 B( 33-C , 34-O ) :   2.2566
B( 33-C , 35-C ) :   0.8661 B( 35-C , 36-N ) :   1.6778 B( 37-C , 38-S ) :   1.1398
B( 37-C , 39-C ) :   1.1826 B( 39-C , 40-C ) :   1.4587 B( 39-C , 43-S ) :   1.0863
B( 40-C , 41-C ) :   1.2677 B( 40-C , 70-H ) :   0.9879 B( 41-C , 42-C ) :   1.4288
B( 41-C , 46-C ) :   0.9895 B( 42-C , 43-S ) :   1.1222 B( 42-C , 44-C ) :   1.1951
B( 44-C , 45-C ) :   1.4285 B( 44-C , 54-S ) :   1.1297 B( 45-C , 46-C ) :   0.9973
B( 45-C , 52-C ) :   1.2927 B( 46-C , 47-C ) :   1.7192 B( 47-C , 48-C ) :   1.1321
B( 47-C , 50-C ) :   1.1347 B( 48-C , 49-N ) :   2.9943 B( 50-C , 51-N ) :   2.9918
B( 52-C , 53-C ) :   1.4580 B( 52-C , 71-H ) :   0.9914 B( 53-C , 54-S ) :   1.1144
B( 53-C , 55-C ) :   1.1168 B( 55-C , 56-C ) :   1.5004 B( 55-C , 62-S ) :   1.1665
B( 56-C , 57-C ) :   0.9039 B( 56-C , 60-C ) :   1.2646 B( 57-C , 58-O ) :   2.2136
B( 57-C , 59-O ) :   1.1997 B( 59-O , 72-H ) :   0.9488 B( 60-C , 61-C ) :   1.5750
B( 60-C , 73-H ) :   1.0025 B( 61-C , 62-S ) :   1.1510 B( 61-C , 74-H ) :   0.9718

-----------------------------------------------------------------------------
         ABSORPTION SPECTRUM VIA TRANSITION ELECTRIC DIPOLE MOMENTS
-----------------------------------------------------------------------------
State   Energy  Wavelength   fosc         T2         TX        TY        TZ
        (cm-1)    (nm)                  (au**2)     (au)      (au)      (au)
-----------------------------------------------------------------------------
   0    9459.0   1057.2   0.511286663  17.79482   3.66097   0.10628  -2.09305
   1   12037.9    830.7   0.020085513   0.54930  -0.40412  -0.55345  -0.28226
   2   13028.9    767.5   0.003404112   0.08601  -0.25485  -0.09004   0.11384
   3   19112.8    523.2   0.054813773   0.94415   0.05135   0.69028   0.68193
   4   20391.2    490.4   0.004209397   0.06796   0.13062  -0.17988   0.13618
   5   21859.0    457.5   0.277217344   4.17509   1.88205   0.49521  -0.62269
   6   23240.1    430.3   0.851114271  12.05662   3.14446   0.71759  -1.28610
   7   23547.2    424.7   0.090913921   1.27106   0.29319  -0.66994  -0.85807
   8   24294.7    411.6   0.167412034   2.26857  -1.35819  -0.22329   0.61158
   9   26179.2    382.0   0.115722684   1.45525  -0.12495   0.79259   0.90080
  10   26768.3    373.6   0.035143630   0.43222   0.21026  -0.39528  -0.48142
  11   28271.5    353.7   0.045127422   0.52549  -0.52106   0.23866   0.44389
  12   28836.0    346.8   0.420361220   4.79914   1.84084   1.18634  -0.05524
  13   29268.2    341.7   0.024724198   0.27810  -0.31479  -0.20043   0.37260
  14   29331.3    340.9   0.030329750   0.34042  -0.19700  -0.49624  -0.23528
  15   29887.8    334.6   0.117840254   1.29800   0.69606  -0.46026  -0.77567
  16   30773.1    325.0   0.026068838   0.27889  -0.35722   0.16038   0.35434
  17   31428.5    318.2   0.475706712   4.98300   0.81824  -1.39506  -1.53860
  18   31707.2    315.4   0.075513323   0.78405  -0.35270   0.26608   0.76737
  19   32087.3    311.7   0.024989255   0.25639   0.33508  -0.21245  -0.31460
  20   32254.7    310.0   0.004447888   0.04540  -0.06139  -0.19086   0.07212
  21   32515.2    307.5   0.438910813   4.44391   1.47066   1.46091   0.38319
  22   32576.2    307.0   0.363641327   3.67493  -1.38405  -1.28958  -0.31033
  23   32879.5    304.1   0.108814564   1.08953  -0.03230   0.83815   0.62127
  24   33060.1    302.5   0.079194003   0.78861   0.02888   0.73583   0.49632
  25   33239.4    300.8   0.302971097   3.00071   0.35614   1.33767   1.04139
  26   33504.1    298.5   0.077762225   0.76409   0.13696  -0.62734  -0.59311
  27   33656.7    297.1   0.178761339   1.74855   0.29341   1.11112   0.65411
  28   33718.6    296.6   0.140586782   1.37262  -0.29883  -0.90342  -0.68348
  29   34125.4    293.0   0.074228900   0.71610  -0.72145   0.02155   0.44175
  30   34366.3    291.0   0.071477219   0.68472  -0.38754   0.38450   0.62184
  31   34793.3    287.4   0.086288759   0.81646   0.03911  -0.64678  -0.62977
  32   35390.2    282.6   0.002118552   0.01971  -0.03295   0.10343   0.08901
  33   35499.0    281.7   0.033951676   0.31486  -0.44562  -0.13818   0.31176
  34   35592.2    281.0   0.061712214   0.57081   0.53611  -0.08551  -0.52543
  35   36078.7    277.2   0.158355375   1.44497  -0.61792  -0.93354  -0.43777
  36   36256.4    275.8   0.063141832   0.57333   0.56839   0.49125   0.09455
  37   36601.4    273.2   0.075336574   0.67762   0.30009  -0.51369  -0.56894
  38   36757.1    272.1   0.136990989   1.22695  -0.87818  -0.67504  -0.00781
  39   36967.1    270.5   0.205360319   1.82884   1.13542   0.72999  -0.08239
  40   37352.4    267.7   0.023097624   0.20357   0.22165  -0.24195  -0.30968
  41   37433.1    267.1   0.016879290   0.14845  -0.07181   0.23959   0.29307
  42   37634.4    265.7   0.043884330   0.38388  -0.55963  -0.12138   0.23657
  43   37879.2    264.0   0.003935211   0.03420  -0.00374   0.14774   0.11118
  44   38096.4    262.5   0.065964280   0.57003  -0.59018  -0.02139   0.47038
  45   38129.9    262.3   0.049748842   0.42953   0.47712   0.44661   0.04925
  46   38401.7    260.4   0.007009382   0.06009  -0.07393  -0.19107  -0.13459
  47   38589.3    259.1   0.002295014   0.01958  -0.10176   0.07153  -0.06409
  48   38795.1    257.8   0.002367195   0.02009   0.01045  -0.13515  -0.04140
  49   39042.2    256.1   0.044786416   0.37765   0.30527  -0.41510  -0.33488
  50   39271.9    254.6   0.038291115   0.32099   0.48672   0.28892   0.02474
  51   39772.4    251.4   0.036565508   0.30267   0.50701   0.20482  -0.06049
  52   39956.6    250.3   0.003637232   0.02997   0.13000   0.08833  -0.07257

FINAL SINGLE POINT ENERGY     -5246.970349416467

DIPOLE MOMENT
-------------
                                X             Y             Z
Electronic contribution:     -2.20773      -2.42437      -0.62552
Nuclear contribution   :      2.67288       0.11496      -0.13046
                        -----------------------------------------
Total Dipole Moment    :      0.46515      -2.30940      -0.75598
                        -----------------------------------------
Magnitude (a.u.)       :      2.47411
Magnitude (Debye)      :      6.28869

Rotational constants in cm-1:     0.001989     0.000340     0.000293
Rotational constants in MHz :    59.632459    10.198540     8.792201

                             ****ORCA TERMINATED NORMALLY****
TOTAL RUN TIME: 0 days 0 hours 6 minutes 6 seconds 874 msec
