                         Program Version 4.2.0 -  RELEASE  -
|  1> # ORCA input file
|  2> # SCF done       -167.280581170899          0.000799533924
|  3> ! CAM-B3LYP def2-SVP def2/J RIJCOSX Grid4 TightSCF
|  4> %maxcore 5000
|  5> %tddft
|  6>     Mode sTDDFT
|  7>     Ethresh 5.0
|  8>     maxcore 5000
|  9> end
| 10>
| 11> %pal
| 12>   nprocs 6
| 13>   end
| 14> * xyz 0 1
| 15>    C       -0.56797        -4.55200         5.38685
| 16>    C        0.21849        -4.04736         4.39252
| 17>    C        0.00790        -2.65418         3.91749
| 18>    O       -0.31938        -1.76109         4.64407
| 19>    O        0.14185        -2.46106         2.59140
| 20>    C        1.13164        -5.03047         3.88042
| 21>    C        0.95879        -6.23788         4.50584
| 22>    S       -0.26199        -6.20373         5.70373
| 23>    C        2.16836        -4.80289         2.90110
| 24>    C        2.88528        -3.64873         2.67035
| 25>    C        3.86019        -3.82924         1.68270
| 26>    C        3.87544        -5.13404         1.16200
| 27>    S        2.70425        -6.13911         1.89265
| 28>    C        4.88849        -5.22811         0.17664
| 29>    C        5.51684        -3.97007         0.07535
| 30>    C        4.89607        -3.05346         1.02117
| 31>    C        5.23288        -1.75202         1.24681
| 32>    C        4.58592        -0.96148         2.22134
| 33>    N        4.07425        -0.32069         3.02209
| 34>    C        6.26760        -1.11133         0.53147
| 35>    N        7.10716        -0.58565        -0.04564
| 36>    C        6.54172        -3.95566        -0.85929
| 37>    C        6.70201        -5.19257        -1.47415
| 38>    S        5.55744        -6.38901        -0.88480
| 39>    C        7.66638        -5.53863        -2.45333
| 40>    C        7.72581        -6.84539        -2.98797
| 41>    C        8.72303        -7.24098        -3.94952
| 42>    N        8.73270        -8.49597        -4.41000
| 43>    C        7.83600        -9.35708        -3.99229
| 44>    C        6.84167        -8.96240        -3.03988
| 45>    N        6.82056        -7.73683        -2.57298
| 46>    C        5.86785        -9.88771        -2.59124
| 47>    N        5.09103       -10.65440        -2.24433
| 48>    C        7.86336       -10.68067        -4.49601
| 49>    N        7.86297       -11.75700        -4.88750
| 50>    C        9.70868        -6.34917        -4.42817
| 51>    C        9.63419        -5.03083        -3.91828
| 52>    C        8.63489        -4.63437        -2.95106
| 53>    N        8.76637        -3.35097        -2.61443
| 54>    S        9.99647        -2.70826        -3.41474
| 55>    N       10.43779        -4.01424        -4.23184
| 56>    C       10.70205        -6.78029        -5.34295
| 57>    C       11.72697        -6.01338        -5.88620
| 58>    C       12.54332        -6.75826        -6.72462
| 59>    C       12.13842        -8.10546        -6.82506
| 60>    S       10.74789        -8.44905        -5.89127
| 61>    C       13.04255        -8.77322        -7.68509
| 62>    C       14.01647        -7.85892        -8.12663
| 63>    C       13.72575        -6.55663        -7.54913
| 64>    C       14.40196        -5.38970        -7.74637
| 65>    C       14.01571        -4.18484        -7.12014
| 66>    N       13.70913        -3.20207        -6.61568
| 67>    C       15.52200        -5.29950        -8.60116
| 68>    N       16.42300        -5.21488        -9.30437
| 69>    C       14.96843        -8.44032        -8.96699
| 70>    C       14.72490        -9.78668        -9.16623
| 71>    S       13.28833       -10.34029        -8.31474
| 72>    C       15.45504       -10.70627        -9.98473
| 73>    C       16.78367       -10.68449       -10.37370
| 74>    C       17.86130        -9.78073        -9.89771
| 75>    O       18.77539        -9.44297       -10.59334
| 76>    O       17.79444        -9.39835        -8.60603
| 77>    C       17.09263       -11.71803       -11.29224
| 78>    C       16.03527       -12.52081       -11.56718
| 79>    S       14.61410       -12.03154       -10.74010
| 80>    H       -1.33033        -4.02322         5.92339
| 81>    H        0.39112        -3.26619         2.11828
| 82>    H        1.51434        -7.13835         4.33155
| 83>    H        2.72364        -2.73211         3.20909
| 84>    H        7.16240        -3.11417        -1.10608
| 85>    H       11.84042        -4.97057        -5.65388
| 86>    H       15.78158        -7.91093        -9.43037
| 87>    H       17.03182        -9.76712        -8.14222
| 88>    H       18.07786       -11.84251       -11.70225
| 89>    H       15.99944       -13.37621       -12.21152
| 90> *
| 91>
| 92>                          ****END OF INPUT****

CARTESIAN COORDINATES (ANGSTROEM)
---------------------------------
  C     -0.567970   -4.552000    5.386850
  C      0.218490   -4.047360    4.392520
  C      0.007900   -2.654180    3.917490
  O     -0.319380   -1.761090    4.644070
  O      0.141850   -2.461060    2.591400
  C      1.131640   -5.030470    3.880420
  C      0.958790   -6.237880    4.505840
  S     -0.261990   -6.203730    5.703730
  C      2.168360   -4.802890    2.901100
  C      2.885280   -3.648730    2.670350
  C      3.860190   -3.829240    1.682700
  C      3.875440   -5.134040    1.162000
  S      2.704250   -6.139110    1.892650
  C      4.888490   -5.228110    0.176640
  C      5.516840   -3.970070    0.075350
  C      4.896070   -3.053460    1.021170
  C      5.232880   -1.752020    1.246810
  C      4.585920   -0.961480    2.221340
  N      4.074250   -0.320690    3.022090
  C      6.267600   -1.111330    0.531470
  N      7.107160   -0.585650   -0.045640
  C      6.541720   -3.955660   -0.859290
  C      6.702010   -5.192570   -1.474150
  S      5.557440   -6.389010   -0.884800
  C      7.666380   -5.538630   -2.453330
  C      7.725810   -6.845390   -2.987970
  C      8.723030   -7.240980   -3.949520
  N      8.732700   -8.495970   -4.410000
  C      7.836000   -9.357080   -3.992290
  C      6.841670   -8.962400   -3.039880
  N      6.820560   -7.736830   -2.572980
  C      5.867850   -9.887710   -2.591240
  N      5.091030  -10.654400   -2.244330
  C      7.863360  -10.680670   -4.496010
  N      7.862970  -11.757000   -4.887500
  C      9.708680   -6.349170   -4.428170
  C      9.634190   -5.030830   -3.918280
  C      8.634890   -4.634370   -2.951060
  N      8.766370   -3.350970   -2.614430
  S      9.996470   -2.708260   -3.414740
  N     10.437790   -4.014240   -4.231840
  C     10.702050   -6.780290   -5.342950
  C     11.726970   -6.013380   -5.886200
  C     12.543320   -6.758260   -6.724620
  C     12.138420   -8.105460   -6.825060
  S     10.747890   -8.449050   -5.891270
  C     13.042550   -8.773220   -7.685090
  C     14.016470   -7.858920   -8.126630
  C     13.725750   -6.556630   -7.549130
  C     14.401960   -5.389700   -7.746370
  C     14.015710   -4.184840   -7.120140
  N     13.709130   -3.202070   -6.615680
  C     15.522000   -5.299500   -8.601160
  N     16.423000   -5.214880   -9.304370
  C     14.968430   -8.440320   -8.966990
  C     14.724900   -9.786680   -9.166230
  S     13.288330  -10.340290   -8.314740
  C     15.455040  -10.706270   -9.984730
  C     16.783670  -10.684490  -10.373700
  C     17.861300   -9.780730   -9.897710
  O     18.775390   -9.442970  -10.593340
  O     17.794440   -9.398350   -8.606030
  C     17.092630  -11.718030  -11.292240
  C     16.035270  -12.520810  -11.567180
  S     14.614100  -12.031540  -10.740100
  H     -1.330330   -4.023220    5.923390
  H      0.391120   -3.266190    2.118280
  H      1.514340   -7.138350    4.331550
  H      2.723640   -2.732110    3.209090
  H      7.162400   -3.114170   -1.106080
  H     11.840420   -4.970570   -5.653880
  H     15.781580   -7.910930   -9.430370
  H     17.031820   -9.767120   -8.142220
  H     18.077860  -11.842510  -11.702250
  H     15.999440  -13.376210  -12.211520

 Total Charge           Charge          ....    0
 Multiplicity           Mult            ....    1
 Number of Electrons    NEL             ....  488
 Basis Dimension        Dim             ....  988

ORBITAL ENERGIES
----------------

  NO   OCC          E(Eh)            E(eV)
   0   2.0000     -89.060129     -2423.4493
   1   2.0000     -89.000818     -2421.8354
   2   2.0000     -88.999069     -2421.7878
   3   2.0000     -88.993053     -2421.6241
   4   2.0000     -88.992860     -2421.6188
   5   2.0000     -88.982514     -2421.3373
   6   2.0000     -88.979200     -2421.2471
   7   2.0000     -19.261348      -524.1279
   8   2.0000     -19.260160      -524.0956
   9   2.0000     -19.201188      -522.4909
  10   2.0000     -19.199946      -522.4571
  11   2.0000     -14.485720      -394.1765
  12   2.0000     -14.485525      -394.1712
  13   2.0000     -14.468402      -393.7052
  14   2.0000     -14.468156      -393.6985
  15   2.0000     -14.447319      -393.1315
  16   2.0000     -14.447220      -393.1288
  17   2.0000     -14.434609      -392.7857
  18   2.0000     -14.434229      -392.7753
  19   2.0000     -14.432595      -392.7309
  20   2.0000     -14.432130      -392.7182
  21   2.0000     -10.407148      -283.1929
  22   2.0000     -10.406733      -283.1816
  23   2.0000     -10.403009      -283.0803
  24   2.0000     -10.402677      -283.0712
  25   2.0000     -10.370412      -282.1933
  26   2.0000     -10.369808      -282.1768
  27   2.0000     -10.365533      -282.0605
  28   2.0000     -10.365274      -282.0534
  29   2.0000     -10.360638      -281.9273
  30   2.0000     -10.360387      -281.9205
  31   2.0000     -10.356824      -281.8235
  32   2.0000     -10.356260      -281.8082
  33   2.0000     -10.342165      -281.4246
  34   2.0000     -10.341720      -281.4125
  35   2.0000     -10.340641      -281.3832
  36   2.0000     -10.340577      -281.3814
  37   2.0000     -10.339948      -281.3643
  38   2.0000     -10.338185      -281.3163
  39   2.0000     -10.337999      -281.3112
  40   2.0000     -10.337284      -281.2918
  41   2.0000     -10.336254      -281.2638
  42   2.0000     -10.334619      -281.2193
  43   2.0000     -10.334293      -281.2104
  44   2.0000     -10.333756      -281.1958
  45   2.0000     -10.333727      -281.1950
  46   2.0000     -10.332915      -281.1729
  47   2.0000     -10.332487      -281.1613
  48   2.0000     -10.331950      -281.1466
  49   2.0000     -10.331554      -281.1359
  50   2.0000     -10.318808      -280.7890
  51   2.0000     -10.318002      -280.7671
  52   2.0000     -10.316746      -280.7329
  53   2.0000     -10.314378      -280.6685
  54   2.0000     -10.313172      -280.6357
  55   2.0000     -10.313125      -280.6344
  56   2.0000     -10.312045      -280.6050
  57   2.0000     -10.310648      -280.5670
  58   2.0000     -10.307211      -280.4735
  59   2.0000     -10.306638      -280.4579
  60   2.0000     -10.305953      -280.4392
  61   2.0000     -10.305849      -280.4364
  62   2.0000     -10.303431      -280.3706
  63   2.0000     -10.302482      -280.3448
  64   2.0000     -10.291041      -280.0335
  65   2.0000      -8.151084      -221.8023
  66   2.0000      -8.095551      -220.2911
  67   2.0000      -8.093718      -220.2413
  68   2.0000      -8.085644      -220.0215
  69   2.0000      -8.085485      -220.0172
  70   2.0000      -8.078706      -219.8328
  71   2.0000      -8.075306      -219.7403
  72   2.0000      -6.122155      -166.5923
  73   2.0000      -6.114215      -166.3763
  74   2.0000      -6.114018      -166.3709
  75   2.0000      -6.064783      -165.0311
  76   2.0000      -6.062958      -164.9815
  77   2.0000      -6.060563      -164.9163
  78   2.0000      -6.058708      -164.8658
  79   2.0000      -6.057934      -164.8448
  80   2.0000      -6.056149      -164.7962
  81   2.0000      -6.055227      -164.7711
  82   2.0000      -6.055073      -164.7669
  83   2.0000      -6.050393      -164.6396
  84   2.0000      -6.050228      -164.6351
  85   2.0000      -6.048056      -164.5760
  86   2.0000      -6.047900      -164.5717
  87   2.0000      -6.047830      -164.5698
  88   2.0000      -6.044631      -164.4828
  89   2.0000      -6.043388      -164.4490
  90   2.0000      -6.041381      -164.3943
  91   2.0000      -6.040187      -164.3618
  92   2.0000      -6.037551      -164.2901
  93   2.0000      -1.184224       -32.2244
  94   2.0000      -1.183204       -32.1966
  95   2.0000      -1.158043       -31.5119
  96   2.0000      -1.144263       -31.1370
  97   2.0000      -1.099587       -29.9213
  98   2.0000      -1.099448       -29.9175
  99   2.0000      -1.073340       -29.2071
 100   2.0000      -1.051607       -28.6157
 101   2.0000      -1.050562       -28.5872
 102   2.0000      -1.032520       -28.0963
 103   2.0000      -1.026306       -27.9272
 104   2.0000      -1.025711       -27.9110
 105   2.0000      -1.022761       -27.8307
 106   2.0000      -1.016447       -27.6589
 107   2.0000      -1.015619       -27.6364
 108   2.0000      -1.010737       -27.5035
 109   2.0000      -1.010413       -27.4947
 110   2.0000      -1.010154       -27.4877
 111   2.0000      -1.003783       -27.3143
 112   2.0000      -0.994932       -27.0735
 113   2.0000      -0.987120       -26.8609
 114   2.0000      -0.964243       -26.2384
 115   2.0000      -0.960366       -26.1329
 116   2.0000      -0.928822       -25.2745
 117   2.0000      -0.927869       -25.2486
 118   2.0000      -0.918180       -24.9850
 119   2.0000      -0.900569       -24.5057
 120   2.0000      -0.881173       -23.9779
 121   2.0000      -0.880060       -23.9477
 122   2.0000      -0.868192       -23.6247
 123   2.0000      -0.864884       -23.5347
 124   2.0000      -0.863154       -23.4876
 125   2.0000      -0.858422       -23.3588
 126   2.0000      -0.855479       -23.2788
 127   2.0000      -0.851926       -23.1821
 128   2.0000      -0.850472       -23.1425
 129   2.0000      -0.823628       -22.4121
 130   2.0000      -0.815852       -22.2005
 131   2.0000      -0.784964       -21.3600
 132   2.0000      -0.784092       -21.3362
 133   2.0000      -0.780964       -21.2511
 134   2.0000      -0.763409       -20.7734
 135   2.0000      -0.749115       -20.3845
 136   2.0000      -0.731325       -19.9004
 137   2.0000      -0.724808       -19.7230
 138   2.0000      -0.723751       -19.6943
 139   2.0000      -0.716547       -19.4982
 140   2.0000      -0.711800       -19.3691
 141   2.0000      -0.706093       -19.2138
 142   2.0000      -0.705610       -19.2006
 143   2.0000      -0.693693       -18.8763
 144   2.0000      -0.690357       -18.7856
 145   2.0000      -0.687548       -18.7091
 146   2.0000      -0.682516       -18.5722
 147   2.0000      -0.679049       -18.4779
 148   2.0000      -0.674209       -18.3461
 149   2.0000      -0.670065       -18.2334
 150   2.0000      -0.663388       -18.0517
 151   2.0000      -0.658772       -17.9261
 152   2.0000      -0.644115       -17.5273
 153   2.0000      -0.641691       -17.4613
 154   2.0000      -0.634250       -17.2588
 155   2.0000      -0.632076       -17.1997
 156   2.0000      -0.624603       -16.9963
 157   2.0000      -0.623450       -16.9649
 158   2.0000      -0.614484       -16.7210
 159   2.0000      -0.606221       -16.4961
 160   2.0000      -0.600875       -16.3507
 161   2.0000      -0.593316       -16.1449
 162   2.0000      -0.577911       -15.7257
 163   2.0000      -0.574316       -15.6279
 164   2.0000      -0.567983       -15.4556
 165   2.0000      -0.558868       -15.2076
 166   2.0000      -0.554669       -15.0933
 167   2.0000      -0.553522       -15.0621
 168   2.0000      -0.548223       -14.9179
 169   2.0000      -0.546497       -14.8709
 170   2.0000      -0.541580       -14.7371
 171   2.0000      -0.538991       -14.6667
 172   2.0000      -0.537183       -14.6175
 173   2.0000      -0.535522       -14.5723
 174   2.0000      -0.533695       -14.5226
 175   2.0000      -0.531981       -14.4760
 176   2.0000      -0.521751       -14.1976
 177   2.0000      -0.517685       -14.0869
 178   2.0000      -0.512518       -13.9463
 179   2.0000      -0.512044       -13.9334
 180   2.0000      -0.509845       -13.8736
 181   2.0000      -0.509217       -13.8565
 182   2.0000      -0.504719       -13.7341
 183   2.0000      -0.503925       -13.7125
 184   2.0000      -0.503040       -13.6884
 185   2.0000      -0.501300       -13.6411
 186   2.0000      -0.499229       -13.5847
 187   2.0000      -0.497856       -13.5474
 188   2.0000      -0.494857       -13.4657
 189   2.0000      -0.494349       -13.4519
 190   2.0000      -0.490115       -13.3367
 191   2.0000      -0.482174       -13.1206
 192   2.0000      -0.480832       -13.0841
 193   2.0000      -0.478492       -13.0204
 194   2.0000      -0.474581       -12.9140
 195   2.0000      -0.472741       -12.8639
 196   2.0000      -0.471720       -12.8362
 197   2.0000      -0.470431       -12.8011
 198   2.0000      -0.467363       -12.7176
 199   2.0000      -0.465605       -12.6697
 200   2.0000      -0.464644       -12.6436
 201   2.0000      -0.464259       -12.6331
 202   2.0000      -0.461717       -12.5640
 203   2.0000      -0.460545       -12.5321
 204   2.0000      -0.459101       -12.4928
 205   2.0000      -0.458230       -12.4691
 206   2.0000      -0.455081       -12.3834
 207   2.0000      -0.454448       -12.3662
 208   2.0000      -0.452048       -12.3009
 209   2.0000      -0.444751       -12.1023
 210   2.0000      -0.443284       -12.0624
 211   2.0000      -0.442954       -12.0534
 212   2.0000      -0.442579       -12.0432
 213   2.0000      -0.442493       -12.0408
 214   2.0000      -0.441837       -12.0230
 215   2.0000      -0.441550       -12.0152
 216   2.0000      -0.437896       -11.9158
 217   2.0000      -0.434404       -11.8207
 218   2.0000      -0.431026       -11.7288
 219   2.0000      -0.430299       -11.7090
 220   2.0000      -0.423473       -11.5233
 221   2.0000      -0.416189       -11.3251
 222   2.0000      -0.414714       -11.2849
 223   2.0000      -0.402619       -10.9558
 224   2.0000      -0.398269       -10.8375
 225   2.0000      -0.397389       -10.8135
 226   2.0000      -0.393357       -10.7038
 227   2.0000      -0.389934       -10.6107
 228   2.0000      -0.386075       -10.5056
 229   2.0000      -0.368055       -10.0153
 230   2.0000      -0.366578        -9.9751
 231   2.0000      -0.360712        -9.8155
 232   2.0000      -0.359135        -9.7726
 233   2.0000      -0.358690        -9.7604
 234   2.0000      -0.355080        -9.6622
 235   2.0000      -0.353820        -9.6279
 236   2.0000      -0.341203        -9.2846
 237   2.0000      -0.337202        -9.1757
 238   2.0000      -0.331985        -9.0338
 239   2.0000      -0.328115        -8.9285
 240   2.0000      -0.326965        -8.8972
 241   2.0000      -0.311006        -8.4629
 242   2.0000      -0.282631        -7.6908
 243   2.0000      -0.247997        -6.7483
 244   0.0000      -0.144852        -3.9416
 245   0.0000      -0.109571        -2.9816
 246   0.0000      -0.105439        -2.8691
 247   0.0000      -0.070765        -1.9256
 248   0.0000      -0.057798        -1.5728

MULLIKEN ATOMIC CHARGES
-----------------------
   0 C :   -0.095110
   1 C :   -0.027500
   2 C :    0.144660
   3 O :   -0.163621
   4 O :   -0.161281
   5 C :    0.113467
   6 C :   -0.144414
   7 S :    0.158620
   8 C :   -0.166709
   9 C :   -0.041648
  10 C :    0.006818
  11 C :   -0.108052
  12 S :    0.198571
  13 C :   -0.058556
  14 C :    0.036540
  15 C :    0.303252
  16 C :   -0.296200
  17 C :   -0.193859
  18 N :    0.188551
  19 C :   -0.186231
  20 N :    0.174226
  21 C :   -0.059820
  22 C :   -0.179029
  23 S :    0.201677
  24 C :    0.188841
  25 C :   -0.058158
  26 C :   -0.057483
  27 N :   -0.005792
  28 C :   -0.099821
  29 C :   -0.100568
  30 N :   -0.004599
  31 C :   -0.242093
  32 N :    0.251415
  33 C :   -0.245182
  34 N :    0.255914
  35 C :    0.187670
  36 C :   -0.008385
  37 C :   -0.011813
  38 N :   -0.281305
  39 S :    0.591262
  40 N :   -0.285358
  41 C :   -0.176026
  42 C :   -0.065443
  43 C :    0.039164
  44 C :   -0.060523
  45 S :    0.203016
  46 C :   -0.106016
  47 C :    0.006501
  48 C :    0.305859
  49 C :   -0.297749
  50 C :   -0.187247
  51 N :    0.177043
  52 C :   -0.193752
  53 N :    0.189697
  54 C :   -0.054004
  55 C :   -0.139760
  56 S :    0.206683
  57 C :   -0.116567
  58 C :   -0.013270
  59 C :    0.140777
  60 O :   -0.161009
  61 O :   -0.164030
  62 C :    0.039554
  63 C :   -0.056121
  64 S :    0.141423
  65 H :    0.049061
  66 H :    0.188054
  67 H :    0.032592
  68 H :    0.031421
  69 H :    0.022808
  70 H :    0.023255
  71 H :    0.033880
  72 H :    0.188165
  73 H :    0.011882
  74 H :    0.041788
Sum of atomic charges:    0.0000000

LOEWDIN ATOMIC CHARGES
----------------------
   0 C :   -0.141617
   1 C :   -0.115502
   2 C :    0.075062
   3 O :   -0.144607
   4 O :   -0.028178
   5 C :   -0.087257
   6 C :   -0.190436
   7 S :    0.482447
   8 C :   -0.174842
   9 C :   -0.033256
  10 C :   -0.062761
  11 C :   -0.181680
  12 S :    0.480975
  13 C :   -0.175679
  14 C :   -0.074272
  15 C :    0.077212
  16 C :   -0.095710
  17 C :   -0.021225
  18 N :   -0.019429
  19 C :   -0.015566
  20 N :   -0.030394
  21 C :   -0.004636
  22 C :   -0.169396
  23 S :    0.507415
  24 C :   -0.035983
  25 C :   -0.016244
  26 C :   -0.015527
  27 N :   -0.016587
  28 C :   -0.022072
  29 C :   -0.023138
  30 N :   -0.015948
  31 C :   -0.039494
  32 N :    0.000657
  33 C :   -0.039816
  34 N :    0.001697
  35 C :   -0.038372
  36 C :   -0.036331
  37 C :   -0.037228
  38 N :   -0.269817
  39 S :    0.709003
  40 N :   -0.270763
  41 C :   -0.167768
  42 C :   -0.006224
  43 C :   -0.072936
  44 C :   -0.177917
  45 S :    0.508168
  46 C :   -0.179222
  47 C :   -0.063208
  48 C :    0.076957
  49 C :   -0.095286
  50 C :   -0.015677
  51 N :   -0.029711
  52 C :   -0.021553
  53 N :   -0.018864
  54 C :   -0.029505
  55 C :   -0.199005
  56 S :    0.478239
  57 C :   -0.193536
  58 C :   -0.109939
  59 C :    0.076747
  60 O :   -0.141397
  61 O :   -0.030611
  62 C :   -0.030460
  63 C :   -0.173057
  64 S :    0.447549
  65 H :    0.037426
  66 H :    0.087670
  67 H :    0.022375
  68 H :    0.045492
  69 H :    0.038735
  70 H :    0.038739
  71 H :    0.046070
  72 H :    0.088315
  73 H :    0.042618
  74 H :    0.030069

  Mayer bond orders larger than 0.100000
B(  0-C ,  1-C ) :   1.5746 B(  0-C ,  7-S ) :   1.2072 B(  0-C , 65-H ) :   0.9657
B(  1-C ,  2-C ) :   0.8999 B(  1-C ,  5-C ) :   1.2327 B(  2-C ,  3-O ) :   2.2103
B(  2-C ,  4-O ) :   1.2175 B(  4-O , 66-H ) :   0.9471 B(  5-C ,  6-C ) :   1.5469
B(  5-C ,  8-C ) :   1.0402 B(  6-C ,  7-S ) :   1.1791 B(  6-C , 67-H ) :   0.9662
B(  8-C ,  9-C ) :   1.4884 B(  8-C , 12-S ) :   1.1142 B(  9-C , 10-C ) :   1.2755
B(  9-C , 68-H ) :   0.9887 B( 10-C , 11-C ) :   1.4436 B( 10-C , 15-C ) :   0.9937
B( 11-C , 12-S ) :   1.1118 B( 11-C , 13-C ) :   1.1995 B( 13-C , 14-C ) :   1.4045
B( 13-C , 23-S ) :   1.0901 B( 14-C , 15-C ) :   0.9887 B( 14-C , 21-C ) :   1.2826
B( 15-C , 16-C ) :   1.7155 B( 16-C , 17-C ) :   1.1324 B( 16-C , 19-C ) :   1.1392
B( 17-C , 18-N ) :   2.9934 B( 19-C , 20-N ) :   2.9849 B( 21-C , 22-C ) :   1.4080
B( 21-C , 69-H ) :   0.9816 B( 22-C , 23-S ) :   1.0810 B( 22-C , 24-C ) :   1.2175
B( 24-C , 25-C ) :   1.2487 B( 24-C , 35-C ) :   0.1211 B( 24-C , 37-C ) :   1.1936
B( 25-C , 26-C ) :   1.1041 B( 25-C , 30-N ) :   1.4051 B( 26-C , 27-N ) :   1.4032
B( 26-C , 35-C ) :   1.2533 B( 27-N , 28-C ) :   1.6922 B( 28-C , 29-C ) :   1.2189
B( 28-C , 33-C ) :   1.1695 B( 29-C , 30-N ) :   1.6918 B( 29-C , 31-C ) :   1.1677
B( 31-C , 32-N ) :   3.0379 B( 33-C , 34-N ) :   3.0395 B( 35-C , 36-C ) :   1.1925
B( 35-C , 41-C ) :   1.2138 B( 36-C , 37-C ) :   1.0990 B( 36-C , 40-N ) :   1.5164
B( 37-C , 38-N ) :   1.5193 B( 38-N , 39-S ) :   1.2862 B( 38-N , 40-N ) :   0.1458
B( 39-S , 40-N ) :   1.2851 B( 41-C , 42-C ) :   1.4097 B( 41-C , 45-S ) :   1.0831
B( 42-C , 43-C ) :   1.2823 B( 42-C , 70-H ) :   0.9814 B( 43-C , 44-C ) :   1.4035
B( 43-C , 48-C ) :   0.9874 B( 44-C , 45-S ) :   1.0881 B( 44-C , 46-C ) :   1.2037
B( 46-C , 47-C ) :   1.4363 B( 46-C , 56-S ) :   1.1173 B( 47-C , 48-C ) :   0.9911
B( 47-C , 54-C ) :   1.2879 B( 48-C , 49-C ) :   1.7193 B( 49-C , 50-C ) :   1.1404
B( 49-C , 52-C ) :   1.1313 B( 50-C , 51-N ) :   2.9854 B( 52-C , 53-N ) :   2.9939
B( 54-C , 55-C ) :   1.4765 B( 54-C , 71-H ) :   0.9908 B( 55-C , 56-S ) :   1.1095
B( 55-C , 57-C ) :   1.0807 B( 57-C , 58-C ) :   1.5127 B( 57-C , 64-S ) :   1.1619
B( 58-C , 59-C ) :   0.9083 B( 58-C , 62-C ) :   1.2675 B( 59-C , 60-O ) :   2.2059
B( 59-C , 61-O ) :   1.2182 B( 61-O , 72-H ) :   0.9470 B( 62-C , 63-C ) :   1.5734
B( 62-C , 73-H ) :   1.0009 B( 63-C , 64-S ) :   1.1466 B( 63-C , 74-H ) :   0.9723

-----------------------------------------------------------------------------
         ABSORPTION SPECTRUM VIA TRANSITION ELECTRIC DIPOLE MOMENTS
-----------------------------------------------------------------------------
State   Energy  Wavelength   fosc         T2         TX        TY        TZ
        (cm-1)    (nm)                  (au**2)     (au)      (au)      (au)
-----------------------------------------------------------------------------
   0    7145.5   1399.5   0.492915592  22.70987  -3.28432   1.31748   3.19176
   1   13324.6    750.5   0.004134209   0.10214  -0.22570   0.21066   0.08263
   2   13897.1    719.6   0.028691258   0.67968  -0.55551   0.19656   0.57658
   3   16267.2    614.7   0.001875523   0.03796   0.14221  -0.09456   0.09375
   4   21975.0    455.1   0.172482156   2.58399  -1.03989   0.54444   1.09827
   5   22289.5    448.6   0.060331029   0.89108   0.70083   0.57501  -0.26322
   6   23353.5    428.2   0.283994425   4.00343   1.35492  -0.59459  -1.34688
   7   23756.0    420.9   0.036645387   0.50783  -0.56720  -0.22987   0.36507
   8   23817.5    419.9   0.126389304   1.74698  -0.76258   0.66158   0.85310
   9   24580.0    406.8   0.007360492   0.09858  -0.19281  -0.23788   0.06942
  10   24924.4    401.2   0.030592765   0.40408  -0.39978   0.25567   0.42296
  11   25306.8    395.2   0.001035551   0.01347   0.07186  -0.05718   0.07098
  12   28433.0    351.7   1.264601263  14.64221   2.55899  -1.35973  -2.49898
  13   28781.3    347.4   0.096758430   1.10676  -0.20467   0.94130   0.42287
  14   29948.3    333.9   0.093321205   1.02585  -0.71531   0.26645   0.66572
  15   29957.5    333.8   0.113096311   1.24285   0.00184  -1.04957  -0.37582
  16   30368.4    329.3   0.065915144   0.71456   0.66135  -0.23020  -0.47348
  17   30823.4    324.4   0.174426929   1.86298  -0.08586   1.20777   0.63000
  18   30854.8    324.1   0.001376381   0.01469   0.04241  -0.08796  -0.07176
  19   31026.4    322.3   0.114316774   1.21298   0.65341   0.74590  -0.47925
  20   31171.3    320.8   0.070112784   0.74049   0.57897   0.60318  -0.20360
  21   31324.9    319.2   0.223679948   2.35078   1.07178   0.65549  -0.87887
  22   31829.9    314.2   0.265839530   2.74954  -1.08995  -1.05024   0.67716
  23   32188.4    310.7   0.063890049   0.65345  -0.37756   0.44166   0.56199
  24   32530.8    307.4   0.045335834   0.45880   0.36932   0.56039   0.09148
  25   32570.1    307.0   1.142998254  11.55320   1.19913   3.17707   0.14659
  26   32741.5    305.4   0.143386415   1.44174  -0.48074  -1.10007  -0.02172
  27   33728.6    296.5   0.000966145   0.00943   0.05576  -0.05035  -0.06154
  28   34151.2    292.8   0.065162200   0.62815  -0.18748  -0.76584  -0.08055
  29   34368.1    291.0   0.190773862   1.82742   0.56882   1.21673  -0.15308
  30   34581.2    289.2   0.166670091   1.58669   0.73875  -0.68320  -0.75775
  31   34994.9    285.8   0.089256654   0.83967  -0.71419  -0.23972   0.52167
  32   35574.1    281.1   0.001073569   0.00994  -0.02987  -0.05434   0.07804
  33   35863.8    278.8   0.018237517   0.16741   0.16699  -0.19456  -0.31886
  34   35952.6    278.1   0.005123436   0.04691  -0.14495  -0.03429   0.15725
  35   36062.5    277.3   0.071607650   0.65370  -0.56336  -0.02091   0.57956
  36   36833.6    271.5   0.141504936   1.26475  -0.09975   1.07922   0.30012
  37   37227.6    268.6   0.185043065   1.63638  -0.75397  -0.94169   0.42559
  38   37690.1    265.3   0.035945938   0.31398   0.03650  -0.53450  -0.16418
  39   37980.6    263.3   0.074212867   0.64327   0.17490  -0.73234  -0.27632
  40   38284.2    261.2   0.039063477   0.33591  -0.10223  -0.57045   0.00721
  41   38785.9    257.8   0.007965358   0.06761   0.23476   0.08083  -0.07721
  42   38804.4    257.7   0.016846215   0.14292  -0.33085  -0.12113   0.13707
  43   39012.6    256.3   0.022428981   0.18927  -0.37553   0.03708   0.21650
  44   39471.8    253.3   0.379429354   3.16461   0.87066   1.53837  -0.19997
  45   39823.5    251.1   0.015836926   0.13092  -0.30014  -0.14921   0.13627
  46   39943.0    250.4   0.005247442   0.04325   0.09305  -0.08116   0.16735

FINAL SINGLE POINT ENERGY     -5314.308355268726

DIPOLE MOMENT
-------------
                                X             Y             Z
Electronic contribution:     -4.17567      -0.10838       0.53818
Nuclear contribution   :      2.79855      -3.09673      -0.34448
                        -----------------------------------------
Total Dipole Moment    :     -1.37712      -3.20511       0.19370
                        -----------------------------------------
Magnitude (a.u.)       :      3.49381
Magnitude (Debye)      :      8.88056

Rotational constants in cm-1:     0.002692     0.000306     0.000277
Rotational constants in MHz :    80.700587     9.159420     8.316931

                             ****ORCA TERMINATED NORMALLY****
TOTAL RUN TIME: 0 days 0 hours 6 minutes 56 seconds 839 msec
