                         Program Version 4.2.0 -  RELEASE  -
|  1> # ORCA input file
|  2> # SCF done       -129.707906716466          0.000601766213
|  3> ! CAM-B3LYP def2-SVP def2/J RIJCOSX Grid4 TightSCF
|  4> %maxcore 5000
|  5> %tddft
|  6>     Mode sTDDFT
|  7>     Ethresh 5.0
|  8>     maxcore 5000
|  9> end
| 10>
| 11> %pal
| 12>   nprocs 6
| 13>   end
| 14> * xyz 0 1
| 15>    C        2.40956         0.00160        -3.59125
| 16>    N        2.40503        -1.04923        -4.41169
| 17>    C        1.73352        -2.09444        -3.99128
| 18>    C        1.06679        -2.06885        -2.74836
| 19>    N        1.14327        -0.96650        -1.99190
| 20>    N        1.81417         0.05663        -2.41803
| 21>    C        0.30432        -3.17310        -2.24219
| 22>    C       -0.36156        -3.21963        -1.03904
| 23>    C       -1.00905        -4.44156        -0.85410
| 24>    C       -0.83801        -5.33487        -1.92173
| 25>    S        0.13624        -4.65425        -3.16700
| 26>    C       -1.49618        -6.54947        -1.71543
| 27>    C       -2.16982        -6.57788        -0.48547
| 28>    S       -1.99131        -5.10129         0.42263
| 29>    C       -2.83847        -7.77276        -0.24180
| 30>    C       -2.68528        -8.67488        -1.28018
| 31>    S       -1.69532        -8.02680        -2.58089
| 32>    C       -3.20410        -9.99741        -1.40266
| 33>    C       -4.01250       -10.64458        -0.43785
| 34>    C       -4.49119       -11.99457        -0.60950
| 35>    N       -5.25606       -12.54353         0.35891
| 36>    C       -5.54850       -11.86320         1.41673
| 37>    C       -5.07867       -10.53740         1.58528
| 38>    N       -4.34466        -9.97217         0.68583
| 39>    F       -5.37627        -9.82917         2.67348
| 40>    F       -6.30649       -12.45288         2.34001
| 41>    C       -4.18368       -12.76966        -1.75391
| 42>    C       -3.38935       -12.11429        -2.71891
| 43>    C       -2.91496       -10.76755        -2.54897
| 44>    N       -2.18402       -10.36928        -3.59126
| 45>    S       -2.10110       -11.55492        -4.66875
| 46>    N       -2.98200       -12.63520        -3.87717
| 47>    C       -4.59955       -14.11658        -1.96487
| 48>    C       -5.38120       -14.92237        -1.15401
| 49>    C       -5.54663       -16.19484        -1.68875
| 50>    C       -4.89446       -16.38193        -2.91681
| 51>    S       -4.07240       -14.95368        -3.41910
| 52>    C       -5.06717       -17.67689        -3.41429
| 53>    C       -5.85178       -18.47243        -2.56327
| 54>    S       -6.38618       -17.62039        -1.14135
| 55>    C       -6.02920       -19.77459        -3.02822
| 56>    C       -5.38118       -19.96778        -4.22755
| 57>    S       -4.54636       -18.55060        -4.80573
| 58>    C       -5.32140       -21.17023        -5.00489
| 59>    N       -5.96103       -22.26206        -4.54991
| 60>    C       -5.85816       -23.33317        -5.30420
| 61>    C       -5.12257       -23.29812        -6.49245
| 62>    N       -4.52738       -22.18115        -6.87662
| 63>    N       -4.62390       -21.12211        -6.14164
| 64>    H        2.94986         0.88021        -3.91239
| 65>    H        1.71512        -2.96825        -4.63077
| 66>    H       -0.36226        -2.39715        -0.34891
| 67>    H       -3.40916        -7.98930         0.63965
| 68>    H       -5.79720       -14.58673        -0.22453
| 69>    H       -6.58932       -20.54653        -2.53506
| 70>    H       -6.36610       -24.22382        -4.95821
| 71>    H       -5.00668       -24.15300        -7.14010
| 72> *
| 73>
| 74>                          ****END OF INPUT****

CARTESIAN COORDINATES (ANGSTROEM)
---------------------------------
  C      2.409560    0.001600   -3.591250
  N      2.405030   -1.049230   -4.411690
  C      1.733520   -2.094440   -3.991280
  C      1.066790   -2.068850   -2.748360
  N      1.143270   -0.966500   -1.991900
  N      1.814170    0.056630   -2.418030
  C      0.304320   -3.173100   -2.242190
  C     -0.361560   -3.219630   -1.039040
  C     -1.009050   -4.441560   -0.854100
  C     -0.838010   -5.334870   -1.921730
  S      0.136240   -4.654250   -3.167000
  C     -1.496180   -6.549470   -1.715430
  C     -2.169820   -6.577880   -0.485470
  S     -1.991310   -5.101290    0.422630
  C     -2.838470   -7.772760   -0.241800
  C     -2.685280   -8.674880   -1.280180
  S     -1.695320   -8.026800   -2.580890
  C     -3.204100   -9.997410   -1.402660
  C     -4.012500  -10.644580   -0.437850
  C     -4.491190  -11.994570   -0.609500
  N     -5.256060  -12.543530    0.358910
  C     -5.548500  -11.863200    1.416730
  C     -5.078670  -10.537400    1.585280
  N     -4.344660   -9.972170    0.685830
  F     -5.376270   -9.829170    2.673480
  F     -6.306490  -12.452880    2.340010
  C     -4.183680  -12.769660   -1.753910
  C     -3.389350  -12.114290   -2.718910
  C     -2.914960  -10.767550   -2.548970
  N     -2.184020  -10.369280   -3.591260
  S     -2.101100  -11.554920   -4.668750
  N     -2.982000  -12.635200   -3.877170
  C     -4.599550  -14.116580   -1.964870
  C     -5.381200  -14.922370   -1.154010
  C     -5.546630  -16.194840   -1.688750
  C     -4.894460  -16.381930   -2.916810
  S     -4.072400  -14.953680   -3.419100
  C     -5.067170  -17.676890   -3.414290
  C     -5.851780  -18.472430   -2.563270
  S     -6.386180  -17.620390   -1.141350
  C     -6.029200  -19.774590   -3.028220
  C     -5.381180  -19.967780   -4.227550
  S     -4.546360  -18.550600   -4.805730
  C     -5.321400  -21.170230   -5.004890
  N     -5.961030  -22.262060   -4.549910
  C     -5.858160  -23.333170   -5.304200
  C     -5.122570  -23.298120   -6.492450
  N     -4.527380  -22.181150   -6.876620
  N     -4.623900  -21.122110   -6.141640
  H      2.949860    0.880210   -3.912390
  H      1.715120   -2.968250   -4.630770
  H     -0.362260   -2.397150   -0.348910
  H     -3.409160   -7.989300    0.639650
  H     -5.797200  -14.586730   -0.224530
  H     -6.589320  -20.546530   -2.535060
  H     -6.366100  -24.223820   -4.958210
  H     -5.006680  -24.153000   -7.140100

 Total Charge           Charge          ....    0
 Multiplicity           Mult            ....    1
 Number of Electrons    NEL             ....  388
 Basis Dimension        Dim             ....  754

ORBITAL ENERGIES
----------------

  NO   OCC          E(Eh)            E(eV)
   0   2.0000     -89.046218     -2423.0708
   1   2.0000     -88.968657     -2420.9602
   2   2.0000     -88.960012     -2420.7250
   3   2.0000     -88.957951     -2420.6689
   4   2.0000     -88.957533     -2420.6575
   5   2.0000     -88.955750     -2420.6090
   6   2.0000     -88.954938     -2420.5869
   7   2.0000     -24.816513      -675.2916
   8   2.0000     -24.816214      -675.2835
   9   2.0000     -14.456893      -393.3921
  10   2.0000     -14.454744      -393.3336
  11   2.0000     -14.454587      -393.3293
  12   2.0000     -14.453901      -393.3107
  13   2.0000     -14.453630      -393.3033
  14   2.0000     -14.452334      -393.2680
  15   2.0000     -14.445545      -393.0833
  16   2.0000     -14.443314      -393.0226
  17   2.0000     -14.434939      -392.7947
  18   2.0000     -14.432813      -392.7368
  19   2.0000     -10.431708      -283.8612
  20   2.0000     -10.431238      -283.8484
  21   2.0000     -10.357523      -281.8425
  22   2.0000     -10.347083      -281.5584
  23   2.0000     -10.346709      -281.5483
  24   2.0000     -10.339743      -281.3587
  25   2.0000     -10.339478      -281.3515
  26   2.0000     -10.338392      -281.3219
  27   2.0000     -10.337213      -281.2899
  28   2.0000     -10.335050      -281.2310
  29   2.0000     -10.334666      -281.2206
  30   2.0000     -10.318625      -280.7841
  31   2.0000     -10.315990      -280.7124
  32   2.0000     -10.315145      -280.6894
  33   2.0000     -10.312629      -280.6209
  34   2.0000     -10.312086      -280.6061
  35   2.0000     -10.311388      -280.5871
  36   2.0000     -10.310901      -280.5739
  37   2.0000     -10.306081      -280.4427
  38   2.0000     -10.305917      -280.4383
  39   2.0000     -10.303095      -280.3615
  40   2.0000     -10.303032      -280.3598
  41   2.0000     -10.302413      -280.3429
  42   2.0000     -10.301472      -280.3173
  43   2.0000     -10.300976      -280.3038
  44   2.0000     -10.299583      -280.2659
  45   2.0000     -10.289629      -279.9950
  46   2.0000     -10.288368      -279.9607
  47   2.0000     -10.280834      -279.7557
  48   2.0000     -10.280231      -279.7393
  49   2.0000      -8.136935      -221.4173
  50   2.0000      -8.063658      -219.4233
  51   2.0000      -8.054538      -219.1751
  52   2.0000      -8.053135      -219.1370
  53   2.0000      -8.051431      -219.0906
  54   2.0000      -8.050219      -219.0576
  55   2.0000      -8.049722      -219.0441
  56   2.0000      -6.108009      -166.2074
  57   2.0000      -6.100381      -165.9998
  58   2.0000      -6.099704      -165.9814
  59   2.0000      -6.033168      -164.1709
  60   2.0000      -6.029161      -164.0618
  61   2.0000      -6.025301      -163.9568
  62   2.0000      -6.024075      -163.9234
  63   2.0000      -6.022859      -163.8903
  64   2.0000      -6.021211      -163.8455
  65   2.0000      -6.019948      -163.8111
  66   2.0000      -6.019892      -163.8096
  67   2.0000      -6.019465      -163.7980
  68   2.0000      -6.019022      -163.7859
  69   2.0000      -6.016709      -163.7230
  70   2.0000      -6.016263      -163.7108
  71   2.0000      -6.016130      -163.7072
  72   2.0000      -6.014994      -163.6763
  73   2.0000      -6.014106      -163.6521
  74   2.0000      -6.012936      -163.6203
  75   2.0000      -6.011246      -163.5743
  76   2.0000      -6.011148      -163.5716
  77   2.0000      -1.343813       -36.5670
  78   2.0000      -1.330081       -36.1934
  79   2.0000      -1.146778       -31.2054
  80   2.0000      -1.143288       -31.1105
  81   2.0000      -1.142789       -31.0969
  82   2.0000      -1.113771       -30.3072
  83   2.0000      -1.038878       -28.2693
  84   2.0000      -1.032979       -28.1088
  85   2.0000      -1.027205       -27.9517
  86   2.0000      -1.020147       -27.7596
  87   2.0000      -1.016014       -27.6472
  88   2.0000      -1.001426       -27.2502
  89   2.0000      -0.987911       -26.8824
  90   2.0000      -0.977372       -26.5956
  91   2.0000      -0.967306       -26.3217
  92   2.0000      -0.942698       -25.6521
  93   2.0000      -0.938311       -25.5327
  94   2.0000      -0.916079       -24.9278
  95   2.0000      -0.911201       -24.7950
  96   2.0000      -0.886664       -24.1274
  97   2.0000      -0.885038       -24.0831
  98   2.0000      -0.861856       -23.4523
  99   2.0000      -0.852999       -23.2113
 100   2.0000      -0.837087       -22.7783
 101   2.0000      -0.833229       -22.6733
 102   2.0000      -0.820307       -22.3217
 103   2.0000      -0.809658       -22.0319
 104   2.0000      -0.805084       -21.9074
 105   2.0000      -0.797271       -21.6948
 106   2.0000      -0.791902       -21.5488
 107   2.0000      -0.777096       -21.1459
 108   2.0000      -0.773785       -21.0558
 109   2.0000      -0.770360       -20.9626
 110   2.0000      -0.765374       -20.8269
 111   2.0000      -0.747352       -20.3365
 112   2.0000      -0.746862       -20.3231
 113   2.0000      -0.716270       -19.4907
 114   2.0000      -0.693485       -18.8707
 115   2.0000      -0.679245       -18.4832
 116   2.0000      -0.677479       -18.4351
 117   2.0000      -0.670153       -18.2358
 118   2.0000      -0.660305       -17.9678
 119   2.0000      -0.652538       -17.7565
 120   2.0000      -0.650181       -17.6923
 121   2.0000      -0.642835       -17.4924
 122   2.0000      -0.636590       -17.3225
 123   2.0000      -0.636117       -17.3096
 124   2.0000      -0.629407       -17.1270
 125   2.0000      -0.624185       -16.9849
 126   2.0000      -0.619192       -16.8491
 127   2.0000      -0.617085       -16.7917
 128   2.0000      -0.613332       -16.6896
 129   2.0000      -0.606444       -16.5022
 130   2.0000      -0.601917       -16.3790
 131   2.0000      -0.590367       -16.0647
 132   2.0000      -0.571519       -15.5518
 133   2.0000      -0.568835       -15.4788
 134   2.0000      -0.568631       -15.4732
 135   2.0000      -0.560554       -15.2535
 136   2.0000      -0.558150       -15.1880
 137   2.0000      -0.552036       -15.0217
 138   2.0000      -0.547693       -14.9035
 139   2.0000      -0.546816       -14.8796
 140   2.0000      -0.545519       -14.8443
 141   2.0000      -0.540686       -14.7128
 142   2.0000      -0.533272       -14.5111
 143   2.0000      -0.521652       -14.1949
 144   2.0000      -0.518790       -14.1170
 145   2.0000      -0.516286       -14.0489
 146   2.0000      -0.516063       -14.0428
 147   2.0000      -0.514809       -14.0087
 148   2.0000      -0.513678       -13.9779
 149   2.0000      -0.511501       -13.9187
 150   2.0000      -0.491041       -13.3619
 151   2.0000      -0.487987       -13.2788
 152   2.0000      -0.485692       -13.2163
 153   2.0000      -0.481392       -13.0993
 154   2.0000      -0.479063       -13.0360
 155   2.0000      -0.476575       -12.9683
 156   2.0000      -0.467239       -12.7142
 157   2.0000      -0.463138       -12.6026
 158   2.0000      -0.458805       -12.4847
 159   2.0000      -0.453389       -12.3373
 160   2.0000      -0.449197       -12.2233
 161   2.0000      -0.447656       -12.1813
 162   2.0000      -0.437486       -11.9046
 163   2.0000      -0.435084       -11.8392
 164   2.0000      -0.434679       -11.8282
 165   2.0000      -0.427431       -11.6310
 166   2.0000      -0.423534       -11.5250
 167   2.0000      -0.422231       -11.4895
 168   2.0000      -0.421454       -11.4684
 169   2.0000      -0.420033       -11.4297
 170   2.0000      -0.410573       -11.1723
 171   2.0000      -0.408059       -11.1039
 172   2.0000      -0.405976       -11.0472
 173   2.0000      -0.403500       -10.9798
 174   2.0000      -0.400621       -10.9015
 175   2.0000      -0.393595       -10.7103
 176   2.0000      -0.387684       -10.5494
 177   2.0000      -0.385525       -10.4907
 178   2.0000      -0.384533       -10.4637
 179   2.0000      -0.380679       -10.3588
 180   2.0000      -0.368750       -10.0342
 181   2.0000      -0.359099        -9.7716
 182   2.0000      -0.358598        -9.7580
 183   2.0000      -0.345423        -9.3994
 184   2.0000      -0.341649        -9.2967
 185   2.0000      -0.333570        -9.0769
 186   2.0000      -0.329168        -8.9571
 187   2.0000      -0.305894        -8.3238
 188   2.0000      -0.301149        -8.1947
 189   2.0000      -0.299166        -8.1407
 190   2.0000      -0.284221        -7.7341
 191   2.0000      -0.280351        -7.6287
 192   2.0000      -0.269483        -7.3330
 193   2.0000      -0.232460        -6.3255
 194   0.0000      -0.114299        -3.1102
 195   0.0000      -0.046871        -1.2754
 196   0.0000      -0.045323        -1.2333
 197   0.0000      -0.027278        -0.7423
 198   0.0000      -0.025222        -0.6863

MULLIKEN ATOMIC CHARGES
-----------------------
   0 C :    0.053157
   1 N :   -0.051342
   2 C :   -0.000403
   3 C :   -0.010138
   4 N :   -0.057826
   5 N :   -0.063965
   6 C :   -0.040322
   7 C :   -0.053879
   8 C :   -0.006219
   9 C :   -0.078315
  10 S :    0.139313
  11 C :   -0.043042
  12 C :   -0.007817
  13 S :    0.160562
  14 C :   -0.055506
  15 C :   -0.168900
  16 S :    0.162086
  17 C :    0.200011
  18 C :   -0.076230
  19 C :   -0.080629
  20 N :   -0.003280
  21 C :    0.143429
  22 C :    0.142837
  23 N :   -0.002136
  24 F :   -0.142195
  25 F :   -0.143203
  26 C :    0.203005
  27 C :   -0.023072
  28 C :   -0.019673
  29 N :   -0.328969
  30 S :    0.561327
  31 N :   -0.324126
  32 C :   -0.169460
  33 C :   -0.053347
  34 C :   -0.006748
  35 C :   -0.047898
  36 S :    0.164854
  37 C :   -0.079776
  38 C :   -0.019438
  39 S :    0.151540
  40 C :   -0.051389
  41 C :   -0.030087
  42 S :    0.205043
  43 C :   -0.079370
  44 N :   -0.042708
  45 C :    0.053700
  46 C :    0.029395
  47 N :   -0.039908
  48 N :   -0.071784
  49 H :    0.028762
  50 H :    0.021054
  51 H :    0.009256
  52 H :    0.000892
  53 H :    0.000005
  54 H :   -0.000659
  55 H :    0.021868
  56 H :    0.021660
Sum of atomic charges:   -0.0000000

LOEWDIN ATOMIC CHARGES
----------------------
   0 C :    0.013448
   1 N :   -0.050475
   2 C :    0.024064
   3 C :   -0.041663
   4 N :   -0.028876
   5 N :   -0.047087
   6 C :   -0.184127
   7 C :   -0.029331
   8 C :   -0.190620
   9 C :   -0.210035
  10 S :    0.426868
  11 C :   -0.219069
  12 C :   -0.191221
  13 S :    0.408289
  14 C :   -0.049110
  15 C :   -0.158852
  16 S :    0.457886
  17 C :   -0.044842
  18 C :   -0.007289
  19 C :   -0.008853
  20 N :   -0.029386
  21 C :    0.056748
  22 C :    0.057433
  23 N :   -0.030252
  24 F :   -0.031075
  25 F :   -0.031599
  26 C :   -0.041091
  27 C :   -0.048174
  28 C :   -0.047438
  29 N :   -0.299514
  30 S :    0.679516
  31 N :   -0.296524
  32 C :   -0.160862
  33 C :   -0.047436
  34 C :   -0.191602
  35 C :   -0.217168
  36 S :    0.460561
  37 C :   -0.211341
  38 C :   -0.192640
  39 S :    0.400756
  40 C :   -0.034364
  41 C :   -0.191848
  42 S :    0.468198
  43 C :   -0.005680
  44 N :   -0.062553
  45 C :    0.038129
  46 C :   -0.035343
  47 N :   -0.007351
  48 N :   -0.074527
  49 H :    0.024942
  50 H :    0.023312
  51 H :    0.042893
  52 H :    0.032142
  53 H :    0.031822
  54 H :    0.039152
  55 H :    0.031213
  56 H :    0.031844

  Mayer bond orders larger than 0.100000
B(  0-C ,  1-N ) :   1.4513 B(  0-C ,  5-N ) :   1.5480 B(  0-C , 49-H ) :   0.9801
B(  1-N ,  2-C ) :   1.6369 B(  2-C ,  3-C ) :   1.2684 B(  2-C , 50-H ) :   0.9743
B(  3-C ,  4-N ) :   1.5838 B(  3-C ,  6-C ) :   1.0782 B(  4-N ,  5-N ) :   1.3225
B(  6-C ,  7-C ) :   1.5314 B(  6-C , 10-S ) :   1.0930 B(  7-C ,  8-C ) :   1.2328
B(  7-C , 51-H ) :   1.0138 B(  8-C ,  9-C ) :   1.4464 B(  8-C , 13-S ) :   1.0487
B(  9-C , 10-S ) :   1.0778 B(  9-C , 11-C ) :   1.3100 B( 11-C , 12-C ) :   1.4311
B( 11-C , 16-S ) :   1.0425 B( 12-C , 13-S ) :   1.0465 B( 12-C , 14-C ) :   1.2515
B( 14-C , 15-C ) :   1.4717 B( 14-C , 52-H ) :   0.9921 B( 15-C , 16-S ) :   1.0894
B( 15-C , 17-C ) :   1.1867 B( 17-C , 18-C ) :   1.2981 B( 17-C , 26-C ) :   0.1252
B( 17-C , 28-C ) :   1.1899 B( 18-C , 19-C ) :   1.1040 B( 18-C , 23-N ) :   1.4289
B( 19-C , 20-N ) :   1.4308 B( 19-C , 26-C ) :   1.2933 B( 20-N , 21-C ) :   1.6695
B( 21-C , 22-C ) :   1.1058 B( 21-C , 25-F ) :   1.1720 B( 22-C , 23-N ) :   1.6706
B( 22-C , 24-F ) :   1.1730 B( 26-C , 27-C ) :   1.1902 B( 26-C , 32-C ) :   1.1913
B( 27-C , 28-C ) :   1.1232 B( 27-C , 31-N ) :   1.4711 B( 28-C , 29-N ) :   1.4677
B( 29-N , 30-S ) :   1.2763 B( 29-N , 31-N ) :   0.1551 B( 30-S , 31-N ) :   1.2796
B( 32-C , 33-C ) :   1.4634 B( 32-C , 36-S ) :   1.0902 B( 33-C , 34-C ) :   1.2559
B( 33-C , 53-H ) :   0.9931 B( 34-C , 35-C ) :   1.4324 B( 34-C , 39-S ) :   1.0442
B( 35-C , 36-S ) :   1.0457 B( 35-C , 37-C ) :   1.3105 B( 37-C , 38-C ) :   1.4459
B( 37-C , 42-S ) :   1.0714 B( 38-C , 39-S ) :   1.0449 B( 38-C , 40-C ) :   1.2554
B( 40-C , 41-C ) :   1.5185 B( 40-C , 54-H ) :   1.0080 B( 41-C , 42-S ) :   1.0984
B( 41-C , 43-C ) :   1.0597 B( 43-C , 44-N ) :   1.5464 B( 43-C , 48-N ) :   1.5971
B( 44-N , 45-C ) :   1.5846 B( 45-C , 46-C ) :   1.2858 B( 45-C , 55-H ) :   0.9741
B( 46-C , 47-N ) :   1.5647 B( 46-C , 56-H ) :   0.9834 B( 47-N , 48-N ) :   1.3473

-----------------------------------------------------------------------------
         ABSORPTION SPECTRUM VIA TRANSITION ELECTRIC DIPOLE MOMENTS
-----------------------------------------------------------------------------
State   Energy  Wavelength   fosc         T2         TX        TY        TZ
        (cm-1)    (nm)                  (au**2)     (au)      (au)      (au)
-----------------------------------------------------------------------------
   0   10486.7    953.6   0.770150871  24.17756   1.56310   4.62517   0.58487
   1   19207.4    520.6   0.033942196   0.58176   0.42900  -0.09784  -0.62302
   2   20335.7    491.7   0.013886787   0.22481  -0.28441  -0.24061   0.29331
   3   21107.0    473.8   0.014994848   0.23388   0.15848  -0.18799  -0.41644
   4   25226.2    396.4   1.425608155  18.60473   1.36807   4.06346   0.47050
   5   25309.7    395.1   0.012454705   0.16200  -0.24947   0.28685  -0.13223
   6   26192.0    381.8   0.010952469   0.13766  -0.30538   0.09869  -0.18619
   7   26526.2    377.0   0.377476971   4.68480   0.68894   2.04018   0.21868
   8   27192.3    367.8   0.210423721   2.54756  -0.83315   0.27885   1.33254
   9   27372.0    365.3   0.061321921   0.73754   0.28898   0.80814   0.03070
  10   27576.5    362.6   0.001929843   0.02304   0.12111  -0.00998   0.09094
  11   28681.1    348.7   0.003577029   0.04106   0.16393  -0.07782   0.09017
  12   30035.2    332.9   0.000864341   0.00947  -0.04686  -0.02038   0.08284
  13   30246.0    330.6   0.174214328   1.89623  -0.64838   0.09828   1.21086
  14   30972.8    322.9   0.000656662   0.00698   0.03381  -0.03485  -0.06799
  15   31213.4    320.4   0.030060215   0.31705  -0.22040   0.14606   0.49713
  16   31762.3    314.8   0.001360258   0.01410   0.10594  -0.03553   0.04015
  17   31883.6    313.6   0.014269890   0.14734   0.19419   0.03945  -0.32875
  18   32159.5    311.0   0.049565574   0.50740  -0.40899  -0.12067   0.57058
  19   32950.0    303.5   0.000194412   0.00194  -0.04269   0.00832  -0.00711
  20   33014.3    302.9   0.000080935   0.00081   0.00893  -0.01217   0.02407
  21   33747.3    296.3   0.078057697   0.76147  -0.48244  -0.53392   0.49361
  22   34403.5    290.7   0.058152727   0.55647   0.12753  -0.45490  -0.57730
  23   34892.3    286.6   0.043849482   0.41372   0.37472   0.05511  -0.51988
  24   35274.3    283.5   0.060090835   0.56082  -0.22600   0.13074   0.70189
  25   35302.7    283.3   0.025533070   0.23811   0.20179  -0.10336  -0.43209
  26   36293.3    275.5   0.406137635   3.68402  -0.96447  -0.03078   1.65918
  27   37092.7    269.6   0.253805087   2.25261   0.49257   1.41567   0.07657
  28   37349.8    267.7   0.260221113   2.29367   0.64860  -0.29628  -1.33611
  29   37682.8    265.4   0.046124595   0.40296  -0.18572  -0.59187  -0.13476
  30   38074.9    262.6   0.016208614   0.14015   0.11953  -0.22844  -0.27143
  31   39602.6    252.5   0.017670271   0.14689   0.03022   0.33626   0.18140
  32   39907.2    250.6   0.022855028   0.18854  -0.24541  -0.23797   0.26774
  33   40197.8    248.8   0.033298911   0.27271  -0.30413  -0.28048   0.31867

FINAL SINGLE POINT ENERGY     -4679.302650521222

DIPOLE MOMENT
-------------
                                X             Y             Z
Electronic contribution:     -7.74543       2.76216      12.96995
Nuclear contribution   :      7.15091      -4.58930     -13.22802
                        -----------------------------------------
Total Dipole Moment    :     -0.59451      -1.82714      -0.25807
                        -----------------------------------------
Magnitude (a.u.)       :      1.93868
Magnitude (Debye)      :      4.92774

Rotational constants in cm-1:     0.003854     0.000466     0.000416
Rotational constants in MHz :   115.538564    13.976182    12.475772

                             ****ORCA TERMINATED NORMALLY****
TOTAL RUN TIME: 0 days 0 hours 6 minutes 22 seconds 703 msec
