                         Program Version 4.2.0 -  RELEASE  -
|  1> # ORCA input file
|  2> # SCF done       -160.394383832673          0.000701256265
|  3> ! CAM-B3LYP def2-SVP def2/J RIJCOSX Grid4 TightSCF
|  4> %maxcore 5000
|  5> %tddft
|  6>     Mode sTDDFT
|  7>     Ethresh 5.0
|  8>     maxcore 5000
|  9> end
| 10>
| 11> %pal
| 12>   nprocs 6
| 13>   end
| 14> * xyz 0 1
| 15>    C       -3.18360        -1.55724        -0.24282
| 16>    N       -2.67222        -2.38083         0.60098
| 17>    C       -1.35994        -2.52804         0.36333
| 18>    C       -0.83969        -1.78718        -0.70804
| 19>    S       -2.09930        -0.86654        -1.43281
| 20>    N        0.46480        -1.92482        -0.95371
| 21>    C        1.00509        -2.75365        -0.11124
| 22>    S       -0.11017        -3.45059         1.09457
| 23>    C        2.38099        -3.09523        -0.12415
| 24>    C        3.33432        -2.61463        -1.00526
| 25>    C        4.59335        -3.15117        -0.74372
| 26>    C        4.58979        -4.04239         0.34799
| 27>    S        3.04128        -4.21865         1.04496
| 28>    C        5.90232        -4.52981         0.53921
| 29>    C        6.74486        -3.95403        -0.43400
| 30>    C        5.95266        -3.04318        -1.25033
| 31>    C        6.40371        -2.21302        -2.23174
| 32>    C        7.77285        -2.08620        -2.55792
| 33>    N        8.87988        -1.92576        -2.80608
| 34>    C        5.53628        -1.36784        -2.95824
| 35>    N        4.84218        -0.67940        -3.55670
| 36>    C        8.05785        -4.40012        -0.35338
| 37>    C        8.23026        -5.29700         0.69535
| 38>    S        6.73812        -5.59346         1.57987
| 39>    C        9.43263        -5.92527         1.06810
| 40>    C       10.64452        -5.91437         0.36228
| 41>    C       11.69700        -6.62505         1.03827
| 42>    N       12.93863        -6.64107         0.54832
| 43>    C       13.13732        -6.03851        -0.60258
| 44>    C       14.53629        -5.97311        -1.10070
| 45>    O       15.48145        -6.34092        -0.43863
| 46>    C       14.68803        -5.38858        -2.44553
| 47>    C       13.67034        -4.90232        -3.16332
| 48>    C       12.26894        -4.90799        -2.70569
| 49>    O       11.35255        -4.53685        -3.40512
| 50>    C       12.06268        -5.44119        -1.33354
| 51>    N       10.84873        -5.36315        -0.83627
| 52>    C       11.27986        -7.20958         2.24297
| 53>    S        9.60777        -6.84326         2.53092
| 54>    C       12.06252        -7.97299         3.12845
| 55>    C       13.34690        -8.45159         2.89366
| 56>    C       13.83412        -9.16370         3.98226
| 57>    C       12.93040        -9.21144         5.06373
| 58>    S       11.46118        -8.41272         4.72288
| 59>    C       13.53824        -9.90899         6.13182
| 60>    C       14.82818       -10.31209         5.73221
| 61>    C       15.04273        -9.88599         4.35798
| 62>    C       16.11664       -10.16222         3.56667
| 63>    C       17.23757       -10.87622         4.04446
| 64>    N       18.15421       -11.45212         4.42149
| 65>    C       16.16830        -9.81438         2.19797
| 66>    N       16.21427        -9.58994         1.07549
| 67>    C       15.50940       -11.00533         6.73058
| 68>    C       14.74799       -11.12448         7.88048
| 69>    S       13.16987       -10.38158         7.73049
| 70>    C       15.14308       -11.76198         9.08356
| 71>    N       16.30172       -12.32702         9.24754
| 72>    C       16.40414       -12.84410        10.47356
| 73>    C       15.29433       -12.68872        11.31697
| 74>    S       14.05299       -11.83443        10.49417
| 75>    N       15.40940       -13.21223        12.54699
| 76>    C       16.56180       -13.76398        12.68540
| 77>    S       17.64136       -13.70071        11.30725
| 78>    H       -4.22082        -1.28930        -0.24007
| 79>    H        3.08932        -1.91551        -1.78307
| 80>    H        8.86915        -4.12297        -1.00241
| 81>    H       15.70204        -5.36910        -2.82163
| 82>    H       13.82661        -4.47819        -4.14605
| 83>    H       13.86595        -8.25669         1.97236
| 84>    H       16.50243       -11.40889         6.66122
| 85>    H       16.87181       -14.24655        13.59021
| 86> *
| 87>
| 88>                          ****END OF INPUT****

CARTESIAN COORDINATES (ANGSTROEM)
---------------------------------
  C     -3.183600   -1.557240   -0.242820
  N     -2.672220   -2.380830    0.600980
  C     -1.359940   -2.528040    0.363330
  C     -0.839690   -1.787180   -0.708040
  S     -2.099300   -0.866540   -1.432810
  N      0.464800   -1.924820   -0.953710
  C      1.005090   -2.753650   -0.111240
  S     -0.110170   -3.450590    1.094570
  C      2.380990   -3.095230   -0.124150
  C      3.334320   -2.614630   -1.005260
  C      4.593350   -3.151170   -0.743720
  C      4.589790   -4.042390    0.347990
  S      3.041280   -4.218650    1.044960
  C      5.902320   -4.529810    0.539210
  C      6.744860   -3.954030   -0.434000
  C      5.952660   -3.043180   -1.250330
  C      6.403710   -2.213020   -2.231740
  C      7.772850   -2.086200   -2.557920
  N      8.879880   -1.925760   -2.806080
  C      5.536280   -1.367840   -2.958240
  N      4.842180   -0.679400   -3.556700
  C      8.057850   -4.400120   -0.353380
  C      8.230260   -5.297000    0.695350
  S      6.738120   -5.593460    1.579870
  C      9.432630   -5.925270    1.068100
  C     10.644520   -5.914370    0.362280
  C     11.697000   -6.625050    1.038270
  N     12.938630   -6.641070    0.548320
  C     13.137320   -6.038510   -0.602580
  C     14.536290   -5.973110   -1.100700
  O     15.481450   -6.340920   -0.438630
  C     14.688030   -5.388580   -2.445530
  C     13.670340   -4.902320   -3.163320
  C     12.268940   -4.907990   -2.705690
  O     11.352550   -4.536850   -3.405120
  C     12.062680   -5.441190   -1.333540
  N     10.848730   -5.363150   -0.836270
  C     11.279860   -7.209580    2.242970
  S      9.607770   -6.843260    2.530920
  C     12.062520   -7.972990    3.128450
  C     13.346900   -8.451590    2.893660
  C     13.834120   -9.163700    3.982260
  C     12.930400   -9.211440    5.063730
  S     11.461180   -8.412720    4.722880
  C     13.538240   -9.908990    6.131820
  C     14.828180  -10.312090    5.732210
  C     15.042730   -9.885990    4.357980
  C     16.116640  -10.162220    3.566670
  C     17.237570  -10.876220    4.044460
  N     18.154210  -11.452120    4.421490
  C     16.168300   -9.814380    2.197970
  N     16.214270   -9.589940    1.075490
  C     15.509400  -11.005330    6.730580
  C     14.747990  -11.124480    7.880480
  S     13.169870  -10.381580    7.730490
  C     15.143080  -11.761980    9.083560
  N     16.301720  -12.327020    9.247540
  C     16.404140  -12.844100   10.473560
  C     15.294330  -12.688720   11.316970
  S     14.052990  -11.834430   10.494170
  N     15.409400  -13.212230   12.546990
  C     16.561800  -13.763980   12.685400
  S     17.641360  -13.700710   11.307250
  H     -4.220820   -1.289300   -0.240070
  H      3.089320   -1.915510   -1.783070
  H      8.869150   -4.122970   -1.002410
  H     15.702040   -5.369100   -2.821630
  H     13.826610   -4.478190   -4.146050
  H     13.865950   -8.256690    1.972360
  H     16.502430  -11.408890    6.661220
  H     16.871810  -14.246550   13.590210

 Total Charge           Charge          ....    0
 Multiplicity           Mult            ....    1
 Number of Electrons    NEL             ....  490
 Basis Dimension        Dim             ....  958

ORBITAL ENERGIES
----------------

  NO   OCC          E(Eh)            E(eV)
   0   2.0000     -89.004386     -2421.9325
   1   2.0000     -88.996190     -2421.7094
   2   2.0000     -88.996187     -2421.7094
   3   2.0000     -88.996101     -2421.7070
   4   2.0000     -88.996092     -2421.7068
   5   2.0000     -88.975843     -2421.1558
   6   2.0000     -88.975697     -2421.1518
   7   2.0000     -88.972333     -2421.0603
   8   2.0000     -88.972185     -2421.0562
   9   2.0000     -19.225744      -523.1591
  10   2.0000     -19.225718      -523.1584
  11   2.0000     -14.451317      -393.2403
  12   2.0000     -14.451182      -393.2367
  13   2.0000     -14.429429      -392.6447
  14   2.0000     -14.429372      -392.6432
  15   2.0000     -14.427384      -392.5891
  16   2.0000     -14.427318      -392.5873
  17   2.0000     -14.426719      -392.5710
  18   2.0000     -14.426579      -392.5672
  19   2.0000     -14.426026      -392.5521
  20   2.0000     -14.425972      -392.5506
  21   2.0000     -10.374659      -282.3088
  22   2.0000     -10.374571      -282.3064
  23   2.0000     -10.366594      -282.0894
  24   2.0000     -10.366541      -282.0879
  25   2.0000     -10.358731      -281.8754
  26   2.0000     -10.358729      -281.8753
  27   2.0000     -10.351978      -281.6916
  28   2.0000     -10.351850      -281.6881
  29   2.0000     -10.342855      -281.4434
  30   2.0000     -10.342590      -281.4362
  31   2.0000     -10.341162      -281.3973
  32   2.0000     -10.341069      -281.3948
  33   2.0000     -10.340086      -281.3681
  34   2.0000     -10.339997      -281.3656
  35   2.0000     -10.338122      -281.3146
  36   2.0000     -10.337986      -281.3109
  37   2.0000     -10.337961      -281.3102
  38   2.0000     -10.337857      -281.3074
  39   2.0000     -10.337295      -281.2921
  40   2.0000     -10.337164      -281.2885
  41   2.0000     -10.334829      -281.2250
  42   2.0000     -10.334759      -281.2231
  43   2.0000     -10.333427      -281.1868
  44   2.0000     -10.333416      -281.1866
  45   2.0000     -10.331655      -281.1386
  46   2.0000     -10.331651      -281.1385
  47   2.0000     -10.328969      -281.0655
  48   2.0000     -10.328940      -281.0648
  49   2.0000     -10.328029      -281.0399
  50   2.0000     -10.327914      -281.0368
  51   2.0000     -10.325592      -280.9737
  52   2.0000     -10.325478      -280.9705
  53   2.0000     -10.307551      -280.4827
  54   2.0000     -10.307262      -280.4749
  55   2.0000     -10.307223      -280.4738
  56   2.0000     -10.307205      -280.4733
  57   2.0000     -10.307179      -280.4726
  58   2.0000     -10.306845      -280.4635
  59   2.0000     -10.304364      -280.3960
  60   2.0000     -10.304266      -280.3933
  61   2.0000     -10.301578      -280.3202
  62   2.0000     -10.301561      -280.3197
  63   2.0000      -8.099254      -220.3919
  64   2.0000      -8.090967      -220.1664
  65   2.0000      -8.090950      -220.1659
  66   2.0000      -8.090904      -220.1647
  67   2.0000      -8.090878      -220.1640
  68   2.0000      -8.071808      -219.6451
  69   2.0000      -8.071745      -219.6434
  70   2.0000      -8.068699      -219.5604
  71   2.0000      -8.068623      -219.5584
  72   2.0000      -6.068337      -165.1278
  73   2.0000      -6.064231      -165.0161
  74   2.0000      -6.061853      -164.9514
  75   2.0000      -6.060280      -164.9086
  76   2.0000      -6.060222      -164.9070
  77   2.0000      -6.060185      -164.9060
  78   2.0000      -6.060174      -164.9057
  79   2.0000      -6.056091      -164.7946
  80   2.0000      -6.056060      -164.7938
  81   2.0000      -6.056046      -164.7934
  82   2.0000      -6.056037      -164.7931
  83   2.0000      -6.053251      -164.7173
  84   2.0000      -6.053217      -164.7164
  85   2.0000      -6.053158      -164.7148
  86   2.0000      -6.053106      -164.7134
  87   2.0000      -6.040981      -164.3835
  88   2.0000      -6.040903      -164.3813
  89   2.0000      -6.037741      -164.2953
  90   2.0000      -6.037652      -164.2929
  91   2.0000      -6.037316      -164.2837
  92   2.0000      -6.037267      -164.2824
  93   2.0000      -6.033937      -164.1918
  94   2.0000      -6.033877      -164.1901
  95   2.0000      -6.033527      -164.1806
  96   2.0000      -6.033440      -164.1783
  97   2.0000      -6.030733      -164.1046
  98   2.0000      -6.030629      -164.1018
  99   2.0000      -1.143511       -31.1165
 100   2.0000      -1.138734       -30.9865
 101   2.0000      -1.103039       -30.0152
 102   2.0000      -1.098398       -29.8889
 103   2.0000      -1.098390       -29.8887
 104   2.0000      -1.057650       -28.7801
 105   2.0000      -1.057637       -28.7798
 106   2.0000      -1.047169       -28.4949
 107   2.0000      -1.046904       -28.4877
 108   2.0000      -1.029925       -28.0257
 109   2.0000      -1.022044       -27.8112
 110   2.0000      -1.020485       -27.7688
 111   2.0000      -1.016669       -27.6650
 112   2.0000      -1.005134       -27.3511
 113   2.0000      -1.004867       -27.3438
 114   2.0000      -1.001413       -27.2498
 115   2.0000      -0.992553       -27.0087
 116   2.0000      -0.962452       -26.1896
 117   2.0000      -0.958364       -26.0784
 118   2.0000      -0.938636       -25.5416
 119   2.0000      -0.924910       -25.1681
 120   2.0000      -0.922514       -25.1029
 121   2.0000      -0.916622       -24.9426
 122   2.0000      -0.910343       -24.7717
 123   2.0000      -0.887547       -24.1514
 124   2.0000      -0.887386       -24.1470
 125   2.0000      -0.883500       -24.0413
 126   2.0000      -0.878830       -23.9142
 127   2.0000      -0.870617       -23.6907
 128   2.0000      -0.868933       -23.6449
 129   2.0000      -0.858547       -23.3623
 130   2.0000      -0.857116       -23.3233
 131   2.0000      -0.849601       -23.1188
 132   2.0000      -0.835888       -22.7457
 133   2.0000      -0.804649       -21.8956
 134   2.0000      -0.801618       -21.8131
 135   2.0000      -0.794321       -21.6146
 136   2.0000      -0.781108       -21.2550
 137   2.0000      -0.778689       -21.1892
 138   2.0000      -0.777752       -21.1637
 139   2.0000      -0.760899       -20.7051
 140   2.0000      -0.751925       -20.4609
 141   2.0000      -0.725702       -19.7474
 142   2.0000      -0.711164       -19.3518
 143   2.0000      -0.700390       -19.0586
 144   2.0000      -0.698471       -19.0064
 145   2.0000      -0.691667       -18.8212
 146   2.0000      -0.691014       -18.8034
 147   2.0000      -0.680189       -18.5089
 148   2.0000      -0.676202       -18.4004
 149   2.0000      -0.670777       -18.2528
 150   2.0000      -0.669001       -18.2044
 151   2.0000      -0.665279       -18.1032
 152   2.0000      -0.663456       -18.0535
 153   2.0000      -0.663231       -18.0474
 154   2.0000      -0.637438       -17.3456
 155   2.0000      -0.634683       -17.2706
 156   2.0000      -0.633094       -17.2274
 157   2.0000      -0.624354       -16.9895
 158   2.0000      -0.620212       -16.8768
 159   2.0000      -0.616360       -16.7720
 160   2.0000      -0.613671       -16.6988
 161   2.0000      -0.609912       -16.5966
 162   2.0000      -0.598653       -16.2902
 163   2.0000      -0.582871       -15.8607
 164   2.0000      -0.574325       -15.6282
 165   2.0000      -0.572857       -15.5882
 166   2.0000      -0.570256       -15.5175
 167   2.0000      -0.568123       -15.4594
 168   2.0000      -0.558792       -15.2055
 169   2.0000      -0.553023       -15.0485
 170   2.0000      -0.552861       -15.0441
 171   2.0000      -0.549539       -14.9537
 172   2.0000      -0.544402       -14.8139
 173   2.0000      -0.544210       -14.8087
 174   2.0000      -0.543586       -14.7917
 175   2.0000      -0.539149       -14.6710
 176   2.0000      -0.528345       -14.3770
 177   2.0000      -0.526851       -14.3363
 178   2.0000      -0.525427       -14.2976
 179   2.0000      -0.524730       -14.2786
 180   2.0000      -0.524061       -14.2604
 181   2.0000      -0.515860       -14.0373
 182   2.0000      -0.512583       -13.9481
 183   2.0000      -0.506356       -13.7787
 184   2.0000      -0.505417       -13.7531
 185   2.0000      -0.504760       -13.7352
 186   2.0000      -0.503653       -13.7051
 187   2.0000      -0.500436       -13.6176
 188   2.0000      -0.498320       -13.5600
 189   2.0000      -0.496435       -13.5087
 190   2.0000      -0.494668       -13.4606
 191   2.0000      -0.493054       -13.4167
 192   2.0000      -0.491332       -13.3698
 193   2.0000      -0.490679       -13.3520
 194   2.0000      -0.483687       -13.1618
 195   2.0000      -0.481914       -13.1136
 196   2.0000      -0.475650       -12.9431
 197   2.0000      -0.473736       -12.8910
 198   2.0000      -0.469633       -12.7794
 199   2.0000      -0.468780       -12.7561
 200   2.0000      -0.459347       -12.4995
 201   2.0000      -0.458405       -12.4738
 202   2.0000      -0.457363       -12.4455
 203   2.0000      -0.457084       -12.4379
 204   2.0000      -0.455113       -12.3843
 205   2.0000      -0.451175       -12.2771
 206   2.0000      -0.450088       -12.2475
 207   2.0000      -0.447271       -12.1709
 208   2.0000      -0.442275       -12.0349
 209   2.0000      -0.440288       -11.9808
 210   2.0000      -0.437646       -11.9090
 211   2.0000      -0.437357       -11.9011
 212   2.0000      -0.436522       -11.8784
 213   2.0000      -0.436390       -11.8748
 214   2.0000      -0.429206       -11.6793
 215   2.0000      -0.429085       -11.6760
 216   2.0000      -0.423859       -11.5338
 217   2.0000      -0.423549       -11.5254
 218   2.0000      -0.415754       -11.3132
 219   2.0000      -0.411357       -11.1936
 220   2.0000      -0.409025       -11.1301
 221   2.0000      -0.398098       -10.8328
 222   2.0000      -0.398075       -10.8322
 223   2.0000      -0.390996       -10.6395
 224   2.0000      -0.380813       -10.3625
 225   2.0000      -0.380785       -10.3617
 226   2.0000      -0.379759       -10.3338
 227   2.0000      -0.371154       -10.0996
 228   2.0000      -0.364422        -9.9164
 229   2.0000      -0.357073        -9.7164
 230   2.0000      -0.355532        -9.6745
 231   2.0000      -0.350055        -9.5255
 232   2.0000      -0.349723        -9.5164
 233   2.0000      -0.349718        -9.5163
 234   2.0000      -0.347785        -9.4637
 235   2.0000      -0.345229        -9.3942
 236   2.0000      -0.337300        -9.1784
 237   2.0000      -0.333615        -9.0781
 238   2.0000      -0.330917        -9.0047
 239   2.0000      -0.325515        -8.8577
 240   2.0000      -0.324464        -8.8291
 241   2.0000      -0.319197        -8.6858
 242   2.0000      -0.292059        -7.9473
 243   2.0000      -0.267880        -7.2894
 244   2.0000      -0.236125        -6.4253
 245   0.0000      -0.118891        -3.2352
 246   0.0000      -0.105238        -2.8637
 247   0.0000      -0.091865        -2.4998
 248   0.0000      -0.085708        -2.3322
 249   0.0000      -0.049798        -1.3551

MULLIKEN ATOMIC CHARGES
-----------------------
   0 C :   -0.006359
   1 N :   -0.055521
   2 C :   -0.062730
   3 C :   -0.088271
   4 S :    0.128882
   5 N :   -0.032462
   6 C :   -0.112391
   7 S :    0.118884
   8 C :   -0.035015
   9 C :   -0.038518
  10 C :    0.011965
  11 C :   -0.093919
  12 S :    0.193806
  13 C :   -0.093670
  14 C :    0.026862
  15 C :    0.300979
  16 C :   -0.291855
  17 C :   -0.192373
  18 N :    0.194049
  19 C :   -0.195255
  20 N :    0.184913
  21 C :   -0.057487
  22 C :   -0.089011
  23 S :    0.177447
  24 C :   -0.113537
  25 C :    0.023535
  26 C :    0.022995
  27 N :    0.061873
  28 C :   -0.118715
  29 C :    0.146369
  30 O :   -0.097836
  31 C :   -0.014964
  32 C :   -0.008717
  33 C :    0.144048
  34 O :   -0.096634
  35 C :   -0.120381
  36 N :    0.060082
  37 C :   -0.116277
  38 S :    0.196640
  39 C :   -0.087450
  40 C :   -0.056620
  41 C :    0.028217
  42 C :   -0.093818
  43 S :    0.177034
  44 C :   -0.092787
  45 C :    0.009914
  46 C :    0.301720
  47 C :   -0.293937
  48 C :   -0.191838
  49 N :    0.182205
  50 C :   -0.194226
  51 N :    0.197074
  52 C :   -0.034893
  53 C :   -0.035226
  54 S :    0.193909
  55 C :   -0.112217
  56 N :   -0.033125
  57 C :   -0.087733
  58 C :   -0.061810
  59 S :    0.118074
  60 N :   -0.056102
  61 C :   -0.005676
  62 S :    0.128490
  63 H :    0.047357
  64 H :    0.023329
  65 H :    0.030660
  66 H :    0.020504
  67 H :    0.019926
  68 H :    0.028385
  69 H :    0.022589
  70 H :    0.046637
Sum of atomic charges:   -0.0000000

LOEWDIN ATOMIC CHARGES
----------------------
   0 C :   -0.116376
   1 N :   -0.093223
   2 C :   -0.219140
   3 C :   -0.212030
   4 S :    0.418197
   5 N :   -0.096850
   6 C :   -0.132971
   7 S :    0.397836
   8 C :   -0.198736
   9 C :   -0.000373
  10 C :   -0.066151
  11 C :   -0.177371
  12 S :    0.473933
  13 C :   -0.180284
  14 C :   -0.063149
  15 C :    0.075720
  16 C :   -0.089305
  17 C :   -0.022085
  18 N :   -0.014257
  19 C :   -0.017750
  20 N :   -0.024748
  21 C :   -0.007241
  22 C :   -0.183644
  23 S :    0.459167
  24 C :   -0.192249
  25 C :   -0.043405
  26 C :   -0.043416
  27 N :    0.008353
  28 C :   -0.037994
  29 C :    0.055493
  30 O :   -0.091738
  31 C :   -0.011940
  32 C :   -0.011509
  33 C :    0.055352
  34 O :   -0.091282
  35 C :   -0.037914
  36 N :    0.008023
  37 C :   -0.192380
  38 S :    0.486128
  39 C :   -0.183698
  40 C :   -0.006910
  41 C :   -0.063089
  42 C :   -0.180235
  43 S :    0.459211
  44 C :   -0.177410
  45 C :   -0.066210
  46 C :    0.075672
  47 C :   -0.089336
  48 C :   -0.017523
  49 N :   -0.024861
  50 C :   -0.022272
  51 N :   -0.013885
  52 C :   -0.000206
  53 C :   -0.198739
  54 S :    0.474009
  55 C :   -0.132884
  56 N :   -0.096949
  57 C :   -0.211989
  58 C :   -0.219055
  59 S :    0.397747
  60 N :   -0.093354
  61 C :   -0.116226
  62 S :    0.418270
  63 H :    0.020818
  64 H :    0.048596
  65 H :    0.044853
  66 H :    0.046614
  67 H :    0.046564
  68 H :    0.044586
  69 H :    0.048539
  70 H :    0.020665

  Mayer bond orders larger than 0.100000
B(  0-C ,  1-N ) :   1.7144 B(  0-C ,  4-S ) :   1.1415 B(  0-C , 63-H ) :   0.9672
B(  1-N ,  2-C ) :   1.3884 B(  1-N ,  4-S ) :   0.1004 B(  2-C ,  3-C ) :   1.3309
B(  2-C ,  7-S ) :   1.0934 B(  3-C ,  4-S ) :   1.1123 B(  3-C ,  5-N ) :   1.3755
B(  5-N ,  6-C ) :   1.7531 B(  5-N ,  7-S ) :   0.1023 B(  6-C ,  7-S ) :   1.0823
B(  6-C ,  8-C ) :   1.0972 B(  8-C ,  9-C ) :   1.4738 B(  8-C , 12-S ) :   1.1008
B(  9-C , 10-C ) :   1.2697 B(  9-C , 64-H ) :   1.0116 B( 10-C , 11-C ) :   1.4243
B( 10-C , 15-C ) :   0.9908 B( 11-C , 12-S ) :   1.1292 B( 11-C , 13-C ) :   1.2079
B( 13-C , 14-C ) :   1.4233 B( 13-C , 23-S ) :   1.1196 B( 14-C , 15-C ) :   0.9894
B( 14-C , 21-C ) :   1.2753 B( 15-C , 16-C ) :   1.7230 B( 16-C , 17-C ) :   1.1324
B( 16-C , 19-C ) :   1.1365 B( 17-C , 18-N ) :   3.0005 B( 19-C , 20-N ) :   2.9996
B( 21-C , 22-C ) :   1.4532 B( 21-C , 65-H ) :   0.9868 B( 22-C , 23-S ) :   1.0802
B( 22-C , 24-C ) :   1.1880 B( 24-C , 25-C ) :   1.3692 B( 24-C , 37-C ) :   0.1502
B( 24-C , 38-S ) :   1.1487 B( 25-C , 26-C ) :   1.1828 B( 25-C , 36-N ) :   1.4369
B( 26-C , 27-N ) :   1.4380 B( 26-C , 37-C ) :   1.3697 B( 27-N , 28-C ) :   1.7167
B( 28-C , 29-C ) :   0.8890 B( 28-C , 35-C ) :   1.0903 B( 29-C , 30-O ) :   2.2409
B( 29-C , 31-C ) :   1.0240 B( 31-C , 32-C ) :   1.6870 B( 31-C , 66-H ) :   0.9953
B( 32-C , 33-C ) :   1.0242 B( 32-C , 67-H ) :   0.9942 B( 33-C , 34-O ) :   2.2418
B( 33-C , 35-C ) :   0.8897 B( 35-C , 36-N ) :   1.7163 B( 37-C , 38-S ) :   1.1503
B( 37-C , 39-C ) :   1.1863 B( 39-C , 40-C ) :   1.4528 B( 39-C , 43-S ) :   1.0817
B( 40-C , 41-C ) :   1.2742 B( 40-C , 68-H ) :   0.9881 B( 41-C , 42-C ) :   1.4212
B( 41-C , 46-C ) :   0.9887 B( 42-C , 43-S ) :   1.1192 B( 42-C , 44-C ) :   1.2069
B( 44-C , 45-C ) :   1.4251 B( 44-C , 54-S ) :   1.1303 B( 45-C , 46-C ) :   0.9915
B( 45-C , 52-C ) :   1.2716 B( 46-C , 47-C ) :   1.7226 B( 47-C , 48-C ) :   1.1356
B( 47-C , 50-C ) :   1.1338 B( 48-C , 49-N ) :   2.9983 B( 50-C , 51-N ) :   3.0013
B( 52-C , 53-C ) :   1.4758 B( 52-C , 69-H ) :   1.0099 B( 53-C , 54-S ) :   1.1008
B( 53-C , 55-C ) :   1.0965 B( 55-C , 56-N ) :   1.7523 B( 55-C , 59-S ) :   1.0825
B( 56-N , 57-C ) :   1.3749 B( 56-N , 59-S ) :   0.1022 B( 57-C , 58-C ) :   1.3322
B( 57-C , 62-S ) :   1.1115 B( 58-C , 59-S ) :   1.0927 B( 58-C , 60-N ) :   1.3873
B( 60-N , 61-C ) :   1.7134 B( 60-N , 62-S ) :   0.1002 B( 61-C , 62-S ) :   1.1419
B( 61-C , 70-H ) :   0.9672

-----------------------------------------------------------------------------
         ABSORPTION SPECTRUM VIA TRANSITION ELECTRIC DIPOLE MOMENTS
-----------------------------------------------------------------------------
State   Energy  Wavelength   fosc         T2         TX        TY        TZ
        (cm-1)    (nm)                  (au**2)     (au)      (au)      (au)
-----------------------------------------------------------------------------
   0   10207.3    979.7   0.728083857  23.48261   3.56142  -2.37311   2.27315
   1   12073.9    828.2   0.049774102   1.35716   0.69840   0.24630  -0.89929
   2   14314.9    698.6   0.176794065   4.06589   1.46012  -1.05037   0.91140
   3   17870.8    559.6   0.143710698   2.64740  -1.02703  -0.35272   1.21169
   4   19002.1    526.3   0.066798043   1.15728   0.66114   0.20822  -0.82268
   5   21235.9    470.9   0.032643766   0.50606   0.50003  -0.40972   0.29692
   6   24526.9    407.7   0.146354475   1.96444   0.83947   0.30977  -1.07878
   7   24695.3    404.9   0.013745051   0.18323   0.26437  -0.33070   0.06311
   8   24831.6    402.7   1.313248553  17.41075  -3.12301   1.87602  -2.03424
   9   25828.9    387.2   0.000513328   0.00654   0.04640   0.01958  -0.06330
  10   26536.5    376.8   0.378012989   4.68964  -1.62734   0.95993  -1.05827
  11   26585.0    376.2   0.015059892   0.18649   0.27212  -0.31192   0.12308
  12   27602.2    362.3   0.600702805   7.16460   1.64466   0.53059  -2.04406
  13   27976.3    357.4   0.000334248   0.00393   0.01640  -0.05630  -0.02224
  14   28196.8    354.7   0.008984704   0.10490   0.19357   0.06876  -0.25041
  15   29831.7    335.2   0.049078943   0.54162   0.25883  -0.68141   0.10151
  16   29896.5    334.5   0.162817231   1.79290  -0.86243  -0.29242   0.98163
  17   30642.5    326.3   0.141293455   1.51800   0.79407  -0.85812   0.38869
  18   30687.1    325.9   0.001669075   0.01791  -0.04203   0.09835  -0.08042
  19   31127.9    321.3   0.158119724   1.67229   0.82070   0.27380  -0.96113
  20   31378.8    318.7   0.027461247   0.28811   0.00578   0.51993   0.13324
  21   32178.4    310.8   0.018318177   0.18741   0.23621  -0.36073   0.03857
  22   32449.5    308.2   0.085513452   0.86757  -0.75443   0.07896  -0.54052
  23   32711.5    305.7   0.626944300   6.30963  -1.56351  -0.53300   1.89235
  24   33110.4    302.0   0.099119594   0.98553  -0.72523   0.39940  -0.54777
  25   33187.9    301.3   0.046548068   0.46174  -0.44987  -0.14580   0.48795
  26   33516.4    298.4   0.017135718   0.16831  -0.25704  -0.09645   0.30486
  27   33843.1    295.5   0.019655190   0.19120  -0.28107  -0.10089   0.31940
  28   34181.7    292.6   0.139454254   1.34312   0.74473   0.26478  -0.84757
  29   34335.2    291.2   0.001766268   0.01694   0.05459  -0.11743   0.01288
  30   34602.0    289.0   0.262916661   2.50145  -1.01667   1.09070  -0.52747
  31   35060.5    285.2   0.018067012   0.16965  -0.20932   0.34793  -0.06912
  32   35214.4    284.0   0.004119837   0.03852  -0.12934  -0.09441   0.11346
  33   35497.3    281.7   0.003576135   0.03317   0.11846   0.01076  -0.13791
  34   35631.9    280.6   0.001474317   0.01362  -0.04003   0.07734  -0.07771
  35   35651.1    280.5   0.015358607   0.14183   0.28980  -0.16547   0.17454
  36   36050.1    277.4   0.251596995   2.29760  -1.15686   0.60549  -0.76985
  37   36281.7    275.6   0.002640001   0.02395   0.10617   0.04114  -0.10483
  38   36293.3    275.5   0.000659019   0.00598  -0.02041   0.03829   0.06399
  39   36470.7    274.2   0.295340511   2.66597   1.02837   0.38152  -1.20949
  40   36845.0    271.4   0.104770064   0.93612   0.60683   0.21550  -0.72211
  41   37255.3    268.4   0.007505617   0.06632   0.15769  -0.19370   0.06274
  42   37425.1    267.2   0.032304267   0.28417  -0.37605   0.29969  -0.23008
  43   37685.1    265.4   0.057316060   0.50071   0.44900   0.17372  -0.51858
  44   38122.5    262.3   0.001928358   0.01665  -0.06623  -0.00682   0.11054
  45   38136.8    262.2   0.001419307   0.01225   0.07608   0.04922  -0.06357
  46   38208.6    261.7   0.000207111   0.00178   0.03158   0.00342   0.02784
  47   38516.8    259.6   0.050190733   0.42899  -0.39942  -0.13664   0.50078
  48   38599.2    259.1   0.031561457   0.26919  -0.40717   0.13402  -0.29230
  49   39061.6    256.0   0.000084794   0.00071  -0.02237   0.00499  -0.01376
  50   39075.6    255.9   0.004716192   0.03973  -0.14222   0.10401  -0.09322
  51   39481.5    253.3   0.064642508   0.53901   0.46197   0.16563  -0.54604
  52   39752.4    251.6   0.038059766   0.31519   0.28231   0.17617  -0.45217
  53   39759.0    251.5   0.013434030   0.11124   0.31845  -0.05548  -0.08215

FINAL SINGLE POINT ENERGY     -5882.864592499164

DIPOLE MOMENT
-------------
                                X             Y             Z
Electronic contribution:     -8.91020      -3.38013      10.30002
Nuclear contribution   :      7.13333       2.75790      -8.21174
                        -----------------------------------------
Total Dipole Moment    :     -1.77687      -0.62223       2.08827
                        -----------------------------------------
Magnitude (a.u.)       :      2.81164
Magnitude (Debye)      :      7.14662

Rotational constants in cm-1:     0.001536     0.000295     0.000249
Rotational constants in MHz :    46.051549     8.849473     7.467339

                             ****ORCA TERMINATED NORMALLY****
TOTAL RUN TIME: 0 days 0 hours 7 minutes 28 seconds 726 msec
