                         Program Version 4.2.0 -  RELEASE  -
|  1> # ORCA input file
|  2> # SCF done       -162.345998036770          0.000527100272
|  3> ! CAM-B3LYP def2-SVP def2/J RIJCOSX Grid4 TightSCF
|  4> %maxcore 5000
|  5> %tddft
|  6>     Mode sTDDFT
|  7>     Ethresh 5.0
|  8>     maxcore 5000
|  9> end
| 10>
| 11> %pal
| 12>   nprocs 6
| 13>   end
| 14> * xyz 0 1
| 15>    C       -0.47030         0.44667        -5.24746
| 16>    N        0.74126         0.29302        -5.64771
| 17>    C        1.44244        -0.40127        -4.73843
| 18>    C        0.74111        -0.79850        -3.59032
| 19>    S       -0.88653        -0.25101        -3.69510
| 20>    N        1.42735        -1.49030        -2.67876
| 21>    C        2.65800        -1.65916        -3.06210
| 22>    S        3.06890        -0.94351        -4.64383
| 23>    C        3.62394        -2.36020        -2.29739
| 24>    C        3.41230        -2.95456        -1.06447
| 25>    C        4.56810        -3.56553        -0.58502
| 26>    C        5.66384        -3.43093        -1.46237
| 27>    S        5.26662        -2.55481        -2.87168
| 28>    C        6.78741        -4.08043        -0.89835
| 29>    C        6.40012        -4.63127         0.34142
| 30>    C        4.99854        -4.32309         0.57954
| 31>    C        4.25296        -4.66845         1.66770
| 32>    C        4.79153        -5.40724         2.74325
| 33>    N        5.21949        -6.00837         3.62082
| 34>    C        2.89421        -4.31001         1.79936
| 35>    N        1.79071        -4.02466         1.92173
| 36>    C        7.43631        -5.29763         0.97995
| 37>    C        8.61459        -5.25831         0.24266
| 38>    S        8.42948        -4.37891        -1.26539
| 39>    C        9.86119        -5.83491         0.60348
| 40>    C       11.00583        -5.69650        -0.21136
| 41>    C       12.27666        -6.25891         0.14145
| 42>    N       13.32741        -6.07994        -0.68320
| 43>    C       13.17806        -5.40775        -1.77860
| 44>    C       11.91987        -4.85243        -2.12854
| 45>    N       10.88926        -5.00292        -1.36092
| 46>    F       11.76385        -4.16226        -3.25353
| 47>    F       14.23828        -5.25387        -2.56508
| 48>    C       12.47687        -7.00052         1.32604
| 49>    C       11.33188        -7.15240         2.14508
| 50>    C       10.05201        -6.57942         1.79268
| 51>    N        9.12736        -6.85086         2.71487
| 52>    S        9.77972        -7.72184         3.89021
| 53>    N       11.26824        -7.80812         3.30486
| 54>    C       13.74513        -7.54557         1.65941
| 55>    C       14.05287        -8.31056         2.77904
| 56>    C       15.39096        -8.67685         2.80758
| 57>    C       16.11514        -8.18518         1.70114
| 58>    S       15.14011        -7.28245         0.62665
| 59>    C       17.45998        -8.60521         1.83263
| 60>    C       17.59052        -9.36190         3.01535
| 61>    C       16.29077        -9.43369         3.66411
| 62>    C       15.97667       -10.07457         4.82591
| 63>    C       16.93385       -10.78704         5.57973
| 64>    N       17.70167       -11.36869         6.20117
| 65>    C       14.66825       -10.07180         5.35574
| 66>    N       13.60876       -10.07863         5.79384
| 67>    C       18.89081        -9.81181         3.22953
| 68>    C       19.74509        -9.40082         2.21989
| 69>    S       18.93620        -8.45161         0.99081
| 70>    C       21.13251        -9.67913         2.13665
| 71>    N       21.77763       -10.37232         3.02727
| 72>    C       23.06761       -10.47328         2.70136
| 73>    C       23.46833        -9.84215         1.51443
| 74>    S       22.11876        -9.07890         0.77664
| 75>    N       24.76805        -9.94944         1.19866
| 76>    C       25.38419       -10.63697         2.09267
| 77>    S       24.42667       -11.23266         3.43355
| 78>    H       -1.21007         0.97203        -5.81697
| 79>    H        2.45708        -2.92450        -0.57390
| 80>    H        7.37652        -5.79631         1.92960
| 81>    H       13.31223        -8.56542         3.51428
| 82>    H       19.23195       -10.40293         4.05907
| 83>    H       26.43321       -10.84885         2.04452
| 84> *
| 85>
| 86>                          ****END OF INPUT****

CARTESIAN COORDINATES (ANGSTROEM)
---------------------------------
  C     -0.470300    0.446670   -5.247460
  N      0.741260    0.293020   -5.647710
  C      1.442440   -0.401270   -4.738430
  C      0.741110   -0.798500   -3.590320
  S     -0.886530   -0.251010   -3.695100
  N      1.427350   -1.490300   -2.678760
  C      2.658000   -1.659160   -3.062100
  S      3.068900   -0.943510   -4.643830
  C      3.623940   -2.360200   -2.297390
  C      3.412300   -2.954560   -1.064470
  C      4.568100   -3.565530   -0.585020
  C      5.663840   -3.430930   -1.462370
  S      5.266620   -2.554810   -2.871680
  C      6.787410   -4.080430   -0.898350
  C      6.400120   -4.631270    0.341420
  C      4.998540   -4.323090    0.579540
  C      4.252960   -4.668450    1.667700
  C      4.791530   -5.407240    2.743250
  N      5.219490   -6.008370    3.620820
  C      2.894210   -4.310010    1.799360
  N      1.790710   -4.024660    1.921730
  C      7.436310   -5.297630    0.979950
  C      8.614590   -5.258310    0.242660
  S      8.429480   -4.378910   -1.265390
  C      9.861190   -5.834910    0.603480
  C     11.005830   -5.696500   -0.211360
  C     12.276660   -6.258910    0.141450
  N     13.327410   -6.079940   -0.683200
  C     13.178060   -5.407750   -1.778600
  C     11.919870   -4.852430   -2.128540
  N     10.889260   -5.002920   -1.360920
  F     11.763850   -4.162260   -3.253530
  F     14.238280   -5.253870   -2.565080
  C     12.476870   -7.000520    1.326040
  C     11.331880   -7.152400    2.145080
  C     10.052010   -6.579420    1.792680
  N      9.127360   -6.850860    2.714870
  S      9.779720   -7.721840    3.890210
  N     11.268240   -7.808120    3.304860
  C     13.745130   -7.545570    1.659410
  C     14.052870   -8.310560    2.779040
  C     15.390960   -8.676850    2.807580
  C     16.115140   -8.185180    1.701140
  S     15.140110   -7.282450    0.626650
  C     17.459980   -8.605210    1.832630
  C     17.590520   -9.361900    3.015350
  C     16.290770   -9.433690    3.664110
  C     15.976670  -10.074570    4.825910
  C     16.933850  -10.787040    5.579730
  N     17.701670  -11.368690    6.201170
  C     14.668250  -10.071800    5.355740
  N     13.608760  -10.078630    5.793840
  C     18.890810   -9.811810    3.229530
  C     19.745090   -9.400820    2.219890
  S     18.936200   -8.451610    0.990810
  C     21.132510   -9.679130    2.136650
  N     21.777630  -10.372320    3.027270
  C     23.067610  -10.473280    2.701360
  C     23.468330   -9.842150    1.514430
  S     22.118760   -9.078900    0.776640
  N     24.768050   -9.949440    1.198660
  C     25.384190  -10.636970    2.092670
  S     24.426670  -11.232660    3.433550
  H     -1.210070    0.972030   -5.816970
  H      2.457080   -2.924500   -0.573900
  H      7.376520   -5.796310    1.929600
  H     13.312230   -8.565420    3.514280
  H     19.231950  -10.402930    4.059070
  H     26.433210  -10.848850    2.044520

 Total Charge           Charge          ....    0
 Multiplicity           Mult            ....    1
 Number of Electrons    NEL             ....  492
 Basis Dimension        Dim             ....  948

ORBITAL ENERGIES
----------------

  NO   OCC          E(Eh)            E(eV)
   0   2.0000     -89.047356     -2423.1018
   1   2.0000     -88.993590     -2421.6387
   2   2.0000     -88.993572     -2421.6382
   3   2.0000     -88.984487     -2421.3910
   4   2.0000     -88.984347     -2421.3872
   5   2.0000     -88.974386     -2421.1161
   6   2.0000     -88.974332     -2421.1147
   7   2.0000     -88.971082     -2421.0262
   8   2.0000     -88.971060     -2421.0256
   9   2.0000     -24.829513      -675.6454
  10   2.0000     -24.829375      -675.6417
  11   2.0000     -14.471133      -393.7795
  12   2.0000     -14.470980      -393.7754
  13   2.0000     -14.455958      -393.3666
  14   2.0000     -14.455887      -393.3647
  15   2.0000     -14.427616      -392.5954
  16   2.0000     -14.427614      -392.5953
  17   2.0000     -14.426905      -392.5761
  18   2.0000     -14.426831      -392.5740
  19   2.0000     -14.426007      -392.5516
  20   2.0000     -14.426007      -392.5516
  21   2.0000     -14.424966      -392.5233
  22   2.0000     -14.424950      -392.5229
  23   2.0000     -10.446035      -284.2511
  24   2.0000     -10.445746      -284.2432
  25   2.0000     -10.362379      -281.9747
  26   2.0000     -10.362358      -281.9741
  27   2.0000     -10.357266      -281.8355
  28   2.0000     -10.357248      -281.8351
  29   2.0000     -10.355160      -281.7782
  30   2.0000     -10.354890      -281.7709
  31   2.0000     -10.349509      -281.6244
  32   2.0000     -10.349481      -281.6237
  33   2.0000     -10.347608      -281.5727
  34   2.0000     -10.347368      -281.5662
  35   2.0000     -10.338966      -281.3376
  36   2.0000     -10.338905      -281.3359
  37   2.0000     -10.334427      -281.2141
  38   2.0000     -10.334403      -281.2134
  39   2.0000     -10.332240      -281.1545
  40   2.0000     -10.332175      -281.1528
  41   2.0000     -10.330397      -281.1044
  42   2.0000     -10.330318      -281.1022
  43   2.0000     -10.327896      -281.0363
  44   2.0000     -10.327888      -281.0361
  45   2.0000     -10.326951      -281.0106
  46   2.0000     -10.326887      -281.0089
  47   2.0000     -10.326101      -280.9875
  48   2.0000     -10.326013      -280.9851
  49   2.0000     -10.324925      -280.9555
  50   2.0000     -10.324749      -280.9507
  51   2.0000     -10.324729      -280.9502
  52   2.0000     -10.324683      -280.9489
  53   2.0000     -10.323933      -280.9285
  54   2.0000     -10.323824      -280.9255
  55   2.0000     -10.304631      -280.4033
  56   2.0000     -10.304602      -280.4025
  57   2.0000     -10.302342      -280.3410
  58   2.0000     -10.302309      -280.3401
  59   2.0000     -10.298611      -280.2394
  60   2.0000     -10.298590      -280.2389
  61   2.0000     -10.295149      -280.1453
  62   2.0000     -10.295107      -280.1441
  63   2.0000      -8.138480      -221.4593
  64   2.0000      -8.088353      -220.0953
  65   2.0000      -8.088351      -220.0952
  66   2.0000      -8.077275      -219.7938
  67   2.0000      -8.077214      -219.7922
  68   2.0000      -8.070421      -219.6073
  69   2.0000      -8.070373      -219.6060
  70   2.0000      -8.067526      -219.5285
  71   2.0000      -8.067495      -219.5277
  72   2.0000      -6.109584      -166.2502
  73   2.0000      -6.101613      -166.0333
  74   2.0000      -6.101359      -166.0264
  75   2.0000      -6.057567      -164.8348
  76   2.0000      -6.057563      -164.8347
  77   2.0000      -6.053427      -164.7221
  78   2.0000      -6.053421      -164.7220
  79   2.0000      -6.050729      -164.6487
  80   2.0000      -6.050721      -164.6485
  81   2.0000      -6.046772      -164.5410
  82   2.0000      -6.046707      -164.5393
  83   2.0000      -6.042048      -164.4125
  84   2.0000      -6.041989      -164.4109
  85   2.0000      -6.039764      -164.3503
  86   2.0000      -6.039670      -164.3478
  87   2.0000      -6.039598      -164.3458
  88   2.0000      -6.039541      -164.3443
  89   2.0000      -6.036574      -164.2635
  90   2.0000      -6.036538      -164.2625
  91   2.0000      -6.035918      -164.2457
  92   2.0000      -6.035877      -164.2446
  93   2.0000      -6.032763      -164.1598
  94   2.0000      -6.032737      -164.1591
  95   2.0000      -6.032117      -164.1422
  96   2.0000      -6.032074      -164.1411
  97   2.0000      -6.029525      -164.0717
  98   2.0000      -6.029507      -164.0712
  99   2.0000      -1.358053       -36.9545
 100   2.0000      -1.344034       -36.5730
 101   2.0000      -1.145703       -31.1762
 102   2.0000      -1.129370       -30.7317
 103   2.0000      -1.097120       -29.8541
 104   2.0000      -1.097073       -29.8529
 105   2.0000      -1.057100       -28.7652
 106   2.0000      -1.056174       -28.7400
 107   2.0000      -1.055997       -28.7351
 108   2.0000      -1.041716       -28.3465
 109   2.0000      -1.041073       -28.3290
 110   2.0000      -1.019125       -27.7318
 111   2.0000      -1.019012       -27.7287
 112   2.0000      -1.005081       -27.3496
 113   2.0000      -1.004811       -27.3423
 114   2.0000      -1.003355       -27.3027
 115   2.0000      -1.000717       -27.2309
 116   2.0000      -0.990569       -26.9548
 117   2.0000      -0.978340       -26.6220
 118   2.0000      -0.957497       -26.0548
 119   2.0000      -0.952772       -25.9263
 120   2.0000      -0.922493       -25.1023
 121   2.0000      -0.920715       -25.0539
 122   2.0000      -0.915009       -24.8987
 123   2.0000      -0.907219       -24.6867
 124   2.0000      -0.895691       -24.3730
 125   2.0000      -0.887933       -24.1619
 126   2.0000      -0.885796       -24.1037
 127   2.0000      -0.884914       -24.0797
 128   2.0000      -0.866704       -23.5842
 129   2.0000      -0.866323       -23.5739
 130   2.0000      -0.853680       -23.2298
 131   2.0000      -0.852603       -23.2005
 132   2.0000      -0.846045       -23.0221
 133   2.0000      -0.837799       -22.7977
 134   2.0000      -0.825190       -22.4546
 135   2.0000      -0.805626       -21.9222
 136   2.0000      -0.790801       -21.5188
 137   2.0000      -0.777444       -21.1553
 138   2.0000      -0.777400       -21.1541
 139   2.0000      -0.771569       -20.9955
 140   2.0000      -0.766157       -20.8482
 141   2.0000      -0.750778       -20.4297
 142   2.0000      -0.734377       -19.9834
 143   2.0000      -0.714914       -19.4538
 144   2.0000      -0.704150       -19.1609
 145   2.0000      -0.696261       -18.9462
 146   2.0000      -0.696206       -18.9447
 147   2.0000      -0.691296       -18.8111
 148   2.0000      -0.686812       -18.6891
 149   2.0000      -0.685356       -18.6495
 150   2.0000      -0.676725       -18.4146
 151   2.0000      -0.674457       -18.3529
 152   2.0000      -0.666247       -18.1295
 153   2.0000      -0.664351       -18.0779
 154   2.0000      -0.659409       -17.9434
 155   2.0000      -0.658796       -17.9267
 156   2.0000      -0.640420       -17.4267
 157   2.0000      -0.640095       -17.4179
 158   2.0000      -0.633089       -17.2272
 159   2.0000      -0.630826       -17.1657
 160   2.0000      -0.629163       -17.1204
 161   2.0000      -0.625046       -17.0084
 162   2.0000      -0.616751       -16.7826
 163   2.0000      -0.612076       -16.6554
 164   2.0000      -0.610065       -16.6007
 165   2.0000      -0.599254       -16.3065
 166   2.0000      -0.585033       -15.9195
 167   2.0000      -0.580437       -15.7945
 168   2.0000      -0.573185       -15.5971
 169   2.0000      -0.570963       -15.5367
 170   2.0000      -0.569371       -15.4934
 171   2.0000      -0.560742       -15.2586
 172   2.0000      -0.556218       -15.1355
 173   2.0000      -0.550111       -14.9693
 174   2.0000      -0.549816       -14.9613
 175   2.0000      -0.544143       -14.8069
 176   2.0000      -0.541634       -14.7386
 177   2.0000      -0.541359       -14.7311
 178   2.0000      -0.539908       -14.6917
 179   2.0000      -0.532631       -14.4936
 180   2.0000      -0.531376       -14.4595
 181   2.0000      -0.527582       -14.3562
 182   2.0000      -0.524083       -14.2610
 183   2.0000      -0.523910       -14.2563
 184   2.0000      -0.519961       -14.1488
 185   2.0000      -0.519858       -14.1460
 186   2.0000      -0.506905       -13.7936
 187   2.0000      -0.504922       -13.7396
 188   2.0000      -0.504636       -13.7318
 189   2.0000      -0.503163       -13.6918
 190   2.0000      -0.499187       -13.5836
 191   2.0000      -0.494700       -13.4615
 192   2.0000      -0.492358       -13.3977
 193   2.0000      -0.489119       -13.3096
 194   2.0000      -0.488554       -13.2942
 195   2.0000      -0.485986       -13.2244
 196   2.0000      -0.485815       -13.2197
 197   2.0000      -0.476680       -12.9711
 198   2.0000      -0.476125       -12.9560
 199   2.0000      -0.474751       -12.9186
 200   2.0000      -0.464502       -12.6398
 201   2.0000      -0.463462       -12.6114
 202   2.0000      -0.461061       -12.5461
 203   2.0000      -0.458732       -12.4827
 204   2.0000      -0.458720       -12.4824
 205   2.0000      -0.455746       -12.4015
 206   2.0000      -0.454834       -12.3767
 207   2.0000      -0.451937       -12.2978
 208   2.0000      -0.449976       -12.2445
 209   2.0000      -0.447931       -12.1888
 210   2.0000      -0.438334       -11.9277
 211   2.0000      -0.437253       -11.8983
 212   2.0000      -0.436289       -11.8720
 213   2.0000      -0.436074       -11.8662
 214   2.0000      -0.436021       -11.8647
 215   2.0000      -0.429137       -11.6774
 216   2.0000      -0.428093       -11.6490
 217   2.0000      -0.428057       -11.6480
 218   2.0000      -0.424477       -11.5506
 219   2.0000      -0.424331       -11.5466
 220   2.0000      -0.412267       -11.2184
 221   2.0000      -0.408241       -11.1088
 222   2.0000      -0.407596       -11.0913
 223   2.0000      -0.396727       -10.7955
 224   2.0000      -0.396680       -10.7942
 225   2.0000      -0.395918       -10.7735
 226   2.0000      -0.381379       -10.3778
 227   2.0000      -0.381266       -10.3748
 228   2.0000      -0.379586       -10.3291
 229   2.0000      -0.379549       -10.3280
 230   2.0000      -0.375283       -10.2120
 231   2.0000      -0.371936       -10.1209
 232   2.0000      -0.352189        -9.5835
 233   2.0000      -0.349259        -9.5038
 234   2.0000      -0.348510        -9.4834
 235   2.0000      -0.348506        -9.4833
 236   2.0000      -0.347473        -9.4552
 237   2.0000      -0.342060        -9.3079
 238   2.0000      -0.332011        -9.0345
 239   2.0000      -0.329333        -8.9616
 240   2.0000      -0.321712        -8.7542
 241   2.0000      -0.320079        -8.7098
 242   2.0000      -0.316545        -8.6136
 243   2.0000      -0.291695        -7.9374
 244   2.0000      -0.265855        -7.2343
 245   2.0000      -0.236949        -6.4477
 246   0.0000      -0.126814        -3.4508
 247   0.0000      -0.101665        -2.7664
 248   0.0000      -0.095990        -2.6120
 249   0.0000      -0.049242        -1.3400
 250   0.0000      -0.046990        -1.2787

MULLIKEN ATOMIC CHARGES
-----------------------
   0 C :   -0.006050
   1 N :   -0.055135
   2 C :   -0.062926
   3 C :   -0.087992
   4 S :    0.126824
   5 N :   -0.033363
   6 C :   -0.112381
   7 S :    0.119198
   8 C :   -0.035543
   9 C :   -0.038783
  10 C :    0.011523
  11 C :   -0.099500
  12 S :    0.197573
  13 C :   -0.064730
  14 C :    0.036945
  15 C :    0.307855
  16 C :   -0.305350
  17 C :   -0.185233
  18 N :    0.171543
  19 C :   -0.195625
  20 N :    0.184156
  21 C :   -0.063927
  22 C :   -0.179489
  23 S :    0.200974
  24 C :    0.181796
  25 C :   -0.057559
  26 C :   -0.060982
  27 N :   -0.049628
  28 C :    0.150231
  29 C :    0.149695
  30 N :   -0.047922
  31 F :   -0.134634
  32 F :   -0.135667
  33 C :    0.183933
  34 C :   -0.007885
  35 C :   -0.012757
  36 N :   -0.288263
  37 S :    0.579373
  38 N :   -0.289895
  39 C :   -0.179681
  40 C :   -0.067077
  41 C :    0.040134
  42 C :   -0.066034
  43 S :    0.201784
  44 C :   -0.099519
  45 C :    0.010131
  46 C :    0.305587
  47 C :   -0.302321
  48 C :   -0.196087
  49 N :    0.184048
  50 C :   -0.186281
  51 N :    0.171317
  52 C :   -0.037829
  53 C :   -0.036061
  54 S :    0.197911
  55 C :   -0.113754
  56 N :   -0.032490
  57 C :   -0.088033
  58 C :   -0.062665
  59 S :    0.120168
  60 N :   -0.055505
  61 C :   -0.007095
  62 S :    0.127747
  63 H :    0.046693
  64 H :    0.022051
  65 H :    0.021437
  66 H :    0.021444
  67 H :    0.022501
  68 H :    0.047080
Sum of atomic charges:    0.0000000

LOEWDIN ATOMIC CHARGES
----------------------
   0 C :   -0.116545
   1 N :   -0.093227
   2 C :   -0.219392
   3 C :   -0.211990
   4 S :    0.417168
   5 N :   -0.097440
   6 C :   -0.132602
   7 S :    0.398606
   8 C :   -0.199163
   9 C :   -0.000778
  10 C :   -0.066220
  11 C :   -0.174997
  12 S :    0.477506
  13 C :   -0.183837
  14 C :   -0.072967
  15 C :    0.080274
  16 C :   -0.100442
  17 C :   -0.015722
  18 N :   -0.032847
  19 C :   -0.019402
  20 N :   -0.028440
  21 C :   -0.011430
  22 C :   -0.167264
  23 S :    0.506767
  24 C :   -0.043217
  25 C :   -0.018208
  26 C :   -0.018296
  27 N :   -0.055513
  28 C :    0.062622
  29 C :    0.062366
  30 N :   -0.055350
  31 F :   -0.024602
  32 F :   -0.024790
  33 C :   -0.043120
  34 C :   -0.038249
  35 C :   -0.038330
  36 N :   -0.273808
  37 S :    0.698197
  38 N :   -0.274176
  39 C :   -0.167289
  40 C :   -0.011507
  41 C :   -0.072958
  42 C :   -0.183738
  43 S :    0.506804
  44 C :   -0.175135
  45 C :   -0.066128
  46 C :    0.080204
  47 C :   -0.100379
  48 C :   -0.019417
  49 N :   -0.028506
  50 C :   -0.015847
  51 N :   -0.032708
  52 C :   -0.000726
  53 C :   -0.199120
  54 S :    0.477587
  55 C :   -0.132829
  56 N :   -0.097338
  57 C :   -0.211936
  58 C :   -0.219294
  59 S :    0.398742
  60 N :   -0.093184
  61 C :   -0.116807
  62 S :    0.417251
  63 H :    0.020553
  64 H :    0.048208
  65 H :    0.037734
  66 H :    0.037724
  67 H :    0.048235
  68 H :    0.020664

  Mayer bond orders larger than 0.100000
B(  0-C ,  1-N ) :   1.7141 B(  0-C ,  4-S ) :   1.1412 B(  0-C , 63-H ) :   0.9672
B(  1-N ,  2-C ) :   1.3884 B(  1-N ,  4-S ) :   0.1003 B(  2-C ,  3-C ) :   1.3317
B(  2-C ,  7-S ) :   1.0925 B(  3-C ,  4-S ) :   1.1113 B(  3-C ,  5-N ) :   1.3767
B(  5-N ,  6-C ) :   1.7511 B(  5-N ,  7-S ) :   0.1018 B(  6-C ,  7-S ) :   1.0830
B(  6-C ,  8-C ) :   1.0971 B(  8-C ,  9-C ) :   1.4717 B(  8-C , 12-S ) :   1.1033
B(  9-C , 10-C ) :   1.2720 B(  9-C , 64-H ) :   1.0112 B( 10-C , 11-C ) :   1.4208
B( 10-C , 15-C ) :   0.9860 B( 11-C , 12-S ) :   1.1321 B( 11-C , 13-C ) :   1.2008
B( 13-C , 14-C ) :   1.4064 B( 13-C , 23-S ) :   1.0902 B( 14-C , 15-C ) :   0.9938
B( 14-C , 21-C ) :   1.2743 B( 15-C , 16-C ) :   1.7145 B( 16-C , 17-C ) :   1.1392
B( 16-C , 19-C ) :   1.1345 B( 17-C , 18-N ) :   2.9849 B( 19-C , 20-N ) :   3.0013
B( 21-C , 22-C ) :   1.4208 B( 21-C , 65-H ) :   0.9803 B( 22-C , 23-S ) :   1.0868
B( 22-C , 24-C ) :   1.1920 B( 24-C , 25-C ) :   1.2955 B( 24-C , 33-C ) :   0.1280
B( 24-C , 35-C ) :   1.1932 B( 25-C , 26-C ) :   1.1188 B( 25-C , 30-N ) :   1.3771
B( 26-C , 27-N ) :   1.3790 B( 26-C , 33-C ) :   1.2945 B( 27-N , 28-C ) :   1.6524
B( 28-C , 29-C ) :   1.1095 B( 28-C , 32-F ) :   1.1862 B( 29-C , 30-N ) :   1.6543
B( 29-C , 31-F ) :   1.1878 B( 33-C , 34-C ) :   1.1937 B( 33-C , 39-C ) :   1.1913
B( 34-C , 35-C ) :   1.1027 B( 34-C , 38-N ) :   1.5093 B( 35-C , 36-N ) :   1.5111
B( 36-N , 37-S ) :   1.2830 B( 36-N , 38-N ) :   0.1486 B( 37-S , 38-N ) :   1.2827
B( 39-C , 40-C ) :   1.4226 B( 39-C , 43-S ) :   1.0864 B( 40-C , 41-C ) :   1.2744
B( 40-C , 66-H ) :   0.9801 B( 41-C , 42-C ) :   1.4052 B( 41-C , 46-C ) :   0.9930
B( 42-C , 43-S ) :   1.0907 B( 42-C , 44-C ) :   1.2010 B( 44-C , 45-C ) :   1.4219
B( 44-C , 54-S ) :   1.1318 B( 45-C , 46-C ) :   0.9861 B( 45-C , 52-C ) :   1.2719
B( 46-C , 47-C ) :   1.7149 B( 47-C , 48-C ) :   1.1322 B( 47-C , 50-C ) :   1.1400
B( 48-C , 49-N ) :   3.0020 B( 50-C , 51-N ) :   2.9846 B( 52-C , 53-C ) :   1.4718
B( 52-C , 67-H ) :   1.0107 B( 53-C , 54-S ) :   1.1035 B( 53-C , 55-C ) :   1.0975
B( 55-C , 56-N ) :   1.7522 B( 55-C , 59-S ) :   1.0828 B( 56-N , 57-C ) :   1.3759
B( 56-N , 59-S ) :   0.1019 B( 57-C , 58-C ) :   1.3304 B( 57-C , 62-S ) :   1.1124
B( 58-C , 59-S ) :   1.0936 B( 58-C , 60-N ) :   1.3875 B( 60-N , 61-C ) :   1.7150
B( 60-N , 62-S ) :   0.1005 B( 61-C , 62-S ) :   1.1407 B( 61-C , 68-H ) :   0.9672

-----------------------------------------------------------------------------
         ABSORPTION SPECTRUM VIA TRANSITION ELECTRIC DIPOLE MOMENTS
-----------------------------------------------------------------------------
State   Energy  Wavelength   fosc         T2         TX        TY        TZ
        (cm-1)    (nm)                  (au**2)     (au)      (au)      (au)
-----------------------------------------------------------------------------
   0    9178.1   1089.6   0.867408089  31.11340   4.94841  -2.17196   1.38176
   1   12713.7    786.6   0.005757793   0.14909   0.15529   0.16758  -0.31128
   2   13653.0    732.4   0.005476397   0.13205  -0.31820   0.15559  -0.08121
   3   17265.5    579.2   0.004821177   0.09193   0.12809   0.14316  -0.23458
   4   21794.2    458.8   0.000427510   0.00646   0.07430  -0.01143   0.02841
   5   23316.3    428.9   0.000023065   0.00033  -0.00412  -0.01337  -0.01140
   6   23934.0    417.8   0.601828720   8.27816  -2.55788   1.10032  -0.72438
   7   25515.7    391.9   0.491840027   6.34587   2.24021  -0.96089   0.63564
   8   26439.5    378.2   0.170628633   2.12459  -1.32391   0.49819  -0.35165
   9   26484.5    377.6   0.062607528   0.77823  -0.27167  -0.35976   0.75829
  10   27225.6    367.3   1.085696206  13.12823  -3.21840   1.39198  -0.91242
  11   27678.5    361.3   0.267680949   3.18383   0.73585   0.70926  -1.46264
  12   28177.9    354.9   0.002021992   0.02362   0.07141   0.07203  -0.11548
  13   29328.3    341.0   0.044753267   0.50236   0.62733  -0.27961   0.17503
  14   30019.1    333.1   0.049307227   0.54074  -0.29050  -0.26666   0.62068
  15   30247.2    330.6   0.008558557   0.09315   0.11977   0.10566  -0.26009
  16   30917.9    323.4   0.000046917   0.00050  -0.01403   0.01727   0.00216
  17   31720.9    315.2   0.008578133   0.08903   0.27811   0.03542   0.10213
  18   31787.3    314.6   0.306684434   3.17624  -0.69495  -0.68518   1.49125
  19   31867.3    313.8   0.144263688   1.49035   1.07905  -0.49268   0.28855
  20   32116.6    311.4   0.013773049   0.14118   0.13895   0.14637  -0.31694
  21   32275.4    309.8   0.528521058   5.39096  -0.89952  -0.85286   1.96328
  22   32481.2    307.9   0.266300563   2.69908   1.45290  -0.69007   0.33460
  23   33702.1    296.7   0.011441386   0.11176   0.26496  -0.15270   0.13507
  24   33759.1    296.2   0.325302113   3.17228   0.71183   0.64146  -1.50137
  25   34424.4    290.5   0.001984681   0.01898  -0.03370  -0.05117   0.12339
  26   34507.2    289.8   0.068225910   0.65090  -0.72486   0.27993  -0.21709
  27   34620.6    288.8   0.048791983   0.46397  -0.60295   0.26237  -0.17773
  28   34858.9    286.9   0.286314346   2.70399  -0.66077  -0.63054   1.36741
  29   35450.8    282.1   0.467778206   4.34400  -0.82973  -0.77126   1.74949
  30   35938.8    278.3   0.000001498   0.00001  -0.00331  -0.00166   0.00015
  31   36053.9    277.4   0.277463863   2.53355   1.42714  -0.57048   0.41396
  32   36161.5    276.5   0.084649176   0.77064   0.33073   0.35138  -0.73334
  33   36198.2    276.3   0.000506837   0.00461   0.00674  -0.06175  -0.02740
  34   36538.0    273.7   0.093265863   0.84034  -0.82128   0.34242  -0.22043
  35   36814.4    271.6   0.131212989   1.17337  -0.42251  -0.39770   0.91471
  36   37088.7    269.6   0.000724605   0.00643   0.02555   0.03255  -0.06870
  37   38315.6    261.0   0.052599195   0.45194   0.27051   0.24464  -0.56472
  38   38364.5    260.7   0.001037422   0.00890  -0.05937   0.05449  -0.04907
  39   38548.4    259.4   0.008530744   0.07285   0.10636   0.10153  -0.22634
  40   38639.7    258.8   0.002154112   0.01835  -0.12296   0.03425  -0.04539
  41   39652.4    252.2   0.004211192   0.03496  -0.07671  -0.07978   0.15071
  42   39859.3    250.9   0.000002427   0.00002  -0.00093  -0.00013   0.00438
  43   40049.4    249.7   0.004306199   0.03540   0.16785  -0.07131   0.04625

FINAL SINGLE POINT ENERGY     -5964.140848236538

DIPOLE MOMENT
-------------
                                X             Y             Z
Electronic contribution:      5.06366       4.51448     -11.03204
Nuclear contribution   :     -3.96728      -3.49348       8.71279
                        -----------------------------------------
Total Dipole Moment    :      1.09638       1.02100      -2.31926
                        -----------------------------------------
Magnitude (a.u.)       :      2.76106
Magnitude (Debye)      :      7.01805

Rotational constants in cm-1:     0.002876     0.000259     0.000237
Rotational constants in MHz :    86.215700     7.751242     7.113952

                             ****ORCA TERMINATED NORMALLY****
TOTAL RUN TIME: 0 days 0 hours 9 minutes 20 seconds 864 msec
