                         Program Version 4.2.0 -  RELEASE  -
|  1> # ORCA input file
|  2> # SCF done       -216.805126005180          0.000699645566
|  3> ! CAM-B3LYP def2-SVP def2/J RIJCOSX Grid4 TightSCF
|  4> %maxcore 5000
|  5> %tddft
|  6>     Mode sTDDFT
|  7>     Ethresh 5.0
|  8>     maxcore 5000
|  9> end
| 10>
| 11> %pal
| 12>   nprocs 6
| 13>   end
| 14> * xyz 0 1
| 15>    C       -6.00937        -7.43750        -5.48790
| 16>    C       -6.66614        -7.18251        -4.31126
| 17>    C       -8.06499        -7.04566        -4.20374
| 18>    N       -9.19914        -6.94785        -4.05642
| 19>    C       -6.00993        -6.93699        -3.08844
| 20>    N       -5.52148        -6.68739        -2.08036
| 21>    C       -6.62500        -7.40806        -6.81438
| 22>    C       -5.61625        -7.22769        -7.77802
| 23>    C       -5.91028        -7.11994        -9.12166
| 24>    C       -7.24074        -7.20538        -9.51470
| 25>    C       -8.24793        -7.39811        -8.56273
| 26>    C       -7.94908        -7.49640        -7.20781
| 27>   Cl       -9.88570        -7.51677        -9.06478
| 28>   Cl       -7.64681        -7.07530       -11.17802
| 29>    C       -4.29588        -7.19705        -7.10930
| 30>    O       -3.21264        -7.01244        -7.61323
| 31>    C       -4.57901        -7.49836        -5.68186
| 32>    C       -3.54253        -7.82751        -4.85493
| 33>    C       -3.56865        -8.52082        -3.62897
| 34>    S       -2.18198        -8.45826        -2.57038
| 35>    C       -2.93327        -9.53356        -1.44105
| 36>    C       -4.17630        -9.94435        -1.89830
| 37>    C       -4.53417        -9.37167        -3.10731
| 38>    C       -2.30921        -9.88469        -0.21895
| 39>    C       -1.10315        -9.43963         0.28681
| 40>    C       -0.80064        -9.96406         1.53964
| 41>    C       -1.76649       -10.82946         2.02041
| 42>    S       -3.07454       -10.98863         0.88828
| 43>    C       -1.78331       -11.52482         3.25959
| 44>    S       -3.01146       -12.69597         3.62037
| 45>    C       -2.34568       -12.98511         5.20200
| 46>    C       -1.22263       -12.20096         5.40580
| 47>    C       -0.90487       -11.39082         4.32174
| 48>    C       -2.98361       -13.92602         6.04998
| 49>    C       -2.65427       -14.15098         7.34604
| 50>    C       -3.30319       -15.08316         8.19558
| 51>    S       -2.81490       -15.12951         9.87558
| 52>    C       -3.95089       -16.39354        10.29349
| 53>    C       -4.65937       -16.75766         9.15755
| 54>    C       -4.30347       -16.02164         7.99013
| 55>    C       -5.10379       -16.46083         6.85013
| 56>    O       -5.08767       -16.06120         5.70796
| 57>    C       -6.01467       -17.55933         7.36818
| 58>    C       -5.70419       -17.72869         8.84451
| 59>    O       -6.24217       -18.53228         9.57254
| 60>    C       -3.99867       -16.81589        11.64646
| 61>    C       -4.80705       -17.79669        12.11992
| 62>    C       -4.89682       -18.19592        13.47711
| 63>    S       -5.95686       -19.51595        13.88654
| 64>    C       -5.57331       -19.36495        15.57341
| 65>    C       -4.66770       -18.34054        15.78313
| 66>    C       -4.28749       -17.69156        14.61377
| 67>    C       -6.17479       -20.21722        16.53450
| 68>    C       -7.02447       -21.28133        16.30188
| 69>    C       -7.46095       -21.90715        17.46442
| 70>    C       -6.95987       -21.33395        18.61916
| 71>    S       -5.91328       -19.99478        18.23884
| 72>    C       -7.23092       -21.71044        19.95916
| 73>    S       -6.56823       -20.84735        21.30751
| 74>    C       -7.39132       -21.88531        22.44495
| 75>    C       -8.12919       -22.84971        21.77018
| 76>    C       -8.04035       -22.75323        20.39119
| 77>    C       -7.26008       -21.66589        23.83117
| 78>    C       -7.88972       -22.40229        24.79316
| 79>    C       -7.73652       -22.12308        26.16232
| 80>    C       -8.35434       -22.81581        27.17350
| 81>    C       -8.23948       -22.56414        28.59481
| 82>    C       -7.51170       -21.57738        29.20979
| 83>    C       -7.45226       -21.39093        30.60708
| 84>    N       -7.35850       -21.18268        31.73220
| 85>    C       -6.72507       -20.60569        28.55683
| 86>    N       -6.06478       -19.78005        28.10774
| 87>    C       -9.05962       -23.55848        29.28669
| 88>    C       -9.66930       -24.38942        28.33163
| 89>    C       -9.26253       -23.96710        26.97329
| 90>    O       -9.61552       -24.47777        25.93020
| 91>    C      -10.50797       -25.42336        28.69287
| 92>    C      -10.74543       -25.63732        30.04480
| 93>    C      -10.14159       -24.81715        31.00366
| 94>    C       -9.29775       -23.77514        30.63406
| 95>   Cl      -10.44062       -25.09301        32.67235
| 96>   Cl      -11.78344       -26.91408        30.53687
| 97>    H       -5.12600        -6.97186        -9.84699
| 98>    H       -8.74867        -7.64733        -6.50084
| 99>    H       -2.55879        -7.58150        -5.24338
|100>    H       -4.79394       -10.63022        -1.34614
|101>    H       -5.44954        -9.59921        -3.62420
|102>    H       -0.47475        -8.74944        -0.24778
|103>    H        0.09619        -9.72893         2.08260
|104>    H       -0.64801       -12.22490         6.31389
|105>    H       -0.06874       -10.71560         4.30661
|106>    H       -3.79777       -14.48445         5.60936
|107>    H       -1.85803       -13.58376         7.80959
|108>    H       -5.84964       -18.49260         6.82518
|109>    H       -7.06430       -17.29582         7.21928
|110>    H       -3.33247       -16.28941        12.31696
|111>    H       -5.45062       -18.32470        11.42991
|112>    H       -4.30491       -18.08583        16.76366
|113>    H       -3.59461       -16.87011        14.59164
|114>    H       -7.30997       -21.58198        15.30957
|115>    H       -8.12672       -22.75028        17.47080
|116>    H       -8.71267       -23.59603        22.27747
|117>    H       -8.54670       -23.41550        19.71326
|118>    H       -6.61962       -20.84620        24.13390
|119>    H       -8.53386       -23.22121        24.51520
|120>    H       -7.08474       -21.29825        26.41979
|121>    H      -10.96588       -26.04782        27.94211
|122>    H       -8.85203       -23.16551        31.40260
|123> *
|124>
|125>                          ****END OF INPUT****

CARTESIAN COORDINATES (ANGSTROEM)
---------------------------------
  C     -6.009370   -7.437500   -5.487900
  C     -6.666140   -7.182510   -4.311260
  C     -8.064990   -7.045660   -4.203740
  N     -9.199140   -6.947850   -4.056420
  C     -6.009930   -6.936990   -3.088440
  N     -5.521480   -6.687390   -2.080360
  C     -6.625000   -7.408060   -6.814380
  C     -5.616250   -7.227690   -7.778020
  C     -5.910280   -7.119940   -9.121660
  C     -7.240740   -7.205380   -9.514700
  C     -8.247930   -7.398110   -8.562730
  C     -7.949080   -7.496400   -7.207810
  Cl    -9.885700   -7.516770   -9.064780
  Cl    -7.646810   -7.075300  -11.178020
  C     -4.295880   -7.197050   -7.109300
  O     -3.212640   -7.012440   -7.613230
  C     -4.579010   -7.498360   -5.681860
  C     -3.542530   -7.827510   -4.854930
  C     -3.568650   -8.520820   -3.628970
  S     -2.181980   -8.458260   -2.570380
  C     -2.933270   -9.533560   -1.441050
  C     -4.176300   -9.944350   -1.898300
  C     -4.534170   -9.371670   -3.107310
  C     -2.309210   -9.884690   -0.218950
  C     -1.103150   -9.439630    0.286810
  C     -0.800640   -9.964060    1.539640
  C     -1.766490  -10.829460    2.020410
  S     -3.074540  -10.988630    0.888280
  C     -1.783310  -11.524820    3.259590
  S     -3.011460  -12.695970    3.620370
  C     -2.345680  -12.985110    5.202000
  C     -1.222630  -12.200960    5.405800
  C     -0.904870  -11.390820    4.321740
  C     -2.983610  -13.926020    6.049980
  C     -2.654270  -14.150980    7.346040
  C     -3.303190  -15.083160    8.195580
  S     -2.814900  -15.129510    9.875580
  C     -3.950890  -16.393540   10.293490
  C     -4.659370  -16.757660    9.157550
  C     -4.303470  -16.021640    7.990130
  C     -5.103790  -16.460830    6.850130
  O     -5.087670  -16.061200    5.707960
  C     -6.014670  -17.559330    7.368180
  C     -5.704190  -17.728690    8.844510
  O     -6.242170  -18.532280    9.572540
  C     -3.998670  -16.815890   11.646460
  C     -4.807050  -17.796690   12.119920
  C     -4.896820  -18.195920   13.477110
  S     -5.956860  -19.515950   13.886540
  C     -5.573310  -19.364950   15.573410
  C     -4.667700  -18.340540   15.783130
  C     -4.287490  -17.691560   14.613770
  C     -6.174790  -20.217220   16.534500
  C     -7.024470  -21.281330   16.301880
  C     -7.460950  -21.907150   17.464420
  C     -6.959870  -21.333950   18.619160
  S     -5.913280  -19.994780   18.238840
  C     -7.230920  -21.710440   19.959160
  S     -6.568230  -20.847350   21.307510
  C     -7.391320  -21.885310   22.444950
  C     -8.129190  -22.849710   21.770180
  C     -8.040350  -22.753230   20.391190
  C     -7.260080  -21.665890   23.831170
  C     -7.889720  -22.402290   24.793160
  C     -7.736520  -22.123080   26.162320
  C     -8.354340  -22.815810   27.173500
  C     -8.239480  -22.564140   28.594810
  C     -7.511700  -21.577380   29.209790
  C     -7.452260  -21.390930   30.607080
  N     -7.358500  -21.182680   31.732200
  C     -6.725070  -20.605690   28.556830
  N     -6.064780  -19.780050   28.107740
  C     -9.059620  -23.558480   29.286690
  C     -9.669300  -24.389420   28.331630
  C     -9.262530  -23.967100   26.973290
  O     -9.615520  -24.477770   25.930200
  C    -10.507970  -25.423360   28.692870
  C    -10.745430  -25.637320   30.044800
  C    -10.141590  -24.817150   31.003660
  C     -9.297750  -23.775140   30.634060
  Cl   -10.440620  -25.093010   32.672350
  Cl   -11.783440  -26.914080   30.536870
  H     -5.126000   -6.971860   -9.846990
  H     -8.748670   -7.647330   -6.500840
  H     -2.558790   -7.581500   -5.243380
  H     -4.793940  -10.630220   -1.346140
  H     -5.449540   -9.599210   -3.624200
  H     -0.474750   -8.749440   -0.247780
  H      0.096190   -9.728930    2.082600
  H     -0.648010  -12.224900    6.313890
  H     -0.068740  -10.715600    4.306610
  H     -3.797770  -14.484450    5.609360
  H     -1.858030  -13.583760    7.809590
  H     -5.849640  -18.492600    6.825180
  H     -7.064300  -17.295820    7.219280
  H     -3.332470  -16.289410   12.316960
  H     -5.450620  -18.324700   11.429910
  H     -4.304910  -18.085830   16.763660
  H     -3.594610  -16.870110   14.591640
  H     -7.309970  -21.581980   15.309570
  H     -8.126720  -22.750280   17.470800
  H     -8.712670  -23.596030   22.277470
  H     -8.546700  -23.415500   19.713260
  H     -6.619620  -20.846200   24.133900
  H     -8.533860  -23.221210   24.515200
  H     -7.084740  -21.298250   26.419790
  H    -10.965880  -26.047820   27.942110
  H     -8.852030  -23.165510   31.402600

 Total Charge           Charge          ....    0
 Multiplicity           Mult            ....    1
 Number of Electrons    NEL             ....  644
 Basis Dimension        Dim             .... 1322

ORBITAL ENERGIES
----------------

  NO   OCC          E(Eh)            E(eV)
   0   2.0000    -101.599860     -2764.6727
   1   2.0000    -101.599069     -2764.6512
   2   2.0000    -101.598339     -2764.6314
   3   2.0000    -101.596304     -2764.5760
   4   2.0000     -88.976735     -2421.1800
   5   2.0000     -88.975562     -2421.1481
   6   2.0000     -88.974150     -2421.1097
   7   2.0000     -88.972969     -2421.0776
   8   2.0000     -88.971876     -2421.0478
   9   2.0000     -88.966598     -2420.9042
  10   2.0000     -88.966158     -2420.8922
  11   2.0000     -19.218555      -522.9635
  12   2.0000     -19.218398      -522.9592
  13   2.0000     -19.217047      -522.9224
  14   2.0000     -19.216679      -522.9124
  15   2.0000     -14.417860      -392.3299
  16   2.0000     -14.416566      -392.2947
  17   2.0000     -14.416386      -392.2898
  18   2.0000     -14.413194      -392.2029
  19   2.0000     -10.370420      -282.1935
  20   2.0000     -10.370264      -282.1892
  21   2.0000     -10.370159      -282.1864
  22   2.0000     -10.369165      -282.1593
  23   2.0000     -10.356364      -281.8110
  24   2.0000     -10.355674      -281.7922
  25   2.0000     -10.353518      -281.7336
  26   2.0000     -10.353051      -281.7208
  27   2.0000     -10.346309      -281.5374
  28   2.0000     -10.345642      -281.5192
  29   2.0000     -10.341782      -281.4142
  30   2.0000     -10.341182      -281.3979
  31   2.0000     -10.331464      -281.1334
  32   2.0000     -10.331352      -281.1304
  33   2.0000     -10.330736      -281.1136
  34   2.0000     -10.330497      -281.1071
  35   2.0000     -10.324754      -280.9508
  36   2.0000     -10.323526      -280.9174
  37   2.0000     -10.322995      -280.9030
  38   2.0000     -10.321888      -280.8728
  39   2.0000     -10.320339      -280.8307
  40   2.0000     -10.319881      -280.8183
  41   2.0000     -10.319222      -280.8003
  42   2.0000     -10.319122      -280.7976
  43   2.0000     -10.318974      -280.7936
  44   2.0000     -10.317958      -280.7659
  45   2.0000     -10.317539      -280.7545
  46   2.0000     -10.316940      -280.7382
  47   2.0000     -10.316333      -280.7217
  48   2.0000     -10.316162      -280.7170
  49   2.0000     -10.314847      -280.6813
  50   2.0000     -10.313804      -280.6529
  51   2.0000     -10.312444      -280.6159
  52   2.0000     -10.310737      -280.5694
  53   2.0000     -10.310606      -280.5658
  54   2.0000     -10.309649      -280.5398
  55   2.0000     -10.309377      -280.5324
  56   2.0000     -10.306518      -280.4546
  57   2.0000     -10.305788      -280.4347
  58   2.0000     -10.301806      -280.3264
  59   2.0000     -10.300686      -280.2959
  60   2.0000     -10.298255      -280.2298
  61   2.0000     -10.298038      -280.2239
  62   2.0000     -10.296810      -280.1904
  63   2.0000     -10.293773      -280.1078
  64   2.0000     -10.293416      -280.0981
  65   2.0000     -10.293152      -280.0909
  66   2.0000     -10.292823      -280.0819
  67   2.0000     -10.292496      -280.0731
  68   2.0000     -10.292315      -280.0681
  69   2.0000     -10.291036      -280.0333
  70   2.0000     -10.291027      -280.0331
  71   2.0000     -10.290398      -280.0160
  72   2.0000     -10.289951      -280.0038
  73   2.0000     -10.289705      -279.9971
  74   2.0000     -10.288930      -279.9760
  75   2.0000     -10.288833      -279.9734
  76   2.0000     -10.287689      -279.9422
  77   2.0000     -10.287677      -279.9419
  78   2.0000     -10.286701      -279.9154
  79   2.0000     -10.286384      -279.9067
  80   2.0000     -10.283581      -279.8305
  81   2.0000     -10.282342      -279.7967
  82   2.0000      -9.554956      -260.0036
  83   2.0000      -9.554153      -259.9817
  84   2.0000      -9.553369      -259.9604
  85   2.0000      -9.551337      -259.9051
  86   2.0000      -8.072538      -219.6649
  87   2.0000      -8.071365      -219.6330
  88   2.0000      -8.069748      -219.5890
  89   2.0000      -8.068576      -219.5571
  90   2.0000      -8.067439      -219.5262
  91   2.0000      -8.062460      -219.3907
  92   2.0000      -8.061844      -219.3739
  93   2.0000      -7.325343      -199.3327
  94   2.0000      -7.324559      -199.3114
  95   2.0000      -7.323750      -199.2894
  96   2.0000      -7.321736      -199.2346
  97   2.0000      -7.315196      -199.0566
  98   2.0000      -7.314487      -199.0373
  99   2.0000      -7.314386      -199.0346
 100   2.0000      -7.313672      -199.0151
 101   2.0000      -7.313633      -199.0141
 102   2.0000      -7.312908      -198.9943
 103   2.0000      -7.311583      -198.9583
 104   2.0000      -7.310859      -198.9386
 105   2.0000      -6.041657      -164.4018
 106   2.0000      -6.040551      -164.3718
 107   2.0000      -6.039019      -164.3300
 108   2.0000      -6.037924      -164.3003
 109   2.0000      -6.037561      -164.2904
 110   2.0000      -6.036786      -164.2693
 111   2.0000      -6.036502      -164.2616
 112   2.0000      -6.034948      -164.2193
 113   2.0000      -6.034855      -164.2168
 114   2.0000      -6.033836      -164.1890
 115   2.0000      -6.033556      -164.1814
 116   2.0000      -6.032646      -164.1566
 117   2.0000      -6.031812      -164.1340
 118   2.0000      -6.031631      -164.1290
 119   2.0000      -6.031038      -164.1129
 120   2.0000      -6.030516      -164.0987
 121   2.0000      -6.029440      -164.0694
 122   2.0000      -6.027529      -164.0174
 123   2.0000      -6.026992      -164.0028
 124   2.0000      -6.024709      -163.9407
 125   2.0000      -6.024009      -163.9216
 126   2.0000      -1.135287       -30.8927
 127   2.0000      -1.134130       -30.8612
 128   2.0000      -1.132642       -30.8208
 129   2.0000      -1.130431       -30.7606
 130   2.0000      -1.031590       -28.0710
 131   2.0000      -1.028328       -27.9822
 132   2.0000      -1.018024       -27.7018
 133   2.0000      -1.014721       -27.6120
 134   2.0000      -1.014064       -27.5941
 135   2.0000      -1.013415       -27.5764
 136   2.0000      -1.007791       -27.4234
 137   2.0000      -1.001172       -27.2433
 138   2.0000      -1.000351       -27.2209
 139   2.0000      -0.994819       -27.0704
 140   2.0000      -0.993427       -27.0325
 141   2.0000      -0.991227       -26.9727
 142   2.0000      -0.988102       -26.8876
 143   2.0000      -0.982642       -26.7391
 144   2.0000      -0.981945       -26.7201
 145   2.0000      -0.961729       -26.1700
 146   2.0000      -0.959260       -26.1028
 147   2.0000      -0.936346       -25.4793
 148   2.0000      -0.935098       -25.4453
 149   2.0000      -0.927328       -25.2339
 150   2.0000      -0.923077       -25.1182
 151   2.0000      -0.920629       -25.0516
 152   2.0000      -0.910421       -24.7738
 153   2.0000      -0.900897       -24.5147
 154   2.0000      -0.894528       -24.3414
 155   2.0000      -0.887280       -24.1441
 156   2.0000      -0.879032       -23.9197
 157   2.0000      -0.869016       -23.6471
 158   2.0000      -0.861048       -23.4303
 159   2.0000      -0.859451       -23.3869
 160   2.0000      -0.859172       -23.3793
 161   2.0000      -0.857716       -23.3396
 162   2.0000      -0.854002       -23.2386
 163   2.0000      -0.848760       -23.0959
 164   2.0000      -0.846482       -23.0339
 165   2.0000      -0.843699       -22.9582
 166   2.0000      -0.834609       -22.7109
 167   2.0000      -0.831076       -22.6147
 168   2.0000      -0.823851       -22.4181
 169   2.0000      -0.821770       -22.3615
 170   2.0000      -0.809414       -22.0253
 171   2.0000      -0.793396       -21.5894
 172   2.0000      -0.784453       -21.3461
 173   2.0000      -0.773172       -21.0391
 174   2.0000      -0.767622       -20.8881
 175   2.0000      -0.762118       -20.7383
 176   2.0000      -0.760422       -20.6921
 177   2.0000      -0.741743       -20.1839
 178   2.0000      -0.735924       -20.0255
 179   2.0000      -0.725208       -19.7339
 180   2.0000      -0.721647       -19.6370
 181   2.0000      -0.704430       -19.1685
 182   2.0000      -0.704071       -19.1588
 183   2.0000      -0.698714       -19.0130
 184   2.0000      -0.696728       -18.9589
 185   2.0000      -0.695118       -18.9151
 186   2.0000      -0.691017       -18.8035
 187   2.0000      -0.684629       -18.6297
 188   2.0000      -0.682727       -18.5779
 189   2.0000      -0.678042       -18.4505
 190   2.0000      -0.674360       -18.3503
 191   2.0000      -0.666671       -18.1410
 192   2.0000      -0.655771       -17.8444
 193   2.0000      -0.646378       -17.5888
 194   2.0000      -0.644339       -17.5334
 195   2.0000      -0.637868       -17.3573
 196   2.0000      -0.635339       -17.2885
 197   2.0000      -0.633083       -17.2271
 198   2.0000      -0.629584       -17.1319
 199   2.0000      -0.627826       -17.0840
 200   2.0000      -0.624482       -16.9930
 201   2.0000      -0.621782       -16.9195
 202   2.0000      -0.621165       -16.9028
 203   2.0000      -0.617681       -16.8079
 204   2.0000      -0.607367       -16.5273
 205   2.0000      -0.606459       -16.5026
 206   2.0000      -0.604239       -16.4422
 207   2.0000      -0.593395       -16.1471
 208   2.0000      -0.590870       -16.0784
 209   2.0000      -0.587818       -15.9953
 210   2.0000      -0.583492       -15.8776
 211   2.0000      -0.579641       -15.7728
 212   2.0000      -0.572671       -15.5832
 213   2.0000      -0.568091       -15.4585
 214   2.0000      -0.565024       -15.3751
 215   2.0000      -0.562355       -15.3024
 216   2.0000      -0.560392       -15.2490
 217   2.0000      -0.556005       -15.1297
 218   2.0000      -0.552512       -15.0346
 219   2.0000      -0.549856       -14.9623
 220   2.0000      -0.547808       -14.9066
 221   2.0000      -0.544548       -14.8179
 222   2.0000      -0.542803       -14.7704
 223   2.0000      -0.542485       -14.7618
 224   2.0000      -0.539168       -14.6715
 225   2.0000      -0.533123       -14.5070
 226   2.0000      -0.530075       -14.4241
 227   2.0000      -0.527359       -14.3502
 228   2.0000      -0.522349       -14.2138
 229   2.0000      -0.520717       -14.1694
 230   2.0000      -0.519161       -14.1271
 231   2.0000      -0.516834       -14.0638
 232   2.0000      -0.515723       -14.0335
 233   2.0000      -0.514933       -14.0120
 234   2.0000      -0.513097       -13.9621
 235   2.0000      -0.511930       -13.9303
 236   2.0000      -0.509218       -13.8565
 237   2.0000      -0.508496       -13.8369
 238   2.0000      -0.505739       -13.7619
 239   2.0000      -0.505411       -13.7529
 240   2.0000      -0.504820       -13.7369
 241   2.0000      -0.503244       -13.6940
 242   2.0000      -0.499829       -13.6010
 243   2.0000      -0.499572       -13.5941
 244   2.0000      -0.495763       -13.4904
 245   2.0000      -0.495035       -13.4706
 246   2.0000      -0.494373       -13.4526
 247   2.0000      -0.493104       -13.4180
 248   2.0000      -0.491006       -13.3610
 249   2.0000      -0.489823       -13.3288
 250   2.0000      -0.487729       -13.2718
 251   2.0000      -0.483555       -13.1582
 252   2.0000      -0.482287       -13.1237
 253   2.0000      -0.481659       -13.1066
 254   2.0000      -0.476986       -12.9794
 255   2.0000      -0.475695       -12.9443
 256   2.0000      -0.472882       -12.8678
 257   2.0000      -0.471485       -12.8298
 258   2.0000      -0.469272       -12.7695
 259   2.0000      -0.467056       -12.7092
 260   2.0000      -0.465676       -12.6717
 261   2.0000      -0.464442       -12.6381
 262   2.0000      -0.461912       -12.5693
 263   2.0000      -0.460330       -12.5262
 264   2.0000      -0.456929       -12.4337
 265   2.0000      -0.452671       -12.3178
 266   2.0000      -0.450758       -12.2657
 267   2.0000      -0.448624       -12.2077
 268   2.0000      -0.447784       -12.1848
 269   2.0000      -0.446298       -12.1444
 270   2.0000      -0.443836       -12.0774
 271   2.0000      -0.441929       -12.0255
 272   2.0000      -0.439190       -11.9510
 273   2.0000      -0.436425       -11.8757
 274   2.0000      -0.436113       -11.8672
 275   2.0000      -0.435302       -11.8452
 276   2.0000      -0.434513       -11.8237
 277   2.0000      -0.433382       -11.7929
 278   2.0000      -0.432350       -11.7648
 279   2.0000      -0.430928       -11.7261
 280   2.0000      -0.428812       -11.6686
 281   2.0000      -0.427913       -11.6441
 282   2.0000      -0.427747       -11.6396
 283   2.0000      -0.426047       -11.5933
 284   2.0000      -0.425934       -11.5902
 285   2.0000      -0.425493       -11.5783
 286   2.0000      -0.423530       -11.5248
 287   2.0000      -0.419229       -11.4078
 288   2.0000      -0.417533       -11.3616
 289   2.0000      -0.417072       -11.3491
 290   2.0000      -0.409901       -11.1540
 291   2.0000      -0.409497       -11.1430
 292   2.0000      -0.405787       -11.0420
 293   2.0000      -0.404902       -11.0179
 294   2.0000      -0.400237       -10.8910
 295   2.0000      -0.389543       -10.6000
 296   2.0000      -0.381638       -10.3849
 297   2.0000      -0.379367       -10.3231
 298   2.0000      -0.376993       -10.2585
 299   2.0000      -0.366276        -9.9669
 300   2.0000      -0.353052        -9.6070
 301   2.0000      -0.348141        -9.4734
 302   2.0000      -0.347813        -9.4645
 303   2.0000      -0.344936        -9.3862
 304   2.0000      -0.344287        -9.3685
 305   2.0000      -0.342986        -9.3331
 306   2.0000      -0.341018        -9.2796
 307   2.0000      -0.339367        -9.2346
 308   2.0000      -0.339114        -9.2278
 309   2.0000      -0.337452        -9.1825
 310   2.0000      -0.336656        -9.1609
 311   2.0000      -0.333549        -9.0763
 312   2.0000      -0.332407        -9.0453
 313   2.0000      -0.328221        -8.9314
 314   2.0000      -0.324712        -8.8359
 315   2.0000      -0.314552        -8.5594
 316   2.0000      -0.310668        -8.4537
 317   2.0000      -0.306803        -8.3485
 318   2.0000      -0.289739        -7.8842
 319   2.0000      -0.270350        -7.3566
 320   2.0000      -0.249244        -6.7823
 321   2.0000      -0.234119        -6.3707
 322   0.0000      -0.101655        -2.7662
 323   0.0000      -0.097553        -2.6545
 324   0.0000      -0.078201        -2.1280
 325   0.0000      -0.069008        -1.8778
 326   0.0000      -0.065027        -1.7695

MULLIKEN ATOMIC CHARGES
-----------------------
   0 C :    0.261980
   1 C :   -0.331829
   2 C :   -0.179663
   3 N :    0.158445
   4 C :   -0.211204
   5 N :    0.181219
   6 C :    0.015622
   7 C :    0.002517
   8 C :   -0.029379
   9 C :    0.057747
  10 C :    0.049449
  11 C :   -0.014978
  12 Cl:   -0.037667
  13 Cl:   -0.044404
  14 C :    0.137341
  15 O :   -0.139985
  16 C :   -0.145078
  17 C :    0.095298
  18 C :   -0.123817
  19 S :    0.158110
  20 C :   -0.015977
  21 C :   -0.027837
  22 C :    0.076012
  23 C :   -0.037313
  24 C :   -0.002000
  25 C :    0.004682
  26 C :   -0.028402
  27 S :    0.139215
  28 C :   -0.049930
  29 S :    0.152129
  30 C :   -0.085323
  31 C :    0.018591
  32 C :    0.000124
  33 C :    0.067903
  34 C :    0.037601
  35 C :   -0.126952
  36 S :    0.147056
  37 C :   -0.128852
  38 C :    0.009625
  39 C :    0.011602
  40 C :    0.030431
  41 O :   -0.163170
  42 C :    0.075009
  43 C :    0.030708
  44 O :   -0.165417
  45 C :    0.040487
  46 C :    0.068756
  47 C :   -0.083401
  48 S :    0.146684
  49 C :   -0.050398
  50 C :   -0.006747
  51 C :    0.016685
  52 C :   -0.028945
  53 C :   -0.008496
  54 C :    0.007731
  55 C :   -0.040305
  56 S :    0.135354
  57 C :   -0.036362
  58 S :    0.150130
  59 C :   -0.092877
  60 C :    0.039790
  61 C :   -0.001909
  62 C :    0.099047
  63 C :   -0.022204
  64 C :   -0.026798
  65 C :   -0.082924
  66 C :    0.328172
  67 C :   -0.351806
  68 C :   -0.190246
  69 N :    0.154104
  70 C :   -0.189443
  71 N :    0.145191
  72 C :    0.029543
  73 C :   -0.014280
  74 C :    0.145229
  75 O :   -0.153714
  76 C :   -0.030281
  77 C :    0.060453
  78 C :    0.044959
  79 C :   -0.011709
  80 Cl:   -0.037129
  81 Cl:   -0.045801
  82 H :    0.000580
  83 H :    0.002634
  84 H :    0.024786
  85 H :    0.001685
  86 H :    0.004581
  87 H :   -0.003227
  88 H :   -0.014820
  89 H :   -0.013856
  90 H :   -0.015850
  91 H :    0.004249
  92 H :   -0.026580
  93 H :    0.065350
  94 H :    0.066578
  95 H :   -0.027643
  96 H :    0.003638
  97 H :   -0.009055
  98 H :   -0.011693
  99 H :   -0.003888
 100 H :   -0.010998
 101 H :    0.005005
 102 H :   -0.012282
 103 H :    0.006557
 104 H :    0.024966
 105 H :    0.008357
 106 H :   -0.003347
 107 H :   -0.001504
Sum of atomic charges:   -0.0000000

LOEWDIN ATOMIC CHARGES
----------------------
   0 C :    0.063934
   1 C :   -0.139547
   2 C :   -0.022983
   3 N :   -0.048354
   4 C :   -0.019739
   5 N :   -0.038461
   6 C :   -0.011374
   7 C :   -0.045320
   8 C :    0.001016
   9 C :   -0.135937
  10 C :   -0.130397
  11 C :   -0.015677
  12 Cl:    0.161199
  13 Cl:    0.157500
  14 C :    0.082412
  15 O :   -0.140729
  16 C :   -0.104239
  17 C :    0.053638
  18 C :   -0.189698
  19 S :    0.463562
  20 C :   -0.150716
  21 C :   -0.059369
  22 C :   -0.004207
  23 C :   -0.190281
  24 C :   -0.042644
  25 C :   -0.051457
  26 C :   -0.172991
  27 S :    0.444711
  28 C :   -0.186645
  29 S :    0.450979
  30 C :   -0.171423
  31 C :   -0.044480
  32 C :   -0.047958
  33 C :   -0.007273
  34 C :   -0.059479
  35 C :   -0.128204
  36 S :    0.458583
  37 C :   -0.128018
  38 C :   -0.102923
  39 C :   -0.102600
  40 C :    0.081767
  41 O :   -0.141617
  42 C :   -0.064492
  43 C :    0.082027
  44 O :   -0.142761
  45 C :   -0.059130
  46 C :   -0.007997
  47 C :   -0.170636
  48 S :    0.456824
  49 C :   -0.183527
  50 C :   -0.056296
  51 C :   -0.043667
  52 C :   -0.173927
  53 C :   -0.058270
  54 C :   -0.038666
  55 C :   -0.191779
  56 S :    0.437010
  57 C :   -0.164561
  58 S :    0.445594
  59 C :   -0.186790
  60 C :   -0.016696
  61 C :   -0.053454
  62 C :    0.022684
  63 C :   -0.040540
  64 C :    0.070007
  65 C :   -0.107810
  66 C :    0.074513
  67 C :   -0.140741
  68 C :   -0.020244
  69 N :   -0.051620
  70 C :   -0.019409
  71 N :   -0.054041
  72 C :   -0.013118
  73 C :   -0.042868
  74 C :    0.084528
  75 O :   -0.148167
  76 C :   -0.001043
  77 C :   -0.135160
  78 C :   -0.131632
  79 C :   -0.012872
  80 Cl:    0.160033
  81 Cl:    0.156369
  82 H :    0.046114
  83 H :    0.044108
  84 H :    0.046553
  85 H :    0.031472
  86 H :    0.036396
  87 H :    0.031042
  88 H :    0.031903
  89 H :    0.030624
  90 H :    0.030895
  91 H :    0.030474
  92 H :    0.024631
  93 H :    0.062284
  94 H :    0.062683
  95 H :    0.024502
  96 H :    0.029950
  97 H :    0.028282
  98 H :    0.030916
  99 H :    0.030064
 100 H :    0.032823
 101 H :    0.040071
 102 H :    0.032778
 103 H :    0.037234
 104 H :    0.031611
 105 H :    0.041660
 106 H :    0.044687
 107 H :    0.044008

  Mayer bond orders larger than 0.100000
B(  0-C ,  1-C ) :   1.6444 B(  0-C ,  6-C ) :   1.0003 B(  0-C , 16-C ) :   1.0562
B(  1-C ,  2-C ) :   1.1269 B(  1-C ,  4-C ) :   1.1668 B(  2-C ,  3-N ) :   2.9900
B(  4-C ,  5-N ) :   3.0107 B(  6-C ,  7-C ) :   1.3304 B(  6-C , 11-C ) :   1.3505
B(  7-C ,  8-C ) :   1.3532 B(  7-C , 14-C ) :   0.9172 B(  8-C ,  9-C ) :   1.3436
B(  8-C , 82-H ) :   1.0153 B(  9-C , 10-C ) :   1.4104 B(  9-C , 13-Cl) :   1.0454
B( 10-C , 11-C ) :   1.3585 B( 10-C , 12-Cl) :   1.0681 B( 11-C , 83-H ) :   0.9887
B( 14-C , 15-O ) :   2.2695 B( 14-C , 16-C ) :   0.9535 B( 16-C , 17-C ) :   1.6337
B( 17-C , 18-C ) :   1.1570 B( 17-C , 84-H ) :   0.9305 B( 18-C , 19-S ) :   1.0955
B( 18-C , 22-C ) :   1.4209 B( 19-S , 20-C ) :   1.1645 B( 20-C , 21-C ) :   1.4387
B( 20-C , 23-C ) :   1.1670 B( 21-C , 22-C ) :   1.3427 B( 21-C , 85-H ) :   0.9919
B( 22-C , 86-H ) :   0.9882 B( 23-C , 24-C ) :   1.4800 B( 23-C , 26-C ) :   0.1066
B( 23-C , 27-S ) :   1.1180 B( 24-C , 25-C ) :   1.2854 B( 24-C , 87-H ) :   0.9931
B( 25-C , 26-C ) :   1.5047 B( 25-C , 88-H ) :   0.9963 B( 26-C , 27-S ) :   1.1323
B( 26-C , 28-C ) :   1.1162 B( 28-C , 29-S ) :   1.1360 B( 28-C , 30-C ) :   0.1056
B( 28-C , 32-C ) :   1.4878 B( 29-S , 30-C ) :   1.1275 B( 30-C , 31-C ) :   1.4671
B( 30-C , 33-C ) :   1.1305 B( 31-C , 32-C ) :   1.3010 B( 31-C , 89-H ) :   0.9919
B( 32-C , 90-H ) :   0.9969 B( 33-C , 34-C ) :   1.6772 B( 33-C , 91-H ) :   0.9286
B( 34-C , 35-C ) :   1.1638 B( 34-C , 92-H ) :   0.9519 B( 35-C , 36-S ) :   1.1295
B( 35-C , 39-C ) :   1.4516 B( 36-S , 37-C ) :   1.1301 B( 37-C , 38-C ) :   1.4489
B( 37-C , 45-C ) :   1.1668 B( 38-C , 39-C ) :   1.1985 B( 38-C , 43-C ) :   0.9667
B( 39-C , 40-C ) :   0.9654 B( 40-C , 41-O ) :   2.1274 B( 40-C , 42-C ) :   1.0056
B( 41-O , 91-H ) :   0.1181 B( 42-C , 43-C ) :   1.0060 B( 42-C , 93-H ) :   0.8954
B( 42-C , 94-H ) :   0.8959 B( 43-C , 44-O ) :   2.1217 B( 44-O , 96-H ) :   0.1208
B( 45-C , 46-C ) :   1.6757 B( 45-C , 95-H ) :   0.9516 B( 46-C , 47-C ) :   1.1329
B( 46-C , 96-H ) :   0.9263 B( 47-C , 48-S ) :   1.1247 B( 47-C , 51-C ) :   1.4704
B( 48-S , 49-C ) :   1.1402 B( 49-C , 50-C ) :   1.4686 B( 49-C , 52-C ) :   1.1584
B( 50-C , 51-C ) :   1.2996 B( 50-C , 97-H ) :   0.9937 B( 51-C , 98-H ) :   0.9931
B( 52-C , 53-C ) :   1.4842 B( 52-C , 55-C ) :   0.1050 B( 52-C , 56-S ) :   1.1319
B( 53-C , 54-C ) :   1.2840 B( 53-C , 99-H ) :   0.9930 B( 54-C , 55-C ) :   1.5024
B( 54-C ,100-H ) :   0.9960 B( 55-C , 56-S ) :   1.1102 B( 55-C , 57-C ) :   1.1303
B( 57-C , 58-S ) :   1.1547 B( 57-C , 59-C ) :   0.1002 B( 57-C , 61-C ) :   1.4582
B( 58-S , 59-C ) :   1.0941 B( 59-C , 60-C ) :   1.4382 B( 59-C , 62-C ) :   1.1515
B( 60-C , 61-C ) :   1.3268 B( 60-C ,101-H ) :   0.9927 B( 61-C ,102-H ) :   0.9961
B( 62-C , 63-C ) :   1.5481 B( 62-C ,103-H ) :   0.9724 B( 63-C , 64-C ) :   1.2099
B( 63-C ,104-H ) :   0.9746 B( 64-C , 65-C ) :   1.4917 B( 64-C ,105-H ) :   0.9614
B( 65-C , 66-C ) :   1.0830 B( 65-C , 74-C ) :   0.9604 B( 66-C , 67-C ) :   1.6238
B( 66-C , 72-C ) :   0.9868 B( 67-C , 68-C ) :   1.1418 B( 67-C , 70-C ) :   1.1495
B( 68-C , 69-N ) :   2.9697 B( 70-C , 71-N ) :   2.9597 B( 72-C , 73-C ) :   1.3321
B( 72-C , 79-C ) :   1.3453 B( 73-C , 74-C ) :   0.9436 B( 73-C , 76-C ) :   1.3486
B( 74-C , 75-O ) :   2.1921 B( 76-C , 77-C ) :   1.3397 B( 76-C ,106-H ) :   1.0162
B( 77-C , 78-C ) :   1.4111 B( 77-C , 81-Cl) :   1.0436 B( 78-C , 79-C ) :   1.3575
B( 78-C , 80-Cl) :   1.0748 B( 79-C ,107-H ) :   0.9853

-----------------------------------------------------------------------------
         ABSORPTION SPECTRUM VIA TRANSITION ELECTRIC DIPOLE MOMENTS
-----------------------------------------------------------------------------
State   Energy  Wavelength   fosc         T2         TX        TY        TZ
        (cm-1)    (nm)                  (au**2)     (au)      (au)      (au)
-----------------------------------------------------------------------------
   0   15940.5    627.3   4.048607739  83.61386   0.65436   3.49333  -8.42510
   1   17293.6    578.3   0.236242446   4.49727  -1.80051   1.08449   0.28164
   2   20656.6    484.1   0.346867957   5.52817   1.57159   1.54799  -0.81362
   3   23258.8    429.9   0.097395196   1.37856  -0.53784  -0.02837   1.04331
   4   23715.7    421.7   0.007136011   0.09906  -0.13154   0.04893  -0.28172
   5   24359.4    410.5   0.211100766   2.85298  -0.42545   0.51460  -1.55150
   6   24899.0    401.6   0.118689430   1.56930   0.18785   0.69025  -1.02838
   7   25646.2    389.9   0.128200364   1.64566  -0.82613  -0.24076  -0.95143
   8   26688.5    374.7   0.046746281   0.57663  -0.32759   0.44804   0.51825
   9   27713.9    360.8   0.036665022   0.43554   0.59525   0.26147  -0.11335
  10   28549.3    350.3   0.030560426   0.35240   0.44996  -0.14974  -0.35710
  11   29112.6    343.5   0.008090907   0.09149   0.16662   0.16430  -0.19167
  12   29149.2    343.1   0.081922643   0.92524  -0.50418  -0.53758   0.61810
  13   29602.0    337.8   0.157251517   1.74883   0.00246  -0.27707   1.29308
  14   29733.0    336.3   0.127781387   1.41483   0.86186   0.74866   0.33397
  15   30263.6    330.4   0.032713340   0.35586   0.22627   0.39920  -0.38119
  16   31011.6    322.5   0.060498052   0.64223  -0.35516   0.14064  -0.70450
  17   31443.5    318.0   0.023162591   0.24251   0.07163   0.06346   0.48307
  18   31556.6    316.9   0.010523441   0.10979   0.10614   0.06870   0.30627
  19   31779.9    314.7   0.050421846   0.52233  -0.22556   0.15708  -0.66841
  20   32069.5    311.8   0.000731912   0.00751  -0.03547  -0.07909  -0.00083
  21   32115.9    311.4   0.114853397   1.17733  -0.71608  -0.79395  -0.18497
  22   32478.9    307.9   0.055531439   0.56288   0.22895  -0.41739   0.57986
  23   32564.8    307.1   0.202584234   2.04802   0.13460   0.34572  -1.38216
  24   32809.6    304.8   0.036365697   0.36489  -0.09357  -0.08886   0.59012
  25   33480.8    298.7   0.018347954   0.18041  -0.17462  -0.15643   0.35419
  26   33859.6    295.3   0.017512810   0.17027  -0.27419  -0.00019   0.30837
  27   34542.8    289.5   0.050234542   0.47876   0.46653   0.37227   0.35003
  28   35005.9    285.7   0.181918511   1.71085   0.69823   0.95612  -0.55602
  29   35243.7    283.7   0.152248409   1.42216  -0.01274   0.06326  -1.19079
  30   35534.0    281.4   0.012449474   0.11534   0.16645   0.22340   0.19423
  31   35676.8    280.3   0.009662728   0.08916   0.00475   0.21396  -0.20823
  32   35816.7    279.2   0.058934931   0.54170  -0.45474  -0.56721   0.11484
  33   35930.9    278.3   0.239964943   2.19865   0.99876   1.08126   0.17894
  34   36097.3    277.0   0.061113728   0.55737   0.09427   0.19914  -0.71332
  35   36616.4    273.1   0.354249303   3.18500  -0.07866  -0.30747  -1.75621
  36   36686.4    272.6   0.120852650   1.08449  -0.18702  -0.73547  -0.71316
  37   36925.4    270.8   0.253811137   2.26287   1.06945   1.05433  -0.08687
  38   37106.5    269.5   0.006973312   0.06187   0.02941  -0.21523   0.12117
  39   37374.7    267.6   0.027186707   0.23947   0.19937   0.23884   0.37773
  40   37546.6    266.3   0.025290499   0.22175  -0.08373  -0.00223   0.46339
  41   37645.3    265.6   0.172406636   1.50772  -0.77833  -0.07213   0.94695
  42   37930.6    263.6   0.018816264   0.16331  -0.31885  -0.14532  -0.20132
  43   38382.6    260.5   0.000464366   0.00398   0.00628  -0.03348   0.05313
  44   38959.5    256.7   0.045543827   0.38485  -0.13556  -0.44425  -0.41124
  45   39544.6    252.9   0.099372769   0.82729   0.66637   0.47037  -0.40248
  46   39787.4    251.3   0.028494622   0.23577  -0.30444   0.06755  -0.37219
  47   39913.8    250.5   0.027515218   0.22695   0.21957  -0.10023   0.41072
  48   40274.3    248.3   0.186888583   1.52767   0.91805   0.76676  -0.31135

FINAL SINGLE POINT ENERGY     -7559.177729460189

DIPOLE MOMENT
-------------
                                X             Y             Z
Electronic contribution:    -36.45964       6.63462      -8.40753
Nuclear contribution   :     38.23321      -8.03323       6.30443
                        -----------------------------------------
Total Dipole Moment    :      1.77357      -1.39860      -2.10310
                        -----------------------------------------
Magnitude (a.u.)       :      3.08621
Magnitude (Debye)      :      7.84451

Rotational constants in cm-1:     0.001730     0.000058     0.000057
Rotational constants in MHz :    51.870010     1.749295     1.721464

                             ****ORCA TERMINATED NORMALLY****
TOTAL RUN TIME: 0 days 0 hours 17 minutes 3 seconds 325 msec
