                         Program Version 4.2.0 -  RELEASE  -
|  1> # ORCA input file
|  2> # SCF done       -198.052412610545          0.000548199872
|  3> ! CAM-B3LYP def2-SVP def2/J RIJCOSX Grid4 TightSCF
|  4> %maxcore 5000
|  5> %tddft
|  6>     Mode sTDDFT
|  7>     Ethresh 5.0
|  8>     maxcore 5000
|  9> end
| 10>
| 11> %pal
| 12>   nprocs 6
| 13>   end
| 14> * xyz 0 1
| 15>    C       -9.02218        -1.00206         2.13808
| 16>    C       -7.82640        -0.57559         1.60592
| 17>    C       -7.69178         0.11617         0.39436
| 18>    N       -7.48186         0.57163        -0.64065
| 19>    C       -6.58739        -0.79769         2.23875
| 20>    N       -5.56398        -0.93302         2.74122
| 21>    C      -10.33829        -0.49566         1.76012
| 22>    C      -11.23462        -0.74006         2.81803
| 23>    C      -12.54060        -0.29914         2.76795
| 24>    C      -12.96854         0.37189         1.62687
| 25>    C      -12.09413         0.57535         0.55373
| 26>    C      -10.76884         0.15702         0.62092
| 27>   Cl      -12.64924         1.33841        -0.87641
| 28>   Cl      -14.58583         0.93668         1.53049
| 29>    C      -10.55041        -1.52623         3.86683
| 30>    O      -10.99426        -1.90649         4.92480
| 31>    C       -9.19468        -1.80999         3.31675
| 32>    C       -8.44375        -2.79113         3.90733
| 33>    C       -7.31788        -3.50823         3.44539
| 34>    C       -6.86441        -3.55563         2.13728
| 35>    C       -5.73973        -4.23781         1.70716
| 36>    C       -4.95274        -5.06056         2.62860
| 37>    C       -5.23423        -5.21459         3.94267
| 38>    S       -6.53583        -4.43351         4.72804
| 39>    C       -3.90523        -5.60622         1.84359
| 40>    C       -3.99112        -5.13826         0.52671
| 41>    C       -2.96420        -5.68644        -0.27908
| 42>    C       -2.15234        -6.51376         0.42837
| 43>    S       -2.58725        -6.67374         2.09527
| 44>    C       -5.12792        -4.26029         0.42267
| 45>    C       -5.53172        -3.48414        -0.68081
| 46>    C       -4.80281        -3.32792        -1.82744
| 47>    C       -5.13623        -2.53870        -2.93984
| 48>    S       -3.98355        -2.41292        -4.26192
| 49>    C       -4.96316        -1.32536        -5.20441
| 50>    C       -6.17690        -1.09829        -4.53052
| 51>    C       -6.24788        -1.76390        -3.26601
| 52>    N       -7.45002        -1.48094        -2.70662
| 53>    C       -8.12788        -0.64921        -3.56206
| 54>    N       -9.38631        -0.15719        -3.21968
| 55>    O       -9.86628        -0.55725        -2.16593
| 56>    O       -9.92802         0.63285        -3.97281
| 57>    C       -7.39529        -0.41292        -4.70630
| 58>    C       -4.50923        -0.75123        -6.41014
| 59>    C       -5.19342         0.30023        -6.99477
| 60>    C       -4.83668         0.93700        -8.16895
| 61>    C       -3.70318         0.46356        -8.96996
| 62>    C       -2.86508        -0.52139        -8.57332
| 63>    S       -3.02530        -1.38968        -7.10039
| 64>    C       -3.72755         1.24579       -10.15793
| 65>    C       -4.79916         2.14127       -10.11193
| 66>    C       -4.87211         2.94417       -11.27113
| 67>    C       -3.87987         2.64233       -12.14872
| 68>    S       -2.81897         1.38415       -11.60880
| 69>    C       -5.49045         1.99282        -8.85882
| 70>    C       -6.61339         2.74573        -8.46686
| 71>    C       -7.08742         2.87240        -7.18682
| 72>    C       -8.29972         3.50539        -6.87283
| 73>    C       -8.82695         3.57059        -5.60318
| 74>    C      -10.07303         4.19038        -5.20999
| 75>    C      -10.97946         4.82392        -6.02271
| 76>    C      -12.17730         5.41291        -5.56709
| 77>    N      -13.16407         5.91945        -5.27031
| 78>    C      -10.85891         4.98819        -7.41758
| 79>    N      -10.83880         5.16735        -8.55245
| 80>    C      -10.20874         4.03300        -3.76234
| 81>    C       -9.09762         3.32454        -3.27667
| 82>    C       -8.19934         2.98572        -4.39797
| 83>    O       -7.16554         2.34835        -4.32158
| 84>    C       -8.94321         3.03562        -1.93605
| 85>    C       -9.92147         3.47526        -1.05526
| 86>    C      -11.03271         4.18003        -1.52597
| 87>    C      -11.18813         4.45809        -2.87994
| 88>   Cl      -12.23047         4.72228        -0.42088
| 89>   Cl       -9.75375         3.16390         0.62953
| 90>    H      -13.21380        -0.47323         3.59235
| 91>    H      -10.13020         0.30313        -0.23390
| 92>    H       -8.82005        -3.09789         4.87970
| 93>    H       -7.46701        -3.04479         1.39985
| 94>    H       -4.63523        -5.83256         4.59292
| 95>    H       -2.82210        -5.51037        -1.32927
| 96>    H       -1.30132        -7.05815         0.06825
| 97>    H       -6.46095        -2.94135        -0.57535
| 98>    H       -3.84740        -3.82332        -1.89801
| 99>    H       -7.79119        -1.70653        -1.78703
|100>    H       -7.75473         0.15976        -5.53512
|101>    H       -6.06611         0.63798        -6.46942
|102>    H       -2.01939        -0.83567        -9.16439
|103>    H       -5.61363         3.70088       -11.45108
|104>    H       -3.69213         3.08775       -13.10607
|105>    H       -7.13285         3.27370        -9.25894
|106>    H       -6.50957         2.49372        -6.36044
|107>    H       -8.85823         3.93747        -7.69284
|108>    H       -8.08935         2.47620        -1.58355
|109>    H      -12.06206         4.99769        -3.20603
|110> *
|111>
|112>                          ****END OF INPUT****

CARTESIAN COORDINATES (ANGSTROEM)
---------------------------------
  C     -9.022180   -1.002060    2.138080
  C     -7.826400   -0.575590    1.605920
  C     -7.691780    0.116170    0.394360
  N     -7.481860    0.571630   -0.640650
  C     -6.587390   -0.797690    2.238750
  N     -5.563980   -0.933020    2.741220
  C    -10.338290   -0.495660    1.760120
  C    -11.234620   -0.740060    2.818030
  C    -12.540600   -0.299140    2.767950
  C    -12.968540    0.371890    1.626870
  C    -12.094130    0.575350    0.553730
  C    -10.768840    0.157020    0.620920
  Cl   -12.649240    1.338410   -0.876410
  Cl   -14.585830    0.936680    1.530490
  C    -10.550410   -1.526230    3.866830
  O    -10.994260   -1.906490    4.924800
  C     -9.194680   -1.809990    3.316750
  C     -8.443750   -2.791130    3.907330
  C     -7.317880   -3.508230    3.445390
  C     -6.864410   -3.555630    2.137280
  C     -5.739730   -4.237810    1.707160
  C     -4.952740   -5.060560    2.628600
  C     -5.234230   -5.214590    3.942670
  S     -6.535830   -4.433510    4.728040
  C     -3.905230   -5.606220    1.843590
  C     -3.991120   -5.138260    0.526710
  C     -2.964200   -5.686440   -0.279080
  C     -2.152340   -6.513760    0.428370
  S     -2.587250   -6.673740    2.095270
  C     -5.127920   -4.260290    0.422670
  C     -5.531720   -3.484140   -0.680810
  C     -4.802810   -3.327920   -1.827440
  C     -5.136230   -2.538700   -2.939840
  S     -3.983550   -2.412920   -4.261920
  C     -4.963160   -1.325360   -5.204410
  C     -6.176900   -1.098290   -4.530520
  C     -6.247880   -1.763900   -3.266010
  N     -7.450020   -1.480940   -2.706620
  C     -8.127880   -0.649210   -3.562060
  N     -9.386310   -0.157190   -3.219680
  O     -9.866280   -0.557250   -2.165930
  O     -9.928020    0.632850   -3.972810
  C     -7.395290   -0.412920   -4.706300
  C     -4.509230   -0.751230   -6.410140
  C     -5.193420    0.300230   -6.994770
  C     -4.836680    0.937000   -8.168950
  C     -3.703180    0.463560   -8.969960
  C     -2.865080   -0.521390   -8.573320
  S     -3.025300   -1.389680   -7.100390
  C     -3.727550    1.245790  -10.157930
  C     -4.799160    2.141270  -10.111930
  C     -4.872110    2.944170  -11.271130
  C     -3.879870    2.642330  -12.148720
  S     -2.818970    1.384150  -11.608800
  C     -5.490450    1.992820   -8.858820
  C     -6.613390    2.745730   -8.466860
  C     -7.087420    2.872400   -7.186820
  C     -8.299720    3.505390   -6.872830
  C     -8.826950    3.570590   -5.603180
  C    -10.073030    4.190380   -5.209990
  C    -10.979460    4.823920   -6.022710
  C    -12.177300    5.412910   -5.567090
  N    -13.164070    5.919450   -5.270310
  C    -10.858910    4.988190   -7.417580
  N    -10.838800    5.167350   -8.552450
  C    -10.208740    4.033000   -3.762340
  C     -9.097620    3.324540   -3.276670
  C     -8.199340    2.985720   -4.397970
  O     -7.165540    2.348350   -4.321580
  C     -8.943210    3.035620   -1.936050
  C     -9.921470    3.475260   -1.055260
  C    -11.032710    4.180030   -1.525970
  C    -11.188130    4.458090   -2.879940
  Cl   -12.230470    4.722280   -0.420880
  Cl    -9.753750    3.163900    0.629530
  H    -13.213800   -0.473230    3.592350
  H    -10.130200    0.303130   -0.233900
  H     -8.820050   -3.097890    4.879700
  H     -7.467010   -3.044790    1.399850
  H     -4.635230   -5.832560    4.592920
  H     -2.822100   -5.510370   -1.329270
  H     -1.301320   -7.058150    0.068250
  H     -6.460950   -2.941350   -0.575350
  H     -3.847400   -3.823320   -1.898010
  H     -7.791190   -1.706530   -1.787030
  H     -7.754730    0.159760   -5.535120
  H     -6.066110    0.637980   -6.469420
  H     -2.019390   -0.835670   -9.164390
  H     -5.613630    3.700880  -11.451080
  H     -3.692130    3.087750  -13.106070
  H     -7.132850    3.273700   -9.258940
  H     -6.509570    2.493720   -6.360440
  H     -8.858230    3.937470   -7.692840
  H     -8.089350    2.476200   -1.583550
  H    -12.062060    4.997690   -3.206030

 Total Charge           Charge          ....    0
 Multiplicity           Mult            ....    1
 Number of Electrons    NEL             ....  578
 Basis Dimension        Dim             .... 1186

ORBITAL ENERGIES
----------------

  NO   OCC          E(Eh)            E(eV)
   0   2.0000    -101.594499     -2764.5269
   1   2.0000    -101.593398     -2764.4969
   2   2.0000    -101.591923     -2764.4568
   3   2.0000    -101.585783     -2764.2897
   4   2.0000     -88.992981     -2421.6221
   5   2.0000     -88.983629     -2421.3676
   6   2.0000     -88.982256     -2421.3303
   7   2.0000     -88.971209     -2421.0297
   8   2.0000     -88.964976     -2420.8601
   9   2.0000     -19.255992      -523.9822
  10   2.0000     -19.255343      -523.9645
  11   2.0000     -19.219463      -522.9882
  12   2.0000     -19.209421      -522.7149
  13   2.0000     -14.663154      -399.0047
  14   2.0000     -14.485264      -394.1641
  15   2.0000     -14.429500      -392.6467
  16   2.0000     -14.420712      -392.4075
  17   2.0000     -14.405706      -391.9992
  18   2.0000     -14.402126      -391.9018
  19   2.0000     -10.370521      -282.1962
  20   2.0000     -10.364513      -282.0327
  21   2.0000     -10.358936      -281.8810
  22   2.0000     -10.350555      -281.6529
  23   2.0000     -10.349400      -281.6215
  24   2.0000     -10.348732      -281.6033
  25   2.0000     -10.347275      -281.5637
  26   2.0000     -10.344858      -281.4979
  27   2.0000     -10.341524      -281.4072
  28   2.0000     -10.341161      -281.3973
  29   2.0000     -10.340735      -281.3857
  30   2.0000     -10.339023      -281.3391
  31   2.0000     -10.338061      -281.3129
  32   2.0000     -10.336246      -281.2636
  33   2.0000     -10.334935      -281.2279
  34   2.0000     -10.331566      -281.1362
  35   2.0000     -10.329360      -281.0762
  36   2.0000     -10.328655      -281.0570
  37   2.0000     -10.326278      -280.9923
  38   2.0000     -10.325720      -280.9771
  39   2.0000     -10.321769      -280.8696
  40   2.0000     -10.320497      -280.8350
  41   2.0000     -10.312555      -280.6189
  42   2.0000     -10.311342      -280.5859
  43   2.0000     -10.310509      -280.5632
  44   2.0000     -10.309112      -280.5252
  45   2.0000     -10.308156      -280.4992
  46   2.0000     -10.306208      -280.4462
  47   2.0000     -10.305598      -280.4296
  48   2.0000     -10.305286      -280.4211
  49   2.0000     -10.305185      -280.4183
  50   2.0000     -10.304916      -280.4110
  51   2.0000     -10.304867      -280.4097
  52   2.0000     -10.304833      -280.4088
  53   2.0000     -10.304745      -280.4064
  54   2.0000     -10.303138      -280.3626
  55   2.0000     -10.302578      -280.3474
  56   2.0000     -10.301354      -280.3141
  57   2.0000     -10.301182      -280.3094
  58   2.0000     -10.300972      -280.3037
  59   2.0000     -10.300221      -280.2833
  60   2.0000     -10.299278      -280.2576
  61   2.0000     -10.299089      -280.2525
  62   2.0000     -10.298812      -280.2449
  63   2.0000     -10.297456      -280.2080
  64   2.0000     -10.296879      -280.1923
  65   2.0000     -10.292911      -280.0843
  66   2.0000     -10.291260      -280.0394
  67   2.0000     -10.290458      -280.0176
  68   2.0000     -10.288253      -279.9576
  69   2.0000     -10.286567      -279.9117
  70   2.0000     -10.284557      -279.8570
  71   2.0000     -10.283928      -279.8399
  72   2.0000     -10.282439      -279.7994
  73   2.0000     -10.282259      -279.7945
  74   2.0000     -10.271995      -279.5152
  75   2.0000      -9.549593      -259.8576
  76   2.0000      -9.547754      -259.8076
  77   2.0000      -9.546641      -259.7773
  78   2.0000      -9.540771      -259.6176
  79   2.0000      -8.088287      -220.0935
  80   2.0000      -8.078330      -219.8225
  81   2.0000      -8.077801      -219.8081
  82   2.0000      -8.066842      -219.5099
  83   2.0000      -8.060402      -219.3347
  84   2.0000      -7.319966      -199.1864
  85   2.0000      -7.318002      -199.1330
  86   2.0000      -7.317017      -199.1061
  87   2.0000      -7.311125      -198.9458
  88   2.0000      -7.309847      -198.9110
  89   2.0000      -7.309134      -198.8916
  90   2.0000      -7.308167      -198.8653
  91   2.0000      -7.307372      -198.8437
  92   2.0000      -7.306927      -198.8316
  93   2.0000      -7.306136      -198.8101
  94   2.0000      -7.301010      -198.6706
  95   2.0000      -7.300371      -198.6532
  96   2.0000      -6.057790      -164.8409
  97   2.0000      -6.053260      -164.7176
  98   2.0000      -6.050283      -164.6366
  99   2.0000      -6.047701      -164.5663
 100   2.0000      -6.047329      -164.5562
 101   2.0000      -6.043561      -164.4537
 102   2.0000      -6.042836      -164.4339
 103   2.0000      -6.040453      -164.3691
 104   2.0000      -6.039639      -164.3469
 105   2.0000      -6.036257      -164.2549
 106   2.0000      -6.031974      -164.1384
 107   2.0000      -6.029849      -164.0805
 108   2.0000      -6.028878      -164.0541
 109   2.0000      -6.025599      -163.9649
 110   2.0000      -6.022406      -163.8780
 111   2.0000      -1.332560       -36.2608
 112   2.0000      -1.152025       -31.3482
 113   2.0000      -1.134817       -30.8799
 114   2.0000      -1.123159       -30.5627
 115   2.0000      -1.111146       -30.2358
 116   2.0000      -1.030986       -28.0546
 117   2.0000      -1.021468       -27.7956
 118   2.0000      -1.020314       -27.7642
 119   2.0000      -1.019708       -27.7477
 120   2.0000      -1.016608       -27.6633
 121   2.0000      -1.004801       -27.3420
 122   2.0000      -1.003915       -27.3179
 123   2.0000      -1.003144       -27.2969
 124   2.0000      -0.992675       -27.0120
 125   2.0000      -0.984030       -26.7768
 126   2.0000      -0.982715       -26.7410
 127   2.0000      -0.978182       -26.6177
 128   2.0000      -0.976809       -26.5803
 129   2.0000      -0.955713       -26.0063
 130   2.0000      -0.949714       -25.8430
 131   2.0000      -0.946625       -25.7590
 132   2.0000      -0.941123       -25.6093
 133   2.0000      -0.933950       -25.4141
 134   2.0000      -0.929595       -25.2956
 135   2.0000      -0.921731       -25.0816
 136   2.0000      -0.917435       -24.9647
 137   2.0000      -0.910344       -24.7717
 138   2.0000      -0.905511       -24.6402
 139   2.0000      -0.896744       -24.4017
 140   2.0000      -0.894103       -24.3298
 141   2.0000      -0.885086       -24.0844
 142   2.0000      -0.877868       -23.8880
 143   2.0000      -0.859857       -23.3979
 144   2.0000      -0.858399       -23.3582
 145   2.0000      -0.856799       -23.3147
 146   2.0000      -0.855651       -23.2834
 147   2.0000      -0.845070       -22.9955
 148   2.0000      -0.839059       -22.8320
 149   2.0000      -0.830179       -22.5903
 150   2.0000      -0.819190       -22.2913
 151   2.0000      -0.811712       -22.0878
 152   2.0000      -0.797305       -21.6958
 153   2.0000      -0.796930       -21.6856
 154   2.0000      -0.782487       -21.2925
 155   2.0000      -0.776632       -21.1332
 156   2.0000      -0.765136       -20.8204
 157   2.0000      -0.759148       -20.6575
 158   2.0000      -0.752040       -20.4640
 159   2.0000      -0.742430       -20.2025
 160   2.0000      -0.734669       -19.9914
 161   2.0000      -0.731637       -19.9089
 162   2.0000      -0.720056       -19.5937
 163   2.0000      -0.708536       -19.2802
 164   2.0000      -0.705798       -19.2057
 165   2.0000      -0.696647       -18.9567
 166   2.0000      -0.692693       -18.8491
 167   2.0000      -0.685525       -18.6541
 168   2.0000      -0.682035       -18.5591
 169   2.0000      -0.676323       -18.4037
 170   2.0000      -0.673077       -18.3154
 171   2.0000      -0.670435       -18.2435
 172   2.0000      -0.665045       -18.0968
 173   2.0000      -0.662197       -18.0193
 174   2.0000      -0.660477       -17.9725
 175   2.0000      -0.647699       -17.6248
 176   2.0000      -0.646241       -17.5851
 177   2.0000      -0.641477       -17.4555
 178   2.0000      -0.638396       -17.3716
 179   2.0000      -0.632232       -17.2039
 180   2.0000      -0.626619       -17.0512
 181   2.0000      -0.621134       -16.9019
 182   2.0000      -0.617748       -16.8098
 183   2.0000      -0.606947       -16.5159
 184   2.0000      -0.605084       -16.4652
 185   2.0000      -0.603601       -16.4248
 186   2.0000      -0.599650       -16.3173
 187   2.0000      -0.596755       -16.2385
 188   2.0000      -0.590074       -16.0567
 189   2.0000      -0.584596       -15.9077
 190   2.0000      -0.580907       -15.8073
 191   2.0000      -0.577723       -15.7206
 192   2.0000      -0.576595       -15.6900
 193   2.0000      -0.569198       -15.4887
 194   2.0000      -0.566537       -15.4162
 195   2.0000      -0.564151       -15.3513
 196   2.0000      -0.559220       -15.2172
 197   2.0000      -0.552714       -15.0401
 198   2.0000      -0.550388       -14.9768
 199   2.0000      -0.545314       -14.8387
 200   2.0000      -0.541398       -14.7322
 201   2.0000      -0.539906       -14.6916
 202   2.0000      -0.538448       -14.6519
 203   2.0000      -0.536009       -14.5856
 204   2.0000      -0.534438       -14.5428
 205   2.0000      -0.532546       -14.4913
 206   2.0000      -0.529525       -14.4091
 207   2.0000      -0.527561       -14.3557
 208   2.0000      -0.526870       -14.3369
 209   2.0000      -0.524378       -14.2690
 210   2.0000      -0.524148       -14.2628
 211   2.0000      -0.521778       -14.1983
 212   2.0000      -0.520283       -14.1576
 213   2.0000      -0.516369       -14.0511
 214   2.0000      -0.508719       -13.8429
 215   2.0000      -0.507719       -13.8157
 216   2.0000      -0.504852       -13.7377
 217   2.0000      -0.502095       -13.6627
 218   2.0000      -0.499518       -13.5926
 219   2.0000      -0.495554       -13.4847
 220   2.0000      -0.492107       -13.3909
 221   2.0000      -0.490099       -13.3363
 222   2.0000      -0.488255       -13.2861
 223   2.0000      -0.485031       -13.1984
 224   2.0000      -0.482013       -13.1162
 225   2.0000      -0.479699       -13.0533
 226   2.0000      -0.478423       -13.0185
 227   2.0000      -0.475374       -12.9356
 228   2.0000      -0.473090       -12.8734
 229   2.0000      -0.468807       -12.7569
 230   2.0000      -0.466589       -12.6965
 231   2.0000      -0.464431       -12.6378
 232   2.0000      -0.462515       -12.5857
 233   2.0000      -0.459947       -12.5158
 234   2.0000      -0.456790       -12.4299
 235   2.0000      -0.453570       -12.3423
 236   2.0000      -0.452908       -12.3242
 237   2.0000      -0.451416       -12.2836
 238   2.0000      -0.446078       -12.1384
 239   2.0000      -0.444094       -12.0844
 240   2.0000      -0.440484       -11.9862
 241   2.0000      -0.439075       -11.9479
 242   2.0000      -0.438610       -11.9352
 243   2.0000      -0.437450       -11.9036
 244   2.0000      -0.437039       -11.8924
 245   2.0000      -0.436517       -11.8782
 246   2.0000      -0.435028       -11.8377
 247   2.0000      -0.434216       -11.8156
 248   2.0000      -0.431937       -11.7536
 249   2.0000      -0.430731       -11.7208
 250   2.0000      -0.428240       -11.6530
 251   2.0000      -0.427859       -11.6426
 252   2.0000      -0.427025       -11.6199
 253   2.0000      -0.422250       -11.4900
 254   2.0000      -0.419649       -11.4192
 255   2.0000      -0.416112       -11.3230
 256   2.0000      -0.415451       -11.3050
 257   2.0000      -0.414982       -11.2922
 258   2.0000      -0.413513       -11.2523
 259   2.0000      -0.408663       -11.1203
 260   2.0000      -0.405842       -11.0435
 261   2.0000      -0.403857       -10.9895
 262   2.0000      -0.399963       -10.8836
 263   2.0000      -0.398126       -10.8336
 264   2.0000      -0.394605       -10.7377
 265   2.0000      -0.391237       -10.6461
 266   2.0000      -0.384668       -10.4673
 267   2.0000      -0.382838       -10.4175
 268   2.0000      -0.378972       -10.3124
 269   2.0000      -0.374535       -10.1916
 270   2.0000      -0.370713       -10.0876
 271   2.0000      -0.369781       -10.0622
 272   2.0000      -0.362767        -9.8714
 273   2.0000      -0.347265        -9.4495
 274   2.0000      -0.346348        -9.4246
 275   2.0000      -0.342373        -9.3164
 276   2.0000      -0.338181        -9.2024
 277   2.0000      -0.329297        -8.9606
 278   2.0000      -0.328857        -8.9487
 279   2.0000      -0.325858        -8.8671
 280   2.0000      -0.320820        -8.7300
 281   2.0000      -0.309443        -8.4204
 282   2.0000      -0.308660        -8.3991
 283   2.0000      -0.305268        -8.3068
 284   2.0000      -0.295170        -8.0320
 285   2.0000      -0.291219        -7.9245
 286   2.0000      -0.278635        -7.5820
 287   2.0000      -0.250886        -6.8270
 288   2.0000      -0.220867        -6.0101
 289   0.0000      -0.115173        -3.1340
 290   0.0000      -0.095198        -2.5905
 291   0.0000      -0.074424        -2.0252
 292   0.0000      -0.069080        -1.8798
 293   0.0000      -0.056805        -1.5457

MULLIKEN ATOMIC CHARGES
-----------------------
   0 C :    0.265328
   1 C :   -0.388392
   2 C :   -0.120734
   3 N :    0.112818
   4 C :   -0.208356
   5 N :    0.181578
   6 C :    0.019998
   7 C :    0.008841
   8 C :   -0.043673
   9 C :    0.060486
  10 C :    0.048471
  11 C :    0.000549
  12 Cl:   -0.022477
  13 Cl:   -0.043005
  14 C :    0.137755
  15 O :   -0.135937
  16 C :   -0.134707
  17 C :    0.088700
  18 C :   -0.120254
  19 C :    0.003268
  20 C :    0.036454
  21 C :    0.065041
  22 C :   -0.115078
  23 S :    0.154691
  24 C :   -0.103519
  25 C :    0.040975
  26 C :   -0.002552
  27 C :   -0.063352
  28 S :    0.141966
  29 C :    0.100537
  30 C :   -0.005776
  31 C :    0.078218
  32 C :   -0.182095
  33 S :    0.151596
  34 C :   -0.104018
  35 C :    0.083338
  36 C :    0.138185
  37 N :   -0.021651
  38 C :    0.126359
  39 N :    0.314341
  40 O :   -0.270034
  41 O :   -0.234373
  42 C :   -0.033249
  43 C :   -0.038520
  44 C :   -0.053013
  45 C :    0.074185
  46 C :    0.063356
  47 C :   -0.129762
  48 S :    0.153372
  49 C :   -0.111560
  50 C :    0.062148
  51 C :    0.009612
  52 C :   -0.063564
  53 S :    0.133522
  54 C :    0.083779
  55 C :   -0.004676
  56 C :   -0.047508
  57 C :   -0.027645
  58 C :   -0.081986
  59 C :    0.338378
  60 C :   -0.359219
  61 C :   -0.189430
  62 N :    0.149601
  63 C :   -0.190711
  64 N :    0.136475
  65 C :    0.039072
  66 C :    0.009061
  67 C :    0.148658
  68 O :   -0.175024
  69 C :   -0.039526
  70 C :    0.048723
  71 C :    0.056598
  72 C :   -0.024845
  73 Cl:   -0.045884
  74 Cl:   -0.051512
  75 H :   -0.001958
  76 H :   -0.013430
  77 H :    0.023958
  78 H :   -0.003003
  79 H :    0.040262
  80 H :   -0.005546
  81 H :    0.030677
  82 H :   -0.088125
  83 H :   -0.050207
  84 H :    0.144403
  85 H :    0.011307
  86 H :   -0.057910
  87 H :    0.041495
  88 H :   -0.009219
  89 H :    0.031004
  90 H :   -0.000533
  91 H :    0.039554
  92 H :    0.003540
  93 H :   -0.009968
  94 H :   -0.004717
Sum of atomic charges:   -0.0000000

LOEWDIN ATOMIC CHARGES
----------------------
   0 C :    0.069477
   1 C :   -0.162796
   2 C :   -0.006209
   3 N :   -0.067932
   4 C :   -0.022467
   5 N :   -0.039001
   6 C :   -0.018964
   7 C :   -0.046638
   8 C :   -0.002805
   9 C :   -0.133531
  10 C :   -0.131469
  11 C :   -0.015426
  12 Cl:    0.182896
  13 Cl:    0.159656
  14 C :    0.084064
  15 O :   -0.137547
  16 C :   -0.101605
  17 C :    0.041162
  18 C :   -0.189165
  19 C :    0.028437
  20 C :   -0.025518
  21 C :   -0.055412
  22 C :   -0.131835
  23 S :    0.466879
  24 C :   -0.181181
  25 C :   -0.042207
  26 C :   -0.065032
  27 C :   -0.159545
  28 S :    0.435339
  29 C :   -0.015292
  30 C :   -0.031722
  31 C :   -0.036162
  32 C :   -0.191317
  33 S :    0.454244
  34 C :   -0.187917
  35 C :   -0.055633
  36 C :    0.008397
  37 N :    0.087008
  38 C :   -0.000696
  39 N :    0.293444
  40 O :   -0.224039
  41 O :   -0.191231
  42 C :   -0.006565
  43 C :   -0.169903
  44 C :   -0.012544
  45 C :    0.007758
  46 C :   -0.045143
  47 C :   -0.139155
  48 S :    0.460490
  49 C :   -0.206019
  50 C :   -0.034312
  51 C :   -0.061027
  52 C :   -0.158229
  53 S :    0.425986
  54 C :   -0.060538
  55 C :    0.039464
  56 C :   -0.059771
  57 C :    0.064457
  58 C :   -0.106525
  59 C :    0.078070
  60 C :   -0.146210
  61 C :   -0.019969
  62 N :   -0.057771
  63 C :   -0.018261
  64 N :   -0.061741
  65 C :   -0.007665
  66 C :   -0.041140
  67 C :    0.087026
  68 O :   -0.154794
  69 C :   -0.005839
  70 C :   -0.139564
  71 C :   -0.136133
  72 C :   -0.015998
  73 Cl:    0.154236
  74 Cl:    0.165205
  75 H :    0.045185
  76 H :    0.028645
  77 H :    0.042947
  78 H :    0.037539
  79 H :    0.038715
  80 H :    0.029723
  81 H :    0.026089
  82 H :    0.016936
  83 H :    0.029088
  84 H :    0.083704
  85 H :    0.038242
  86 H :    0.041575
  87 H :    0.038885
  88 H :    0.033837
  89 H :    0.025662
  90 H :    0.036476
  91 H :    0.028993
  92 H :    0.040356
  93 H :    0.035981
  94 H :    0.042841

  Mayer bond orders larger than 0.100000
B(  0-C ,  1-C ) :   1.5817 B(  0-C ,  6-C ) :   1.0171 B(  0-C , 16-C ) :   1.0683
B(  1-C ,  2-C ) :   1.1524 B(  1-C ,  4-C ) :   1.1728 B(  2-C ,  3-N ) :   2.8681
B(  4-C ,  5-N ) :   3.0015 B(  6-C ,  7-C ) :   1.3226 B(  6-C , 11-C ) :   1.3511
B(  7-C ,  8-C ) :   1.3537 B(  7-C , 14-C ) :   0.9200 B(  8-C ,  9-C ) :   1.3309
B(  8-C , 75-H ) :   1.0174 B(  9-C , 10-C ) :   1.4157 B(  9-C , 13-Cl) :   1.0468
B( 10-C , 11-C ) :   1.3496 B( 10-C , 12-Cl) :   1.0873 B( 11-C , 76-H ) :   0.9764
B( 14-C , 15-O ) :   2.2668 B( 14-C , 16-C ) :   0.9482 B( 16-C , 17-C ) :   1.6153
B( 17-C , 18-C ) :   1.1865 B( 17-C , 77-H ) :   0.9188 B( 18-C , 19-C ) :   1.4322
B( 18-C , 23-S ) :   1.0432 B( 19-C , 20-C ) :   1.3485 B( 19-C , 78-H ) :   0.9492
B( 20-C , 21-C ) :   1.0515 B( 20-C , 29-C ) :   1.2977 B( 21-C , 22-C ) :   1.5949
B( 21-C , 24-C ) :   1.1968 B( 22-C , 23-S ) :   1.1577 B( 22-C , 79-H ) :   0.9398
B( 24-C , 25-C ) :   1.4264 B( 24-C , 28-S ) :   1.0912 B( 25-C , 26-C ) :   1.1999
B( 25-C , 29-C ) :   1.1011 B( 26-C , 27-C ) :   1.6028 B( 26-C , 80-H ) :   0.9956
B( 27-C , 28-S ) :   1.1467 B( 27-C , 81-H ) :   0.9650 B( 29-C , 30-C ) :   1.2455
B( 30-C , 31-C ) :   1.5626 B( 30-C , 82-H ) :   0.9458 B( 31-C , 32-C ) :   1.2027
B( 31-C , 83-H ) :   0.9384 B( 32-C , 33-S ) :   1.1009 B( 32-C , 34-C ) :   0.1096
B( 32-C , 36-C ) :   1.3264 B( 33-S , 34-C ) :   1.1331 B( 34-C , 35-C ) :   1.3300
B( 34-C , 43-C ) :   1.1996 B( 35-C , 36-C ) :   1.2605 B( 35-C , 42-C ) :   1.1793
B( 36-C , 37-N ) :   1.2136 B( 37-N , 38-C ) :   1.1692 B( 37-N , 84-H ) :   0.9008
B( 38-C , 39-N ) :   0.9525 B( 38-C , 42-C ) :   1.5111 B( 39-N , 40-O ) :   1.4341
B( 39-N , 41-O ) :   1.5221 B( 40-O , 41-O ) :   0.2461 B( 42-C , 85-H ) :   0.9849
B( 43-C , 44-C ) :   1.4700 B( 43-C , 48-S ) :   1.0602 B( 44-C , 45-C ) :   1.2955
B( 44-C , 86-H ) :   0.9619 B( 45-C , 46-C ) :   1.0651 B( 45-C , 54-C ) :   1.3130
B( 46-C , 47-C ) :   1.5948 B( 46-C , 49-C ) :   1.1727 B( 47-C , 48-S ) :   1.1464
B( 47-C , 87-H ) :   0.9398 B( 49-C , 50-C ) :   1.4390 B( 49-C , 53-S ) :   1.0772
B( 50-C , 51-C ) :   1.2283 B( 50-C , 54-C ) :   1.0907 B( 51-C , 52-C ) :   1.5825
B( 51-C , 88-H ) :   0.9993 B( 52-C , 53-S ) :   1.1562 B( 52-C , 89-H ) :   0.9662
B( 54-C , 55-C ) :   1.1906 B( 55-C , 56-C ) :   1.4686 B( 55-C , 90-H ) :   0.9763
B( 56-C , 57-C ) :   1.2214 B( 56-C , 91-H ) :   0.9698 B( 57-C , 58-C ) :   1.4724
B( 57-C , 92-H ) :   0.9636 B( 58-C , 59-C ) :   1.0834 B( 58-C , 67-C ) :   0.9736
B( 59-C , 60-C ) :   1.6110 B( 59-C , 65-C ) :   0.9889 B( 60-C , 61-C ) :   1.1419
B( 60-C , 63-C ) :   1.1530 B( 61-C , 62-N ) :   2.9706 B( 63-C , 64-N ) :   2.9570
B( 65-C , 66-C ) :   1.3308 B( 65-C , 72-C ) :   1.3398 B( 66-C , 67-C ) :   0.9470
B( 66-C , 69-C ) :   1.3421 B( 67-C , 68-O ) :   2.1172 B( 69-C , 70-C ) :   1.3394
B( 69-C , 93-H ) :   0.9988 B( 70-C , 71-C ) :   1.4125 B( 70-C , 74-Cl) :   1.0369
B( 71-C , 72-C ) :   1.3524 B( 71-C , 73-Cl) :   1.0675 B( 72-C , 94-H ) :   0.9861

-----------------------------------------------------------------------------
         ABSORPTION SPECTRUM VIA TRANSITION ELECTRIC DIPOLE MOMENTS
-----------------------------------------------------------------------------
State   Energy  Wavelength   fosc         T2         TX        TY        TZ
        (cm-1)    (nm)                  (au**2)     (au)      (au)      (au)
-----------------------------------------------------------------------------
   0    8489.8   1177.9   0.410711476  15.92623   0.45966   1.73814  -3.56284
   1   12326.2    811.3   0.293723036   7.84487   1.52671  -2.34012   0.19460
   2   15795.9    633.1   0.078858108   1.64353   0.77793  -0.89740  -0.48274
   3   16562.8    603.8   0.321964005   6.39955  -1.90253   1.12088   1.23433
   4   18742.4    533.5   0.321988216   5.65574  -0.85302  -0.30480   2.19891
   5   20019.0    499.5   0.273925238   4.50468  -0.16933  -0.95318   1.88877
   6   20791.3    481.0   0.075406680   1.19400   0.94497  -0.54302  -0.07845
   7   20982.0    476.6   0.024549388   0.38519   0.34290  -0.51726   0.00683
   8   21682.3    461.2   0.018289306   0.27769  -0.20471  -0.16918   0.45516
   9   22229.9    449.8   0.037289250   0.55223   0.09225   0.16075  -0.71964
  10   23510.3    425.3   0.090596286   1.26861  -0.55331   0.82696  -0.52783
  11   23762.8    420.8   0.724982886  10.04398  -2.33730   0.80898   1.98155
  12   24960.2    400.6   0.338746759   4.46789  -0.71467   1.45949  -1.35167
  13   25110.9    398.2   0.125697578   1.64794   0.47353  -0.66742   0.98907
  14   26076.1    383.5   0.033397581   0.42165  -0.47098   0.22226  -0.38784
  15   26150.2    382.4   0.084821342   1.06784  -0.33910   0.81254  -0.54095
  16   26561.7    376.5   0.011675909   0.14471   0.02423  -0.36689  -0.09756
  17   27003.2    370.3   0.053568761   0.65309   0.73505  -0.13328   0.30826
  18   27211.0    367.5   0.090481096   1.09468   0.97103  -0.30017  -0.24836
  19   28002.9    357.1   0.022867116   0.26883  -0.25137  -0.23822   0.38587
  20   28408.5    352.0   0.212465896   2.46216  -1.31034   0.61942   0.60123
  21   28543.6    350.3   0.107936196   1.24490  -1.01516   0.44539   0.12638
  22   29063.1    344.1   0.045016937   0.50993  -0.06975   0.06333   0.70785
  23   29460.0    339.4   0.040232708   0.44960   0.28204  -0.24391   0.55728
  24   29767.2    335.9   0.042813133   0.47349   0.19140  -0.32155   0.57747
  25   29798.8    335.6   0.029499491   0.32591   0.44142  -0.01723   0.36160
  26   30102.5    332.2   0.265898654   2.90797   0.53762  -0.92541   1.32761
  27   30396.2    329.0   0.012612823   0.13661  -0.26196   0.24619   0.08587
  28   30708.5    325.6   0.019287818   0.20678  -0.34426   0.25938  -0.14486
  29   31006.4    322.5   0.035880008   0.38096   0.34470  -0.20199   0.47047
  30   31127.9    321.3   0.025953232   0.27448  -0.45812   0.06173   0.24658
  31   31443.5    318.0   0.173296275   1.81440   0.57231   0.17499  -1.20675
  32   31715.0    315.3   0.207017852   2.14891  -1.32481   0.15565   0.60792
  33   31787.3    314.6   0.017387785   0.18008  -0.14923  -0.34094   0.20389
  34   32055.9    312.0   0.034024030   0.34942   0.29942  -0.14023   0.49001
  35   32066.4    311.9   0.050339335   0.51681  -0.58835   0.15119  -0.38444
  36   32278.1    309.8   0.001200657   0.01225  -0.08065  -0.07571  -0.00296
  37   32354.9    309.1   0.037327664   0.37981   0.07386   0.45549  -0.40851
  38   32731.2    305.5   0.093747540   0.94292  -0.86025   0.44977   0.02442
  39   33217.0    301.1   0.202421162   2.00618  -1.24952   0.66296  -0.07318
  40   33451.1    298.9   0.041638279   0.40979  -0.50409   0.35623  -0.16965
  41   33845.3    295.5   0.133986816   1.30328   1.08430  -0.29704   0.19836
  42   33952.6    294.5   0.005479167   0.05313  -0.15039  -0.16026  -0.06948
  43   34125.4    293.0   0.089412300   0.86257   0.43263  -0.03310  -0.82116
  44   34274.1    291.8   0.022455991   0.21570   0.46360   0.00445  -0.02739
  45   34411.0    290.6   0.186673474   1.78591   1.06127  -0.67793  -0.44725
  46   34524.1    289.7   0.287872613   2.74507  -0.20939  -0.91258   1.36690
  47   34605.2    289.0   0.060075972   0.57152  -0.18207   0.30582  -0.66697
  48   34888.7    286.6   0.039633395   0.37398   0.10018   0.06336   0.59994
  49   35011.9    285.6   0.035906086   0.33762   0.43324  -0.07632   0.37960
  50   35149.2    284.5   0.036422629   0.34114   0.53622  -0.18214   0.14294
  51   35184.1    284.2   0.062912206   0.58866  -0.42387   0.01110  -0.63943
  52   35336.1    283.0   0.142794943   1.33036  -0.96185   0.49100  -0.40513
  53   35491.3    281.8   0.008799737   0.08162  -0.07446   0.15952  -0.22502
  54   35679.3    280.3   0.006621333   0.06109   0.06536  -0.09453  -0.21883
  55   35848.9    278.9   0.090481762   0.83092  -0.72360   0.54774  -0.08547
  56   36118.2    276.9   0.466451292   4.25163  -1.40321   0.02280   1.51067
  57   36422.7    274.6   0.006900790   0.06237   0.23611  -0.08064  -0.01117
  58   36475.8    274.2   0.035159168   0.31733  -0.53115   0.15227   0.10968
  59   36917.4    270.9   0.163719266   1.45997  -0.10237   0.67949  -0.99387
  60   37099.4    269.5   0.118753662   1.05379   0.48435  -0.56860   0.70419
  61   37307.9    268.0   0.081861136   0.72236  -0.60033   0.40997   0.44032
  62   37387.9    267.5   0.016676366   0.14684  -0.27604   0.07999  -0.25347
  63   37575.6    266.1   0.012935153   0.11333   0.18988  -0.15867   0.22825
  64   37764.1    264.8   0.045018758   0.39246  -0.45415   0.42132  -0.09323
  65   38061.5    262.7   0.189089786   1.63553   1.02886  -0.74259   0.15981
  66   38144.3    262.2   0.046271149   0.39935  -0.49392   0.17286  -0.35428
  67   38304.6    261.1   0.078031351   0.67065  -0.66143   0.37412   0.30527
  68   38495.3    259.8   0.163747961   1.40037   1.03566  -0.57245  -0.00849
  69   38594.4    259.1   0.011774008   0.10043   0.16387  -0.21171   0.16957
  70   38953.4    256.7   0.081336068   0.68741  -0.01692   0.37136  -0.74109
  71   39401.0    253.8   0.059248615   0.49505   0.32607  -0.05695  -0.62087
  72   39539.9    252.9   0.093043111   0.77468   0.60813  -0.28409  -0.56934
  73   39689.9    252.0   0.089762109   0.74454  -0.11425  -0.27246   0.81071
  74   39830.4    251.1   0.006478702   0.05355  -0.22945  -0.02677  -0.01367
  75   39879.6    250.8   0.108129353   0.89262   0.18724   0.30461  -0.87452
  76   40169.7    248.9   0.031483788   0.25803   0.00394   0.14248  -0.48756
  77   40285.4    248.2   0.019285151   0.15760   0.22262  -0.18089  -0.27444

FINAL SINGLE POINT ENERGY     -6602.270510535250

DIPOLE MOMENT
-------------
                                X             Y             Z
Electronic contribution:    -38.59331      17.90260      30.84534
Nuclear contribution   :     42.65699     -22.04048     -31.23862
                        -----------------------------------------
Total Dipole Moment    :      4.06368      -4.13787      -0.39327
                        -----------------------------------------
Magnitude (a.u.)       :      5.81293
Magnitude (Debye)      :     14.77530

Rotational constants in cm-1:     0.000841     0.000589     0.000362
Rotational constants in MHz :    25.224956    17.670423    10.861126

                             ****ORCA TERMINATED NORMALLY****
TOTAL RUN TIME: 0 days 0 hours 17 minutes 52 seconds 973 msec
