                         Program Version 4.2.0 -  RELEASE  -
|  1> # ORCA input file
|  2> # SCF done       -194.417128878749          0.000490209740
|  3> ! CAM-B3LYP def2-SVP def2/J RIJCOSX Grid4 TightSCF
|  4> %maxcore 5000
|  5> %tddft
|  6>     Mode sTDDFT
|  7>     Ethresh 5.0
|  8>     maxcore 5000
|  9> end
| 10>
| 11> %pal
| 12>   nprocs 6
| 13>   end
| 14> * xyz 0 1
| 15>    C       -9.79078        -0.61378        -0.54458
| 16>    C       -9.40377        -1.45499         0.46736
| 17>    C      -10.30192        -2.11904         1.32536
| 18>    N      -10.99128        -2.66625         2.06241
| 19>    C       -8.06062        -1.82543         0.68347
| 20>    N       -6.98435        -2.19087         0.84661
| 21>    C      -11.15623        -0.45899        -1.04005
| 22>    C      -11.10373         0.03356        -2.35703
| 23>    C      -12.24988         0.23734        -3.09723
| 24>    C      -13.47579        -0.04538        -2.50615
| 25>    C      -13.53486        -0.52436        -1.19322
| 26>    C      -12.37734        -0.74007        -0.45287
| 27>   Cl      -15.05846        -0.85460        -0.47275
| 28>   Cl      -14.92486         0.19793        -3.39603
| 29>    C       -9.69238         0.27939        -2.73875
| 30>    O       -9.26908         0.65686        -3.80630
| 31>    C       -8.91476         0.02271        -1.50138
| 32>    C       -7.62856         0.46420        -1.39349
| 33>    C       -6.88156         0.72467        -0.22651
| 34>    S       -7.58687         1.04581         1.33796
| 35>    C       -6.04704         1.33263         2.02427
| 36>    C       -5.03077         1.19114         1.13389
| 37>    C       -5.49267         0.86356        -0.16273
| 38>    O       -4.74666         0.69219        -1.26370
| 39>    C       -3.42605         0.37655        -1.13737
| 40>    C       -2.58814         0.54759        -2.16611
| 41>    C       -1.18384         0.20606        -2.17970
| 42>    C       -0.39121         0.68953        -3.19590
| 43>    C        0.98921         0.40500        -3.23012
| 44>    C        1.99370         0.77372        -4.11595
| 45>    C        1.90602         1.57380        -5.36687
| 46>    C        0.75140         1.11767        -6.29730
| 47>    N        0.95782         1.40835        -7.69758
| 48>    C        1.79694         3.07687        -5.04912
| 49>    N        3.06612         3.55574        -4.53138
| 50>    C        3.22714         0.23086        -3.59397
| 51>    C        4.49912         0.37088        -4.00771
| 52>    C        5.63057        -0.23411        -3.24518
| 53>    C        5.21745        -1.14062        -2.12766
| 54>    C        3.94133        -1.24196        -1.71050
| 55>    C        2.91428        -0.54159        -2.38546
| 56>    C        1.55664        -0.41601        -2.16692
| 57>    C        0.71537        -0.92323        -1.15122
| 58>    C       -0.60720        -0.62062        -1.16080
| 59>    C        6.42402         0.89269        -2.62847
| 60>    C        7.64113         1.25724        -3.02837
| 61>    C        8.43663         2.28357        -2.40133
| 62>    S        8.22618         2.72178        -0.73513
| 63>    C        9.56106         3.80239        -0.79476
| 64>    C       10.14066         3.84439        -2.01957
| 65>    C        9.49673         2.98494        -2.94211
| 66>    O        9.91296         2.90808        -4.24590
| 67>    C        8.98267         2.80420        -5.19257
| 68>    C        9.26455         2.52072        -6.48594
| 69>    C        8.20137         2.42431        -7.40857
| 70>    C        8.30551         2.13938        -8.74103
| 71>    C        7.20941         2.00079        -9.67470
| 72>    C        5.86514         2.01167        -9.38099
| 73>    C        4.83866         1.86363       -10.33610
| 74>    N        3.94435         1.75257       -11.04761
| 75>    C        5.30976         2.14666        -8.09793
| 76>    N        4.76737         2.23788        -7.08644
| 77>    C        7.78368         1.80251       -11.00004
| 78>    C        9.18622         1.77338       -10.89141
| 79>    C        9.57858         1.96267        -9.47650
| 80>    O       10.70560         1.97498        -9.03225
| 81>    C        9.99664         1.59469       -11.99273
| 82>    C        9.39594         1.44311       -13.23688
| 83>    C        8.00172         1.47257       -13.35483
| 84>    C        7.18764         1.65066       -12.24236
| 85>   Cl        7.27257         1.28703       -14.89914
| 86>   Cl       10.37091         1.22025       -14.63249
| 87>    H      -12.19432         0.60532        -4.10948
| 88>    H      -12.45447        -1.10767         0.55760
| 89>    H       -7.13594         0.72400        -2.32553
| 90>    H       -5.97653         1.60455         3.05879
| 91>    H       -3.99833         1.35565         1.38388
| 92>    H       -3.12678        -0.03372        -0.18281
| 93>    H       -2.98321         0.99879        -3.06616
| 94>    H       -0.82991         1.31123        -3.96090
| 95>    H        2.83951         1.43307        -5.92289
| 96>    H       -0.18130         1.60279        -6.00262
| 97>    H        0.62042         0.03721        -6.19987
| 98>    H        1.78077         0.93330        -8.05175
| 99>    H        1.08477         2.40275        -7.85004
|100>    H        1.03446         3.23771        -4.28153
|101>    H        1.47711         3.60818        -5.96406
|102>    H        3.00576         4.54108        -4.29936
|103>    H        3.78279         3.44324        -5.24216
|104>    H        4.76199         0.96200        -4.87312
|105>    H        6.28428        -0.77080        -3.94506
|106>    H        6.01696        -1.66568        -1.62752
|107>    H        3.68459        -1.87254        -0.87143
|108>    H        1.13490        -1.54899        -0.37698
|109>    H       -1.25204        -1.02405        -0.39633
|110>    H        5.93870         1.40250        -1.80826
|111>    H        8.10792         0.76059        -3.87252
|112>    H        9.83205         4.35137         0.08417
|113>    H       10.98367         4.45528        -2.28264
|114>    H        7.95306         2.97348        -4.88390
|115>    H       10.27801         2.35392        -6.81331
|116>    H        7.21299         2.58981        -6.99937
|117>    H       11.06990         1.57400       -11.88825
|118>    H        6.11785         1.66911       -12.37178
|119> *
|120>
|121>                          ****END OF INPUT****

CARTESIAN COORDINATES (ANGSTROEM)
---------------------------------
  C     -9.790780   -0.613780   -0.544580
  C     -9.403770   -1.454990    0.467360
  C    -10.301920   -2.119040    1.325360
  N    -10.991280   -2.666250    2.062410
  C     -8.060620   -1.825430    0.683470
  N     -6.984350   -2.190870    0.846610
  C    -11.156230   -0.458990   -1.040050
  C    -11.103730    0.033560   -2.357030
  C    -12.249880    0.237340   -3.097230
  C    -13.475790   -0.045380   -2.506150
  C    -13.534860   -0.524360   -1.193220
  C    -12.377340   -0.740070   -0.452870
  Cl   -15.058460   -0.854600   -0.472750
  Cl   -14.924860    0.197930   -3.396030
  C     -9.692380    0.279390   -2.738750
  O     -9.269080    0.656860   -3.806300
  C     -8.914760    0.022710   -1.501380
  C     -7.628560    0.464200   -1.393490
  C     -6.881560    0.724670   -0.226510
  S     -7.586870    1.045810    1.337960
  C     -6.047040    1.332630    2.024270
  C     -5.030770    1.191140    1.133890
  C     -5.492670    0.863560   -0.162730
  O     -4.746660    0.692190   -1.263700
  C     -3.426050    0.376550   -1.137370
  C     -2.588140    0.547590   -2.166110
  C     -1.183840    0.206060   -2.179700
  C     -0.391210    0.689530   -3.195900
  C      0.989210    0.405000   -3.230120
  C      1.993700    0.773720   -4.115950
  C      1.906020    1.573800   -5.366870
  C      0.751400    1.117670   -6.297300
  N      0.957820    1.408350   -7.697580
  C      1.796940    3.076870   -5.049120
  N      3.066120    3.555740   -4.531380
  C      3.227140    0.230860   -3.593970
  C      4.499120    0.370880   -4.007710
  C      5.630570   -0.234110   -3.245180
  C      5.217450   -1.140620   -2.127660
  C      3.941330   -1.241960   -1.710500
  C      2.914280   -0.541590   -2.385460
  C      1.556640   -0.416010   -2.166920
  C      0.715370   -0.923230   -1.151220
  C     -0.607200   -0.620620   -1.160800
  C      6.424020    0.892690   -2.628470
  C      7.641130    1.257240   -3.028370
  C      8.436630    2.283570   -2.401330
  S      8.226180    2.721780   -0.735130
  C      9.561060    3.802390   -0.794760
  C     10.140660    3.844390   -2.019570
  C      9.496730    2.984940   -2.942110
  O      9.912960    2.908080   -4.245900
  C      8.982670    2.804200   -5.192570
  C      9.264550    2.520720   -6.485940
  C      8.201370    2.424310   -7.408570
  C      8.305510    2.139380   -8.741030
  C      7.209410    2.000790   -9.674700
  C      5.865140    2.011670   -9.380990
  C      4.838660    1.863630  -10.336100
  N      3.944350    1.752570  -11.047610
  C      5.309760    2.146660   -8.097930
  N      4.767370    2.237880   -7.086440
  C      7.783680    1.802510  -11.000040
  C      9.186220    1.773380  -10.891410
  C      9.578580    1.962670   -9.476500
  O     10.705600    1.974980   -9.032250
  C      9.996640    1.594690  -11.992730
  C      9.395940    1.443110  -13.236880
  C      8.001720    1.472570  -13.354830
  C      7.187640    1.650660  -12.242360
  Cl     7.272570    1.287030  -14.899140
  Cl    10.370910    1.220250  -14.632490
  H    -12.194320    0.605320   -4.109480
  H    -12.454470   -1.107670    0.557600
  H     -7.135940    0.724000   -2.325530
  H     -5.976530    1.604550    3.058790
  H     -3.998330    1.355650    1.383880
  H     -3.126780   -0.033720   -0.182810
  H     -2.983210    0.998790   -3.066160
  H     -0.829910    1.311230   -3.960900
  H      2.839510    1.433070   -5.922890
  H     -0.181300    1.602790   -6.002620
  H      0.620420    0.037210   -6.199870
  H      1.780770    0.933300   -8.051750
  H      1.084770    2.402750   -7.850040
  H      1.034460    3.237710   -4.281530
  H      1.477110    3.608180   -5.964060
  H      3.005760    4.541080   -4.299360
  H      3.782790    3.443240   -5.242160
  H      4.761990    0.962000   -4.873120
  H      6.284280   -0.770800   -3.945060
  H      6.016960   -1.665680   -1.627520
  H      3.684590   -1.872540   -0.871430
  H      1.134900   -1.548990   -0.376980
  H     -1.252040   -1.024050   -0.396330
  H      5.938700    1.402500   -1.808260
  H      8.107920    0.760590   -3.872520
  H      9.832050    4.351370    0.084170
  H     10.983670    4.455280   -2.282640
  H      7.953060    2.973480   -4.883900
  H     10.278010    2.353920   -6.813310
  H      7.212990    2.589810   -6.999370
  H     11.069900    1.574000  -11.888250
  H      6.117850    1.669110  -12.371780

 Total Charge           Charge          ....    0
 Multiplicity           Mult            ....    1
 Number of Electrons    NEL             ....  542
 Basis Dimension        Dim             .... 1192

ORBITAL ENERGIES
----------------

  NO   OCC          E(Eh)            E(eV)
   0   2.0000    -101.606943     -2764.8655
   1   2.0000    -101.604844     -2764.8084
   2   2.0000    -101.595314     -2764.5490
   3   2.0000    -101.594685     -2764.5319
   4   2.0000     -88.971425     -2421.0356
   5   2.0000     -88.971399     -2421.0349
   6   2.0000     -19.311455      -525.4914
   7   2.0000     -19.283946      -524.7428
   8   2.0000     -19.228858      -523.2438
   9   2.0000     -19.211776      -522.7790
  10   2.0000     -14.442297      -392.9949
  11   2.0000     -14.426379      -392.5617
  12   2.0000     -14.412660      -392.1884
  13   2.0000     -14.409415      -392.1001
  14   2.0000     -14.364652      -390.8821
  15   2.0000     -14.362657      -390.8278
  16   2.0000     -10.383641      -282.5532
  17   2.0000     -10.379846      -282.4500
  18   2.0000     -10.364157      -282.0230
  19   2.0000     -10.364114      -282.0219
  20   2.0000     -10.363278      -281.9991
  21   2.0000     -10.363001      -281.9916
  22   2.0000     -10.358054      -281.8570
  23   2.0000     -10.355342      -281.7832
  24   2.0000     -10.354017      -281.7471
  25   2.0000     -10.351465      -281.6777
  26   2.0000     -10.350644      -281.6554
  27   2.0000     -10.348175      -281.5881
  28   2.0000     -10.340329      -281.3747
  29   2.0000     -10.339182      -281.3434
  30   2.0000     -10.332921      -281.1731
  31   2.0000     -10.331116      -281.1240
  32   2.0000     -10.329409      -281.0775
  33   2.0000     -10.323787      -280.9245
  34   2.0000     -10.320843      -280.8444
  35   2.0000     -10.318335      -280.7762
  36   2.0000     -10.317491      -280.7532
  37   2.0000     -10.317418      -280.7512
  38   2.0000     -10.316645      -280.7302
  39   2.0000     -10.315027      -280.6861
  40   2.0000     -10.311724      -280.5963
  41   2.0000     -10.311022      -280.5772
  42   2.0000     -10.310760      -280.5701
  43   2.0000     -10.309721      -280.5418
  44   2.0000     -10.309590      -280.5382
  45   2.0000     -10.304896      -280.4105
  46   2.0000     -10.304350      -280.3956
  47   2.0000     -10.304223      -280.3922
  48   2.0000     -10.296412      -280.1796
  49   2.0000     -10.294143      -280.1179
  50   2.0000     -10.293778      -280.1079
  51   2.0000     -10.292554      -280.0746
  52   2.0000     -10.292313      -280.0681
  53   2.0000     -10.291539      -280.0470
  54   2.0000     -10.291147      -280.0363
  55   2.0000     -10.290181      -280.0100
  56   2.0000     -10.289107      -279.9808
  57   2.0000     -10.271750      -279.5085
  58   2.0000     -10.271207      -279.4937
  59   2.0000     -10.268861      -279.4299
  60   2.0000     -10.266964      -279.3783
  61   2.0000     -10.266286      -279.3598
  62   2.0000     -10.263140      -279.2742
  63   2.0000     -10.262585      -279.2591
  64   2.0000     -10.260669      -279.2070
  65   2.0000     -10.260525      -279.2031
  66   2.0000     -10.258791      -279.1559
  67   2.0000     -10.253190      -279.0035
  68   2.0000     -10.252454      -278.9835
  69   2.0000     -10.251077      -278.9460
  70   2.0000     -10.248852      -278.8855
  71   2.0000     -10.246378      -278.8181
  72   2.0000      -9.562009      -260.1955
  73   2.0000      -9.559851      -260.1368
  74   2.0000      -9.550368      -259.8787
  75   2.0000      -9.549731      -259.8614
  76   2.0000      -8.067136      -219.5179
  77   2.0000      -8.066623      -219.5040
  78   2.0000      -7.332398      -199.5247
  79   2.0000      -7.330288      -199.4673
  80   2.0000      -7.322277      -199.2493
  81   2.0000      -7.321510      -199.2284
  82   2.0000      -7.320752      -199.2078
  83   2.0000      -7.320119      -199.1906
  84   2.0000      -7.320072      -199.1893
  85   2.0000      -7.319362      -199.1700
  86   2.0000      -7.310613      -198.9319
  87   2.0000      -7.309979      -198.9146
  88   2.0000      -7.309917      -198.9130
  89   2.0000      -7.309277      -198.8955
  90   2.0000      -6.036503      -164.2616
  91   2.0000      -6.036035      -164.2489
  92   2.0000      -6.032181      -164.1440
  93   2.0000      -6.031760      -164.1325
  94   2.0000      -6.029257      -164.0644
  95   2.0000      -6.028626      -164.0472
  96   2.0000      -1.220257       -33.2049
  97   2.0000      -1.194294       -32.4984
  98   2.0000      -1.143418       -31.1140
  99   2.0000      -1.127185       -30.6723
 100   2.0000      -1.040723       -28.3195
 101   2.0000      -1.032650       -28.0998
 102   2.0000      -1.026498       -27.9324
 103   2.0000      -1.011984       -27.5375
 104   2.0000      -1.011716       -27.5302
 105   2.0000      -1.001161       -27.2430
 106   2.0000      -0.999637       -27.2015
 107   2.0000      -0.998292       -27.1649
 108   2.0000      -0.988011       -26.8851
 109   2.0000      -0.985199       -26.8086
 110   2.0000      -0.973258       -26.4837
 111   2.0000      -0.968158       -26.3449
 112   2.0000      -0.957023       -26.0419
 113   2.0000      -0.953644       -25.9500
 114   2.0000      -0.948533       -25.8109
 115   2.0000      -0.940579       -25.5945
 116   2.0000      -0.937934       -25.5225
 117   2.0000      -0.932274       -25.3685
 118   2.0000      -0.929544       -25.2942
 119   2.0000      -0.915061       -24.9001
 120   2.0000      -0.902393       -24.5554
 121   2.0000      -0.901969       -24.5438
 122   2.0000      -0.889794       -24.2125
 123   2.0000      -0.877480       -23.8774
 124   2.0000      -0.871054       -23.7026
 125   2.0000      -0.869848       -23.6698
 126   2.0000      -0.866345       -23.5744
 127   2.0000      -0.857499       -23.3337
 128   2.0000      -0.855693       -23.2846
 129   2.0000      -0.837604       -22.7924
 130   2.0000      -0.831414       -22.6239
 131   2.0000      -0.827746       -22.5241
 132   2.0000      -0.823448       -22.4071
 133   2.0000      -0.816932       -22.2298
 134   2.0000      -0.808760       -22.0075
 135   2.0000      -0.789406       -21.4808
 136   2.0000      -0.780896       -21.2493
 137   2.0000      -0.774873       -21.0854
 138   2.0000      -0.769177       -20.9304
 139   2.0000      -0.757248       -20.6058
 140   2.0000      -0.746513       -20.3136
 141   2.0000      -0.742864       -20.2144
 142   2.0000      -0.732383       -19.9292
 143   2.0000      -0.716889       -19.5076
 144   2.0000      -0.710249       -19.3268
 145   2.0000      -0.709020       -19.2934
 146   2.0000      -0.707168       -19.2430
 147   2.0000      -0.700452       -19.0603
 148   2.0000      -0.695284       -18.9196
 149   2.0000      -0.691565       -18.8184
 150   2.0000      -0.681565       -18.5463
 151   2.0000      -0.681472       -18.5438
 152   2.0000      -0.680954       -18.5297
 153   2.0000      -0.670151       -18.2357
 154   2.0000      -0.666654       -18.1406
 155   2.0000      -0.663489       -18.0545
 156   2.0000      -0.653549       -17.7840
 157   2.0000      -0.646934       -17.6040
 158   2.0000      -0.640762       -17.4360
 159   2.0000      -0.637344       -17.3430
 160   2.0000      -0.636857       -17.3298
 161   2.0000      -0.628062       -17.0904
 162   2.0000      -0.625571       -17.0227
 163   2.0000      -0.617087       -16.7918
 164   2.0000      -0.613566       -16.6960
 165   2.0000      -0.602942       -16.4069
 166   2.0000      -0.597747       -16.2655
 167   2.0000      -0.595580       -16.2066
 168   2.0000      -0.589238       -16.0340
 169   2.0000      -0.586317       -15.9545
 170   2.0000      -0.573217       -15.5980
 171   2.0000      -0.571166       -15.5422
 172   2.0000      -0.570846       -15.5335
 173   2.0000      -0.566402       -15.4126
 174   2.0000      -0.564442       -15.3593
 175   2.0000      -0.559972       -15.2376
 176   2.0000      -0.557122       -15.1601
 177   2.0000      -0.556474       -15.1424
 178   2.0000      -0.554345       -15.0845
 179   2.0000      -0.552707       -15.0399
 180   2.0000      -0.549663       -14.9571
 181   2.0000      -0.546023       -14.8581
 182   2.0000      -0.544638       -14.8203
 183   2.0000      -0.541739       -14.7415
 184   2.0000      -0.540874       -14.7179
 185   2.0000      -0.537905       -14.6371
 186   2.0000      -0.537204       -14.6181
 187   2.0000      -0.532674       -14.4948
 188   2.0000      -0.530635       -14.4393
 189   2.0000      -0.528820       -14.3899
 190   2.0000      -0.520326       -14.1588
 191   2.0000      -0.519621       -14.1396
 192   2.0000      -0.518373       -14.1057
 193   2.0000      -0.516183       -14.0460
 194   2.0000      -0.514253       -13.9935
 195   2.0000      -0.510838       -13.9006
 196   2.0000      -0.510094       -13.8804
 197   2.0000      -0.508497       -13.8369
 198   2.0000      -0.506454       -13.7813
 199   2.0000      -0.505661       -13.7597
 200   2.0000      -0.502926       -13.6853
 201   2.0000      -0.500726       -13.6254
 202   2.0000      -0.492961       -13.4142
 203   2.0000      -0.492501       -13.4016
 204   2.0000      -0.489326       -13.3152
 205   2.0000      -0.486392       -13.2354
 206   2.0000      -0.484052       -13.1717
 207   2.0000      -0.480890       -13.0857
 208   2.0000      -0.480283       -13.0692
 209   2.0000      -0.476417       -12.9640
 210   2.0000      -0.475239       -12.9319
 211   2.0000      -0.474403       -12.9092
 212   2.0000      -0.471722       -12.8362
 213   2.0000      -0.470490       -12.8027
 214   2.0000      -0.467648       -12.7254
 215   2.0000      -0.464988       -12.6530
 216   2.0000      -0.463021       -12.5994
 217   2.0000      -0.460002       -12.5173
 218   2.0000      -0.456600       -12.4247
 219   2.0000      -0.455009       -12.3814
 220   2.0000      -0.452574       -12.3152
 221   2.0000      -0.449635       -12.2352
 222   2.0000      -0.445544       -12.1239
 223   2.0000      -0.445113       -12.1121
 224   2.0000      -0.442561       -12.0427
 225   2.0000      -0.441918       -12.0252
 226   2.0000      -0.439616       -11.9626
 227   2.0000      -0.435784       -11.8583
 228   2.0000      -0.434970       -11.8361
 229   2.0000      -0.434503       -11.8234
 230   2.0000      -0.433129       -11.7860
 231   2.0000      -0.430648       -11.7185
 232   2.0000      -0.428845       -11.6695
 233   2.0000      -0.427192       -11.6245
 234   2.0000      -0.425641       -11.5823
 235   2.0000      -0.424987       -11.5645
 236   2.0000      -0.424601       -11.5540
 237   2.0000      -0.422579       -11.4989
 238   2.0000      -0.419536       -11.4162
 239   2.0000      -0.415152       -11.2969
 240   2.0000      -0.413495       -11.2518
 241   2.0000      -0.411071       -11.1858
 242   2.0000      -0.407763       -11.0958
 243   2.0000      -0.404769       -11.0143
 244   2.0000      -0.397225       -10.8090
 245   2.0000      -0.394963       -10.7475
 246   2.0000      -0.390764       -10.6332
 247   2.0000      -0.387694       -10.5497
 248   2.0000      -0.386114       -10.5067
 249   2.0000      -0.380361       -10.3502
 250   2.0000      -0.377153       -10.2629
 251   2.0000      -0.372789       -10.1441
 252   2.0000      -0.362412        -9.8617
 253   2.0000      -0.357236        -9.7209
 254   2.0000      -0.351708        -9.5705
 255   2.0000      -0.349440        -9.5088
 256   2.0000      -0.348599        -9.4859
 257   2.0000      -0.337163        -9.1747
 258   2.0000      -0.335084        -9.1181
 259   2.0000      -0.332088        -9.0366
 260   2.0000      -0.325758        -8.8643
 261   2.0000      -0.321419        -8.7463
 262   2.0000      -0.317822        -8.6484
 263   2.0000      -0.306445        -8.3388
 264   2.0000      -0.303334        -8.2541
 265   2.0000      -0.292428        -7.9574
 266   2.0000      -0.289190        -7.8693
 267   2.0000      -0.284985        -7.7548
 268   2.0000      -0.282141        -7.6774
 269   2.0000      -0.265901        -7.2355
 270   2.0000      -0.210915        -5.7393
 271   0.0000      -0.099911        -2.7187
 272   0.0000      -0.085833        -2.3356
 273   0.0000      -0.071559        -1.9472
 274   0.0000      -0.058738        -1.5983
 275   0.0000      -0.056008        -1.5241

MULLIKEN ATOMIC CHARGES
-----------------------
   0 C :    0.245533
   1 C :   -0.318257
   2 C :   -0.178169
   3 N :    0.154994
   4 C :   -0.204751
   5 N :    0.168278
   6 C :    0.019717
   7 C :   -0.007754
   8 C :   -0.027929
   9 C :    0.058516
  10 C :    0.050392
  11 C :   -0.012803
  12 Cl:   -0.040045
  13 Cl:   -0.046875
  14 C :    0.141861
  15 O :   -0.136771
  16 C :   -0.137553
  17 C :    0.064917
  18 C :   -0.216279
  19 S :    0.156298
  20 C :   -0.025647
  21 C :   -0.032819
  22 C :    0.270995
  23 O :   -0.217392
  24 C :    0.124800
  25 C :   -0.004921
  26 C :    0.116414
  27 C :   -0.099204
  28 C :    0.036126
  29 C :    0.012477
  30 C :   -0.069914
  31 C :    0.123734
  32 N :   -0.205743
  33 C :    0.162365
  34 N :   -0.229668
  35 C :    0.113098
  36 C :   -0.100904
  37 C :    0.109012
  38 C :   -0.053461
  39 C :    0.019867
  40 C :    0.007017
  41 C :    0.032160
  42 C :   -0.001138
  43 C :   -0.016853
  44 C :   -0.023168
  45 C :   -0.021388
  46 C :   -0.167953
  47 S :    0.146797
  48 C :   -0.064356
  49 C :    0.031071
  50 C :    0.177801
  51 O :   -0.203330
  52 C :    0.170569
  53 C :   -0.012499
  54 C :   -0.051791
  55 C :   -0.080470
  56 C :    0.333668
  57 C :   -0.353914
  58 C :   -0.199869
  59 N :    0.167580
  60 C :   -0.167349
  61 N :    0.140792
  62 C :    0.024810
  63 C :   -0.015543
  64 C :    0.147263
  65 O :   -0.141612
  66 C :   -0.028701
  67 C :    0.059805
  68 C :    0.048419
  69 C :   -0.011891
  70 Cl:   -0.031961
  71 Cl:   -0.037403
  72 H :   -0.001303
  73 H :    0.000901
  74 H :    0.035713
  75 H :    0.046567
  76 H :    0.005233
  77 H :    0.020719
  78 H :   -0.003072
  79 H :   -0.048547
  80 H :   -0.035744
  81 H :   -0.002052
  82 H :    0.008144
  83 H :    0.089467
  84 H :    0.082604
  85 H :   -0.011899
  86 H :   -0.034785
  87 H :    0.083670
  88 H :    0.084652
  89 H :   -0.027738
  90 H :    0.014766
  91 H :   -0.014075
  92 H :   -0.037460
  93 H :   -0.040990
  94 H :   -0.036465
  95 H :    0.021103
  96 H :    0.015482
  97 H :    0.038841
  98 H :   -0.003398
  99 H :    0.064497
 100 H :    0.039243
 101 H :    0.002754
 102 H :    0.001441
 103 H :    0.002627
Sum of atomic charges:   -0.0000000

LOEWDIN ATOMIC CHARGES
----------------------
   0 C :    0.060876
   1 C :   -0.142769
   2 C :   -0.021767
   3 N :   -0.050037
   4 C :   -0.033004
   5 N :   -0.050594
   6 C :   -0.010931
   7 C :   -0.044857
   8 C :    0.000841
   9 C :   -0.136284
  10 C :   -0.131056
  11 C :   -0.015391
  12 Cl:    0.159177
  13 Cl:    0.155327
  14 C :    0.082564
  15 O :   -0.139643
  16 C :   -0.111820
  17 C :    0.070097
  18 C :   -0.224611
  19 S :    0.476277
  20 C :   -0.133059
  21 C :   -0.092786
  22 C :    0.060077
  23 O :   -0.022314
  24 C :    0.046033
  25 C :   -0.041797
  26 C :   -0.028895
  27 C :   -0.015789
  28 C :   -0.024708
  29 C :   -0.015816
  30 C :   -0.057534
  31 C :    0.023920
  32 N :   -0.105628
  33 C :    0.029016
  34 N :   -0.125043
  35 C :   -0.011043
  36 C :    0.068013
  37 C :   -0.028359
  38 C :   -0.043194
  39 C :   -0.014706
  40 C :   -0.043466
  41 C :   -0.026842
  42 C :   -0.006944
  43 C :   -0.032209
  44 C :    0.015199
  45 C :   -0.074431
  46 C :   -0.205477
  47 S :    0.459001
  48 C :   -0.171527
  49 C :   -0.069859
  50 C :   -0.000956
  51 O :   -0.006383
  52 C :    0.125341
  53 C :   -0.081898
  54 C :    0.077803
  55 C :   -0.116231
  56 C :    0.086825
  57 C :   -0.153102
  58 C :   -0.025510
  59 N :   -0.045896
  60 C :    0.008890
  61 N :   -0.063846
  62 C :   -0.017207
  63 C :   -0.040587
  64 C :    0.084631
  65 O :   -0.137561
  66 C :    0.000914
  67 C :   -0.131251
  68 C :   -0.130728
  69 C :   -0.009952
  70 Cl:    0.163905
  71 Cl:    0.162798
  72 H :    0.045718
  73 H :    0.043865
  74 H :    0.054255
  75 H :    0.033397
  76 H :    0.037673
  77 H :    0.018756
  78 H :    0.037548
  79 H :    0.021566
  80 H :    0.018055
  81 H :    0.014148
  82 H :    0.021116
  83 H :    0.050333
  84 H :    0.046057
  85 H :    0.015120
  86 H :   -0.011647
  87 H :    0.050915
  88 H :    0.040832
  89 H :    0.025420
  90 H :    0.046851
  91 H :    0.022619
  92 H :    0.028585
  93 H :    0.026000
  94 H :    0.021650
  95 H :    0.030019
  96 H :    0.033290
  97 H :    0.028608
  98 H :    0.037840
  99 H :    0.034602
 100 H :    0.043971
 101 H :    0.038799
 102 H :    0.046669
 103 H :    0.045142

  Mayer bond orders larger than 0.100000
B(  0-C ,  1-C ) :   1.6518 B(  0-C ,  6-C ) :   1.0054 B(  0-C , 16-C ) :   1.0531
B(  1-C ,  2-C ) :   1.1309 B(  1-C ,  4-C ) :   1.1552 B(  2-C ,  3-N ) :   2.9920
B(  4-C ,  5-N ) :   3.0282 B(  6-C ,  7-C ) :   1.3309 B(  6-C , 11-C ) :   1.3494
B(  7-C ,  8-C ) :   1.3550 B(  7-C , 14-C ) :   0.9154 B(  8-C ,  9-C ) :   1.3433
B(  8-C , 72-H ) :   1.0152 B(  9-C , 10-C ) :   1.4126 B(  9-C , 13-Cl) :   1.0433
B( 10-C , 11-C ) :   1.3564 B( 10-C , 12-Cl) :   1.0650 B( 11-C , 73-H ) :   0.9901
B( 14-C , 15-O ) :   2.2799 B( 14-C , 16-C ) :   0.9511 B( 16-C , 17-C ) :   1.6050
B( 17-C , 18-C ) :   1.1741 B( 17-C , 74-H ) :   0.9484 B( 18-C , 19-S ) :   1.0967
B( 18-C , 22-C ) :   1.4041 B( 19-S , 20-C ) :   1.2079 B( 20-C , 21-C ) :   1.5298
B( 20-C , 75-H ) :   0.9675 B( 21-C , 22-C ) :   1.2303 B( 21-C , 76-H ) :   0.9984
B( 22-C , 23-O ) :   1.1877 B( 23-O , 24-C ) :   1.0159 B( 24-C , 25-C ) :   1.7625
B( 24-C , 77-H ) :   0.9492 B( 25-C , 26-C ) :   1.0667 B( 25-C , 78-H ) :   0.9814
B( 26-C , 27-C ) :   1.5283 B( 26-C , 43-C ) :   1.1217 B( 27-C , 28-C ) :   1.1139
B( 27-C , 79-H ) :   1.0000 B( 28-C , 29-C ) :   1.4856 B( 28-C , 41-C ) :   1.1224
B( 29-C , 30-C ) :   0.9912 B( 29-C , 35-C ) :   1.1241 B( 30-C , 31-C ) :   1.0054
B( 30-C , 33-C ) :   1.0309 B( 30-C , 80-H ) :   0.8885 B( 31-C , 32-N ) :   1.1187
B( 31-C , 81-H ) :   0.9365 B( 31-C , 82-H ) :   0.9558 B( 32-N , 83-H ) :   0.9774
B( 32-N , 84-H ) :   0.9809 B( 33-C , 34-N ) :   1.0873 B( 33-C , 85-H ) :   0.9318
B( 33-C , 86-H ) :   0.9365 B( 34-N , 87-H ) :   0.9672 B( 34-N , 88-H ) :   0.9612
B( 35-C , 36-C ) :   1.6646 B( 35-C , 40-C ) :   1.0419 B( 36-C , 37-C ) :   0.9742
B( 36-C , 89-H ) :   0.9615 B( 37-C , 38-C ) :   0.9785 B( 37-C , 44-C ) :   0.9597
B( 37-C , 90-H ) :   0.8888 B( 38-C , 39-C ) :   1.7124 B( 38-C , 91-H ) :   0.9748
B( 39-C , 40-C ) :   1.1301 B( 39-C , 92-H ) :   0.9897 B( 40-C , 41-C ) :   1.4360
B( 41-C , 42-C ) :   1.1430 B( 42-C , 43-C ) :   1.6186 B( 42-C , 93-H ) :   0.9894
B( 43-C , 94-H ) :   0.9791 B( 44-C , 45-C ) :   1.8081 B( 44-C , 95-H ) :   0.9684
B( 45-C , 46-C ) :   1.0652 B( 45-C , 96-H ) :   0.9647 B( 46-C , 47-S ) :   1.1365
B( 46-C , 50-C ) :   1.4907 B( 47-S , 48-C ) :   1.1701 B( 48-C , 49-C ) :   1.5634
B( 48-C , 97-H ) :   0.9696 B( 49-C , 50-C ) :   1.2631 B( 49-C , 98-H ) :   1.0025
B( 50-C , 51-O ) :   1.0357 B( 51-O , 52-C ) :   1.1649 B( 52-C , 53-C ) :   1.5758
B( 52-C , 99-H ) :   0.9478 B( 53-C , 54-C ) :   1.1829 B( 53-C ,100-H ) :   0.9799
B( 54-C , 55-C ) :   1.5345 B( 54-C ,101-H ) :   0.9498 B( 55-C , 56-C ) :   1.0923
B( 55-C , 64-C ) :   0.9516 B( 56-C , 57-C ) :   1.5997 B( 56-C , 62-C ) :   0.9966
B( 57-C , 58-C ) :   1.1355 B( 57-C , 60-C ) :   1.1703 B( 58-C , 59-N ) :   2.9775
B( 60-C , 61-N ) :   2.8720 B( 62-C , 63-C ) :   1.3280 B( 62-C , 69-C ) :   1.3402
B( 63-C , 64-C ) :   0.9334 B( 63-C , 66-C ) :   1.3506 B( 64-C , 65-O ) :   2.2270
B( 66-C , 67-C ) :   1.3378 B( 66-C ,102-H ) :   1.0168 B( 67-C , 68-C ) :   1.4072
B( 67-C , 71-Cl) :   1.0523 B( 68-C , 69-C ) :   1.3601 B( 68-C , 70-Cl) :   1.0791
B( 69-C ,103-H ) :   0.9868

-----------------------------------------------------------------------------
         ABSORPTION SPECTRUM VIA TRANSITION ELECTRIC DIPOLE MOMENTS
-----------------------------------------------------------------------------
State   Energy  Wavelength   fosc         T2         TX        TY        TZ
        (cm-1)    (nm)                  (au**2)     (au)      (au)      (au)
-----------------------------------------------------------------------------
   0   11752.1    850.9   0.000534399   0.01497   0.06485   0.00339  -0.10370
   1   14684.6    681.0   0.062361652   1.39808  -0.34569  -0.68414   0.90029
   2   16389.6    610.1   0.137520762   2.76233   1.66052   0.05131  -0.04879
   3   19565.2    511.1   0.001942533   0.03269   0.11437   0.00878  -0.13974
   4   22651.8    441.5   0.489299570   7.11129   2.45818   1.01190  -0.21141
   5   23261.4    429.9   0.059781473   0.84607   0.91769   0.02561  -0.05709
   6   23767.5    420.7   0.279475806   3.87112  -0.56564  -0.20979  -1.87274
   7   24261.9    412.2   0.006109842   0.08290   0.16923   0.02414   0.23170
   8   25212.4    396.6   0.131493848   1.71698  -1.10465  -0.08071  -0.70015
   9   25760.1    388.2   0.069911892   0.89347   0.30509   0.11322   0.88745
  10   26737.2    374.0   0.000243550   0.00300   0.02995  -0.01084  -0.04455
  11   27266.6    366.7   0.154648108   1.86719  -1.22712   0.48579   0.35409
  12   27413.2    364.8   0.055908988   0.67143  -0.74254  -0.14380  -0.31525
  13   28258.8    353.9   0.196615467   2.29055  -1.32325  -0.68462   0.26618
  14   28570.1    350.0   0.042291054   0.48732  -0.54955   0.08633   0.42173
  15   29148.0    343.1   0.011674994   0.13186  -0.34964   0.09691   0.01489
  16   29685.3    336.9   0.219656243   2.43600   1.07736   0.17827   1.11513
  17   30492.4    328.0   0.003086594   0.03332   0.17536   0.01802   0.04741
  18   30615.8    326.6   0.253372238   2.72451   1.48996  -0.01258   0.71019
  19   30924.3    323.4   0.003201291   0.03408   0.06672   0.00501   0.17206
  20   31072.8    321.8   0.020503038   0.21723   0.39724   0.11661   0.21408
  21   31268.2    319.8   0.222510188   2.34273  -1.46849   0.30820  -0.30213
  22   31416.3    318.3   0.679812256   7.12376   1.04524  -0.27776  -2.44010
  23   32172.6    310.8   0.131304695   1.34360  -0.86773   0.27648  -0.71707
  24   32900.2    303.9   0.122104871   1.22183  -1.08104  -0.05907   0.22293
  25   32991.4    303.1   0.003265000   0.03258   0.04658  -0.06250  -0.16280
  26   33206.2    301.1   0.004924230   0.04882   0.13899   0.00203  -0.17175
  27   33262.9    300.6   0.096932994   0.95937  -0.93409  -0.29429  -0.01580
  28   33843.5    295.5   0.017462867   0.16987  -0.02559   0.09036   0.40131
  29   34032.2    293.8   0.439208898   4.24871   1.94455  -0.11514  -0.67393
  30   34058.8    293.6   0.061740739   0.59679   0.60159  -0.05341  -0.48169
  31   34134.1    293.0   0.767900153   7.40614  -2.32550   0.25360   1.39065
  32   34302.3    291.5   0.093660875   0.89890   0.35028   0.07876   0.87749
  33   34713.0    288.1   0.011876781   0.11264  -0.26149   0.00417  -0.21034
  34   34783.7    287.5   0.077086496   0.72959  -0.17277   0.13938   0.82481
  35   35181.6    284.2   0.068221438   0.63838   0.04486  -0.29757   0.74015
  36   35210.9    284.0   0.295531865   2.76314  -1.24401   0.39750  -1.02839
  37   35351.6    282.9   0.012101873   0.11270  -0.27932   0.05700   0.17729
  38   35587.7    281.0   0.191486909   1.77139  -0.40805   0.14717  -1.25827
  39   35939.8    278.2   0.095986905   0.87925   0.93570  -0.05910  -0.01470
  40   35955.7    278.1   0.002247428   0.02058  -0.11697   0.01443  -0.08178
  41   36163.2    276.5   0.019351826   0.17617   0.41956  -0.00175   0.01171
  42   36625.2    273.0   0.010459370   0.09402  -0.14230  -0.26817   0.04304
  43   36770.2    272.0   0.133455055   1.19485   0.07097  -0.63757   0.88506
  44   37245.6    268.5   0.226478532   2.00183  -0.56786  -0.15894  -1.28612
  45   37273.9    268.3   0.007864511   0.06946  -0.15239  -0.00356  -0.21500
  46   38073.6    262.6   0.153911530   1.33083   1.08973   0.30000  -0.23093
  47   39135.9    255.5   0.148255690   1.24713  -1.10762  -0.01568   0.14167
  48   39499.7    253.2   0.000558208   0.00465   0.06652  -0.01133  -0.00994
  49   39876.8    250.8   0.471229179   3.89034   1.96388  -0.08618  -0.16149
  50   40120.6    249.2   0.013478865   0.11060   0.25350   0.02996   0.21317
  51   40239.8    248.5   0.021479448   0.17573  -0.36157   0.13925  -0.16002

FINAL SINGLE POINT ENERGY     -5415.289784153191

DIPOLE MOMENT
-------------
                                X             Y             Z
Electronic contribution:    -70.25538     -13.15805     -35.49359
Nuclear contribution   :     74.66634      15.79536      36.29498
                        -----------------------------------------
Total Dipole Moment    :      4.41096       2.63732       0.80140
                        -----------------------------------------
Magnitude (a.u.)       :      5.20137
Magnitude (Debye)      :     13.22084

Rotational constants in cm-1:     0.001250     0.000194     0.000172
Rotational constants in MHz :    37.478978     5.814515     5.153889

                             ****ORCA TERMINATED NORMALLY****
TOTAL RUN TIME: 0 days 0 hours 10 minutes 59 seconds 518 msec
