                         Program Version 4.2.0 -  RELEASE  -
|  1> # ORCA input file
|  2> # SCF done       -208.255590963359          0.000231403392
|  3> ! CAM-B3LYP def2-SVP def2/J RIJCOSX Grid4 TightSCF
|  4> %maxcore 5000
|  5> %tddft
|  6>     Mode sTDDFT
|  7>     Ethresh 5.0
|  8>     maxcore 5000
|  9> end
| 10>
| 11> %pal
| 12>   nprocs 6
| 13>   end
| 14> * xyz 0 1
| 15>    C        0.79707         0.01889         3.19402
| 16>    C        1.92231        -0.21376         3.94430
| 17>    C        3.02619         0.66011         4.00231
| 18>    N        3.96305         1.32052         4.06684
| 19>    C        2.06729        -1.31267         4.81397
| 20>    N        2.21568        -2.16696         5.56626
| 21>    C        0.48629         1.28236         2.52423
| 22>    C       -0.89697         1.33425         2.27565
| 23>    C       -1.48661         2.43511         1.68986
| 24>    C       -0.67530         3.50563         1.33257
| 25>    C        0.70309         3.45557         1.56464
| 26>    C        1.29297         2.34804         2.16513
| 27>   Cl        1.69509         4.77985         1.10448
| 28>   Cl       -1.37233         4.89452         0.60096
| 29>    C       -1.52415         0.06891         2.72045
| 30>    O       -2.69787        -0.22222         2.70343
| 31>    C       -0.39394        -0.79445         3.14681
| 32>    C       -0.62333        -2.12849         3.34577
| 33>    C        0.28261        -3.20374         3.35881
| 34>    S       -0.22798        -4.74576         3.99896
| 35>    C        1.29529        -5.47070         3.61822
| 36>    C        2.13212        -4.55933         2.98540
| 37>    C        1.57346        -3.30064         2.85203
| 38>    C        1.58618        -6.81526         3.95649
| 39>    C        2.76711        -7.50721         3.75266
| 40>    C        2.73285        -8.81351         4.22619
| 41>    C        1.52401        -9.15830         4.80611
| 42>    S        0.41257        -7.82529         4.75197
| 43>    C        1.16591       -10.39697         5.39866
| 44>    S       -0.41842       -10.66445         6.06210
| 45>    C       -0.00023       -12.28042         6.55418
| 46>    C        1.30677       -12.56907         6.20228
| 47>    C        1.95584       -11.52192         5.55768
| 48>    C       -0.96710       -13.07616         7.22305
| 49>    C       -0.73463       -14.31970         7.70880
| 50>    C       -1.69628       -15.10658         8.39161
| 51>    S       -1.24260       -16.67688         9.00952
| 52>    C       -2.82100       -16.96518         9.66951
| 53>    C       -3.65351       -15.89408         9.39631
| 54>    C       -3.02415       -14.84476         8.69478
| 55>    O       -3.67628       -13.70228         8.37848
| 56>    O       -4.97319       -15.81619         9.78431
| 57>    C       -5.88816       -16.33616         8.82946
| 58>    C       -3.13082       -18.12331        10.42371
| 59>    S       -4.68341       -18.29701        11.18572
| 60>    C       -4.21689       -19.82739        11.87101
| 61>    C       -2.92339       -20.15651        11.51272
| 62>    C       -2.31593       -19.20219        10.70195
| 63>    C       -5.10651       -20.56680        12.69421
| 64>    C       -4.84848       -21.73424        13.38889
| 65>    C       -5.93719       -22.19389        14.12274
| 66>    C       -7.05798       -21.39518        14.00522
| 67>    S       -6.74239       -20.04014        12.95568
| 68>    C       -8.32166       -21.57068        14.61895
| 69>    S       -8.60137       -22.87020        15.73417
| 70>    C      -10.25511       -22.36268        15.97650
| 71>    C      -10.53635       -21.24055        15.20848
| 72>    C       -9.46041       -20.79660        14.45558
| 73>    C      -11.12502       -23.03570        16.85457
| 74>    C      -10.77401       -24.11065        17.61895
| 75>    C      -11.68270       -24.73215        18.49186
| 76>    C      -11.38685       -25.79308        19.31090
| 77>    C      -12.28865       -26.45730        20.22750
| 78>    C      -13.61636       -26.18174        20.43679
| 79>    C      -14.43525       -26.87618        21.35181
| 80>    N      -15.15803       -27.39564        22.07697
| 81>    C      -14.36338       -25.18174        19.78052
| 82>    N      -15.04514       -24.39485        19.29489
| 83>    C      -11.53037       -27.50536        20.91059
| 84>    C      -10.21039       -27.49877        20.42943
| 85>    C      -10.05865       -26.43798        19.40803
| 86>    O       -9.04471       -26.17386        18.79650
| 87>    C       -9.25951       -28.38240        20.89591
| 88>    C       -9.63393       -29.29948        21.86997
| 89>    C      -10.94563       -29.31461        22.35499
| 90>    C      -11.90079       -28.42157        21.88138
| 91>   Cl      -11.39681       -30.45342        23.55970
| 92>   Cl       -8.47971       -30.41633        22.47860
| 93>    H       -2.55060         2.46285         1.51590
| 94>    H        2.35850         2.34151         2.32791
| 95>    H       -1.67318        -2.39302         3.43220
| 96>    H        3.11918        -4.81210         2.64492
| 97>    H        2.06672        -2.48353         2.35599
| 98>    H        3.62660        -7.07002         3.27854
| 99>    H        3.56138        -9.49373         4.15372
|100>    H        1.77345       -13.51514         6.40740
|101>    H        2.97424       -11.57263         5.21769
|102>    H       -1.94410       -12.63575         7.35353
|103>    H        0.23984       -14.77414         7.59868
|104>    H       -4.54369       -13.73089         8.81027
|105>    H       -6.87503       -16.22746         9.27361
|106>    H       -5.69377       -17.39309         8.62824
|107>    H       -5.84032       -15.78041         7.88715
|108>    H       -2.43962       -21.06247        11.82830
|109>    H       -1.31300       -19.27581        10.32092
|110>    H       -3.89467       -22.22813        13.36662
|111>    H       -5.92598       -23.08249        14.72880
|112>    H      -11.50308       -20.76919        15.21226
|113>    H       -9.48380       -19.94182        13.80291
|114>    H      -12.13450       -22.64623        16.91617
|115>    H       -9.76612       -24.49679        17.56424
|116>    H      -12.68586       -24.32603        18.51288
|117>    H       -8.25181       -28.35846        20.51219
|118>    H      -12.90066       -28.46425        22.28068
|119> *
|120>
|121>                          ****END OF INPUT****

CARTESIAN COORDINATES (ANGSTROEM)
---------------------------------
  C      0.797070    0.018890    3.194020
  C      1.922310   -0.213760    3.944300
  C      3.026190    0.660110    4.002310
  N      3.963050    1.320520    4.066840
  C      2.067290   -1.312670    4.813970
  N      2.215680   -2.166960    5.566260
  C      0.486290    1.282360    2.524230
  C     -0.896970    1.334250    2.275650
  C     -1.486610    2.435110    1.689860
  C     -0.675300    3.505630    1.332570
  C      0.703090    3.455570    1.564640
  C      1.292970    2.348040    2.165130
  Cl     1.695090    4.779850    1.104480
  Cl    -1.372330    4.894520    0.600960
  C     -1.524150    0.068910    2.720450
  O     -2.697870   -0.222220    2.703430
  C     -0.393940   -0.794450    3.146810
  C     -0.623330   -2.128490    3.345770
  C      0.282610   -3.203740    3.358810
  S     -0.227980   -4.745760    3.998960
  C      1.295290   -5.470700    3.618220
  C      2.132120   -4.559330    2.985400
  C      1.573460   -3.300640    2.852030
  C      1.586180   -6.815260    3.956490
  C      2.767110   -7.507210    3.752660
  C      2.732850   -8.813510    4.226190
  C      1.524010   -9.158300    4.806110
  S      0.412570   -7.825290    4.751970
  C      1.165910  -10.396970    5.398660
  S     -0.418420  -10.664450    6.062100
  C     -0.000230  -12.280420    6.554180
  C      1.306770  -12.569070    6.202280
  C      1.955840  -11.521920    5.557680
  C     -0.967100  -13.076160    7.223050
  C     -0.734630  -14.319700    7.708800
  C     -1.696280  -15.106580    8.391610
  S     -1.242600  -16.676880    9.009520
  C     -2.821000  -16.965180    9.669510
  C     -3.653510  -15.894080    9.396310
  C     -3.024150  -14.844760    8.694780
  O     -3.676280  -13.702280    8.378480
  O     -4.973190  -15.816190    9.784310
  C     -5.888160  -16.336160    8.829460
  C     -3.130820  -18.123310   10.423710
  S     -4.683410  -18.297010   11.185720
  C     -4.216890  -19.827390   11.871010
  C     -2.923390  -20.156510   11.512720
  C     -2.315930  -19.202190   10.701950
  C     -5.106510  -20.566800   12.694210
  C     -4.848480  -21.734240   13.388890
  C     -5.937190  -22.193890   14.122740
  C     -7.057980  -21.395180   14.005220
  S     -6.742390  -20.040140   12.955680
  C     -8.321660  -21.570680   14.618950
  S     -8.601370  -22.870200   15.734170
  C    -10.255110  -22.362680   15.976500
  C    -10.536350  -21.240550   15.208480
  C     -9.460410  -20.796600   14.455580
  C    -11.125020  -23.035700   16.854570
  C    -10.774010  -24.110650   17.618950
  C    -11.682700  -24.732150   18.491860
  C    -11.386850  -25.793080   19.310900
  C    -12.288650  -26.457300   20.227500
  C    -13.616360  -26.181740   20.436790
  C    -14.435250  -26.876180   21.351810
  N    -15.158030  -27.395640   22.076970
  C    -14.363380  -25.181740   19.780520
  N    -15.045140  -24.394850   19.294890
  C    -11.530370  -27.505360   20.910590
  C    -10.210390  -27.498770   20.429430
  C    -10.058650  -26.437980   19.408030
  O     -9.044710  -26.173860   18.796500
  C     -9.259510  -28.382400   20.895910
  C     -9.633930  -29.299480   21.869970
  C    -10.945630  -29.314610   22.354990
  C    -11.900790  -28.421570   21.881380
  Cl   -11.396810  -30.453420   23.559700
  Cl    -8.479710  -30.416330   22.478600
  H     -2.550600    2.462850    1.515900
  H      2.358500    2.341510    2.327910
  H     -1.673180   -2.393020    3.432200
  H      3.119180   -4.812100    2.644920
  H      2.066720   -2.483530    2.355990
  H      3.626600   -7.070020    3.278540
  H      3.561380   -9.493730    4.153720
  H      1.773450  -13.515140    6.407400
  H      2.974240  -11.572630    5.217690
  H     -1.944100  -12.635750    7.353530
  H      0.239840  -14.774140    7.598680
  H     -4.543690  -13.730890    8.810270
  H     -6.875030  -16.227460    9.273610
  H     -5.693770  -17.393090    8.628240
  H     -5.840320  -15.780410    7.887150
  H     -2.439620  -21.062470   11.828300
  H     -1.313000  -19.275810   10.320920
  H     -3.894670  -22.228130   13.366620
  H     -5.925980  -23.082490   14.728800
  H    -11.503080  -20.769190   15.212260
  H     -9.483800  -19.941820   13.802910
  H    -12.134500  -22.646230   16.916170
  H     -9.766120  -24.496790   17.564240
  H    -12.685860  -24.326030   18.512880
  H     -8.251810  -28.358460   20.512190
  H    -12.900660  -28.464250   22.280680

 Total Charge           Charge          ....    0
 Multiplicity           Mult            ....    1
 Number of Electrons    NEL             ....  620
 Basis Dimension        Dim             .... 1266

ORBITAL ENERGIES
----------------

  NO   OCC          E(Eh)            E(eV)
   0   2.0000    -101.598032     -2764.6230
   1   2.0000    -101.597637     -2764.6122
   2   2.0000    -101.596884     -2764.5918
   3   2.0000    -101.596089     -2764.5701
   4   2.0000     -88.971822     -2421.0464
   5   2.0000     -88.971572     -2421.0396
   6   2.0000     -88.970960     -2421.0229
   7   2.0000     -88.968457     -2420.9548
   8   2.0000     -88.967910     -2420.9399
   9   2.0000     -88.965580     -2420.8765
  10   2.0000     -88.960479     -2420.7377
  11   2.0000     -19.266128      -524.2580
  12   2.0000     -19.264769      -524.2210
  13   2.0000     -19.217485      -522.9344
  14   2.0000     -19.215038      -522.8678
  15   2.0000     -14.416122      -392.2826
  16   2.0000     -14.414970      -392.2513
  17   2.0000     -14.413588      -392.2137
  18   2.0000     -14.412742      -392.1906
  19   2.0000     -10.368238      -282.1341
  20   2.0000     -10.366600      -282.0895
  21   2.0000     -10.353702      -281.7386
  22   2.0000     -10.353179      -281.7243
  23   2.0000     -10.353015      -281.7199
  24   2.0000     -10.352648      -281.7099
  25   2.0000     -10.345079      -281.5039
  26   2.0000     -10.342748      -281.4405
  27   2.0000     -10.342152      -281.4243
  28   2.0000     -10.341235      -281.3993
  29   2.0000     -10.340676      -281.3841
  30   2.0000     -10.339730      -281.3583
  31   2.0000     -10.336728      -281.2767
  32   2.0000     -10.330249      -281.1004
  33   2.0000     -10.329874      -281.0902
  34   2.0000     -10.323238      -280.9096
  35   2.0000     -10.321159      -280.8530
  36   2.0000     -10.320268      -280.8288
  37   2.0000     -10.319731      -280.8142
  38   2.0000     -10.319175      -280.7990
  39   2.0000     -10.319059      -280.7959
  40   2.0000     -10.318817      -280.7893
  41   2.0000     -10.317644      -280.7574
  42   2.0000     -10.315751      -280.7059
  43   2.0000     -10.315432      -280.6972
  44   2.0000     -10.315356      -280.6951
  45   2.0000     -10.315084      -280.6877
  46   2.0000     -10.314611      -280.6748
  47   2.0000     -10.313994      -280.6581
  48   2.0000     -10.313480      -280.6441
  49   2.0000     -10.313393      -280.6417
  50   2.0000     -10.313337      -280.6402
  51   2.0000     -10.312036      -280.6048
  52   2.0000     -10.310400      -280.5603
  53   2.0000     -10.306903      -280.4651
  54   2.0000     -10.306579      -280.4563
  55   2.0000     -10.306347      -280.4500
  56   2.0000     -10.306085      -280.4428
  57   2.0000     -10.305960      -280.4394
  58   2.0000     -10.305400      -280.4242
  59   2.0000     -10.298866      -280.2464
  60   2.0000     -10.298757      -280.2434
  61   2.0000     -10.298342      -280.2321
  62   2.0000     -10.297569      -280.2111
  63   2.0000     -10.293765      -280.1076
  64   2.0000     -10.293019      -280.0873
  65   2.0000     -10.291840      -280.0552
  66   2.0000     -10.290647      -280.0227
  67   2.0000     -10.289756      -279.9985
  68   2.0000     -10.289379      -279.9882
  69   2.0000     -10.287635      -279.9408
  70   2.0000     -10.287356      -279.9332
  71   2.0000     -10.287073      -279.9255
  72   2.0000     -10.285663      -279.8871
  73   2.0000     -10.283502      -279.8283
  74   2.0000     -10.283177      -279.8195
  75   2.0000     -10.282184      -279.7924
  76   2.0000     -10.280851      -279.7562
  77   2.0000     -10.276758      -279.6448
  78   2.0000      -9.553046      -259.9516
  79   2.0000      -9.552711      -259.9425
  80   2.0000      -9.551972      -259.9224
  81   2.0000      -9.551050      -259.8973
  82   2.0000      -8.067463      -219.5268
  83   2.0000      -8.067013      -219.5146
  84   2.0000      -8.066771      -219.5080
  85   2.0000      -8.063721      -219.4250
  86   2.0000      -8.063491      -219.4188
  87   2.0000      -8.060862      -219.3472
  88   2.0000      -8.056308      -219.2233
  89   2.0000      -7.323432      -199.2807
  90   2.0000      -7.323085      -199.2713
  91   2.0000      -7.322372      -199.2519
  92   2.0000      -7.321459      -199.2270
  93   2.0000      -7.313309      -199.0053
  94   2.0000      -7.312959      -198.9957
  95   2.0000      -7.312591      -198.9857
  96   2.0000      -7.312255      -198.9766
  97   2.0000      -7.312206      -198.9752
  98   2.0000      -7.311503      -198.9561
  99   2.0000      -7.311304      -198.9507
 100   2.0000      -7.310585      -198.9311
 101   2.0000      -6.036831      -164.2705
 102   2.0000      -6.036268      -164.2552
 103   2.0000      -6.035998      -164.2479
 104   2.0000      -6.033047      -164.1676
 105   2.0000      -6.032920      -164.1641
 106   2.0000      -6.032700      -164.1581
 107   2.0000      -6.032248      -164.1458
 108   2.0000      -6.031930      -164.1372
 109   2.0000      -6.030318      -164.0933
 110   2.0000      -6.029404      -164.0684
 111   2.0000      -6.029042      -164.0586
 112   2.0000      -6.028921      -164.0553
 113   2.0000      -6.028893      -164.0545
 114   2.0000      -6.028617      -164.0470
 115   2.0000      -6.026536      -163.9904
 116   2.0000      -6.025721      -163.9682
 117   2.0000      -6.025521      -163.9628
 118   2.0000      -6.025514      -163.9626
 119   2.0000      -6.022323      -163.8757
 120   2.0000      -6.021484      -163.8529
 121   2.0000      -6.018475      -163.7710
 122   2.0000      -1.173511       -31.9329
 123   2.0000      -1.148569       -31.2542
 124   2.0000      -1.131885       -30.8001
 125   2.0000      -1.130469       -30.7616
 126   2.0000      -1.028808       -27.9953
 127   2.0000      -1.027939       -27.9717
 128   2.0000      -1.014975       -27.6189
 129   2.0000      -1.014014       -27.5927
 130   2.0000      -1.013680       -27.5836
 131   2.0000      -1.009867       -27.4799
 132   2.0000      -1.003703       -27.3121
 133   2.0000      -0.996687       -27.1212
 134   2.0000      -0.993046       -27.0222
 135   2.0000      -0.991737       -26.9865
 136   2.0000      -0.990928       -26.9645
 137   2.0000      -0.988032       -26.8857
 138   2.0000      -0.987612       -26.8743
 139   2.0000      -0.977850       -26.6087
 140   2.0000      -0.975813       -26.5532
 141   2.0000      -0.959341       -26.1050
 142   2.0000      -0.958863       -26.0920
 143   2.0000      -0.935845       -25.4656
 144   2.0000      -0.931945       -25.3595
 145   2.0000      -0.921468       -25.0744
 146   2.0000      -0.910198       -24.7677
 147   2.0000      -0.904901       -24.6236
 148   2.0000      -0.896219       -24.3874
 149   2.0000      -0.887109       -24.1395
 150   2.0000      -0.882029       -24.0012
 151   2.0000      -0.869009       -23.6469
 152   2.0000      -0.861917       -23.4539
 153   2.0000      -0.858263       -23.3545
 154   2.0000      -0.857458       -23.3326
 155   2.0000      -0.856823       -23.3153
 156   2.0000      -0.853973       -23.2378
 157   2.0000      -0.849906       -23.1271
 158   2.0000      -0.846713       -23.0402
 159   2.0000      -0.840325       -22.8664
 160   2.0000      -0.839564       -22.8457
 161   2.0000      -0.833526       -22.6814
 162   2.0000      -0.827351       -22.5134
 163   2.0000      -0.820087       -22.3157
 164   2.0000      -0.810206       -22.0468
 165   2.0000      -0.793483       -21.5918
 166   2.0000      -0.790588       -21.5130
 167   2.0000      -0.778156       -21.1747
 168   2.0000      -0.770368       -20.9628
 169   2.0000      -0.764995       -20.8166
 170   2.0000      -0.760990       -20.7076
 171   2.0000      -0.754365       -20.5273
 172   2.0000      -0.733227       -19.9521
 173   2.0000      -0.724544       -19.7158
 174   2.0000      -0.716567       -19.4988
 175   2.0000      -0.713301       -19.4099
 176   2.0000      -0.699127       -19.0242
 177   2.0000      -0.695631       -18.9291
 178   2.0000      -0.692431       -18.8420
 179   2.0000      -0.691803       -18.8249
 180   2.0000      -0.687695       -18.7131
 181   2.0000      -0.683561       -18.6006
 182   2.0000      -0.677762       -18.4428
 183   2.0000      -0.675278       -18.3752
 184   2.0000      -0.660815       -17.9817
 185   2.0000      -0.655188       -17.8286
 186   2.0000      -0.652032       -17.7427
 187   2.0000      -0.650011       -17.6877
 188   2.0000      -0.641611       -17.4591
 189   2.0000      -0.638150       -17.3649
 190   2.0000      -0.634820       -17.2743
 191   2.0000      -0.632531       -17.2120
 192   2.0000      -0.628158       -17.0931
 193   2.0000      -0.625414       -17.0184
 194   2.0000      -0.623912       -16.9775
 195   2.0000      -0.619493       -16.8573
 196   2.0000      -0.618120       -16.8199
 197   2.0000      -0.614486       -16.7210
 198   2.0000      -0.612467       -16.6661
 199   2.0000      -0.601436       -16.3659
 200   2.0000      -0.596202       -16.2235
 201   2.0000      -0.590300       -16.0629
 202   2.0000      -0.588281       -16.0079
 203   2.0000      -0.582391       -15.8477
 204   2.0000      -0.579833       -15.7781
 205   2.0000      -0.575693       -15.6654
 206   2.0000      -0.570158       -15.5148
 207   2.0000      -0.569239       -15.4898
 208   2.0000      -0.564411       -15.3584
 209   2.0000      -0.555459       -15.1148
 210   2.0000      -0.550300       -14.9744
 211   2.0000      -0.548772       -14.9329
 212   2.0000      -0.545164       -14.8347
 213   2.0000      -0.544919       -14.8280
 214   2.0000      -0.541909       -14.7461
 215   2.0000      -0.541626       -14.7384
 216   2.0000      -0.540035       -14.6951
 217   2.0000      -0.538148       -14.6437
 218   2.0000      -0.533149       -14.5077
 219   2.0000      -0.527637       -14.3577
 220   2.0000      -0.522270       -14.2117
 221   2.0000      -0.521015       -14.1775
 222   2.0000      -0.515783       -14.0352
 223   2.0000      -0.513427       -13.9711
 224   2.0000      -0.513076       -13.9615
 225   2.0000      -0.512156       -13.9365
 226   2.0000      -0.511537       -13.9196
 227   2.0000      -0.510274       -13.8853
 228   2.0000      -0.509675       -13.8690
 229   2.0000      -0.506590       -13.7850
 230   2.0000      -0.505309       -13.7502
 231   2.0000      -0.503816       -13.7095
 232   2.0000      -0.500626       -13.6227
 233   2.0000      -0.499461       -13.5910
 234   2.0000      -0.497904       -13.5486
 235   2.0000      -0.496779       -13.5180
 236   2.0000      -0.494616       -13.4592
 237   2.0000      -0.492593       -13.4041
 238   2.0000      -0.492515       -13.4020
 239   2.0000      -0.489067       -13.3082
 240   2.0000      -0.487348       -13.2614
 241   2.0000      -0.487000       -13.2519
 242   2.0000      -0.483920       -13.1681
 243   2.0000      -0.479062       -13.0359
 244   2.0000      -0.477600       -12.9961
 245   2.0000      -0.475619       -12.9423
 246   2.0000      -0.474383       -12.9086
 247   2.0000      -0.471953       -12.8425
 248   2.0000      -0.469048       -12.7634
 249   2.0000      -0.465184       -12.6583
 250   2.0000      -0.463655       -12.6167
 251   2.0000      -0.463371       -12.6090
 252   2.0000      -0.458519       -12.4769
 253   2.0000      -0.455729       -12.4010
 254   2.0000      -0.453477       -12.3397
 255   2.0000      -0.448414       -12.2020
 256   2.0000      -0.448035       -12.1917
 257   2.0000      -0.446809       -12.1583
 258   2.0000      -0.446023       -12.1369
 259   2.0000      -0.444071       -12.0838
 260   2.0000      -0.442137       -12.0312
 261   2.0000      -0.441590       -12.0163
 262   2.0000      -0.441187       -12.0053
 263   2.0000      -0.435190       -11.8421
 264   2.0000      -0.433631       -11.7997
 265   2.0000      -0.432212       -11.7611
 266   2.0000      -0.431430       -11.7398
 267   2.0000      -0.430441       -11.7129
 268   2.0000      -0.428290       -11.6544
 269   2.0000      -0.427620       -11.6361
 270   2.0000      -0.427313       -11.6278
 271   2.0000      -0.425693       -11.5837
 272   2.0000      -0.425351       -11.5744
 273   2.0000      -0.425301       -11.5730
 274   2.0000      -0.424718       -11.5572
 275   2.0000      -0.424381       -11.5480
 276   2.0000      -0.418310       -11.3828
 277   2.0000      -0.417630       -11.3643
 278   2.0000      -0.411755       -11.2044
 279   2.0000      -0.409503       -11.1431
 280   2.0000      -0.408245       -11.1089
 281   2.0000      -0.406508       -11.0616
 282   2.0000      -0.404555       -11.0085
 283   2.0000      -0.400805       -10.9065
 284   2.0000      -0.393162       -10.6985
 285   2.0000      -0.379641       -10.3306
 286   2.0000      -0.379080       -10.3153
 287   2.0000      -0.378519       -10.3000
 288   2.0000      -0.377544       -10.2735
 289   2.0000      -0.368331       -10.0228
 290   2.0000      -0.354277        -9.6404
 291   2.0000      -0.346059        -9.4168
 292   2.0000      -0.342560        -9.3215
 293   2.0000      -0.341545        -9.2939
 294   2.0000      -0.340071        -9.2538
 295   2.0000      -0.339782        -9.2459
 296   2.0000      -0.336638        -9.1604
 297   2.0000      -0.336599        -9.1593
 298   2.0000      -0.335084        -9.1181
 299   2.0000      -0.332070        -9.0361
 300   2.0000      -0.329761        -8.9732
 301   2.0000      -0.326344        -8.8803
 302   2.0000      -0.315745        -8.5919
 303   2.0000      -0.309208        -8.4140
 304   2.0000      -0.308741        -8.4013
 305   2.0000      -0.305092        -8.3020
 306   2.0000      -0.289867        -7.8877
 307   2.0000      -0.268133        -7.2963
 308   2.0000      -0.248332        -6.7575
 309   2.0000      -0.225555        -6.1377
 310   0.0000      -0.100104        -2.7240
 311   0.0000      -0.094097        -2.5605
 312   0.0000      -0.069928        -1.9028
 313   0.0000      -0.065729        -1.7886
 314   0.0000      -0.058295        -1.5863

MULLIKEN ATOMIC CHARGES
-----------------------
   0 C :    0.266402
   1 C :   -0.341040
   2 C :   -0.176976
   3 N :    0.156184
   4 C :   -0.212086
   5 N :    0.178913
   6 C :    0.016102
   7 C :    0.003456
   8 C :   -0.034580
   9 C :    0.060684
  10 C :    0.050175
  11 C :   -0.020820
  12 Cl:   -0.039233
  13 Cl:   -0.045842
  14 C :    0.136996
  15 O :   -0.142742
  16 C :   -0.147157
  17 C :    0.100586
  18 C :   -0.120963
  19 S :    0.157307
  20 C :   -0.015596
  21 C :   -0.015722
  22 C :    0.070212
  23 C :   -0.044517
  24 C :    0.015112
  25 C :   -0.007843
  26 C :   -0.021602
  27 S :    0.136934
  28 C :   -0.053032
  29 S :    0.131508
  30 C :   -0.067186
  31 C :    0.008637
  32 C :    0.004525
  33 C :    0.045456
  34 C :    0.046158
  35 C :   -0.164873
  36 S :    0.136405
  37 C :   -0.084254
  38 C :    0.074351
  39 C :    0.135909
  40 O :   -0.172847
  41 O :   -0.359253
  42 C :    0.198131
  43 C :   -0.056796
  44 S :    0.136271
  45 C :   -0.039790
  46 C :    0.008149
  47 C :   -0.014664
  48 C :   -0.031454
  49 C :   -0.000163
  50 C :    0.000725
  51 C :   -0.046288
  52 S :    0.127903
  53 C :   -0.024508
  54 S :    0.139491
  55 C :   -0.059744
  56 C :    0.045382
  57 C :   -0.013319
  58 C :    0.060202
  59 C :   -0.024639
  60 C :   -0.027880
  61 C :   -0.081488
  62 C :    0.329202
  63 C :   -0.353538
  64 C :   -0.189414
  65 N :    0.154085
  66 C :   -0.188937
  67 N :    0.143225
  68 C :    0.030933
  69 C :   -0.016070
  70 C :    0.146141
  71 O :   -0.150569
  72 C :   -0.031656
  73 C :    0.062285
  74 C :    0.044430
  75 C :   -0.012333
  76 Cl:   -0.038311
  77 Cl:   -0.046656
  78 H :   -0.000155
  79 H :    0.001724
  80 H :    0.023995
  81 H :   -0.012798
  82 H :    0.003407
  83 H :   -0.013751
  84 H :   -0.016464
  85 H :   -0.019656
  86 H :   -0.020081
  87 H :   -0.001465
  88 H :   -0.029084
  89 H :    0.189150
  90 H :    0.041694
  91 H :    0.026596
  92 H :    0.018637
  93 H :   -0.017864
  94 H :   -0.010700
  95 H :   -0.015450
  96 H :   -0.001062
  97 H :   -0.005213
  98 H :   -0.004604
  99 H :    0.010356
 100 H :    0.029993
 101 H :    0.006318
 102 H :   -0.004108
 103 H :   -0.001602
Sum of atomic charges:   -0.0000000

LOEWDIN ATOMIC CHARGES
----------------------
   0 C :    0.064550
   1 C :   -0.143243
   2 C :   -0.023039
   3 N :   -0.051359
   4 C :   -0.019726
   5 N :   -0.039853
   6 C :   -0.011173
   7 C :   -0.045138
   8 C :    0.000107
   9 C :   -0.136293
  10 C :   -0.130998
  11 C :   -0.016533
  12 Cl:    0.159641
  13 Cl:    0.155938
  14 C :    0.082152
  15 O :   -0.143078
  16 C :   -0.108952
  17 C :    0.053400
  18 C :   -0.192527
  19 S :    0.456210
  20 C :   -0.149077
  21 C :   -0.053712
  22 C :   -0.002678
  23 C :   -0.198734
  24 C :   -0.032423
  25 C :   -0.058437
  26 C :   -0.167161
  27 S :    0.432649
  28 C :   -0.197311
  29 S :    0.433846
  30 C :   -0.160035
  31 C :   -0.058647
  32 C :   -0.043745
  33 C :   -0.046259
  34 C :   -0.034043
  35 C :   -0.204278
  36 S :    0.436856
  37 C :   -0.203447
  38 C :   -0.034272
  39 C :    0.006067
  40 O :   -0.041263
  41 O :   -0.140837
  42 C :    0.075505
  43 C :   -0.179164
  44 S :    0.451085
  45 C :   -0.194446
  46 C :   -0.045571
  47 C :   -0.059078
  48 C :   -0.171394
  49 C :   -0.054446
  50 C :   -0.043195
  51 C :   -0.194034
  52 S :    0.432991
  53 C :   -0.155450
  54 S :    0.456609
  55 C :   -0.183725
  56 C :   -0.018901
  57 C :   -0.069701
  58 C :    0.025966
  59 C :   -0.052850
  60 C :    0.070476
  61 C :   -0.108173
  62 C :    0.074755
  63 C :   -0.141544
  64 C :   -0.020383
  65 N :   -0.052039
  66 C :   -0.019104
  67 N :   -0.055109
  68 C :   -0.013259
  69 C :   -0.042630
  70 C :    0.084104
  71 O :   -0.145919
  72 C :   -0.001168
  73 C :   -0.135053
  74 C :   -0.131626
  75 C :   -0.012954
  76 Cl:    0.159292
  77 Cl:    0.155825
  78 H :    0.045806
  79 H :    0.043795
  80 H :    0.046284
  81 H :    0.032912
  82 H :    0.036382
  83 H :    0.032802
  84 H :    0.031148
  85 H :    0.028442
  86 H :    0.029726
  87 H :    0.029625
  88 H :    0.025952
  89 H :    0.097289
  90 H :    0.027784
  91 H :    0.012130
  92 H :    0.013054
  93 H :    0.030621
  94 H :    0.028837
  95 H :    0.031717
  96 H :    0.031385
  97 H :    0.036466
  98 H :    0.028904
  99 H :    0.043192
 100 H :    0.026643
 101 H :    0.041673
 102 H :    0.044572
 103 H :    0.044019

  Mayer bond orders larger than 0.100000
B(  0-C ,  1-C ) :   1.6387 B(  0-C ,  6-C ) :   1.0002 B(  0-C , 16-C ) :   1.0621
B(  1-C ,  2-C ) :   1.1254 B(  1-C ,  4-C ) :   1.1698 B(  2-C ,  3-N ) :   2.9888
B(  4-C ,  5-N ) :   3.0080 B(  6-C ,  7-C ) :   1.3319 B(  6-C , 11-C ) :   1.3482
B(  7-C ,  8-C ) :   1.3529 B(  7-C , 14-C ) :   0.9168 B(  8-C ,  9-C ) :   1.3391
B(  8-C , 78-H ) :   1.0170 B(  9-C , 10-C ) :   1.4133 B(  9-C , 13-Cl) :   1.0441
B( 10-C , 11-C ) :   1.3537 B( 10-C , 12-Cl) :   1.0678 B( 11-C , 79-H ) :   0.9907
B( 14-C , 15-O ) :   2.2651 B( 14-C , 16-C ) :   0.9566 B( 16-C , 17-C ) :   1.6151
B( 17-C , 18-C ) :   1.1741 B( 17-C , 80-H ) :   0.9287 B( 18-C , 19-S ) :   1.0914
B( 18-C , 22-C ) :   1.4034 B( 19-S , 20-C ) :   1.1646 B( 20-C , 21-C ) :   1.4477
B( 20-C , 23-C ) :   1.1370 B( 21-C , 22-C ) :   1.3529 B( 21-C , 81-H ) :   0.9957
B( 22-C , 82-H ) :   0.9871 B( 23-C , 24-C ) :   1.4936 B( 23-C , 26-C ) :   0.1118
B( 23-C , 27-S ) :   1.1047 B( 24-C , 25-C ) :   1.2895 B( 24-C , 83-H ) :   0.9946
B( 25-C , 26-C ) :   1.4963 B( 25-C , 84-H ) :   0.9955 B( 26-C , 27-S ) :   1.1351
B( 26-C , 28-C ) :   1.1251 B( 28-C , 29-S ) :   1.1186 B( 28-C , 30-C ) :   0.1049
B( 28-C , 32-C ) :   1.4953 B( 29-S , 30-C ) :   1.1267 B( 30-C , 31-C ) :   1.4828
B( 30-C , 33-C ) :   1.1103 B( 31-C , 32-C ) :   1.2935 B( 31-C , 85-H ) :   0.9914
B( 32-C , 86-H ) :   0.9949 B( 33-C , 34-C ) :   1.6932 B( 33-C , 87-H ) :   0.9570
B( 34-C , 35-C ) :   1.1428 B( 34-C , 88-H ) :   0.9529 B( 35-C , 36-S ) :   1.0832
B( 35-C , 37-C ) :   0.1146 B( 35-C , 39-C ) :   1.4674 B( 36-S , 37-C ) :   1.1172
B( 37-C , 38-C ) :   1.4743 B( 37-C , 43-C ) :   1.1715 B( 38-C , 39-C ) :   1.2372
B( 38-C , 41-O ) :   1.1186 B( 39-C , 40-O ) :   1.2545 B( 40-O , 89-H ) :   0.9387
B( 41-O , 42-C ) :   0.9193 B( 42-C , 90-H ) :   0.9830 B( 42-C , 91-H ) :   0.9672
B( 42-C , 92-H ) :   0.9710 B( 43-C , 44-S ) :   1.1270 B( 43-C , 45-C ) :   0.1066
B( 43-C , 47-C ) :   1.4760 B( 44-S , 45-C ) :   1.0971 B( 45-C , 46-C ) :   1.5095
B( 45-C , 48-C ) :   1.1181 B( 46-C , 47-C ) :   1.2758 B( 46-C , 93-H ) :   0.9971
B( 47-C , 94-H ) :   0.9954 B( 48-C , 49-C ) :   1.5067 B( 48-C , 51-C ) :   0.1052
B( 48-C , 52-S ) :   1.1270 B( 49-C , 50-C ) :   1.2833 B( 49-C , 95-H ) :   0.9963
B( 50-C , 51-C ) :   1.4800 B( 50-C , 96-H ) :   0.9924 B( 51-C , 52-S ) :   1.1099
B( 51-C , 53-C ) :   1.1738 B( 53-C , 54-S ) :   1.1509 B( 53-C , 57-C ) :   1.4484
B( 54-S , 55-C ) :   1.0900 B( 55-C , 56-C ) :   1.4169 B( 55-C , 58-C ) :   1.1900
B( 56-C , 57-C ) :   1.3038 B( 56-C , 97-H ) :   1.0012 B( 57-C , 98-H ) :   0.9942
B( 58-C , 59-C ) :   1.5055 B( 58-C , 99-H ) :   0.9862 B( 59-C , 60-C ) :   1.2159
B( 59-C ,100-H ) :   0.9718 B( 60-C , 61-C ) :   1.4940 B( 60-C ,101-H ) :   0.9609
B( 61-C , 62-C ) :   1.0852 B( 61-C , 70-C ) :   0.9590 B( 62-C , 63-C ) :   1.6212
B( 62-C , 68-C ) :   0.9869 B( 63-C , 64-C ) :   1.1417 B( 63-C , 66-C ) :   1.1502
B( 64-C , 65-N ) :   2.9704 B( 66-C , 67-N ) :   2.9595 B( 68-C , 69-C ) :   1.3306
B( 68-C , 75-C ) :   1.3439 B( 69-C , 70-C ) :   0.9402 B( 69-C , 72-C ) :   1.3482
B( 70-C , 71-O ) :   2.1982 B( 72-C , 73-C ) :   1.3385 B( 72-C ,102-H ) :   1.0165
B( 73-C , 74-C ) :   1.4125 B( 73-C , 77-Cl) :   1.0427 B( 74-C , 75-C ) :   1.3575
B( 74-C , 76-Cl) :   1.0744 B( 75-C ,103-H ) :   0.9854

-----------------------------------------------------------------------------
         ABSORPTION SPECTRUM VIA TRANSITION ELECTRIC DIPOLE MOMENTS
-----------------------------------------------------------------------------
State   Energy  Wavelength   fosc         T2         TX        TY        TZ
        (cm-1)    (nm)                  (au**2)     (au)      (au)      (au)
-----------------------------------------------------------------------------
   0   15395.7    649.5   3.201524230  68.45938  -2.83648  -6.70634   3.92921
   1   16791.9    595.5   0.539621565  10.57948  -2.36374   0.61225   2.14881
   2   21381.5    467.7   0.050927653   0.78414  -0.34475  -0.67367   0.45983
   3   22265.0    449.1   0.315105053   4.65916  -0.85523  -1.17615   1.59512
   4   23830.0    419.6   0.482533351   6.66620  -0.81748  -2.22525   1.02284
   5   24064.8    415.5   0.131977828   1.80549   0.89636  -0.98692  -0.16734
   6   24867.6    402.1   0.117320088   1.55315   1.19415  -0.03406  -0.35496
   7   27249.3    367.0   0.043990395   0.53147  -0.04152   0.40635  -0.60384
   8   27868.8    358.8   0.017725554   0.20939  -0.19130   0.30597  -0.28139
   9   27927.5    358.1   0.025621266   0.30203   0.19852   0.51219  -0.01665
  10   29043.9    344.3   0.014279309   0.16186   0.05828  -0.07242  -0.39143
  11   29099.8    343.6   0.000337283   0.00382   0.01892  -0.04845   0.03332
  12   29510.9    338.9   0.079714091   0.88926  -0.61150   0.59575  -0.40050
  13   29811.3    335.4   0.076966313   0.84995  -0.46302   0.59305  -0.53279
  14   29985.2    333.5   0.174209461   1.91267  -0.89325   0.91297  -0.53035
  15   30978.4    322.8   0.000788463   0.00838   0.08337  -0.02942   0.02373
  16   31594.7    316.5   0.049660009   0.51745  -0.22605   0.54863  -0.40664
  17   31868.8    313.8   0.001119092   0.01156   0.07725   0.03386  -0.06667
  18   32000.9    312.5   0.000485450   0.00499   0.02287   0.06614  -0.00985
  19   32068.7    311.8   0.155457481   1.59590  -0.43067   1.07427  -0.50634
  20   32470.9    308.0   0.074211127   0.75240  -0.74283   0.23419  -0.38179
  21   32900.2    303.9   0.072336184   0.72382  -0.20400   0.75843  -0.32710
  22   33715.3    296.6   0.010425769   0.10180  -0.30503  -0.07626  -0.05426
  23   33920.8    294.8   0.014905597   0.14466  -0.10228  -0.29613   0.21565
  24   34350.4    291.1   0.035421932   0.33948   0.55888  -0.14519  -0.07780
  25   34831.8    287.1   0.112339856   1.06178   0.88122  -0.50597   0.17094
  26   34944.5    286.2   0.029395260   0.27693  -0.48219   0.06657   0.19997
  27   35203.8    284.1   0.077608651   0.72576  -0.62786   0.52825  -0.22913
  28   35348.8    282.9   0.058293880   0.54291  -0.22032   0.63836  -0.29471
  29   35453.2    282.1   0.253813980   2.35687  -0.81395   1.04901  -0.77066
  30   35587.7    281.0   0.030923399   0.28606  -0.37893   0.37429  -0.04878
  31   35937.1    278.3   0.185571728   1.69998   0.95373  -0.80642   0.37428
  32   36382.8    274.9   0.009342771   0.08454   0.28367  -0.06246  -0.01303
  33   36522.4    273.8   0.966021501   8.70770  -2.61964   1.32137  -0.31494
  34   36869.0    271.2   0.092721555   0.82793  -0.75819   0.28131  -0.41707
  35   36958.7    270.6   0.158766770   1.41423  -0.11757  -0.70331   0.95172
  36   37091.1    269.6   0.098455705   0.87387   0.92727   0.10382   0.05714
  37   37519.8    266.5   0.000236652   0.00208  -0.00078  -0.04485  -0.00804
  38   37757.8    264.8   0.002877036   0.02508   0.02998   0.14893  -0.04478
  39   38026.0    263.0   0.037513871   0.32478   0.08821  -0.46727   0.31410
  40   38489.1    259.8   0.034899624   0.29851   0.09245  -0.53843   0.00733
  41   38728.2    258.2   0.033340922   0.28342  -0.36667   0.36695   0.11965
  42   38894.5    257.1   0.072601234   0.61451  -0.74702  -0.18894   0.14413
  43   39206.2    255.1   0.015289702   0.12839  -0.21969  -0.27249   0.07661
  44   39745.9    251.6   0.013360566   0.11066   0.31468   0.02759  -0.10432
  45   40041.6    249.7   0.058402340   0.48017  -0.13985  -0.59148   0.33281
  46   40206.2    248.7   0.014054547   0.11508   0.20091   0.09527  -0.25620

FINAL SINGLE POINT ENERGY     -7406.935232079537

DIPOLE MOMENT
-------------
                                X             Y             Z
Electronic contribution:     -9.48890      29.64872      18.26918
Nuclear contribution   :     11.31199     -31.17936     -21.18341
                        -----------------------------------------
Total Dipole Moment    :      1.82309      -1.53064      -2.91423
                        -----------------------------------------
Magnitude (a.u.)       :      3.76288
Magnitude (Debye)      :      9.56447

Rotational constants in cm-1:     0.001589     0.000072     0.000070
Rotational constants in MHz :    47.628014     2.150779     2.087312

                             ****ORCA TERMINATED NORMALLY****
TOTAL RUN TIME: 0 days 0 hours 11 minutes 16 seconds 806 msec
