                         Program Version 4.2.0 -  RELEASE  -
|  1> # ORCA input file
|  2> # SCF done       -203.574072966752          0.000394408192
|  3> ! CAM-B3LYP def2-SVP def2/J RIJCOSX Grid4 TightSCF
|  4> %maxcore 5000
|  5> %tddft
|  6>     Mode sTDDFT
|  7>     Ethresh 5.0
|  8>     maxcore 5000
|  9> end
| 10>
| 11> %pal
| 12>   nprocs 6
| 13>   end
| 14> * xyz 0 1
| 15>    C        3.01397        -3.01199         1.74668
| 16>    C        2.33261        -2.58367         2.84826
| 17>    C        2.74754        -2.84192         4.17350
| 18>    N        3.04879        -3.02868         5.26389
| 19>    C        1.20745        -1.73002         2.79421
| 20>    N        0.36165        -0.95525         2.82169
| 21>    C        4.32745        -3.65059         1.74270
| 22>    C        4.90406        -3.51620         0.46357
| 23>    C        6.16826        -3.99864         0.18421
| 24>    C        6.86967        -4.63861         1.19775
| 25>    C        6.29591        -4.78955         2.46908
| 26>    C        5.02641        -4.29541         2.74947
| 27>   Cl        7.16798        -5.59587         3.70391
| 28>   Cl        8.44147        -5.25093         0.89084
| 29>    C        3.95766        -2.83714        -0.43915
| 30>    O        4.11432        -2.49779        -1.58528
| 31>    C        2.69563        -2.71158         0.36085
| 32>    C        1.52181        -2.51374        -0.28565
| 33>    C        0.20878        -2.72931         0.22181
| 34>    N       -0.01271        -3.41774         1.32825
| 35>    C       -1.35523        -3.48340         1.46466
| 36>    C       -2.03581        -2.79475         0.36730
| 37>    C       -3.49370        -2.87002         0.53937
| 38>    O       -4.36316        -2.43640        -0.18844
| 39>    C       -3.63418        -3.61431         1.80549
| 40>    C       -2.29856        -3.98095         2.33055
| 41>    N       -2.41290        -4.66821         3.49225
| 42>    C       -3.69959        -4.74047         3.72279
| 43>    C       -4.52174        -4.09890         2.70782
| 44>    C       -1.04049        -2.29738        -0.44777
| 45>    C       -1.12436        -1.53400        -1.63519
| 46>    C       -2.32032        -1.21485        -2.20623
| 47>    C       -2.47711        -0.47457        -3.38890
| 48>    S       -1.15435         0.23175        -4.24627
| 49>    C       -2.17412         0.92058        -5.47116
| 50>    C       -3.52216         0.53478        -5.26115
| 51>    C       -3.69563        -0.21011        -4.05749
| 52>    C       -4.97493        -0.61496        -3.64120
| 53>    C       -6.04916        -0.30722        -4.43136
| 54>    F       -7.28562        -0.66045        -4.05775
| 55>    C       -5.87240         0.35686        -5.66065
| 56>    F       -6.94399         0.59534        -6.43598
| 57>    C       -4.63644         0.76253        -6.08496
| 58>    C       -1.57985         1.81653        -6.37374
| 59>    C       -2.25074         2.68398        -7.19091
| 60>    C       -1.60876         3.64376        -7.99540
| 61>    N       -0.29175         3.66528        -8.19860
| 62>    C       -0.06629         4.64226        -9.08462
| 63>    C       -1.32226         5.29128        -9.50185
| 64>    C       -1.06035         6.36215       -10.48625
| 65>    O       -1.85848         7.09128       -11.02806
| 66>    C        0.40372         6.30187       -10.63163
| 67>    C        0.97018         5.24589        -9.76429
| 68>    N        2.31429         5.19266        -9.89130
| 69>    C        2.61473         6.13110       -10.76104
| 70>    C        1.47102         6.86173       -11.26059
| 71>    C       -2.31953         4.68760        -8.78813
| 72>    C       -3.72430         4.94240        -8.80561
| 73>    C       -4.54196         4.73783        -7.74293
| 74>    C       -5.95620         4.79530        -7.82994
| 75>    C       -6.78734         4.30596        -6.86275
| 76>    C       -8.24168         4.25006        -6.89826
| 77>    C       -9.06305         4.76192        -7.86476
| 78>    C      -10.47289         4.67727        -7.83206
| 79>    N      -11.61916         4.64813        -7.86777
| 80>    C       -8.64169         5.45056        -9.02351
| 81>    N       -8.38415         6.01778        -9.98738
| 82>    C       -8.68470         3.54592        -5.69806
| 83>    C       -7.56072         3.21464        -4.92197
| 84>    C       -6.33407         3.64615        -5.61241
| 85>    O       -5.19525         3.43655        -5.23962
| 86>    C       -7.67235         2.53949        -3.72288
| 87>    C       -8.93833         2.17080        -3.28853
| 88>    C      -10.06414         2.48637        -4.06097
| 89>    C       -9.94722         3.17607        -5.26265
| 90>   Cl      -11.62189         2.01807        -3.51963
| 91>   Cl       -9.11831         1.32470        -1.81012
| 92>    H        6.59759        -3.88039        -0.79819
| 93>    H        4.61079        -4.43302         3.73447
| 94>    H        1.60526        -2.24946        -1.33420
| 95>    H       -4.06796        -5.24471         4.59909
| 96>    H       -5.59249        -4.04841         2.71560
| 97>    H       -0.20455        -1.20235        -2.09862
| 98>    H       -3.22792        -1.56086        -1.72978
| 99>    H       -5.12597        -1.15383        -2.71944
|100>    H       -4.55208         1.22060        -7.05426
|101>    H       -0.49965         1.88804        -6.35670
|102>    H       -3.32495         2.69126        -7.19617
|103>    H        3.63950         6.29983       -11.04296
|104>    H        1.50329         7.66258       -11.97229
|105>    H       -4.13079         5.30998        -9.74069
|106>    H       -4.12268         4.48632        -6.78077
|107>    H       -6.37688         5.18835        -8.74622
|108>    H       -6.79541         2.30479        -3.13948
|109>    H      -10.83765         3.39811        -5.82733
|110> *
|111>
|112>                          ****END OF INPUT****

CARTESIAN COORDINATES (ANGSTROEM)
---------------------------------
  C      3.013970   -3.011990    1.746680
  C      2.332610   -2.583670    2.848260
  C      2.747540   -2.841920    4.173500
  N      3.048790   -3.028680    5.263890
  C      1.207450   -1.730020    2.794210
  N      0.361650   -0.955250    2.821690
  C      4.327450   -3.650590    1.742700
  C      4.904060   -3.516200    0.463570
  C      6.168260   -3.998640    0.184210
  C      6.869670   -4.638610    1.197750
  C      6.295910   -4.789550    2.469080
  C      5.026410   -4.295410    2.749470
  Cl     7.167980   -5.595870    3.703910
  Cl     8.441470   -5.250930    0.890840
  C      3.957660   -2.837140   -0.439150
  O      4.114320   -2.497790   -1.585280
  C      2.695630   -2.711580    0.360850
  C      1.521810   -2.513740   -0.285650
  C      0.208780   -2.729310    0.221810
  N     -0.012710   -3.417740    1.328250
  C     -1.355230   -3.483400    1.464660
  C     -2.035810   -2.794750    0.367300
  C     -3.493700   -2.870020    0.539370
  O     -4.363160   -2.436400   -0.188440
  C     -3.634180   -3.614310    1.805490
  C     -2.298560   -3.980950    2.330550
  N     -2.412900   -4.668210    3.492250
  C     -3.699590   -4.740470    3.722790
  C     -4.521740   -4.098900    2.707820
  C     -1.040490   -2.297380   -0.447770
  C     -1.124360   -1.534000   -1.635190
  C     -2.320320   -1.214850   -2.206230
  C     -2.477110   -0.474570   -3.388900
  S     -1.154350    0.231750   -4.246270
  C     -2.174120    0.920580   -5.471160
  C     -3.522160    0.534780   -5.261150
  C     -3.695630   -0.210110   -4.057490
  C     -4.974930   -0.614960   -3.641200
  C     -6.049160   -0.307220   -4.431360
  F     -7.285620   -0.660450   -4.057750
  C     -5.872400    0.356860   -5.660650
  F     -6.943990    0.595340   -6.435980
  C     -4.636440    0.762530   -6.084960
  C     -1.579850    1.816530   -6.373740
  C     -2.250740    2.683980   -7.190910
  C     -1.608760    3.643760   -7.995400
  N     -0.291750    3.665280   -8.198600
  C     -0.066290    4.642260   -9.084620
  C     -1.322260    5.291280   -9.501850
  C     -1.060350    6.362150  -10.486250
  O     -1.858480    7.091280  -11.028060
  C      0.403720    6.301870  -10.631630
  C      0.970180    5.245890   -9.764290
  N      2.314290    5.192660   -9.891300
  C      2.614730    6.131100  -10.761040
  C      1.471020    6.861730  -11.260590
  C     -2.319530    4.687600   -8.788130
  C     -3.724300    4.942400   -8.805610
  C     -4.541960    4.737830   -7.742930
  C     -5.956200    4.795300   -7.829940
  C     -6.787340    4.305960   -6.862750
  C     -8.241680    4.250060   -6.898260
  C     -9.063050    4.761920   -7.864760
  C    -10.472890    4.677270   -7.832060
  N    -11.619160    4.648130   -7.867770
  C     -8.641690    5.450560   -9.023510
  N     -8.384150    6.017780   -9.987380
  C     -8.684700    3.545920   -5.698060
  C     -7.560720    3.214640   -4.921970
  C     -6.334070    3.646150   -5.612410
  O     -5.195250    3.436550   -5.239620
  C     -7.672350    2.539490   -3.722880
  C     -8.938330    2.170800   -3.288530
  C    -10.064140    2.486370   -4.060970
  C     -9.947220    3.176070   -5.262650
  Cl   -11.621890    2.018070   -3.519630
  Cl    -9.118310    1.324700   -1.810120
  H      6.597590   -3.880390   -0.798190
  H      4.610790   -4.433020    3.734470
  H      1.605260   -2.249460   -1.334200
  H     -4.067960   -5.244710    4.599090
  H     -5.592490   -4.048410    2.715600
  H     -0.204550   -1.202350   -2.098620
  H     -3.227920   -1.560860   -1.729780
  H     -5.125970   -1.153830   -2.719440
  H     -4.552080    1.220600   -7.054260
  H     -0.499650    1.888040   -6.356700
  H     -3.324950    2.691260   -7.196170
  H      3.639500    6.299830  -11.042960
  H      1.503290    7.662580  -11.972290
  H     -4.130790    5.309980   -9.740690
  H     -4.122680    4.486320   -6.780770
  H     -6.376880    5.188350   -8.746220
  H     -6.795410    2.304790   -3.139480
  H    -10.837650    3.398110   -5.827330

 Total Charge           Charge          ....    0
 Multiplicity           Mult            ....    1
 Number of Electrons    NEL             ....  556
 Basis Dimension        Dim             .... 1188

ORBITAL ENERGIES
----------------

  NO   OCC          E(Eh)            E(eV)
   0   2.0000    -101.612371     -2765.0132
   1   2.0000    -101.612170     -2765.0077
   2   2.0000    -101.604800     -2764.8072
   3   2.0000    -101.603153     -2764.7623
   4   2.0000     -88.995176     -2421.6819
   5   2.0000     -24.809928      -675.1125
   6   2.0000     -24.805710      -674.9977
   7   2.0000     -19.245042      -523.6842
   8   2.0000     -19.234685      -523.4024
   9   2.0000     -19.232545      -523.3442
  10   2.0000     -19.208940      -522.7018
  11   2.0000     -14.437033      -392.8516
  12   2.0000     -14.434389      -392.7797
  13   2.0000     -14.429679      -392.6515
  14   2.0000     -14.425586      -392.5402
  15   2.0000     -14.423603      -392.4862
  16   2.0000     -14.423551      -392.4848
  17   2.0000     -14.406950      -392.0330
  18   2.0000     -14.401191      -391.8763
  19   2.0000     -10.394734      -282.8551
  20   2.0000     -10.391396      -282.7643
  21   2.0000     -10.387320      -282.6534
  22   2.0000     -10.386934      -282.6428
  23   2.0000     -10.383855      -282.5591
  24   2.0000     -10.371968      -282.2356
  25   2.0000     -10.370331      -282.1911
  26   2.0000     -10.370131      -282.1856
  27   2.0000     -10.368802      -282.1494
  28   2.0000     -10.364227      -282.0249
  29   2.0000     -10.361575      -281.9528
  30   2.0000     -10.361149      -281.9412
  31   2.0000     -10.360392      -281.9206
  32   2.0000     -10.355058      -281.7755
  33   2.0000     -10.352272      -281.6996
  34   2.0000     -10.350436      -281.6497
  35   2.0000     -10.344709      -281.4939
  36   2.0000     -10.344411      -281.4857
  37   2.0000     -10.344051      -281.4759
  38   2.0000     -10.338909      -281.3360
  39   2.0000     -10.336866      -281.2804
  40   2.0000     -10.336208      -281.2625
  41   2.0000     -10.335504      -281.2434
  42   2.0000     -10.334516      -281.2165
  43   2.0000     -10.334363      -281.2123
  44   2.0000     -10.332547      -281.1629
  45   2.0000     -10.332332      -281.1571
  46   2.0000     -10.327254      -281.0189
  47   2.0000     -10.326904      -281.0093
  48   2.0000     -10.325626      -280.9746
  49   2.0000     -10.325524      -280.9718
  50   2.0000     -10.325056      -280.9590
  51   2.0000     -10.323581      -280.9189
  52   2.0000     -10.321943      -280.8743
  53   2.0000     -10.320219      -280.8274
  54   2.0000     -10.319911      -280.8191
  55   2.0000     -10.319865      -280.8178
  56   2.0000     -10.319801      -280.8161
  57   2.0000     -10.319529      -280.8087
  58   2.0000     -10.318235      -280.7735
  59   2.0000     -10.316146      -280.7166
  60   2.0000     -10.315236      -280.6918
  61   2.0000     -10.314262      -280.6653
  62   2.0000     -10.311339      -280.5858
  63   2.0000     -10.311258      -280.5836
  64   2.0000     -10.310750      -280.5698
  65   2.0000     -10.309491      -280.5355
  66   2.0000     -10.309084      -280.5244
  67   2.0000     -10.309057      -280.5237
  68   2.0000     -10.308171      -280.4996
  69   2.0000     -10.307833      -280.4904
  70   2.0000     -10.306641      -280.4580
  71   2.0000     -10.305228      -280.4195
  72   2.0000     -10.299420      -280.2615
  73   2.0000     -10.296296      -280.1765
  74   2.0000     -10.293694      -280.1056
  75   2.0000     -10.284878      -279.8658
  76   2.0000     -10.284322      -279.8506
  77   2.0000      -9.567414      -260.3426
  78   2.0000      -9.567221      -260.3373
  79   2.0000      -9.559848      -260.1367
  80   2.0000      -9.558204      -260.0920
  81   2.0000      -8.090292      -220.1480
  82   2.0000      -7.337813      -199.6720
  83   2.0000      -7.337642      -199.6674
  84   2.0000      -7.330236      -199.4659
  85   2.0000      -7.328577      -199.4207
  86   2.0000      -7.327670      -199.3960
  87   2.0000      -7.327497      -199.3913
  88   2.0000      -7.326908      -199.3753
  89   2.0000      -7.326683      -199.3692
  90   2.0000      -7.320115      -199.1905
  91   2.0000      -7.319357      -199.1698
  92   2.0000      -7.318476      -199.1458
  93   2.0000      -7.317732      -199.1256
  94   2.0000      -6.059083      -164.8760
  95   2.0000      -6.055142      -164.7688
  96   2.0000      -6.053256      -164.7175
  97   2.0000      -1.329449       -36.1762
  98   2.0000      -1.314292       -35.7637
  99   2.0000      -1.160645       -31.5828
 100   2.0000      -1.148062       -31.2404
 101   2.0000      -1.146198       -31.1896
 102   2.0000      -1.124341       -30.5949
 103   2.0000      -1.100471       -29.9453
 104   2.0000      -1.079630       -29.3782
 105   2.0000      -1.076906       -29.3041
 106   2.0000      -1.055739       -28.7281
 107   2.0000      -1.046904       -28.4877
 108   2.0000      -1.037302       -28.2264
 109   2.0000      -1.030962       -28.0539
 110   2.0000      -1.028732       -27.9932
 111   2.0000      -1.023506       -27.8510
 112   2.0000      -1.010485       -27.4967
 113   2.0000      -1.008350       -27.4386
 114   2.0000      -1.002849       -27.2889
 115   2.0000      -0.998633       -27.1742
 116   2.0000      -0.975484       -26.5443
 117   2.0000      -0.967244       -26.3201
 118   2.0000      -0.967030       -26.3142
 119   2.0000      -0.960471       -26.1357
 120   2.0000      -0.949435       -25.8354
 121   2.0000      -0.948066       -25.7982
 122   2.0000      -0.946260       -25.7490
 123   2.0000      -0.936272       -25.4773
 124   2.0000      -0.933742       -25.4084
 125   2.0000      -0.924732       -25.1632
 126   2.0000      -0.916349       -24.9351
 127   2.0000      -0.906792       -24.6751
 128   2.0000      -0.892517       -24.2866
 129   2.0000      -0.886417       -24.1206
 130   2.0000      -0.879165       -23.9233
 131   2.0000      -0.876534       -23.8517
 132   2.0000      -0.873182       -23.7605
 133   2.0000      -0.867172       -23.5970
 134   2.0000      -0.865779       -23.5590
 135   2.0000      -0.859492       -23.3880
 136   2.0000      -0.853413       -23.2226
 137   2.0000      -0.834772       -22.7153
 138   2.0000      -0.822359       -22.3775
 139   2.0000      -0.817239       -22.2382
 140   2.0000      -0.791921       -21.5493
 141   2.0000      -0.788115       -21.4457
 142   2.0000      -0.786751       -21.4086
 143   2.0000      -0.774462       -21.0742
 144   2.0000      -0.768384       -20.9088
 145   2.0000      -0.767728       -20.8909
 146   2.0000      -0.757206       -20.6046
 147   2.0000      -0.752904       -20.4876
 148   2.0000      -0.738853       -20.1052
 149   2.0000      -0.737231       -20.0611
 150   2.0000      -0.729189       -19.8422
 151   2.0000      -0.723841       -19.6967
 152   2.0000      -0.719362       -19.5748
 153   2.0000      -0.704497       -19.1704
 154   2.0000      -0.703739       -19.1497
 155   2.0000      -0.697295       -18.9744
 156   2.0000      -0.691932       -18.8284
 157   2.0000      -0.687657       -18.7121
 158   2.0000      -0.682031       -18.5590
 159   2.0000      -0.675515       -18.3817
 160   2.0000      -0.670319       -18.2403
 161   2.0000      -0.659130       -17.9358
 162   2.0000      -0.657848       -17.9009
 163   2.0000      -0.652428       -17.7535
 164   2.0000      -0.643607       -17.5134
 165   2.0000      -0.640839       -17.4381
 166   2.0000      -0.640508       -17.4291
 167   2.0000      -0.632395       -17.2083
 168   2.0000      -0.630463       -17.1558
 169   2.0000      -0.628367       -17.0987
 170   2.0000      -0.625164       -17.0116
 171   2.0000      -0.624931       -17.0052
 172   2.0000      -0.615863       -16.7585
 173   2.0000      -0.611333       -16.6352
 174   2.0000      -0.607592       -16.5334
 175   2.0000      -0.597816       -16.2674
 176   2.0000      -0.596841       -16.2409
 177   2.0000      -0.594638       -16.1809
 178   2.0000      -0.591177       -16.0868
 179   2.0000      -0.588368       -16.0103
 180   2.0000      -0.581875       -15.8336
 181   2.0000      -0.574915       -15.6442
 182   2.0000      -0.573029       -15.5929
 183   2.0000      -0.568288       -15.4639
 184   2.0000      -0.566072       -15.4036
 185   2.0000      -0.563920       -15.3450
 186   2.0000      -0.562184       -15.2978
 187   2.0000      -0.561365       -15.2755
 188   2.0000      -0.560679       -15.2569
 189   2.0000      -0.556789       -15.1510
 190   2.0000      -0.555148       -15.1063
 191   2.0000      -0.553477       -15.0609
 192   2.0000      -0.549206       -14.9447
 193   2.0000      -0.547809       -14.9067
 194   2.0000      -0.547679       -14.9031
 195   2.0000      -0.546098       -14.8601
 196   2.0000      -0.542889       -14.7728
 197   2.0000      -0.540580       -14.7099
 198   2.0000      -0.537750       -14.6329
 199   2.0000      -0.532001       -14.4765
 200   2.0000      -0.529011       -14.3951
 201   2.0000      -0.527504       -14.3541
 202   2.0000      -0.523859       -14.2549
 203   2.0000      -0.523828       -14.2541
 204   2.0000      -0.521141       -14.1810
 205   2.0000      -0.520091       -14.1524
 206   2.0000      -0.518036       -14.0965
 207   2.0000      -0.516847       -14.0641
 208   2.0000      -0.513567       -13.9749
 209   2.0000      -0.510703       -13.8969
 210   2.0000      -0.506561       -13.7842
 211   2.0000      -0.505587       -13.7577
 212   2.0000      -0.504948       -13.7403
 213   2.0000      -0.503637       -13.7047
 214   2.0000      -0.499768       -13.5994
 215   2.0000      -0.496458       -13.5093
 216   2.0000      -0.492718       -13.4075
 217   2.0000      -0.491198       -13.3662
 218   2.0000      -0.489640       -13.3238
 219   2.0000      -0.486970       -13.2511
 220   2.0000      -0.484737       -13.1904
 221   2.0000      -0.482566       -13.1313
 222   2.0000      -0.479538       -13.0489
 223   2.0000      -0.477382       -12.9902
 224   2.0000      -0.474828       -12.9207
 225   2.0000      -0.473127       -12.8744
 226   2.0000      -0.470600       -12.8057
 227   2.0000      -0.464468       -12.6388
 228   2.0000      -0.464325       -12.6349
 229   2.0000      -0.458748       -12.4832
 230   2.0000      -0.458086       -12.4651
 231   2.0000      -0.456212       -12.4142
 232   2.0000      -0.452551       -12.3145
 233   2.0000      -0.451056       -12.2739
 234   2.0000      -0.450973       -12.2716
 235   2.0000      -0.449877       -12.2418
 236   2.0000      -0.446606       -12.1528
 237   2.0000      -0.444911       -12.1066
 238   2.0000      -0.444013       -12.0822
 239   2.0000      -0.442582       -12.0433
 240   2.0000      -0.440833       -11.9957
 241   2.0000      -0.439257       -11.9528
 242   2.0000      -0.436091       -11.8666
 243   2.0000      -0.435049       -11.8383
 244   2.0000      -0.432705       -11.7745
 245   2.0000      -0.429906       -11.6983
 246   2.0000      -0.428804       -11.6683
 247   2.0000      -0.422278       -11.4908
 248   2.0000      -0.418399       -11.3852
 249   2.0000      -0.417858       -11.3705
 250   2.0000      -0.412276       -11.2186
 251   2.0000      -0.400579       -10.9003
 252   2.0000      -0.395057       -10.7500
 253   2.0000      -0.394056       -10.7228
 254   2.0000      -0.385852       -10.4996
 255   2.0000      -0.384883       -10.4732
 256   2.0000      -0.380849       -10.3634
 257   2.0000      -0.374096       -10.1797
 258   2.0000      -0.371867       -10.1190
 259   2.0000      -0.364072        -9.9069
 260   2.0000      -0.362572        -9.8661
 261   2.0000      -0.355385        -9.6705
 262   2.0000      -0.354914        -9.6577
 263   2.0000      -0.353038        -9.6067
 264   2.0000      -0.352383        -9.5888
 265   2.0000      -0.350167        -9.5285
 266   2.0000      -0.350124        -9.5274
 267   2.0000      -0.344047        -9.3620
 268   2.0000      -0.336257        -9.1500
 269   2.0000      -0.335214        -9.1216
 270   2.0000      -0.330235        -8.9862
 271   2.0000      -0.329212        -8.9583
 272   2.0000      -0.327813        -8.9203
 273   2.0000      -0.322190        -8.7672
 274   2.0000      -0.317152        -8.6302
 275   2.0000      -0.312524        -8.5042
 276   2.0000      -0.294914        -8.0250
 277   2.0000      -0.253527        -6.8988
 278   0.0000      -0.146317        -3.9815
 279   0.0000      -0.127546        -3.4707
 280   0.0000      -0.105554        -2.8723
 281   0.0000      -0.092314        -2.5120
 282   0.0000      -0.081137        -2.2079

MULLIKEN ATOMIC CHARGES
-----------------------
   0 C :    0.258529
   1 C :   -0.255185
   2 C :   -0.195620
   3 N :    0.175739
   4 C :   -0.176555
   5 N :    0.170243
   6 C :    0.026510
   7 C :   -0.005693
   8 C :   -0.024973
   9 C :    0.060415
  10 C :    0.052240
  11 C :   -0.014552
  12 Cl:   -0.024426
  13 Cl:   -0.033563
  14 C :    0.136368
  15 O :   -0.120504
  16 C :   -0.060077
  17 C :   -0.009783
  18 C :    0.032516
  19 N :   -0.054269
  20 C :    0.088283
  21 C :   -0.165111
  22 C :    0.232812
  23 O :   -0.151222
  24 C :   -0.005384
  25 C :   -0.023188
  26 N :   -0.050289
  27 C :    0.100140
  28 C :   -0.094287
  29 C :    0.078474
  30 C :   -0.048081
  31 C :    0.014710
  32 C :   -0.081969
  33 S :    0.187702
  34 C :   -0.118012
  35 C :    0.143927
  36 C :    0.119180
  37 C :   -0.114884
  38 C :    0.229225
  39 F :   -0.170739
  40 C :    0.213238
  41 F :   -0.180626
  42 C :   -0.076398
  43 C :    0.090742
  44 C :   -0.056701
  45 C :    0.039720
  46 N :   -0.042483
  47 C :    0.056718
  48 C :   -0.105245
  49 C :    0.200791
  50 O :   -0.124002
  51 C :   -0.046031
  52 C :   -0.026393
  53 N :   -0.056694
  54 C :    0.088041
  55 C :   -0.092024
  56 C :    0.011896
  57 C :   -0.003937
  58 C :   -0.016512
  59 C :   -0.036219
  60 C :   -0.062044
  61 C :    0.321431
  62 C :   -0.338178
  63 C :   -0.188107
  64 N :    0.162130
  65 C :   -0.192510
  66 N :    0.162461
  67 C :    0.035733
  68 C :   -0.004715
  69 C :    0.141394
  70 O :   -0.164463
  71 C :   -0.040272
  72 C :    0.072250
  73 C :    0.049749
  74 C :   -0.014093
  75 Cl:   -0.030521
  76 Cl:   -0.036195
  77 H :    0.005274
  78 H :    0.009454
  79 H :    0.021316
  80 H :    0.019067
  81 H :    0.004599
  82 H :   -0.013116
  83 H :    0.012782
  84 H :    0.017031
  85 H :    0.001240
  86 H :    0.019395
  87 H :   -0.025027
  88 H :    0.006056
  89 H :   -0.006451
  90 H :    0.036258
  91 H :    0.051029
  92 H :    0.022403
  93 H :   -0.002724
  94 H :    0.000839
Sum of atomic charges:   -0.0000000

LOEWDIN ATOMIC CHARGES
----------------------
   0 C :    0.059109
   1 C :   -0.088640
   2 C :   -0.017876
   3 N :   -0.027280
   4 C :   -0.014044
   5 N :   -0.039461
   6 C :   -0.005022
   7 C :   -0.051267
   8 C :    0.006159
   9 C :   -0.134756
  10 C :   -0.124575
  11 C :   -0.013322
  12 Cl:    0.173298
  13 Cl:    0.166467
  14 C :    0.085427
  15 O :   -0.119332
  16 C :   -0.019387
  17 C :    0.029135
  18 C :    0.057609
  19 N :   -0.072896
  20 C :    0.047968
  21 C :   -0.053258
  22 C :    0.076135
  23 O :   -0.145923
  24 C :   -0.037025
  25 C :    0.040288
  26 N :   -0.090618
  27 C :    0.088616
  28 C :   -0.022287
  29 C :   -0.016866
  30 C :   -0.034126
  31 C :    0.000055
  32 C :   -0.160013
  33 S :    0.509835
  34 C :   -0.170423
  35 C :   -0.024197
  36 C :   -0.032793
  37 C :   -0.031092
  38 C :    0.061858
  39 F :   -0.046238
  40 C :    0.064186
  41 F :   -0.051834
  42 C :   -0.025775
  43 C :    0.033812
  44 C :   -0.057348
  45 C :    0.069905
  46 N :   -0.115679
  47 C :    0.040285
  48 C :   -0.016967
  49 C :    0.060862
  50 O :   -0.137425
  51 C :   -0.046621
  52 C :    0.017133
  53 N :   -0.099603
  54 C :    0.070521
  55 C :   -0.041027
  56 C :   -0.043274
  57 C :    0.042527
  58 C :   -0.036388
  59 C :    0.074596
  60 C :   -0.090620
  61 C :    0.073398
  62 C :   -0.126536
  63 C :   -0.019595
  64 N :   -0.040747
  65 C :   -0.021636
  66 N :   -0.038522
  67 C :   -0.010550
  68 C :   -0.046646
  69 C :    0.087618
  70 O :   -0.144511
  71 C :   -0.003791
  72 C :   -0.131964
  73 C :   -0.127852
  74 C :   -0.010002
  75 Cl:    0.167162
  76 Cl:    0.166434
  77 H :    0.048320
  78 H :    0.046502
  79 H :    0.047767
  80 H :    0.027862
  81 H :    0.038110
  82 H :    0.022995
  83 H :    0.038600
  84 H :    0.051047
  85 H :    0.041314
  86 H :    0.043810
  87 H :    0.028324
  88 H :    0.022380
  89 H :    0.033738
  90 H :    0.047998
  91 H :    0.034913
  92 H :    0.045592
  93 H :    0.043077
  94 H :    0.044885

  Mayer bond orders larger than 0.100000
B(  0-C ,  1-C ) :   1.7175 B(  0-C ,  6-C ) :   1.0051 B(  0-C , 16-C ) :   1.0098
B(  1-C ,  2-C ) :   1.1349 B(  1-C ,  4-C ) :   1.1544 B(  2-C ,  3-N ) :   2.9911
B(  4-C ,  5-N ) :   2.9795 B(  6-C ,  7-C ) :   1.3214 B(  6-C , 11-C ) :   1.3457
B(  7-C ,  8-C ) :   1.3394 B(  7-C , 14-C ) :   0.9289 B(  8-C ,  9-C ) :   1.3543
B(  8-C , 77-H ) :   1.0165 B(  9-C , 10-C ) :   1.3932 B(  9-C , 13-Cl) :   1.0554
B( 10-C , 11-C ) :   1.3609 B( 10-C , 12-Cl) :   1.0816 B( 11-C , 78-H ) :   0.9894
B( 14-C , 15-O ) :   2.2764 B( 14-C , 16-C ) :   0.9147 B( 16-C , 17-C ) :   1.7272
B( 17-C , 18-C ) :   1.0635 B( 17-C , 79-H ) :   0.9384 B( 18-C , 19-N ) :   1.5797
B( 18-C , 20-C ) :   0.1103 B( 18-C , 29-C ) :   1.0127 B( 19-N , 20-C ) :   1.3001
B( 20-C , 21-C ) :   1.0717 B( 20-C , 25-C ) :   1.4336 B( 21-C , 22-C ) :   0.9093
B( 21-C , 29-C ) :   1.5139 B( 22-C , 23-O ) :   2.1556 B( 22-C , 24-C ) :   0.9319
B( 23-O , 83-H ) :   0.1068 B( 24-C , 25-C ) :   1.0602 B( 24-C , 28-C ) :   1.6230
B( 25-C , 26-N ) :   1.3057 B( 26-N , 27-C ) :   1.6651 B( 27-C , 28-C ) :   1.0475
B( 27-C , 80-H ) :   0.9888 B( 28-C , 81-H ) :   1.0121 B( 29-C , 30-C ) :   1.1583
B( 30-C , 31-C ) :   1.5933 B( 30-C , 82-H ) :   0.9627 B( 31-C , 32-C ) :   1.2021
B( 31-C , 83-H ) :   0.9449 B( 32-C , 33-S ) :   1.1679 B( 32-C , 36-C ) :   1.2707
B( 33-S , 34-C ) :   1.1394 B( 34-C , 35-C ) :   1.2779 B( 34-C , 43-C ) :   1.1983
B( 35-C , 36-C ) :   1.2472 B( 35-C , 42-C ) :   1.1912 B( 36-C , 37-C ) :   1.1868
B( 37-C , 38-C ) :   1.4766 B( 37-C , 42-C ) :   0.1106 B( 37-C , 84-H ) :   0.9974
B( 38-C , 39-F ) :   1.1271 B( 38-C , 40-C ) :   1.1774 B( 40-C , 41-F ) :   1.1072
B( 40-C , 42-C ) :   1.4825 B( 42-C , 85-H ) :   0.9853 B( 43-C , 44-C ) :   1.5559
B( 43-C , 86-H ) :   0.9608 B( 44-C , 45-C ) :   1.2194 B( 44-C , 87-H ) :   0.9426
B( 45-C , 46-N ) :   1.5494 B( 45-C , 47-C ) :   0.1077 B( 45-C , 56-C ) :   1.0069
B( 46-N , 47-C ) :   1.3992 B( 47-C , 48-C ) :   1.0478 B( 47-C , 52-C ) :   1.3635
B( 48-C , 49-C ) :   0.8823 B( 48-C , 56-C ) :   1.5853 B( 49-C , 50-O ) :   2.2990
B( 49-C , 51-C ) :   0.9007 B( 51-C , 52-C ) :   1.0622 B( 51-C , 55-C ) :   1.5868
B( 52-C , 53-N ) :   1.3417 B( 53-N , 54-C ) :   1.6260 B( 54-C , 55-C ) :   1.0939
B( 54-C , 88-H ) :   0.9898 B( 55-C , 89-H ) :   1.0112 B( 56-C , 57-C ) :   1.0758
B( 57-C , 58-C ) :   1.6011 B( 57-C , 90-H ) :   0.9761 B( 58-C , 59-C ) :   1.1501
B( 58-C , 91-H ) :   0.9700 B( 59-C , 60-C ) :   1.5706 B( 59-C , 92-H ) :   0.9631
B( 60-C , 61-C ) :   1.0478 B( 60-C , 69-C ) :   0.9506 B( 61-C , 62-C ) :   1.6537
B( 61-C , 67-C ) :   0.9966 B( 62-C , 63-C ) :   1.1357 B( 62-C , 65-C ) :   1.1436
B( 63-C , 64-N ) :   2.9747 B( 65-C , 66-N ) :   2.9670 B( 67-C , 68-C ) :   1.3304
B( 67-C , 74-C ) :   1.3383 B( 68-C , 69-C ) :   0.9570 B( 68-C , 71-C ) :   1.3403
B( 69-C , 70-O ) :   2.1431 B( 71-C , 72-C ) :   1.3422 B( 71-C , 93-H ) :   1.0078
B( 72-C , 73-C ) :   1.4057 B( 72-C , 76-Cl) :   1.0545 B( 73-C , 74-C ) :   1.3564
B( 73-C , 75-Cl) :   1.0804 B( 74-C , 94-H ) :   0.9853

-----------------------------------------------------------------------------
         ABSORPTION SPECTRUM VIA TRANSITION ELECTRIC DIPOLE MOMENTS
-----------------------------------------------------------------------------
State   Energy  Wavelength   fosc         T2         TX        TY        TZ
        (cm-1)    (nm)                  (au**2)     (au)      (au)      (au)
-----------------------------------------------------------------------------
   0    9729.3   1027.8   0.226467386   7.66300  -0.44927  -1.65400   2.17381
   1   13602.9    735.1   1.001924012  24.24818  -0.84658  -3.20505   3.64131
   2   17572.6    569.1   0.167113653   3.13078   0.88904  -0.96165   1.18980
   3   19404.7    515.3   0.080020939   1.35760  -0.95072  -0.27174   0.61636
   4   20213.3    494.7   0.032266168   0.52551   0.62497   0.36658  -0.02334
   5   21145.7    472.9   0.004416203   0.06875  -0.20237   0.03948  -0.16200
   6   21243.5    470.7   0.030384838   0.47088  -0.64638  -0.20789  -0.09923
   7   21427.3    466.7   0.056923594   0.87458  -0.77553  -0.51306  -0.09951
   8   22117.4    452.1   0.061332787   0.91292  -0.75399   0.07952  -0.58146
   9   23516.6    425.2   0.022540985   0.31555   0.37909  -0.14871   0.38695
  10   23679.6    422.3   0.020491473   0.28489  -0.46955   0.06271  -0.24592
  11   23785.2    420.4   0.073147168   1.01243   0.74068   0.29522  -0.61373
  12   24190.8    413.4   0.214637565   2.92100   1.37496   0.37790  -0.94217
  13   24592.6    406.6   0.142024589   1.90123   1.30865  -0.03810  -0.43268
  14   24843.6    402.5   0.451986499   5.98944  -2.36996  -0.31561   0.52260
  15   24962.2    400.6   0.016829740   0.22196   0.37932   0.19405  -0.20104
  16   25081.2    398.7   0.005617648   0.07374  -0.02996  -0.09710   0.25181
  17   25547.3    391.4   0.577864244   7.44656   2.45293   0.45369  -1.10628
  18   25809.2    387.5   0.295638771   3.77105  -1.92381  -0.26107  -0.04303
  19   26392.1    378.9   0.039187930   0.48883  -0.41867  -0.51920   0.20970
  20   26747.4    373.9   0.097910449   1.20510   1.02870   0.38050  -0.04584
  21   26874.7    372.1   0.015766076   0.19313  -0.34752  -0.05240  -0.26384
  22   26985.3    370.6   0.054448424   0.66425  -0.20243   0.37608  -0.69415
  23   27037.7    369.9   0.059854351   0.72879   0.82473  -0.04838   0.21508
  24   27642.6    361.8   0.026611385   0.31693   0.55296   0.07350   0.07596
  25   27933.3    358.0   0.011541125   0.13602  -0.35629  -0.06332   0.07116
  26   28271.1    353.7   0.028610472   0.33316  -0.57010  -0.00207  -0.09029
  27   28730.8    348.1   0.050638472   0.58024   0.44779   0.30148  -0.53743
  28   28963.9    345.3   0.029501856   0.33533  -0.07253   0.31689  -0.47921
  29   29102.0    343.6   0.003184895   0.03603   0.14799   0.01868   0.11739
  30   29306.3    341.2   0.147047688   1.65186   0.13508   0.38280  -1.21946
  31   29490.8    339.1   0.055393102   0.61837  -0.00106   0.60542  -0.50183
  32   29877.4    334.7   0.045642507   0.50292  -0.64303  -0.29163   0.06627
  33   30132.1    331.9   0.025393064   0.27743  -0.48281  -0.19920   0.06816
  34   30480.6    328.1   0.213697817   2.30809   1.13834   0.52640  -0.85742
  35   30621.5    326.6   0.030786143   0.33098   0.55793  -0.11602   0.07897
  36   30731.9    325.4   0.017430098   0.18672  -0.22818  -0.11238  -0.34932
  37   30992.0    322.7   0.161791320   1.71862   0.47882   0.76081  -0.95421
  38   31582.9    316.6   0.079870667   0.83255  -0.24486   0.57338  -0.66621
  39   31819.3    314.3   0.044631437   0.46177  -0.53668   0.29902  -0.29040
  40   32104.3    311.5   0.005780875   0.05928  -0.16450   0.15181  -0.09578
  41   32304.6    309.6   0.037733803   0.38454  -0.35847  -0.28521   0.41797
  42   32569.3    307.0   0.002867059   0.02898   0.06245  -0.15745  -0.01699
  43   32618.4    306.6   0.001698655   0.01714  -0.03901  -0.02844   0.12171
  44   32636.3    306.4   0.004951559   0.04995  -0.04993   0.12471  -0.17861
  45   32955.6    303.4   0.149697534   1.49541   1.10891  -0.41401  -0.30713
  46   33016.6    302.9   0.329566095   3.28614   1.66434  -0.03981  -0.71731
  47   33850.8    295.4   0.005617566   0.05463   0.04509   0.12730   0.19077
  48   34049.3    293.7   0.105045543   1.01565  -0.18789  -0.48010   0.86594
  49   34153.7    292.8   0.195191511   1.88148  -0.70264   0.02717   1.17773
  50   34328.0    291.3   0.096799039   0.92832   0.67541  -0.68432  -0.06205
  51   34434.1    290.4   0.069503786   0.66450   0.18156   0.23458  -0.75928
  52   34609.9    288.9   0.433620964   4.12464   0.98546  -0.78336   1.59370
  53   34801.5    287.3   0.124926764   1.18177   0.42397  -0.59572   0.80444
  54   35038.5    285.4   0.047066734   0.44223  -0.32345  -0.05677  -0.57826
  55   35248.9    283.7   0.024470096   0.22854   0.11039   0.01601  -0.46486
  56   35388.0    282.6   0.198185786   1.84371  -1.02223   0.06642   0.89126
  57   35523.8    281.5   0.032000566   0.29656  -0.17163  -0.33760  -0.39132
  58   35771.0    279.6   0.080001842   0.73628  -0.74661   0.42010  -0.04870
  59   35993.3    277.8   0.023724408   0.21699  -0.45417  -0.08688   0.05633
  60   36134.0    276.7   0.038986466   0.35520  -0.49149  -0.07295   0.32912
  61   36430.2    274.5   0.037373536   0.33774  -0.20435  -0.15323   0.52201
  62   36609.9    273.2   0.009213749   0.08285  -0.08466   0.27502   0.00710
  63   36684.4    272.6   0.010557448   0.09474   0.14580  -0.14306   0.23026
  64   36761.4    272.0   0.015428524   0.13817  -0.20481   0.17100  -0.25881
  65   36928.5    270.8   0.064717377   0.57695  -0.38317  -0.06617   0.65249
  66   37086.1    269.6   0.006284891   0.05579  -0.10485   0.14322   0.15584
  67   37171.3    269.0   0.016952972   0.15015   0.33180  -0.01644  -0.19947
  68   37368.0    267.6   0.055396478   0.48804   0.65539  -0.05124   0.23640
  69   37489.7    266.7   0.016562114   0.14544  -0.38043  -0.00430  -0.02629
  70   37534.0    266.4   0.027942226   0.24508  -0.48161  -0.06887  -0.09160
  71   37713.7    265.2   0.052142685   0.45517  -0.64120   0.07148   0.19726
  72   37734.5    265.0   0.104641393   0.91294  -0.52218   0.52111  -0.60722
  73   37856.6    264.2   0.019849072   0.17261  -0.30996  -0.13169   0.24330
  74   38286.1    261.2   0.008249411   0.07093   0.21757  -0.01958  -0.15236
  75   38360.0    260.7   0.035876351   0.30790  -0.51958   0.10166  -0.16612
  76   38593.4    259.1   0.025591911   0.21831   0.37925  -0.11159   0.24905
  77   38645.8    258.8   0.025587370   0.21797   0.24867   0.17004  -0.35668
  78   38823.6    257.6   0.022202057   0.18827  -0.15841   0.05402   0.40032
  79   39057.5    256.0   0.007170449   0.06044  -0.20737  -0.11972  -0.05573
  80   39123.5    255.6   0.060455731   0.50872   0.65940  -0.23546   0.13590
  81   39236.2    254.9   0.059105270   0.49592   0.61266  -0.26229   0.22755
  82   39379.5    253.9   0.020315492   0.16984  -0.15551   0.07870  -0.37344
  83   39492.5    253.2   0.004051837   0.03378   0.12362   0.08037  -0.10971
  84   39536.1    252.9   0.250258020   2.08386  -1.15010  -0.54348   0.68247
  85   39646.1    252.2   0.029486455   0.24485  -0.09404   0.21515  -0.43556
  86   39691.8    251.9   0.044835466   0.37187   0.44661   0.20703  -0.35993
  87   39927.8    250.5   0.009464447   0.07804   0.09975  -0.11078   0.23625
  88   40006.3    250.0   0.052143081   0.42909   0.62149   0.11073  -0.17485
  89   40135.1    249.2   0.022473721   0.18434   0.13731  -0.20035   0.35405

FINAL SINGLE POINT ENERGY     -5393.722700887106

DIPOLE MOMENT
-------------
                                X             Y             Z
Electronic contribution:     -1.39921     -25.09158      30.65621
Nuclear contribution   :      3.03678      22.41888     -29.22247
                        -----------------------------------------
Total Dipole Moment    :      1.63757      -2.67269       1.43374
                        -----------------------------------------
Magnitude (a.u.)       :      3.44681
Magnitude (Debye)      :      8.76110

Rotational constants in cm-1:     0.000924     0.000326     0.000248
Rotational constants in MHz :    27.692074     9.778166     7.430517

                             ****ORCA TERMINATED NORMALLY****
TOTAL RUN TIME: 0 days 0 hours 11 minutes 6 seconds 319 msec
