                         Program Version 4.2.0 -  RELEASE  -
|  1> # ORCA input file
|  2> # SCF done       -212.718985062038          0.000951846723
|  3> ! CAM-B3LYP def2-SVP def2/J RIJCOSX Grid4 TightSCF
|  4> %maxcore 5000
|  5> %tddft
|  6>     Mode sTDDFT
|  7>     Ethresh 5.0
|  8>     maxcore 5000
|  9> end
| 10>
| 11> %pal
| 12>   nprocs 6
| 13>   end
| 14> * xyz 0 1
| 15>    C        5.00036        -7.42041        -3.04361
| 16>    C        4.73122        -8.75750        -2.93777
| 17>    C        5.06985        -9.70657        -3.92495
| 18>    N        5.30884       -10.51037        -4.70811
| 19>    C        4.17524        -9.35477        -1.78657
| 20>    N        3.79553        -9.90857        -0.85632
| 21>    C        5.83114        -6.80150        -4.07298
| 22>    C        6.27802        -5.55116        -3.60651
| 23>    C        7.12042        -4.75769        -4.35874
| 24>    C        7.51852        -5.21681        -5.60808
| 25>    C        7.06833        -6.45450        -6.08337
| 26>    C        6.22670        -7.25568        -5.32016
| 27>   Cl        7.55900        -7.00167        -7.63493
| 28>   Cl        8.56709        -4.25874        -6.57276
| 29>    C        5.69799        -5.28344        -2.27166
| 30>    O        5.90120        -4.33678        -1.54930
| 31>    C        4.75592        -6.41033        -2.02911
| 32>    C        3.82508        -6.31832        -1.04870
| 33>    C        2.62587        -7.09512        -0.87893
| 34>    C        2.14752        -7.34620         0.41616
| 35>    C        1.01081        -8.09717         0.57813
| 36>    C        0.29264        -8.55868        -0.53981
| 37>    C        0.73240        -8.27500        -1.82574
| 38>    C        1.90113        -7.56154        -1.98543
| 39>    C       -0.86462        -9.29141        -0.07368
| 40>    C       -0.84974        -9.29600         1.33171
| 41>    C        0.34795        -8.54418         1.85847
| 42>    C        1.27580        -9.47338         2.66559
| 43>    C        1.73167       -10.69294         1.87380
| 44>    C       -0.07557        -7.34773         2.73037
| 45>    C       -1.00099        -6.38164         2.00019
| 46>    C       -1.83774        -9.93803         2.03671
| 47>    C       -2.85729       -10.59628         1.33963
| 48>    C       -2.88642       -10.55194        -0.05757
| 49>    C       -1.89265        -9.91021        -0.76921
| 50>    C       -3.90794       -11.27129         2.07570
| 51>    S       -4.60407       -10.49343         3.45141
| 52>    C       -5.74695       -11.75965         3.71645
| 53>    C       -5.60447       -12.75636         2.75368
| 54>    C       -4.52988       -12.48828         1.83642
| 55>    C       -4.19100       -13.48956         0.87711
| 56>    C       -3.02006       -13.41787         0.09230
| 57>    N       -2.05665       -13.45003        -0.53048
| 58>    C       -4.97929       -14.61149         0.76222
| 59>    C       -6.11404       -14.78858         1.57362
| 60>    C       -6.41659       -13.89741         2.56205
| 61>    C       -6.65325       -11.68619         4.83970
| 62>    C       -7.01012       -12.84222         5.54842
| 63>    C       -7.86899       -12.73679         6.61527
| 64>    C       -8.37905       -11.48681         7.00670
| 65>    C       -8.01023       -10.33435         6.32644
| 66>    C       -7.15062       -10.44385         5.25359
| 67>    C       -9.24180       -11.67938         8.15021
| 68>    C       -9.26472       -13.05149         8.46698
| 69>    C       -8.38783       -13.83234         7.51622
| 70>    C       -9.20301       -14.87011         6.72187
| 71>    C      -10.35960       -14.24820         5.94822
| 72>    C       -7.24019       -14.53816         8.26305
| 73>    C       -6.37908       -13.57615         9.07249
| 74>    C      -10.00350       -13.50624         9.52721
| 75>    C      -10.77559       -12.59770        10.27775
| 76>    C      -10.72025       -11.23059         9.96712
| 77>    C       -9.95780       -10.76857         8.91516
| 78>    C      -11.53157       -13.11532        11.38184
| 79>    C      -12.68949       -12.64715        11.92432
| 80>    C      -13.32149       -13.18324        13.12137
| 81>    C      -12.74576       -14.00787        14.05035
| 82>    C      -13.40536       -14.47743        15.20691
| 83>    N      -13.88546       -14.89649        16.16128
| 84>    C      -11.41823       -14.48710        14.01070
| 85>    N      -10.35190       -14.90984        14.06417
| 86>    C      -14.66330       -12.61713        13.20867
| 87>    C      -14.84846       -11.72511        12.13957
| 88>    C      -13.63110       -11.68040        11.29969
| 89>    O      -13.49412       -11.03563        10.28510
| 90>    C      -16.02846       -11.03126        11.96433
| 91>    C      -17.05128       -11.22904        12.88277
| 92>    C      -16.87750       -12.11826        13.95018
| 93>    C      -15.68782       -12.81681        14.12078
| 94>   Cl      -18.15289       -12.35917        15.07444
| 95>   Cl      -18.53248       -10.37933        12.70616
| 96>    H        7.46095        -3.80581        -3.98298
| 97>    H        5.89524        -8.20205        -5.71584
| 98>    H        3.98296        -5.51344        -0.33695
| 99>    H        2.70608        -6.98291         1.26603
|100>    H        0.17505        -8.61172        -2.68647
|101>    H        2.24799        -7.31698        -2.97953
|102>    H        0.74260        -9.79742         3.56246
|103>    H        2.14903        -8.90081         2.98489
|104>    H        0.87843       -11.28390         1.54776
|105>    H        2.36528       -11.32064         2.49592
|106>    H        2.30040       -10.39666         0.99678
|107>    H        0.82129        -6.81639         3.05491
|108>    H       -0.57935        -7.72671         3.62191
|109>    H       -0.51446        -5.97662         1.11555
|110>    H       -1.26991        -5.55505         2.65379
|111>    H       -1.91365        -6.88505         1.68869
|112>    H       -1.83294        -9.96049         3.11729
|113>    H       -3.71152       -11.00839        -0.58361
|114>    H       -1.92352        -9.89040        -1.84741
|115>    H       -4.71990       -15.36708         0.03542
|116>    H       -6.73501       -15.65731         1.41657
|117>    H       -7.28354       -14.04266         3.18722
|118>    H       -6.57855       -13.79354         5.27747
|119>    H       -8.38911        -9.36968         6.62754
|120>    H       -6.85756        -9.55963         4.70593
|121>    H       -9.59190       -15.61614         7.41779
|122>    H       -8.53317       -15.38138         6.02690
|123>    H      -11.05478       -13.75541         6.62424
|124>    H      -10.89974       -15.01731         5.40101
|125>    H       -9.99567       -13.51034         5.23628
|126>    H       -6.61549       -15.05694         7.53285
|127>    H       -7.66779       -15.28956         8.92969
|128>    H       -5.92392       -12.82873         8.42618
|129>    H       -5.58646       -14.12195         9.57848
|130>    H       -6.97577       -13.06329         9.82349
|131>    H      -10.02426       -14.55596         9.78305
|132>    H      -11.25554       -10.52705        10.58183
|133>    H       -9.91861        -9.71303         8.69412
|134>    H      -11.12365       -14.02508        11.80810
|135>    H      -16.14780       -10.35154        11.13541
|136>    H      -15.59307       -13.49658        14.95148
|137> *
|138>
|139>                          ****END OF INPUT****

CARTESIAN COORDINATES (ANGSTROEM)
---------------------------------
  C      5.000360   -7.420410   -3.043610
  C      4.731220   -8.757500   -2.937770
  C      5.069850   -9.706570   -3.924950
  N      5.308840  -10.510370   -4.708110
  C      4.175240   -9.354770   -1.786570
  N      3.795530   -9.908570   -0.856320
  C      5.831140   -6.801500   -4.072980
  C      6.278020   -5.551160   -3.606510
  C      7.120420   -4.757690   -4.358740
  C      7.518520   -5.216810   -5.608080
  C      7.068330   -6.454500   -6.083370
  C      6.226700   -7.255680   -5.320160
  Cl     7.559000   -7.001670   -7.634930
  Cl     8.567090   -4.258740   -6.572760
  C      5.697990   -5.283440   -2.271660
  O      5.901200   -4.336780   -1.549300
  C      4.755920   -6.410330   -2.029110
  C      3.825080   -6.318320   -1.048700
  C      2.625870   -7.095120   -0.878930
  C      2.147520   -7.346200    0.416160
  C      1.010810   -8.097170    0.578130
  C      0.292640   -8.558680   -0.539810
  C      0.732400   -8.275000   -1.825740
  C      1.901130   -7.561540   -1.985430
  C     -0.864620   -9.291410   -0.073680
  C     -0.849740   -9.296000    1.331710
  C      0.347950   -8.544180    1.858470
  C      1.275800   -9.473380    2.665590
  C      1.731670  -10.692940    1.873800
  C     -0.075570   -7.347730    2.730370
  C     -1.000990   -6.381640    2.000190
  C     -1.837740   -9.938030    2.036710
  C     -2.857290  -10.596280    1.339630
  C     -2.886420  -10.551940   -0.057570
  C     -1.892650   -9.910210   -0.769210
  C     -3.907940  -11.271290    2.075700
  S     -4.604070  -10.493430    3.451410
  C     -5.746950  -11.759650    3.716450
  C     -5.604470  -12.756360    2.753680
  C     -4.529880  -12.488280    1.836420
  C     -4.191000  -13.489560    0.877110
  C     -3.020060  -13.417870    0.092300
  N     -2.056650  -13.450030   -0.530480
  C     -4.979290  -14.611490    0.762220
  C     -6.114040  -14.788580    1.573620
  C     -6.416590  -13.897410    2.562050
  C     -6.653250  -11.686190    4.839700
  C     -7.010120  -12.842220    5.548420
  C     -7.868990  -12.736790    6.615270
  C     -8.379050  -11.486810    7.006700
  C     -8.010230  -10.334350    6.326440
  C     -7.150620  -10.443850    5.253590
  C     -9.241800  -11.679380    8.150210
  C     -9.264720  -13.051490    8.466980
  C     -8.387830  -13.832340    7.516220
  C     -9.203010  -14.870110    6.721870
  C    -10.359600  -14.248200    5.948220
  C     -7.240190  -14.538160    8.263050
  C     -6.379080  -13.576150    9.072490
  C    -10.003500  -13.506240    9.527210
  C    -10.775590  -12.597700   10.277750
  C    -10.720250  -11.230590    9.967120
  C     -9.957800  -10.768570    8.915160
  C    -11.531570  -13.115320   11.381840
  C    -12.689490  -12.647150   11.924320
  C    -13.321490  -13.183240   13.121370
  C    -12.745760  -14.007870   14.050350
  C    -13.405360  -14.477430   15.206910
  N    -13.885460  -14.896490   16.161280
  C    -11.418230  -14.487100   14.010700
  N    -10.351900  -14.909840   14.064170
  C    -14.663300  -12.617130   13.208670
  C    -14.848460  -11.725110   12.139570
  C    -13.631100  -11.680400   11.299690
  O    -13.494120  -11.035630   10.285100
  C    -16.028460  -11.031260   11.964330
  C    -17.051280  -11.229040   12.882770
  C    -16.877500  -12.118260   13.950180
  C    -15.687820  -12.816810   14.120780
  Cl   -18.152890  -12.359170   15.074440
  Cl   -18.532480  -10.379330   12.706160
  H      7.460950   -3.805810   -3.982980
  H      5.895240   -8.202050   -5.715840
  H      3.982960   -5.513440   -0.336950
  H      2.706080   -6.982910    1.266030
  H      0.175050   -8.611720   -2.686470
  H      2.247990   -7.316980   -2.979530
  H      0.742600   -9.797420    3.562460
  H      2.149030   -8.900810    2.984890
  H      0.878430  -11.283900    1.547760
  H      2.365280  -11.320640    2.495920
  H      2.300400  -10.396660    0.996780
  H      0.821290   -6.816390    3.054910
  H     -0.579350   -7.726710    3.621910
  H     -0.514460   -5.976620    1.115550
  H     -1.269910   -5.555050    2.653790
  H     -1.913650   -6.885050    1.688690
  H     -1.832940   -9.960490    3.117290
  H     -3.711520  -11.008390   -0.583610
  H     -1.923520   -9.890400   -1.847410
  H     -4.719900  -15.367080    0.035420
  H     -6.735010  -15.657310    1.416570
  H     -7.283540  -14.042660    3.187220
  H     -6.578550  -13.793540    5.277470
  H     -8.389110   -9.369680    6.627540
  H     -6.857560   -9.559630    4.705930
  H     -9.591900  -15.616140    7.417790
  H     -8.533170  -15.381380    6.026900
  H    -11.054780  -13.755410    6.624240
  H    -10.899740  -15.017310    5.401010
  H     -9.995670  -13.510340    5.236280
  H     -6.615490  -15.056940    7.532850
  H     -7.667790  -15.289560    8.929690
  H     -5.923920  -12.828730    8.426180
  H     -5.586460  -14.121950    9.578480
  H     -6.975770  -13.063290    9.823490
  H    -10.024260  -14.555960    9.783050
  H    -11.255540  -10.527050   10.581830
  H     -9.918610   -9.713030    8.694120
  H    -11.123650  -14.025080   11.808100
  H    -16.147800  -10.351540   11.135410
  H    -15.593070  -13.496580   14.951480

 Total Charge           Charge          ....    0
 Multiplicity           Mult            ....    1
 Number of Electrons    NEL             ....  590
 Basis Dimension        Dim             .... 1359

ORBITAL ENERGIES
----------------

  NO   OCC          E(Eh)            E(eV)
   0   2.0000    -101.604548     -2764.8003
   1   2.0000    -101.602705     -2764.7502
   2   2.0000    -101.602367     -2764.7409
   3   2.0000    -101.601387     -2764.7143
   4   2.0000     -88.976089     -2421.1625
   5   2.0000     -19.225963      -523.1650
   6   2.0000     -19.221923      -523.0551
   7   2.0000     -14.423245      -392.4765
   8   2.0000     -14.421944      -392.4410
   9   2.0000     -14.420177      -392.3930
  10   2.0000     -14.417852      -392.3297
  11   2.0000     -14.399105      -391.8196
  12   2.0000     -10.378763      -282.4205
  13   2.0000     -10.373376      -282.2739
  14   2.0000     -10.360932      -281.9353
  15   2.0000     -10.360529      -281.9243
  16   2.0000     -10.359130      -281.8863
  17   2.0000     -10.358549      -281.8704
  18   2.0000     -10.351919      -281.6900
  19   2.0000     -10.349882      -281.6346
  20   2.0000     -10.349856      -281.6339
  21   2.0000     -10.347907      -281.5809
  22   2.0000     -10.325720      -280.9771
  23   2.0000     -10.324241      -280.9369
  24   2.0000     -10.323950      -280.9290
  25   2.0000     -10.322090      -280.8783
  26   2.0000     -10.320474      -280.8344
  27   2.0000     -10.319722      -280.8139
  28   2.0000     -10.319407      -280.8053
  29   2.0000     -10.318146      -280.7710
  30   2.0000     -10.314715      -280.6777
  31   2.0000     -10.313896      -280.6554
  32   2.0000     -10.313580      -280.6468
  33   2.0000     -10.312231      -280.6101
  34   2.0000     -10.311923      -280.6017
  35   2.0000     -10.311914      -280.6015
  36   2.0000     -10.311184      -280.5816
  37   2.0000     -10.306229      -280.4467
  38   2.0000     -10.305795      -280.4349
  39   2.0000     -10.304915      -280.4110
  40   2.0000     -10.300817      -280.2995
  41   2.0000     -10.300146      -280.2812
  42   2.0000     -10.299667      -280.2682
  43   2.0000     -10.297730      -280.2155
  44   2.0000     -10.297037      -280.1966
  45   2.0000     -10.295778      -280.1623
  46   2.0000     -10.294348      -280.1234
  47   2.0000     -10.293593      -280.1029
  48   2.0000     -10.291311      -280.0408
  49   2.0000     -10.291257      -280.0393
  50   2.0000     -10.290416      -280.0164
  51   2.0000     -10.289930      -280.0032
  52   2.0000     -10.289803      -279.9998
  53   2.0000     -10.287404      -279.9345
  54   2.0000     -10.287110      -279.9265
  55   2.0000     -10.286445      -279.9084
  56   2.0000     -10.284590      -279.8579
  57   2.0000     -10.284324      -279.8507
  58   2.0000     -10.284278      -279.8494
  59   2.0000     -10.284121      -279.8452
  60   2.0000     -10.283446      -279.8268
  61   2.0000     -10.283382      -279.8251
  62   2.0000     -10.282328      -279.7964
  63   2.0000     -10.282075      -279.7895
  64   2.0000     -10.281907      -279.7849
  65   2.0000     -10.279402      -279.7168
  66   2.0000     -10.279092      -279.7083
  67   2.0000     -10.275299      -279.6051
  68   2.0000     -10.274581      -279.5856
  69   2.0000     -10.274444      -279.5818
  70   2.0000     -10.274181      -279.5747
  71   2.0000     -10.274158      -279.5740
  72   2.0000     -10.273789      -279.5640
  73   2.0000     -10.272302      -279.5235
  74   2.0000     -10.271800      -279.5099
  75   2.0000     -10.265620      -279.3417
  76   2.0000     -10.257989      -279.1341
  77   2.0000     -10.256665      -279.0980
  78   2.0000     -10.253762      -279.0191
  79   2.0000     -10.249731      -278.9093
  80   2.0000     -10.229340      -278.3545
  81   2.0000      -9.559573      -260.1292
  82   2.0000      -9.557754      -260.0797
  83   2.0000      -9.557332      -260.0682
  84   2.0000      -9.556382      -260.0424
  85   2.0000      -8.071092      -219.6256
  86   2.0000      -7.329975      -199.4588
  87   2.0000      -7.328151      -199.4091
  88   2.0000      -7.327693      -199.3967
  89   2.0000      -7.326762      -199.3713
  90   2.0000      -7.319834      -199.1828
  91   2.0000      -7.319090      -199.1626
  92   2.0000      -7.317996      -199.1328
  93   2.0000      -7.317621      -199.1226
  94   2.0000      -7.317277      -199.1132
  95   2.0000      -7.316886      -199.1026
  96   2.0000      -7.316662      -199.0965
  97   2.0000      -7.315916      -199.0762
  98   2.0000      -6.039918      -164.3545
  99   2.0000      -6.035788      -164.2421
 100   2.0000      -6.034225      -164.1996
 101   2.0000      -1.142173       -31.0801
 102   2.0000      -1.137422       -30.9508
 103   2.0000      -1.035969       -28.1901
 104   2.0000      -1.034084       -28.1389
 105   2.0000      -1.021809       -27.8048
 106   2.0000      -1.018689       -27.7199
 107   2.0000      -1.013760       -27.5858
 108   2.0000      -1.002338       -27.2750
 109   2.0000      -1.000905       -27.2360
 110   2.0000      -0.998205       -27.1625
 111   2.0000      -0.996276       -27.1100
 112   2.0000      -0.993780       -27.0421
 113   2.0000      -0.992188       -26.9988
 114   2.0000      -0.985179       -26.8081
 115   2.0000      -0.965905       -26.2836
 116   2.0000      -0.964144       -26.2357
 117   2.0000      -0.962713       -26.1967
 118   2.0000      -0.956403       -26.0250
 119   2.0000      -0.946436       -25.7538
 120   2.0000      -0.940532       -25.5932
 121   2.0000      -0.935767       -25.4635
 122   2.0000      -0.930199       -25.3120
 123   2.0000      -0.920814       -25.0566
 124   2.0000      -0.908105       -24.7108
 125   2.0000      -0.903446       -24.5840
 126   2.0000      -0.897279       -24.4162
 127   2.0000      -0.887787       -24.1579
 128   2.0000      -0.881392       -23.9839
 129   2.0000      -0.866215       -23.5709
 130   2.0000      -0.864211       -23.5164
 131   2.0000      -0.863729       -23.5033
 132   2.0000      -0.858845       -23.3704
 133   2.0000      -0.849594       -23.1186
 134   2.0000      -0.846888       -23.0450
 135   2.0000      -0.845407       -23.0047
 136   2.0000      -0.842807       -22.9340
 137   2.0000      -0.840555       -22.8727
 138   2.0000      -0.837273       -22.7834
 139   2.0000      -0.832338       -22.6491
 140   2.0000      -0.828219       -22.5370
 141   2.0000      -0.817525       -22.2460
 142   2.0000      -0.794537       -21.6205
 143   2.0000      -0.780140       -21.2287
 144   2.0000      -0.774057       -21.0632
 145   2.0000      -0.772472       -21.0200
 146   2.0000      -0.769588       -20.9416
 147   2.0000      -0.762470       -20.7479
 148   2.0000      -0.761063       -20.7096
 149   2.0000      -0.742754       -20.2114
 150   2.0000      -0.740316       -20.1450
 151   2.0000      -0.734252       -19.9800
 152   2.0000      -0.726173       -19.7602
 153   2.0000      -0.722020       -19.6472
 154   2.0000      -0.710781       -19.3413
 155   2.0000      -0.706438       -19.2232
 156   2.0000      -0.701018       -19.0757
 157   2.0000      -0.695427       -18.9235
 158   2.0000      -0.692431       -18.8420
 159   2.0000      -0.688747       -18.7418
 160   2.0000      -0.683703       -18.6045
 161   2.0000      -0.681350       -18.5405
 162   2.0000      -0.680204       -18.5093
 163   2.0000      -0.672785       -18.3074
 164   2.0000      -0.671768       -18.2797
 165   2.0000      -0.669435       -18.2162
 166   2.0000      -0.667755       -18.1705
 167   2.0000      -0.660430       -17.9712
 168   2.0000      -0.654163       -17.8007
 169   2.0000      -0.643590       -17.5130
 170   2.0000      -0.632868       -17.2212
 171   2.0000      -0.624755       -17.0005
 172   2.0000      -0.623524       -16.9669
 173   2.0000      -0.619236       -16.8503
 174   2.0000      -0.609361       -16.5815
 175   2.0000      -0.606864       -16.5136
 176   2.0000      -0.599963       -16.3258
 177   2.0000      -0.596991       -16.2449
 178   2.0000      -0.593854       -16.1596
 179   2.0000      -0.591608       -16.0985
 180   2.0000      -0.586977       -15.9725
 181   2.0000      -0.578150       -15.7323
 182   2.0000      -0.575688       -15.6653
 183   2.0000      -0.570002       -15.5105
 184   2.0000      -0.569013       -15.4836
 185   2.0000      -0.561947       -15.2914
 186   2.0000      -0.557959       -15.1828
 187   2.0000      -0.555995       -15.1294
 188   2.0000      -0.554222       -15.0811
 189   2.0000      -0.553027       -15.0486
 190   2.0000      -0.551151       -14.9976
 191   2.0000      -0.549424       -14.9506
 192   2.0000      -0.549014       -14.9394
 193   2.0000      -0.546244       -14.8640
 194   2.0000      -0.544554       -14.8181
 195   2.0000      -0.542628       -14.7657
 196   2.0000      -0.540584       -14.7100
 197   2.0000      -0.536923       -14.6104
 198   2.0000      -0.534361       -14.5407
 199   2.0000      -0.533500       -14.5173
 200   2.0000      -0.531793       -14.4708
 201   2.0000      -0.528561       -14.3829
 202   2.0000      -0.528194       -14.3729
 203   2.0000      -0.526699       -14.3322
 204   2.0000      -0.522987       -14.2312
 205   2.0000      -0.521691       -14.1959
 206   2.0000      -0.519405       -14.1337
 207   2.0000      -0.515532       -14.0283
 208   2.0000      -0.513508       -13.9733
 209   2.0000      -0.512504       -13.9459
 210   2.0000      -0.510513       -13.8918
 211   2.0000      -0.509155       -13.8548
 212   2.0000      -0.507361       -13.8060
 213   2.0000      -0.502211       -13.6659
 214   2.0000      -0.500514       -13.6197
 215   2.0000      -0.499509       -13.5923
 216   2.0000      -0.497316       -13.5327
 217   2.0000      -0.495790       -13.4911
 218   2.0000      -0.490394       -13.3443
 219   2.0000      -0.488491       -13.2925
 220   2.0000      -0.487497       -13.2655
 221   2.0000      -0.482199       -13.1213
 222   2.0000      -0.480054       -13.0629
 223   2.0000      -0.479346       -13.0437
 224   2.0000      -0.477368       -12.9898
 225   2.0000      -0.472764       -12.8646
 226   2.0000      -0.470753       -12.8098
 227   2.0000      -0.468935       -12.7604
 228   2.0000      -0.466575       -12.6961
 229   2.0000      -0.464850       -12.6492
 230   2.0000      -0.462982       -12.5984
 231   2.0000      -0.461066       -12.5462
 232   2.0000      -0.459840       -12.5129
 233   2.0000      -0.458829       -12.4854
 234   2.0000      -0.455352       -12.3908
 235   2.0000      -0.454850       -12.3771
 236   2.0000      -0.452396       -12.3103
 237   2.0000      -0.449617       -12.2347
 238   2.0000      -0.448689       -12.2094
 239   2.0000      -0.447377       -12.1737
 240   2.0000      -0.443207       -12.0603
 241   2.0000      -0.442017       -12.0279
 242   2.0000      -0.440850       -11.9961
 243   2.0000      -0.440205       -11.9786
 244   2.0000      -0.438049       -11.9199
 245   2.0000      -0.434837       -11.8325
 246   2.0000      -0.434326       -11.8186
 247   2.0000      -0.434150       -11.8138
 248   2.0000      -0.433032       -11.7834
 249   2.0000      -0.432067       -11.7571
 250   2.0000      -0.431713       -11.7475
 251   2.0000      -0.430506       -11.7147
 252   2.0000      -0.429955       -11.6997
 253   2.0000      -0.428248       -11.6532
 254   2.0000      -0.427716       -11.6387
 255   2.0000      -0.424455       -11.5500
 256   2.0000      -0.420696       -11.4477
 257   2.0000      -0.419434       -11.4134
 258   2.0000      -0.417889       -11.3713
 259   2.0000      -0.417323       -11.3559
 260   2.0000      -0.416458       -11.3324
 261   2.0000      -0.414491       -11.2789
 262   2.0000      -0.412510       -11.2250
 263   2.0000      -0.411534       -11.1984
 264   2.0000      -0.410386       -11.1672
 265   2.0000      -0.405120       -11.0239
 266   2.0000      -0.402589       -10.9550
 267   2.0000      -0.401758       -10.9324
 268   2.0000      -0.399678       -10.8758
 269   2.0000      -0.397594       -10.8191
 270   2.0000      -0.394683       -10.7399
 271   2.0000      -0.389741       -10.6054
 272   2.0000      -0.388218       -10.5640
 273   2.0000      -0.385583       -10.4922
 274   2.0000      -0.384526       -10.4635
 275   2.0000      -0.383628       -10.4390
 276   2.0000      -0.382468       -10.4075
 277   2.0000      -0.370867       -10.0918
 278   2.0000      -0.360453        -9.8084
 279   2.0000      -0.351880        -9.5751
 280   2.0000      -0.346330        -9.4241
 281   2.0000      -0.345378        -9.3982
 282   2.0000      -0.343053        -9.3349
 283   2.0000      -0.335037        -9.1168
 284   2.0000      -0.332718        -9.0537
 285   2.0000      -0.330504        -8.9935
 286   2.0000      -0.328616        -8.9421
 287   2.0000      -0.325867        -8.8673
 288   2.0000      -0.325698        -8.8627
 289   2.0000      -0.316060        -8.6004
 290   2.0000      -0.315379        -8.5819
 291   2.0000      -0.312133        -8.4936
 292   2.0000      -0.293913        -7.9978
 293   2.0000      -0.278904        -7.5894
 294   2.0000      -0.248366        -6.7584
 295   0.0000      -0.095772        -2.6061
 296   0.0000      -0.090492        -2.4624
 297   0.0000      -0.072413        -1.9705
 298   0.0000      -0.065956        -1.7947
 299   0.0000      -0.058243        -1.5849

MULLIKEN ATOMIC CHARGES
-----------------------
   0 C :    0.255476
   1 C :   -0.323999
   2 C :   -0.184362
   3 N :    0.161736
   4 C :   -0.190559
   5 N :    0.207166
   6 C :    0.015725
   7 C :   -0.001519
   8 C :   -0.028243
   9 C :    0.058307
  10 C :    0.051909
  11 C :   -0.014312
  12 Cl:   -0.034676
  13 Cl:   -0.041695
  14 C :    0.139980
  15 O :   -0.134102
  16 C :   -0.116870
  17 C :    0.033209
  18 C :    0.041133
  19 C :   -0.064335
  20 C :    0.019899
  21 C :    0.128744
  22 C :   -0.048463
  23 C :    0.023181
  24 C :    0.109712
  25 C :    0.018559
  26 C :   -0.141036
  27 C :    0.071467
  28 C :    0.014018
  29 C :    0.067724
  30 C :    0.026763
  31 C :   -0.099691
  32 C :    0.077972
  33 C :    0.016769
  34 C :   -0.042688
  35 C :   -0.188069
  36 S :    0.186974
  37 C :   -0.144722
  38 C :    0.091177
  39 C :    0.191984
  40 C :   -0.114374
  41 C :   -0.215797
  42 N :    0.121317
  43 C :    0.020147
  44 C :    0.020837
  45 C :   -0.014281
  46 C :    0.093433
  47 C :   -0.102968
  48 C :    0.011988
  49 C :    0.105703
  50 C :   -0.038164
  51 C :   -0.019892
  52 C :    0.123256
  53 C :    0.012183
  54 C :   -0.139744
  55 C :    0.068685
  56 C :    0.020580
  57 C :    0.062606
  58 C :    0.025536
  59 C :   -0.091784
  60 C :    0.076539
  61 C :    0.068535
  62 C :   -0.064052
  63 C :   -0.034884
  64 C :   -0.071831
  65 C :    0.296089
  66 C :   -0.336898
  67 C :   -0.189925
  68 N :    0.159815
  69 C :   -0.202818
  70 N :    0.164871
  71 C :    0.035510
  72 C :   -0.020358
  73 C :    0.142742
  74 O :   -0.135465
  75 C :   -0.032537
  76 C :    0.063828
  77 C :    0.050273
  78 C :   -0.016016
  79 Cl:   -0.033658
  80 Cl:   -0.041757
  81 H :    0.001064
  82 H :    0.003591
  83 H :    0.027604
  84 H :   -0.031939
  85 H :   -0.028328
  86 H :   -0.012346
  87 H :   -0.005794
  88 H :   -0.005132
  89 H :    0.022004
  90 H :    0.004496
  91 H :    0.034380
  92 H :   -0.001835
  93 H :   -0.001734
  94 H :    0.017635
  95 H :    0.009501
  96 H :    0.019355
  97 H :   -0.034569
  98 H :   -0.012528
  99 H :   -0.029269
 100 H :   -0.003495
 101 H :   -0.007294
 102 H :   -0.014850
 103 H :   -0.026350
 104 H :   -0.028423
 105 H :   -0.018117
 106 H :    0.000587
 107 H :   -0.001762
 108 H :    0.024416
 109 H :    0.012888
 110 H :    0.021519
 111 H :    0.002632
 112 H :    0.003797
 113 H :    0.021004
 114 H :    0.015411
 115 H :    0.022470
 116 H :   -0.026736
 117 H :   -0.014462
 118 H :   -0.028126
 119 H :    0.028742
 120 H :    0.000075
 121 H :    0.002404
Sum of atomic charges:   -0.0000000

LOEWDIN ATOMIC CHARGES
----------------------
   0 C :    0.065824
   1 C :   -0.127898
   2 C :   -0.021273
   3 N :   -0.042938
   4 C :   -0.008562
   5 N :   -0.027287
   6 C :   -0.011881
   7 C :   -0.045897
   8 C :    0.002019
   9 C :   -0.134846
  10 C :   -0.129336
  11 C :   -0.014084
  12 Cl:    0.163267
  13 Cl:    0.159607
  14 C :    0.084178
  15 O :   -0.135370
  16 C :   -0.095815
  17 C :    0.087710
  18 C :   -0.046295
  19 C :    0.004646
  20 C :    0.010808
  21 C :    0.008071
  22 C :   -0.012794
  23 C :   -0.002440
  24 C :   -0.016099
  25 C :    0.010604
  26 C :   -0.036035
  27 C :   -0.010475
  28 C :   -0.062653
  29 C :   -0.011781
  30 C :   -0.058234
  31 C :   -0.025926
  32 C :   -0.043289
  33 C :   -0.001755
  34 C :   -0.003692
  35 C :   -0.169984
  36 S :    0.506711
  37 C :   -0.175742
  38 C :   -0.046864
  39 C :   -0.037463
  40 C :   -0.066732
  41 C :   -0.030266
  42 N :   -0.057978
  43 C :    0.016277
  44 C :   -0.033676
  45 C :    0.003706
  46 C :   -0.032857
  47 C :   -0.021793
  48 C :    0.010990
  49 C :   -0.022871
  50 C :   -0.007149
  51 C :   -0.025630
  52 C :    0.007952
  53 C :   -0.002837
  54 C :   -0.035887
  55 C :   -0.011646
  56 C :   -0.058310
  57 C :   -0.011292
  58 C :   -0.057021
  59 C :    0.001953
  60 C :   -0.044352
  61 C :    0.028280
  62 C :   -0.021188
  63 C :    0.087252
  64 C :   -0.099404
  65 C :    0.074796
  66 C :   -0.133305
  67 C :   -0.020145
  68 N :   -0.044652
  69 C :   -0.024470
  70 N :   -0.045104
  71 C :   -0.014910
  72 C :   -0.043620
  73 C :    0.081917
  74 O :   -0.129630
  75 C :    0.000725
  76 C :   -0.133478
  77 C :   -0.129758
  78 C :   -0.012102
  79 Cl:    0.163339
  80 Cl:    0.160158
  81 H :    0.046491
  82 H :    0.044671
  83 H :    0.047548
  84 H :    0.028734
  85 H :    0.030797
  86 H :    0.028626
  87 H :    0.017730
  88 H :    0.018953
  89 H :    0.025530
  90 H :    0.024031
  91 H :    0.024776
  92 H :    0.020068
  93 H :    0.020490
  94 H :    0.023985
  95 H :    0.024130
  96 H :    0.024542
  97 H :    0.020878
  98 H :    0.030705
  99 H :    0.030368
 100 H :    0.040609
 101 H :    0.033193
 102 H :    0.032463
 103 H :    0.028068
 104 H :    0.030215
 105 H :    0.023403
 106 H :    0.021424
 107 H :    0.019772
 108 H :    0.026627
 109 H :    0.025545
 110 H :    0.024267
 111 H :    0.021412
 112 H :    0.022152
 113 H :    0.025053
 114 H :    0.027071
 115 H :    0.025706
 116 H :    0.029481
 117 H :    0.031544
 118 H :    0.030396
 119 H :    0.045853
 120 H :    0.045908
 121 H :    0.044767

  Mayer bond orders larger than 0.100000
B(  0-C ,  1-C ) :   1.6781 B(  0-C ,  6-C ) :   1.0049 B(  0-C , 16-C ) :   1.0217
B(  1-C ,  2-C ) :   1.1300 B(  1-C ,  4-C ) :   1.1484 B(  2-C ,  3-N ) :   2.9912
B(  4-C ,  5-N ) :   3.0036 B(  6-C ,  7-C ) :   1.3327 B(  6-C , 11-C ) :   1.3433
B(  7-C ,  8-C ) :   1.3452 B(  7-C , 14-C ) :   0.9191 B(  8-C ,  9-C ) :   1.3467
B(  8-C , 81-H ) :   1.0166 B(  9-C , 10-C ) :   1.4047 B(  9-C , 13-Cl) :   1.0485
B( 10-C , 11-C ) :   1.3599 B( 10-C , 12-Cl) :   1.0704 B( 11-C , 82-H ) :   0.9909
B( 14-C , 15-O ) :   2.2792 B( 14-C , 16-C ) :   0.9369 B( 16-C , 17-C ) :   1.6969
B( 17-C , 18-C ) :   1.0362 B( 17-C , 83-H ) :   0.9484 B( 18-C , 19-C ) :   1.2867
B( 18-C , 23-C ) :   1.3374 B( 19-C , 20-C ) :   1.3893 B( 19-C , 84-H ) :   1.0119
B( 20-C , 21-C ) :   1.3581 B( 20-C , 26-C ) :   0.9143 B( 21-C , 22-C ) :   1.3335
B( 21-C , 24-C ) :   0.9987 B( 22-C , 23-C ) :   1.3974 B( 22-C , 85-H ) :   0.9929
B( 23-C , 86-H ) :   0.9847 B( 24-C , 25-C ) :   1.3630 B( 24-C , 34-C ) :   1.3442
B( 25-C , 26-C ) :   0.9144 B( 25-C , 31-C ) :   1.3903 B( 26-C , 27-C ) :   1.0373
B( 26-C , 29-C ) :   1.0379 B( 27-C , 28-C ) :   1.0984 B( 27-C , 87-H ) :   0.9381
B( 27-C , 88-H ) :   0.9383 B( 28-C , 89-H ) :   0.9601 B( 28-C , 90-H ) :   0.9583
B( 28-C , 91-H ) :   0.9532 B( 29-C , 30-C ) :   1.1007 B( 29-C , 92-H ) :   0.9394
B( 29-C , 93-H ) :   0.9390 B( 30-C , 94-H ) :   0.9642 B( 30-C , 95-H ) :   0.9641
B( 30-C , 96-H ) :   0.9644 B( 31-C , 32-C ) :   1.3044 B( 31-C , 97-H ) :   1.0034
B( 32-C , 33-C ) :   1.3731 B( 32-C , 35-C ) :   0.9928 B( 33-C , 34-C ) :   1.3942
B( 33-C , 98-H ) :   0.9789 B( 34-C , 99-H ) :   0.9917 B( 35-C , 36-S ) :   1.1744
B( 35-C , 37-C ) :   0.1276 B( 35-C , 39-C ) :   1.4299 B( 36-S , 37-C ) :   1.1812
B( 37-C , 38-C ) :   1.3983 B( 37-C , 46-C ) :   1.0191 B( 38-C , 39-C ) :   1.1766
B( 38-C , 45-C ) :   1.1892 B( 39-C , 40-C ) :   1.1788 B( 40-C , 41-C ) :   1.0890
B( 40-C , 43-C ) :   1.5751 B( 41-C , 42-N ) :   3.0261 B( 43-C , 44-C ) :   1.1865
B( 43-C ,100-H ) :   0.9940 B( 44-C , 45-C ) :   1.5453 B( 44-C ,101-H ) :   0.9853
B( 45-C ,102-H ) :   0.9918 B( 46-C , 47-C ) :   1.3201 B( 46-C , 51-C ) :   1.3463
B( 47-C , 48-C ) :   1.3918 B( 47-C ,103-H ) :   1.0039 B( 48-C , 49-C ) :   1.3658
B( 48-C , 54-C ) :   0.9131 B( 49-C , 50-C ) :   1.3328 B( 49-C , 52-C ) :   1.0013
B( 50-C , 51-C ) :   1.3912 B( 50-C ,104-H ) :   0.9930 B( 51-C ,105-H ) :   0.9854
B( 52-C , 53-C ) :   1.3525 B( 52-C , 62-C ) :   1.3280 B( 53-C , 54-C ) :   0.9145
B( 53-C , 59-C ) :   1.3998 B( 54-C , 55-C ) :   1.0391 B( 54-C , 57-C ) :   1.0360
B( 55-C , 56-C ) :   1.0984 B( 55-C ,106-H ) :   0.9389 B( 55-C ,107-H ) :   0.9397
B( 56-C ,108-H ) :   0.9645 B( 56-C ,109-H ) :   0.9644 B( 56-C ,110-H ) :   0.9641
B( 57-C , 58-C ) :   1.1029 B( 57-C ,111-H ) :   0.9400 B( 57-C ,112-H ) :   0.9395
B( 58-C ,113-H ) :   0.9641 B( 58-C ,114-H ) :   0.9637 B( 58-C ,115-H ) :   0.9643
B( 59-C , 60-C ) :   1.2482 B( 59-C ,116-H ) :   1.0139 B( 60-C , 61-C ) :   1.3450
B( 60-C , 63-C ) :   1.0995 B( 61-C , 62-C ) :   1.4075 B( 61-C ,117-H ) :   0.9764
B( 62-C ,118-H ) :   0.9940 B( 63-C , 64-C ) :   1.6038 B( 63-C ,119-H ) :   0.9513
B( 64-C , 65-C ) :   1.0593 B( 64-C , 73-C ) :   0.9364 B( 65-C , 66-C ) :   1.6508
B( 65-C , 71-C ) :   0.9958 B( 66-C , 67-C ) :   1.1376 B( 66-C , 69-C ) :   1.1415
B( 67-C , 68-N ) :   2.9762 B( 69-C , 70-N ) :   2.9890 B( 71-C , 72-C ) :   1.3278
B( 71-C , 78-C ) :   1.3356 B( 72-C , 73-C ) :   0.9411 B( 72-C , 75-C ) :   1.3443
B( 73-C , 74-O ) :   2.2379 B( 75-C , 76-C ) :   1.3428 B( 75-C ,120-H ) :   1.0173
B( 76-C , 77-C ) :   1.4026 B( 76-C , 80-Cl) :   1.0475 B( 77-C , 78-C ) :   1.3625
B( 77-C , 79-Cl) :   1.0772 B( 78-C ,121-H ) :   0.9870

-----------------------------------------------------------------------------
         ABSORPTION SPECTRUM VIA TRANSITION ELECTRIC DIPOLE MOMENTS
-----------------------------------------------------------------------------
State   Energy  Wavelength   fosc         T2         TX        TY        TZ
        (cm-1)    (nm)                  (au**2)     (au)      (au)      (au)
-----------------------------------------------------------------------------
   0   20470.7    488.5   1.866938020  30.02424  -4.06903  -1.01608   3.52630
   1   21606.6    462.8   0.204691362   3.11880   0.59060   0.13616  -1.65875
   2   24811.1    403.0   0.105812977   1.40400  -1.02290  -0.38776   0.45532
   3   26560.8    376.5   0.058688754   0.72743  -0.67047   0.01454   0.52696
   4   26877.9    372.1   0.106494511   1.30439   0.45122   0.70467  -0.77733
   5   27291.6    366.4   0.044827633   0.54074   0.10203   0.64165   0.34440
   6   28098.1    355.9   0.195872826   2.29495  -1.34310  -0.52490   0.46425
   7   29981.5    333.5   0.219701888   2.41244  -1.00909   0.15844   1.17007
   8   30455.3    328.4   0.252293299   2.72721  -0.96622  -1.10529   0.75628
   9   30772.3    325.0   0.147880366   1.58207   0.94301  -0.68308   0.47562
  10   31216.2    320.3   0.114714061   1.20980  -0.79858   0.59959   0.46103
  11   31302.7    319.5   0.033730342   0.35474   0.22754   0.01569  -0.55020
  12   31851.7    314.0   0.069097960   0.71418   0.41467   0.57066  -0.46537
  13   32062.9    311.9   0.080221914   0.82369  -0.40014  -0.79186   0.19116
  14   32384.0    308.8   0.088641653   0.90112   0.37029   0.84837  -0.21043
  15   33083.0    302.3   0.061092049   0.60793  -0.77158  -0.03413  -0.10690
  16   33577.0    297.8   0.075589459   0.74113  -0.13799  -0.72601   0.44159
  17   33835.4    295.5   0.001502344   0.01462  -0.09794  -0.06692  -0.02338
  18   34184.2    292.5   0.007121879   0.06859  -0.12530   0.02196   0.22892
  19   34341.4    291.2   0.118539443   1.13637   1.06249   0.08014   0.03277
  20   34644.3    288.6   0.392301053   3.72789  -1.38241  -0.14898   1.33964
  21   35077.1    285.1   0.239330438   2.24621  -0.66045   1.24068  -0.52031
  22   35228.2    283.9   0.331983214   3.10243   1.14053   1.27743  -0.41205
  23   35506.4    281.6   0.238718377   2.21338  -1.48458   0.06205   0.07450
  24   36007.4    277.7   0.144028160   1.31683   0.17572   0.99274  -0.54811
  25   36156.3    276.6   0.186763656   1.70053  -0.22069  -1.24429   0.32180
  26   36669.9    272.7   0.303424638   2.72406   0.74851  -0.60859   1.33919
  27   36888.5    271.1   0.049279129   0.43979   0.01654   0.63878  -0.17741
  28   37148.2    269.2   0.029894789   0.26493   0.03448  -0.37966   0.34584
  29   37452.3    267.0   0.103164394   0.90683  -0.36861   0.70970   0.51700
  30   38500.4    259.7   0.031877839   0.27258   0.21101   0.06408  -0.47323
  31   38590.9    259.1   0.044247583   0.37747  -0.03886  -0.58840   0.17245
  32   38823.6    257.6   0.061416366   0.52079   0.09110  -0.35027  -0.62434
  33   39009.2    256.4   0.028804402   0.24309  -0.19148   0.38387   0.24304
  34   39198.6    255.1   0.021104519   0.17725  -0.12448  -0.39056  -0.09601
  35   39688.1    252.0   0.184813828   1.53303   0.60229   1.00750   0.39397
  36   39998.9    250.0   0.065254225   0.53708   0.34102  -0.41921  -0.49502
  37   40128.6    249.2   0.019394205   0.15911   0.33998  -0.19392  -0.07692

FINAL SINGLE POINT ENERGY     -5312.581297523525

DIPOLE MOMENT
-------------
                                X             Y             Z
Electronic contribution:     -8.69393      32.66141     -12.52875
Nuclear contribution   :      6.79759     -31.02739      11.74958
                        -----------------------------------------
Total Dipole Moment    :     -1.89634       1.63402      -0.77916
                        -----------------------------------------
Magnitude (a.u.)       :      2.62168
Magnitude (Debye)      :      6.66379

Rotational constants in cm-1:     0.002412     0.000129     0.000127
Rotational constants in MHz :    72.304200     3.869973     3.810049

                             ****ORCA TERMINATED NORMALLY****
TOTAL RUN TIME: 0 days 0 hours 14 minutes 19 seconds 562 msec
