                         Program Version 4.2.0 -  RELEASE  -
|  1> # ORCA input file
|  2> # SCF done       -208.783094404610          0.000564634178
|  3> ! CAM-B3LYP def2-SVP def2/J RIJCOSX Grid4 TightSCF
|  4> %maxcore 5000
|  5> %tddft
|  6>     Mode sTDDFT
|  7>     Ethresh 5.0
|  8>     maxcore 5000
|  9> end
| 10>
| 11> %pal
| 12>   nprocs 6
| 13>   end
| 14> * xyz 0 1
| 15>    C        2.84567        -1.78968        -0.81463
| 16>    C        3.03512        -3.03317        -1.36415
| 17>    C        3.02698        -3.29281        -2.74886
| 18>    N        3.00873        -3.56621        -3.86385
| 19>    C        3.34808        -4.17841        -0.60597
| 20>    N        3.64184        -5.12921        -0.03382
| 21>    C        2.81903        -0.53647        -1.57012
| 22>    C        3.08605         0.52754        -0.69018
| 23>    C        3.16474         1.83139        -1.13311
| 24>    C        2.96065         2.08166        -2.48507
| 25>    C        2.68229         1.02999        -3.36384
| 26>    C        2.61404        -0.28520        -2.91544
| 27>   Cl        2.41785         1.35624        -5.02927
| 28>   Cl        3.04954         3.69246        -3.07493
| 29>    C        3.23346         0.00158         0.68615
| 30>    O        3.51027         0.61856         1.68907
| 31>    C        2.91521        -1.44461         0.58387
| 32>    C        2.68637        -2.14877         1.73528
| 33>    C        1.99771        -3.35747         1.93219
| 34>    S        2.13900        -4.17425         3.47125
| 35>    C        1.01611        -5.39817         2.98372
| 36>    C        0.54054        -5.15227         1.70293
| 37>    C        1.09213        -4.02691         1.11683
| 38>    C        0.67777        -6.47014         3.84113
| 39>    C        1.14284        -6.71999         5.11788
| 40>    C        0.59611        -7.86104         5.69399
| 41>    C       -0.30253        -8.51553         4.87266
| 42>    S       -0.46471        -7.69348         3.34851
| 43>    C       -1.04558        -9.68807         5.15549
| 44>    S       -0.91971       -10.47910         6.70230
| 45>    C       -2.07940       -11.69066         6.23518
| 46>    C       -2.51354       -11.47203         4.94271
| 47>    C       -1.93881       -10.35443         4.34172
| 48>    C       -2.43590       -12.70118         7.17483
| 49>    C       -3.35914       -13.66201         6.96444
| 50>    C       -3.72436       -14.67487         7.90929
| 51>    C       -4.94747       -15.32462         7.93877
| 52>    C       -6.13160       -15.19163         7.05078
| 53>    N       -4.95136       -16.14679         9.02158
| 54>    C       -3.77025       -16.06742         9.69826
| 55>    C       -3.50801       -16.92782        10.88094
| 56>    C       -2.96565       -15.15924         9.03381
| 57>    C       -1.59216       -14.84252         9.30957
| 58>    C       -1.02326       -14.82847        10.53086
| 59>    C        0.35417       -14.54477        10.77423
| 60>    S        0.93034       -14.46346        12.41514
| 61>    C        2.55041       -14.10784        11.88343
| 62>    C        2.60915       -14.06340        10.50609
| 63>    C        1.38411       -14.30506         9.88751
| 64>    C        3.59981       -13.90280        12.81363
| 65>    C        3.52716       -13.88566        14.19282
| 66>    C        4.75132       -13.64716        14.80968
| 67>    C        5.79389       -13.48138        13.91937
| 68>    S        5.22968       -13.62210        12.27369
| 69>    C        7.15805       -13.23552        14.20109
| 70>    S        7.72329       -13.02618        15.82731
| 71>    C        9.37004       -12.81008        15.27975
| 72>    C        9.43326       -12.90119        13.89471
| 73>    C        8.20574       -13.13335        13.29680
| 74>    C       10.39851       -12.58169        16.21329
| 75>    C       11.72210       -12.45211        15.89810
| 76>    C       12.69613       -12.22330        16.88305
| 77>    C       14.04552       -12.12429        16.64386
| 78>    C       15.08296       -11.88548        17.62307
| 79>    C       14.92361       -11.63852        18.96361
| 80>    C       15.98876       -11.40578        19.85834
| 81>    N       16.80526       -11.20726        20.64080
| 82>    C       13.69205       -11.56802        19.64678
| 83>    N       12.73685       -11.49118        20.28042
| 84>    C       16.36802       -11.93212        16.92499
| 85>    C       16.13476       -12.16330        15.55899
| 86>    C       14.67901       -12.28209        15.31731
| 87>    O       14.14636       -12.47455        14.24353
| 88>    C       17.16658       -12.25867        14.64874
| 89>    C       18.46904       -12.12163        15.11262
| 90>    C       18.71164       -11.89256        16.47046
| 91>    C       17.66762       -11.79558        17.38429
| 92>   Cl       20.32691       -11.72762        17.03295
| 93>   Cl       19.78284       -12.23642        14.01188
| 94>    H        3.38038         2.63448        -0.44634
| 95>    H        2.39568        -1.07183        -3.61932
| 96>    H        3.02270        -1.64607         2.63750
| 97>    H       -0.18173        -5.79180         1.22733
| 98>    H        0.80870        -3.66697         0.14380
| 99>    H        1.85877        -6.07991         5.60247
|100>    H        0.83440        -8.21552         6.68107
|101>    H       -3.22850       -12.10476         4.44923
|102>    H       -2.15747       -10.02543         3.34075
|103>    H       -1.93508       -12.64311         8.13070
|104>    H       -3.91587       -13.66548         6.03665
|105>    H       -5.82533       -15.16640         6.00690
|106>    H       -6.67493       -14.26959         7.26191
|107>    H       -6.81029       -16.02999         7.19377
|108>    H       -5.72075       -16.74104         9.28715
|109>    H       -4.10014       -17.83998        10.82459
|110>    H       -3.76649       -16.41326        11.80778
|111>    H       -2.45436       -17.19419        10.92382
|112>    H       -0.99006       -14.60657         8.44279
|113>    H       -1.62688       -15.00350        11.40924
|114>    H        3.52343       -13.85731         9.97732
|115>    H        1.25333       -14.30705         8.82080
|116>    H        2.60304       -14.04093        14.72078
|117>    H        4.89251       -13.59613        15.87489
|118>    H       10.35241       -12.79639        13.34794
|119>    H        8.05475       -13.23283        12.23626
|120>    H       10.10127       -12.51245        17.25292
|121>    H       12.04741       -12.53201        14.87311
|122>    H       12.34294       -12.12785        17.90179
|123>    H       16.96409       -12.43642        13.60439
|124>    H       17.89556       -11.61964        18.42259
|125> *
|126>
|127>                          ****END OF INPUT****

CARTESIAN COORDINATES (ANGSTROEM)
---------------------------------
  C      2.845670   -1.789680   -0.814630
  C      3.035120   -3.033170   -1.364150
  C      3.026980   -3.292810   -2.748860
  N      3.008730   -3.566210   -3.863850
  C      3.348080   -4.178410   -0.605970
  N      3.641840   -5.129210   -0.033820
  C      2.819030   -0.536470   -1.570120
  C      3.086050    0.527540   -0.690180
  C      3.164740    1.831390   -1.133110
  C      2.960650    2.081660   -2.485070
  C      2.682290    1.029990   -3.363840
  C      2.614040   -0.285200   -2.915440
  Cl     2.417850    1.356240   -5.029270
  Cl     3.049540    3.692460   -3.074930
  C      3.233460    0.001580    0.686150
  O      3.510270    0.618560    1.689070
  C      2.915210   -1.444610    0.583870
  C      2.686370   -2.148770    1.735280
  C      1.997710   -3.357470    1.932190
  S      2.139000   -4.174250    3.471250
  C      1.016110   -5.398170    2.983720
  C      0.540540   -5.152270    1.702930
  C      1.092130   -4.026910    1.116830
  C      0.677770   -6.470140    3.841130
  C      1.142840   -6.719990    5.117880
  C      0.596110   -7.861040    5.693990
  C     -0.302530   -8.515530    4.872660
  S     -0.464710   -7.693480    3.348510
  C     -1.045580   -9.688070    5.155490
  S     -0.919710  -10.479100    6.702300
  C     -2.079400  -11.690660    6.235180
  C     -2.513540  -11.472030    4.942710
  C     -1.938810  -10.354430    4.341720
  C     -2.435900  -12.701180    7.174830
  C     -3.359140  -13.662010    6.964440
  C     -3.724360  -14.674870    7.909290
  C     -4.947470  -15.324620    7.938770
  C     -6.131600  -15.191630    7.050780
  N     -4.951360  -16.146790    9.021580
  C     -3.770250  -16.067420    9.698260
  C     -3.508010  -16.927820   10.880940
  C     -2.965650  -15.159240    9.033810
  C     -1.592160  -14.842520    9.309570
  C     -1.023260  -14.828470   10.530860
  C      0.354170  -14.544770   10.774230
  S      0.930340  -14.463460   12.415140
  C      2.550410  -14.107840   11.883430
  C      2.609150  -14.063400   10.506090
  C      1.384110  -14.305060    9.887510
  C      3.599810  -13.902800   12.813630
  C      3.527160  -13.885660   14.192820
  C      4.751320  -13.647160   14.809680
  C      5.793890  -13.481380   13.919370
  S      5.229680  -13.622100   12.273690
  C      7.158050  -13.235520   14.201090
  S      7.723290  -13.026180   15.827310
  C      9.370040  -12.810080   15.279750
  C      9.433260  -12.901190   13.894710
  C      8.205740  -13.133350   13.296800
  C     10.398510  -12.581690   16.213290
  C     11.722100  -12.452110   15.898100
  C     12.696130  -12.223300   16.883050
  C     14.045520  -12.124290   16.643860
  C     15.082960  -11.885480   17.623070
  C     14.923610  -11.638520   18.963610
  C     15.988760  -11.405780   19.858340
  N     16.805260  -11.207260   20.640800
  C     13.692050  -11.568020   19.646780
  N     12.736850  -11.491180   20.280420
  C     16.368020  -11.932120   16.924990
  C     16.134760  -12.163300   15.558990
  C     14.679010  -12.282090   15.317310
  O     14.146360  -12.474550   14.243530
  C     17.166580  -12.258670   14.648740
  C     18.469040  -12.121630   15.112620
  C     18.711640  -11.892560   16.470460
  C     17.667620  -11.795580   17.384290
  Cl    20.326910  -11.727620   17.032950
  Cl    19.782840  -12.236420   14.011880
  H      3.380380    2.634480   -0.446340
  H      2.395680   -1.071830   -3.619320
  H      3.022700   -1.646070    2.637500
  H     -0.181730   -5.791800    1.227330
  H      0.808700   -3.666970    0.143800
  H      1.858770   -6.079910    5.602470
  H      0.834400   -8.215520    6.681070
  H     -3.228500  -12.104760    4.449230
  H     -2.157470  -10.025430    3.340750
  H     -1.935080  -12.643110    8.130700
  H     -3.915870  -13.665480    6.036650
  H     -5.825330  -15.166400    6.006900
  H     -6.674930  -14.269590    7.261910
  H     -6.810290  -16.029990    7.193770
  H     -5.720750  -16.741040    9.287150
  H     -4.100140  -17.839980   10.824590
  H     -3.766490  -16.413260   11.807780
  H     -2.454360  -17.194190   10.923820
  H     -0.990060  -14.606570    8.442790
  H     -1.626880  -15.003500   11.409240
  H      3.523430  -13.857310    9.977320
  H      1.253330  -14.307050    8.820800
  H      2.603040  -14.040930   14.720780
  H      4.892510  -13.596130   15.874890
  H     10.352410  -12.796390   13.347940
  H      8.054750  -13.232830   12.236260
  H     10.101270  -12.512450   17.252920
  H     12.047410  -12.532010   14.873110
  H     12.342940  -12.127850   17.901790
  H     16.964090  -12.436420   13.604390
  H     17.895560  -11.619640   18.422590

 Total Charge           Charge          ....    0
 Multiplicity           Mult            ....    1
 Number of Electrons    NEL             ....  618
 Basis Dimension        Dim             .... 1301

ORBITAL ENERGIES
----------------

  NO   OCC          E(Eh)            E(eV)
   0   2.0000    -101.597136     -2764.5986
   1   2.0000    -101.596284     -2764.5754
   2   2.0000    -101.595557     -2764.5556
   3   2.0000    -101.593682     -2764.5046
   4   2.0000     -88.970296     -2421.0048
   5   2.0000     -88.969441     -2420.9816
   6   2.0000     -88.966099     -2420.8906
   7   2.0000     -88.965976     -2420.8873
   8   2.0000     -88.958355     -2420.6799
   9   2.0000     -88.957520     -2420.6572
  10   2.0000     -19.214726      -522.8593
  11   2.0000     -19.214397      -522.8503
  12   2.0000     -14.465969      -393.6390
  13   2.0000     -14.414478      -392.2379
  14   2.0000     -14.413180      -392.2026
  15   2.0000     -14.413147      -392.2017
  16   2.0000     -14.410061      -392.1177
  17   2.0000     -10.365992      -282.0730
  18   2.0000     -10.365606      -282.0625
  19   2.0000     -10.353202      -281.7250
  20   2.0000     -10.352367      -281.7022
  21   2.0000     -10.350757      -281.6584
  22   2.0000     -10.350114      -281.6409
  23   2.0000     -10.342123      -281.4235
  24   2.0000     -10.341548      -281.4078
  25   2.0000     -10.338252      -281.3181
  26   2.0000     -10.337681      -281.3026
  27   2.0000     -10.328830      -281.0618
  28   2.0000     -10.326875      -281.0086
  29   2.0000     -10.320647      -280.8391
  30   2.0000     -10.318389      -280.7776
  31   2.0000     -10.317820      -280.7621
  32   2.0000     -10.317187      -280.7449
  33   2.0000     -10.316153      -280.7168
  34   2.0000     -10.314162      -280.6626
  35   2.0000     -10.314085      -280.6605
  36   2.0000     -10.313549      -280.6459
  37   2.0000     -10.313510      -280.6449
  38   2.0000     -10.313196      -280.6363
  39   2.0000     -10.312643      -280.6213
  40   2.0000     -10.312565      -280.6192
  41   2.0000     -10.311718      -280.5961
  42   2.0000     -10.310447      -280.5615
  43   2.0000     -10.309404      -280.5331
  44   2.0000     -10.307352      -280.4773
  45   2.0000     -10.306641      -280.4580
  46   2.0000     -10.306247      -280.4472
  47   2.0000     -10.306005      -280.4407
  48   2.0000     -10.304597      -280.4023
  49   2.0000     -10.304434      -280.3979
  50   2.0000     -10.303655      -280.3767
  51   2.0000     -10.303552      -280.3739
  52   2.0000     -10.302947      -280.3574
  53   2.0000     -10.302929      -280.3570
  54   2.0000     -10.298335      -280.2319
  55   2.0000     -10.298140      -280.2266
  56   2.0000     -10.294952      -280.1399
  57   2.0000     -10.293589      -280.1028
  58   2.0000     -10.293143      -280.0907
  59   2.0000     -10.289748      -279.9983
  60   2.0000     -10.288335      -279.9598
  61   2.0000     -10.287779      -279.9447
  62   2.0000     -10.287655      -279.9413
  63   2.0000     -10.286694      -279.9152
  64   2.0000     -10.285008      -279.8693
  65   2.0000     -10.281939      -279.7858
  66   2.0000     -10.281533      -279.7747
  67   2.0000     -10.281424      -279.7718
  68   2.0000     -10.280551      -279.7480
  69   2.0000     -10.280214      -279.7388
  70   2.0000     -10.279964      -279.7321
  71   2.0000     -10.279900      -279.7303
  72   2.0000     -10.279104      -279.7086
  73   2.0000     -10.277638      -279.6688
  74   2.0000     -10.275098      -279.5996
  75   2.0000     -10.273334      -279.5516
  76   2.0000     -10.273217      -279.5484
  77   2.0000     -10.261643      -279.2335
  78   2.0000     -10.260645      -279.2064
  79   2.0000      -9.552178      -259.9280
  80   2.0000      -9.551387      -259.9065
  81   2.0000      -9.550639      -259.8861
  82   2.0000      -9.548685      -259.8329
  83   2.0000      -8.065982      -219.4865
  84   2.0000      -8.065188      -219.4649
  85   2.0000      -8.061537      -219.3656
  86   2.0000      -8.061459      -219.3635
  87   2.0000      -8.054083      -219.1627
  88   2.0000      -8.053233      -219.1396
  89   2.0000      -7.322569      -199.2572
  90   2.0000      -7.321776      -199.2357
  91   2.0000      -7.320978      -199.2139
  92   2.0000      -7.319090      -199.1626
  93   2.0000      -7.312421      -198.9811
  94   2.0000      -7.311722      -198.9621
  95   2.0000      -7.311623      -198.9594
  96   2.0000      -7.310919      -198.9402
  97   2.0000      -7.310909      -198.9399
  98   2.0000      -7.310203      -198.9207
  99   2.0000      -7.308923      -198.8859
 100   2.0000      -7.308227      -198.8670
 101   2.0000      -6.035242      -164.2273
 102   2.0000      -6.034471      -164.2063
 103   2.0000      -6.031198      -164.1172
 104   2.0000      -6.030921      -164.1097
 105   2.0000      -6.030851      -164.1078
 106   2.0000      -6.030403      -164.0956
 107   2.0000      -6.028040      -164.0313
 108   2.0000      -6.027185      -164.0080
 109   2.0000      -6.026847      -163.9988
 110   2.0000      -6.026779      -163.9970
 111   2.0000      -6.023414      -163.9054
 112   2.0000      -6.023358      -163.9039
 113   2.0000      -6.023313      -163.9027
 114   2.0000      -6.022507      -163.8808
 115   2.0000      -6.019342      -163.7946
 116   2.0000      -6.018470      -163.7709
 117   2.0000      -6.016130      -163.7072
 118   2.0000      -6.015291      -163.6844
 119   2.0000      -1.129787       -30.7431
 120   2.0000      -1.128952       -30.7204
 121   2.0000      -1.082817       -29.4649
 122   2.0000      -1.028233       -27.9796
 123   2.0000      -1.025414       -27.9029
 124   2.0000      -1.014198       -27.5977
 125   2.0000      -1.010965       -27.5097
 126   2.0000      -1.008480       -27.4421
 127   2.0000      -1.008132       -27.4327
 128   2.0000      -0.994967       -27.0744
 129   2.0000      -0.993605       -27.0374
 130   2.0000      -0.990819       -26.9616
 131   2.0000      -0.990240       -26.9458
 132   2.0000      -0.987369       -26.8677
 133   2.0000      -0.984977       -26.8026
 134   2.0000      -0.975414       -26.5424
 135   2.0000      -0.974924       -26.5290
 136   2.0000      -0.958768       -26.0894
 137   2.0000      -0.956457       -26.0265
 138   2.0000      -0.933061       -25.3899
 139   2.0000      -0.931393       -25.3445
 140   2.0000      -0.919279       -25.0149
 141   2.0000      -0.917282       -24.9605
 142   2.0000      -0.906694       -24.6724
 143   2.0000      -0.900814       -24.5124
 144   2.0000      -0.892150       -24.2766
 145   2.0000      -0.886019       -24.1098
 146   2.0000      -0.880112       -23.9491
 147   2.0000      -0.873419       -23.7669
 148   2.0000      -0.865336       -23.5470
 149   2.0000      -0.857695       -23.3391
 150   2.0000      -0.856328       -23.3019
 151   2.0000      -0.854982       -23.2652
 152   2.0000      -0.851963       -23.1831
 153   2.0000      -0.848883       -23.0993
 154   2.0000      -0.844920       -22.9914
 155   2.0000      -0.839496       -22.8438
 156   2.0000      -0.835368       -22.7315
 157   2.0000      -0.831324       -22.6215
 158   2.0000      -0.829708       -22.5775
 159   2.0000      -0.824308       -22.4306
 160   2.0000      -0.814860       -22.1735
 161   2.0000      -0.808794       -22.0084
 162   2.0000      -0.788480       -21.4556
 163   2.0000      -0.783800       -21.3283
 164   2.0000      -0.769611       -20.9422
 165   2.0000      -0.765564       -20.8321
 166   2.0000      -0.758764       -20.6470
 167   2.0000      -0.757463       -20.6116
 168   2.0000      -0.744400       -20.2561
 169   2.0000      -0.726137       -19.7592
 170   2.0000      -0.724077       -19.7031
 171   2.0000      -0.719492       -19.5784
 172   2.0000      -0.711102       -19.3501
 173   2.0000      -0.703608       -19.1461
 174   2.0000      -0.699358       -19.0305
 175   2.0000      -0.691379       -18.8134
 176   2.0000      -0.689449       -18.7609
 177   2.0000      -0.687993       -18.7212
 178   2.0000      -0.680244       -18.5104
 179   2.0000      -0.668261       -18.1843
 180   2.0000      -0.666372       -18.1329
 181   2.0000      -0.665311       -18.1040
 182   2.0000      -0.653089       -17.7715
 183   2.0000      -0.650488       -17.7007
 184   2.0000      -0.645260       -17.5584
 185   2.0000      -0.636934       -17.3319
 186   2.0000      -0.633109       -17.2278
 187   2.0000      -0.629399       -17.1268
 188   2.0000      -0.623242       -16.9593
 189   2.0000      -0.621945       -16.9240
 190   2.0000      -0.618935       -16.8421
 191   2.0000      -0.618005       -16.8168
 192   2.0000      -0.617185       -16.7944
 193   2.0000      -0.615824       -16.7574
 194   2.0000      -0.613783       -16.7019
 195   2.0000      -0.610205       -16.6045
 196   2.0000      -0.602031       -16.3821
 197   2.0000      -0.595510       -16.2047
 198   2.0000      -0.588455       -16.0127
 199   2.0000      -0.586959       -15.9720
 200   2.0000      -0.585089       -15.9211
 201   2.0000      -0.576514       -15.6878
 202   2.0000      -0.572495       -15.5784
 203   2.0000      -0.568054       -15.4575
 204   2.0000      -0.563835       -15.3427
 205   2.0000      -0.550680       -14.9848
 206   2.0000      -0.550137       -14.9700
 207   2.0000      -0.548439       -14.9238
 208   2.0000      -0.544078       -14.8051
 209   2.0000      -0.542532       -14.7630
 210   2.0000      -0.541201       -14.7268
 211   2.0000      -0.539288       -14.6748
 212   2.0000      -0.538568       -14.6552
 213   2.0000      -0.538266       -14.6470
 214   2.0000      -0.530633       -14.4393
 215   2.0000      -0.529137       -14.3986
 216   2.0000      -0.527059       -14.3420
 217   2.0000      -0.525139       -14.2898
 218   2.0000      -0.520291       -14.1578
 219   2.0000      -0.517765       -14.0891
 220   2.0000      -0.511594       -13.9212
 221   2.0000      -0.511270       -13.9124
 222   2.0000      -0.510047       -13.8791
 223   2.0000      -0.509780       -13.8718
 224   2.0000      -0.509131       -13.8541
 225   2.0000      -0.508166       -13.8279
 226   2.0000      -0.505645       -13.7593
 227   2.0000      -0.502724       -13.6798
 228   2.0000      -0.501387       -13.6434
 229   2.0000      -0.500244       -13.6123
 230   2.0000      -0.498880       -13.5752
 231   2.0000      -0.497123       -13.5274
 232   2.0000      -0.496121       -13.5001
 233   2.0000      -0.492484       -13.4012
 234   2.0000      -0.491666       -13.3789
 235   2.0000      -0.491276       -13.3683
 236   2.0000      -0.489395       -13.3171
 237   2.0000      -0.487726       -13.2717
 238   2.0000      -0.486579       -13.2405
 239   2.0000      -0.485599       -13.2138
 240   2.0000      -0.478521       -13.0212
 241   2.0000      -0.477646       -12.9974
 242   2.0000      -0.474369       -12.9082
 243   2.0000      -0.471593       -12.8327
 244   2.0000      -0.470702       -12.8084
 245   2.0000      -0.469667       -12.7803
 246   2.0000      -0.468383       -12.7454
 247   2.0000      -0.465536       -12.6679
 248   2.0000      -0.465169       -12.6579
 249   2.0000      -0.464058       -12.6277
 250   2.0000      -0.462350       -12.5812
 251   2.0000      -0.461936       -12.5699
 252   2.0000      -0.459030       -12.4908
 253   2.0000      -0.456813       -12.4305
 254   2.0000      -0.448563       -12.2060
 255   2.0000      -0.447485       -12.1767
 256   2.0000      -0.445706       -12.1283
 257   2.0000      -0.445555       -12.1242
 258   2.0000      -0.441347       -12.0097
 259   2.0000      -0.439773       -11.9668
 260   2.0000      -0.438866       -11.9422
 261   2.0000      -0.434492       -11.8231
 262   2.0000      -0.433663       -11.8006
 263   2.0000      -0.432867       -11.7789
 264   2.0000      -0.432719       -11.7749
 265   2.0000      -0.430219       -11.7069
 266   2.0000      -0.427275       -11.6267
 267   2.0000      -0.425573       -11.5804
 268   2.0000      -0.425092       -11.5674
 269   2.0000      -0.424725       -11.5574
 270   2.0000      -0.423021       -11.5110
 271   2.0000      -0.422812       -11.5053
 272   2.0000      -0.422436       -11.4951
 273   2.0000      -0.422195       -11.4885
 274   2.0000      -0.421054       -11.4575
 275   2.0000      -0.416934       -11.3453
 276   2.0000      -0.413855       -11.2616
 277   2.0000      -0.413344       -11.2477
 278   2.0000      -0.406990       -11.0748
 279   2.0000      -0.406955       -11.0738
 280   2.0000      -0.404240       -10.9999
 281   2.0000      -0.402133       -10.9426
 282   2.0000      -0.401077       -10.9139
 283   2.0000      -0.394861       -10.7447
 284   2.0000      -0.384682       -10.4677
 285   2.0000      -0.378939       -10.3114
 286   2.0000      -0.376698       -10.2505
 287   2.0000      -0.371672       -10.1137
 288   2.0000      -0.361548        -9.8382
 289   2.0000      -0.348890        -9.4938
 290   2.0000      -0.342345        -9.3157
 291   2.0000      -0.339953        -9.2506
 292   2.0000      -0.339436        -9.2365
 293   2.0000      -0.337972        -9.1967
 294   2.0000      -0.334929        -9.1139
 295   2.0000      -0.334053        -9.0900
 296   2.0000      -0.333845        -9.0844
 297   2.0000      -0.332810        -9.0562
 298   2.0000      -0.327575        -8.9138
 299   2.0000      -0.326103        -8.8737
 300   2.0000      -0.325291        -8.8516
 301   2.0000      -0.311456        -8.4751
 302   2.0000      -0.307642        -8.3714
 303   2.0000      -0.304184        -8.2773
 304   2.0000      -0.293389        -7.9835
 305   2.0000      -0.268973        -7.3191
 306   2.0000      -0.263087        -7.1590
 307   2.0000      -0.234497        -6.3810
 308   2.0000      -0.231536        -6.3004
 309   0.0000      -0.096796        -2.6340
 310   0.0000      -0.093085        -2.5330
 311   0.0000      -0.064790        -1.7630
 312   0.0000      -0.064291        -1.7494
 313   0.0000      -0.046416        -1.2630

MULLIKEN ATOMIC CHARGES
-----------------------
   0 C :    0.268402
   1 C :   -0.337489
   2 C :   -0.176820
   3 N :    0.154593
   4 C :   -0.216517
   5 N :    0.181097
   6 C :    0.014410
   7 C :    0.003218
   8 C :   -0.029691
   9 C :    0.058679
  10 C :    0.048311
  11 C :   -0.016096
  12 Cl:   -0.039445
  13 Cl:   -0.046554
  14 C :    0.137340
  15 O :   -0.142892
  16 C :   -0.150762
  17 C :    0.097347
  18 C :   -0.116839
  19 S :    0.150587
  20 C :   -0.017171
  21 C :   -0.025806
  22 C :    0.074479
  23 C :   -0.043338
  24 C :    0.004594
  25 C :   -0.013051
  26 C :   -0.018570
  27 S :    0.127904
  28 C :   -0.057861
  29 S :    0.120122
  30 C :   -0.072832
  31 C :    0.006056
  32 C :   -0.003448
  33 C :    0.032326
  34 C :   -0.029287
  35 C :    0.061620
  36 C :   -0.155660
  37 C :    0.119185
  38 N :   -0.030701
  39 C :   -0.159400
  40 C :    0.118651
  41 C :    0.032704
  42 C :   -0.037235
  43 C :    0.035404
  44 C :   -0.069270
  45 S :    0.116731
  46 C :   -0.057537
  47 C :   -0.004164
  48 C :    0.000336
  49 C :   -0.019483
  50 C :   -0.013978
  51 C :   -0.001975
  52 C :   -0.040331
  53 S :    0.122944
  54 C :   -0.032355
  55 S :    0.143497
  56 C :   -0.090893
  57 C :    0.042733
  58 C :   -0.016744
  59 C :    0.096643
  60 C :   -0.022857
  61 C :   -0.025034
  62 C :   -0.086206
  63 C :    0.328199
  64 C :   -0.350093
  65 C :   -0.189556
  66 N :    0.152563
  67 C :   -0.190748
  68 N :    0.141247
  69 C :    0.028591
  70 C :   -0.014027
  71 C :    0.145364
  72 O :   -0.153375
  73 C :   -0.031193
  74 C :    0.058269
  75 C :    0.047255
  76 C :   -0.013188
  77 Cl:   -0.039333
  78 Cl:   -0.046272
  79 H :   -0.000800
  80 H :    0.001217
  81 H :    0.022359
  82 H :   -0.002686
  83 H :    0.004710
  84 H :   -0.003613
  85 H :   -0.007146
  86 H :   -0.021187
  87 H :   -0.012521
  88 H :   -0.010884
  89 H :   -0.029052
  90 H :    0.033479
  91 H :    0.040020
  92 H :    0.002413
  93 H :    0.114103
  94 H :    0.002351
  95 H :    0.035735
  96 H :    0.036039
  97 H :    0.003146
  98 H :   -0.027528
  99 H :   -0.012029
 100 H :   -0.014831
 101 H :   -0.009135
 102 H :   -0.004935
 103 H :    0.005552
 104 H :   -0.002188
 105 H :    0.006294
 106 H :    0.023502
 107 H :    0.006882
 108 H :   -0.003547
 109 H :   -0.001044
Sum of atomic charges:   -0.0000000

LOEWDIN ATOMIC CHARGES
----------------------
   0 C :    0.064386
   1 C :   -0.143613
   2 C :   -0.023089
   3 N :   -0.051471
   4 C :   -0.020178
   5 N :   -0.039544
   6 C :   -0.011151
   7 C :   -0.044885
   8 C :    0.000434
   9 C :   -0.136452
  10 C :   -0.130990
  11 C :   -0.016388
  12 Cl:    0.159254
  13 Cl:    0.155631
  14 C :    0.082133
  15 O :   -0.143374
  16 C :   -0.109129
  17 C :    0.053200
  18 C :   -0.190557
  19 S :    0.459594
  20 C :   -0.145958
  21 C :   -0.062902
  22 C :   -0.000053
  23 C :   -0.196854
  24 C :   -0.038675
  25 C :   -0.066810
  26 C :   -0.163042
  27 S :    0.441525
  28 C :   -0.198335
  29 S :    0.433625
  30 C :   -0.155703
  31 C :   -0.065356
  32 C :   -0.050991
  33 C :   -0.066676
  34 C :   -0.000847
  35 C :   -0.080666
  36 C :   -0.014451
  37 C :   -0.053280
  38 N :    0.093851
  39 C :   -0.011619
  40 C :   -0.055633
  41 C :   -0.078329
  42 C :   -0.001107
  43 C :   -0.067086
  44 C :   -0.157923
  45 S :    0.429644
  46 C :   -0.197406
  47 C :   -0.052188
  48 C :   -0.063817
  49 C :   -0.165766
  50 C :   -0.066778
  51 C :   -0.044481
  52 C :   -0.195126
  53 S :    0.438429
  54 C :   -0.158830
  55 S :    0.447662
  56 C :   -0.187672
  57 C :   -0.014390
  58 C :   -0.065287
  59 C :    0.023830
  60 C :   -0.042217
  61 C :    0.070329
  62 C :   -0.110084
  63 C :    0.074795
  64 C :   -0.142600
  65 C :   -0.020449
  66 N :   -0.053328
  67 C :   -0.019397
  68 N :   -0.055899
  69 C :   -0.013137
  70 C :   -0.042497
  71 C :    0.084134
  72 O :   -0.148895
  73 C :   -0.001447
  74 C :   -0.135461
  75 C :   -0.131795
  76 C :   -0.013294
  77 Cl:    0.158440
  78 Cl:    0.155375
  79 H :    0.045740
  80 H :    0.043730
  81 H :    0.045769
  82 H :    0.030488
  83 H :    0.036507
  84 H :    0.030367
  85 H :    0.028683
  86 H :    0.027348
  87 H :    0.026585
  88 H :    0.028389
  89 H :    0.024454
  90 H :    0.039548
  91 H :    0.040442
  92 H :    0.030990
  93 H :    0.086555
  94 H :    0.029215
  95 H :    0.035788
  96 H :    0.042821
  97 H :    0.029528
  98 H :    0.023630
  99 H :    0.026643
 100 H :    0.029574
 101 H :    0.028198
 102 H :    0.029722
 103 H :    0.039885
 104 H :    0.029913
 105 H :    0.037034
 106 H :    0.031631
 107 H :    0.041348
 108 H :    0.044587
 109 H :    0.043977

  Mayer bond orders larger than 0.100000
B(  0-C ,  1-C ) :   1.6343 B(  0-C ,  6-C ) :   0.9983 B(  0-C , 16-C ) :   1.0653
B(  1-C ,  2-C ) :   1.1264 B(  1-C ,  4-C ) :   1.1703 B(  2-C ,  3-N ) :   2.9878
B(  4-C ,  5-N ) :   3.0077 B(  6-C ,  7-C ) :   1.3328 B(  6-C , 11-C ) :   1.3515
B(  7-C ,  8-C ) :   1.3549 B(  7-C , 14-C ) :   0.9161 B(  8-C ,  9-C ) :   1.3407
B(  8-C , 79-H ) :   1.0152 B(  9-C , 10-C ) :   1.4152 B(  9-C , 13-Cl) :   1.0435
B( 10-C , 11-C ) :   1.3558 B( 10-C , 12-Cl) :   1.0668 B( 11-C , 80-H ) :   0.9886
B( 14-C , 15-O ) :   2.2640 B( 14-C , 16-C ) :   0.9591 B( 16-C , 17-C ) :   1.6109
B( 17-C , 18-C ) :   1.1802 B( 17-C , 81-H ) :   0.9278 B( 18-C , 19-S ) :   1.0890
B( 18-C , 22-C ) :   1.4050 B( 19-S , 20-C ) :   1.1669 B( 20-C , 21-C ) :   1.4267
B( 20-C , 23-C ) :   1.1781 B( 21-C , 22-C ) :   1.3512 B( 21-C , 82-H ) :   0.9927
B( 22-C , 83-H ) :   0.9866 B( 23-C , 24-C ) :   1.4787 B( 23-C , 27-S ) :   1.1045
B( 24-C , 25-C ) :   1.2878 B( 24-C , 84-H ) :   0.9928 B( 25-C , 26-C ) :   1.4812
B( 25-C , 85-H ) :   0.9930 B( 26-C , 27-S ) :   1.1366 B( 26-C , 28-C ) :   1.1622
B( 28-C , 29-S ) :   1.1143 B( 28-C , 32-C ) :   1.4885 B( 29-S , 30-C ) :   1.1282
B( 30-C , 31-C ) :   1.5011 B( 30-C , 33-C ) :   1.1011 B( 31-C , 32-C ) :   1.2796
B( 31-C , 86-H ) :   0.9925 B( 32-C , 87-H ) :   0.9913 B( 33-C , 34-C ) :   1.7186
B( 33-C , 88-H ) :   0.9602 B( 34-C , 35-C ) :   1.1180 B( 34-C , 89-H ) :   0.9578
B( 35-C , 36-C ) :   1.4395 B( 35-C , 41-C ) :   1.2082 B( 36-C , 37-C ) :   1.1039
B( 36-C , 38-N ) :   1.2273 B( 37-C , 90-H ) :   0.9429 B( 37-C , 91-H ) :   0.9461
B( 37-C , 92-H ) :   0.9405 B( 38-N , 39-C ) :   1.2217 B( 38-N , 93-H ) :   0.9342
B( 39-C , 40-C ) :   1.1087 B( 39-C , 41-C ) :   1.4779 B( 40-C , 94-H ) :   0.9388
B( 40-C , 95-H ) :   0.9400 B( 40-C , 96-H ) :   0.9402 B( 41-C , 42-C ) :   1.0799
B( 42-C , 43-C ) :   1.7302 B( 42-C , 97-H ) :   0.9559 B( 43-C , 44-C ) :   1.0923
B( 43-C , 98-H ) :   0.9645 B( 44-C , 45-S ) :   1.1227 B( 44-C , 48-C ) :   1.5087
B( 45-S , 46-C ) :   1.1161 B( 46-C , 47-C ) :   1.4906 B( 46-C , 49-C ) :   1.1590
B( 47-C , 48-C ) :   1.2770 B( 47-C , 99-H ) :   0.9914 B( 48-C ,100-H ) :   0.9927
B( 49-C , 50-C ) :   1.4878 B( 49-C , 53-S ) :   1.1324 B( 50-C , 51-C ) :   1.2810
B( 50-C ,101-H ) :   0.9935 B( 51-C , 52-C ) :   1.4852 B( 51-C ,102-H ) :   0.9935
B( 52-C , 53-S ) :   1.1063 B( 52-C , 54-C ) :   1.1724 B( 54-C , 55-S ) :   1.1582
B( 54-C , 58-C ) :   1.4344 B( 55-S , 56-C ) :   1.0890 B( 56-C , 57-C ) :   1.4382
B( 56-C , 59-C ) :   1.1555 B( 57-C , 58-C ) :   1.3262 B( 57-C ,103-H ) :   0.9939
B( 58-C ,104-H ) :   0.9930 B( 59-C , 60-C ) :   1.5404 B( 59-C ,105-H ) :   0.9725
B( 60-C , 61-C ) :   1.2150 B( 60-C ,106-H ) :   0.9763 B( 61-C , 62-C ) :   1.4825
B( 61-C ,107-H ) :   0.9623 B( 62-C , 63-C ) :   1.0857 B( 62-C , 71-C ) :   0.9621
B( 63-C , 64-C ) :   1.6190 B( 63-C , 69-C ) :   0.9871 B( 64-C , 65-C ) :   1.1415
B( 64-C , 67-C ) :   1.1498 B( 65-C , 66-N ) :   2.9695 B( 67-C , 68-N ) :   2.9602
B( 69-C , 70-C ) :   1.3322 B( 69-C , 76-C ) :   1.3459 B( 70-C , 71-C ) :   0.9428
B( 70-C , 73-C ) :   1.3470 B( 71-C , 72-O ) :   2.1941 B( 73-C , 74-C ) :   1.3396
B( 73-C ,108-H ) :   1.0168 B( 74-C , 75-C ) :   1.4125 B( 74-C , 78-Cl) :   1.0432
B( 75-C , 76-C ) :   1.3561 B( 75-C , 77-Cl) :   1.0728 B( 76-C ,109-H ) :   0.9854

-----------------------------------------------------------------------------
         ABSORPTION SPECTRUM VIA TRANSITION ELECTRIC DIPOLE MOMENTS
-----------------------------------------------------------------------------
State   Energy  Wavelength   fosc         T2         TX        TY        TZ
        (cm-1)    (nm)                  (au**2)     (au)      (au)      (au)
-----------------------------------------------------------------------------
   0   16248.1    615.5   1.417545055  28.72160   3.05831  -1.84139   3.99720
   1   16856.8    593.2   1.935235618  37.79493  -5.13411  -3.34486   0.49779
   2   22492.4    444.6   0.050525041   0.73952  -0.39714  -0.74323   0.17150
   3   22855.2    437.5   0.032549842   0.46886  -0.11064   0.66326  -0.12924
   4   23401.3    427.3   0.308639645   4.34197  -0.73805  -1.91238   0.37426
   5   23901.3    418.4   0.059356243   0.81756  -0.74790  -0.46675   0.20088
   6   24978.6    400.3   0.178017253   2.34623  -1.51114  -0.10720  -0.22626
   7   25477.8    392.5   0.179222990   2.31583  -0.56303  -0.86681   1.11691
   8   26519.2    377.1   0.337333986   4.18770  -1.17009   0.43986  -1.62022
   9   27731.8    360.6   0.571727578   6.78714  -1.99839  -1.66821  -0.10328
  10   28554.9    350.2   0.100341141   1.15684   0.74752   0.77005   0.07123
  11   28940.8    345.5   0.024284148   0.27624  -0.21411  -0.30030   0.37446
  12   28961.8    345.3   0.012185750   0.13852   0.04870   0.30957  -0.20078
  13   29576.5    338.1   0.150884044   1.67947   0.93491  -0.59668  -0.67036
  14   29605.4    337.8   0.084163400   0.93590  -0.16815  -0.84930   0.43164
  15   30431.3    328.6   0.014297246   0.15467   0.28302  -0.18092  -0.20454
  16   30603.2    326.8   0.011467026   0.12336   0.27415   0.18305  -0.12120
  17   31353.8    318.9   0.006412643   0.06733   0.00331  -0.18265   0.18428
  18   31512.1    317.3   0.043640745   0.45592  -0.50154   0.42389   0.15714
  19   31602.6    316.4   0.001364724   0.01422   0.06501  -0.09927   0.01166
  20   31716.6    315.3   0.067841909   0.70419   0.12423   0.80907  -0.18483
  21   31950.9    313.0   0.088912669   0.91613  -0.36852  -0.84231   0.26616
  22   32070.2    311.8   0.052352817   0.53742  -0.08452  -0.62821  -0.36827
  23   32443.0    308.2   0.017967395   0.18232  -0.17430   0.30987   0.23648
  24   32870.1    304.2   0.094373017   0.94520   0.87943  -0.03540  -0.41297
  25   33464.5    298.8   0.077970562   0.76705  -0.05797   0.52446  -0.69902
  26   33621.0    297.4   0.055761350   0.54601  -0.64041  -0.35480  -0.09998
  27   34248.4    292.0   0.040549158   0.38978  -0.56840   0.22008  -0.13515
  28   34395.5    290.7   0.087265346   0.83525   0.50352   0.45929  -0.60891
  29   34820.8    287.2   0.044032268   0.41630   0.14492   0.47590   0.41088
  30   35008.0    285.6   0.208676403   1.96237   1.02846   0.02738  -0.95073
  31   35314.7    283.2   0.132043642   1.23094  -0.10327   1.07974  -0.23330
  32   35509.9    281.6   0.078782078   0.73039   0.18901  -0.82323   0.13021
  33   36005.4    277.7   0.036237988   0.33134   0.22355   0.18467   0.49725
  34   36451.3    274.3   0.495302159   4.47335   0.80967  -0.29765  -1.93111
  35   36561.4    273.5   0.069099104   0.62219   0.21494  -0.54284   0.53040
  36   36698.9    272.5   0.278413614   2.49754   0.00260   1.55082   0.30414
  37   36894.9    271.0   0.018629759   0.16623   0.13607   0.35501  -0.14727
  38   36975.1    270.5   0.173076056   1.54100   0.48642   1.08141   0.36736
  39   37580.9    266.1   0.029279348   0.25649  -0.27051   0.11882   0.41134
  40   37879.9    264.0   0.006611429   0.05746  -0.11088  -0.07235   0.19982
  41   37962.0    263.4   0.004134192   0.03585   0.00073  -0.03515   0.18605
  42   38233.6    261.6   0.011446476   0.09856   0.03357   0.01856   0.31159
  43   38360.9    260.7   0.043540341   0.37366   0.44538   0.13770   0.39540
  44   38816.2    257.6   0.006541891   0.05548  -0.20566   0.03528  -0.10928
  45   38970.3    256.6   0.082808469   0.69955   0.36071   0.38165   0.65098
  46   39349.9    254.1   0.070288532   0.58805   0.09637   0.11739   0.75165
  47   39629.6    252.3   0.025382882   0.21086  -0.42411  -0.10394  -0.14210
  48   39698.4    251.9   0.004437216   0.03680   0.08089  -0.17334   0.01443
  49   39897.9    250.6   0.128848767   1.06318   0.85814   0.15577   0.55001
  50   40164.5    249.0   0.029079671   0.23835  -0.39810  -0.16910   0.22644

FINAL SINGLE POINT ENERGY     -7030.455004221025

DIPOLE MOMENT
-------------
                                X             Y             Z
Electronic contribution:    119.62439      90.97934     -30.11887
Nuclear contribution   :   -125.91812     -93.99870      29.53598
                        -----------------------------------------
Total Dipole Moment    :     -6.29373      -3.01936      -0.58289
                        -----------------------------------------
Magnitude (a.u.)       :      7.00481
Magnitude (Debye)      :     17.80481

Rotational constants in cm-1:     0.000366     0.000141     0.000105
Rotational constants in MHz :    10.957586     4.232756     3.144481

                             ****ORCA TERMINATED NORMALLY****
TOTAL RUN TIME: 0 days 0 hours 11 minutes 7 seconds 911 msec
