                         Program Version 4.2.0 -  RELEASE  -
|  1> # ORCA input file
|  2> # SCF done       -193.060533731738          0.000736520744
|  3> ! CAM-B3LYP def2-SVP def2/J RIJCOSX Grid4 TightSCF
|  4> %maxcore 5000
|  5> %tddft
|  6>     Mode sTDDFT
|  7>     Ethresh 5.0
|  8>     maxcore 5000
|  9> end
| 10>
| 11> %pal
| 12>   nprocs 6
| 13>   end
| 14> * xyz 0 1
| 15>    C       -3.03670        -1.16586        -0.45370
| 16>    C       -2.18153        -2.00726        -1.13262
| 17>    C       -1.87194        -1.87640        -2.49783
| 18>    N       -1.60143        -1.82440        -3.61383
| 19>    C       -1.46290        -3.04689        -0.51338
| 20>    N       -0.83768        -3.88476        -0.03785
| 21>    C       -3.57926         0.07160        -1.02024
| 22>    C       -3.99562         0.90503         0.03170
| 23>    C       -4.51410         2.16094        -0.20156
| 24>    C       -4.62896         2.59359        -1.51892
| 25>    C       -4.22858         1.76378        -2.56914
| 26>    C       -3.70178         0.49864        -2.33025
| 27>   Cl       -4.37295         2.30719        -4.19220
| 28>   Cl       -5.26734         4.15450        -1.85139
| 29>    C       -3.79400         0.19881         1.32054
| 30>    O       -3.99867         0.62669         2.43414
| 31>    C       -3.33705        -1.16251         0.95379
| 32>    C       -3.33692        -2.13277         1.93424
| 33>    C       -3.40968        -3.52878         1.80099
| 34>    C       -3.76066        -4.15742         0.61822
| 35>    C       -3.85383        -5.51881         0.42857
| 36>    C       -3.48014        -6.46854         1.48321
| 37>    C       -3.17906        -6.09135         2.74681
| 38>    S       -3.13597        -4.46040         3.27671
| 39>    C       -3.49180        -7.74062         0.85216
| 40>    C       -3.82063        -7.59811        -0.50452
| 41>    C       -3.82982        -8.83829        -1.18327
| 42>    C       -3.51676        -9.86346        -0.35133
| 43>    S       -3.19685        -9.37489         1.28269
| 44>    C       -4.08640        -6.22221        -0.78084
| 45>    C       -4.37270        -5.61857        -2.02883
| 46>    C       -5.06884        -4.45288        -2.15223
| 47>    C       -5.07353        -3.59886        -3.27689
| 48>    N       -5.90156        -2.49107        -3.32195
| 49>    C       -5.57709        -1.75371        -4.41549
| 50>    C       -5.87384        -0.59594        -5.11809
| 51>    C       -4.96088        -0.54473        -6.18522
| 52>    N       -4.14195        -1.65395        -6.14053
| 53>    C       -4.49841        -2.40993        -5.07231
| 54>    C       -4.19986        -3.57138        -4.37394
| 55>    C       -4.88448         0.46946        -7.16584
| 56>    C       -3.93913         0.56105        -8.13935
| 57>    C       -3.87610         1.55606        -9.15398
| 58>    C       -4.83951         2.51520        -9.39467
| 59>    C       -4.78301         3.46063       -10.40950
| 60>    C       -3.65299         3.52803       -11.33574
| 61>    C       -2.58792         2.69533       -11.29139
| 62>    S       -2.42507         1.44041       -10.13794
| 63>    C       -3.95485         4.59533       -12.22507
| 64>    C       -5.18786         5.16373       -11.89879
| 65>    C       -5.51875         6.22519       -12.77162
| 66>    C       -4.55400         6.42357       -13.70816
| 67>    S       -3.20913         5.34412       -13.57906
| 68>    C       -5.72775         4.46331       -10.75489
| 69>    C       -6.93814         4.68056       -10.08832
| 70>    C       -7.88644         5.61831       -10.41613
| 71>    C       -9.07119         5.74677        -9.68989
| 72>    C      -10.07151         6.65676        -9.96651
| 73>    C      -11.30803         6.81898        -9.24508
| 74>    C      -11.74413         6.09889        -8.15737
| 75>    C      -12.96999         6.32238        -7.49969
| 76>    N      -13.95018         6.44872        -6.91394
| 77>    C      -11.05152         5.03861        -7.54101
| 78>    N      -10.56105         4.16234        -6.98065
| 79>    C      -12.05350         7.90539        -9.88411
| 80>    C      -11.30331         8.39138       -10.96789
| 81>    C      -10.03254         7.63536       -11.06687
| 82>    O       -9.16082         7.81127       -11.89663
| 83>    C      -11.75785         9.41922       -11.76620
| 84>    C      -12.99576         9.98041       -11.47589
| 85>    C      -13.74843         9.50517       -10.39945
| 86>    C      -13.28573         8.46692        -9.59701
| 87>   Cl      -15.27802        10.20771       -10.04957
| 88>   Cl      -13.59868        11.26368       -12.44804
| 89>    H       -4.81952         2.79237         0.61761
| 90>    H       -3.40983        -0.11622        -3.16544
| 91>    H       -3.38204        -1.74095         2.94572
| 92>    H       -3.97992        -3.51263        -0.21876
| 93>    H       -2.92997        -6.80094         3.52019
| 94>    H       -4.05634        -8.96390        -2.22634
| 95>    H       -3.44956       -10.90689        -0.59015
| 96>    H       -3.97535        -6.09802        -2.91286
| 97>    H       -5.65939        -4.11556        -1.30848
| 98>    H       -6.63676        -2.29902        -2.66351
| 99>    H       -6.62816         0.13622        -4.91190
|100>    H       -3.37535        -1.83468        -6.76395
|101>    H       -3.42926        -4.28639        -4.57591
|102>    H       -5.65619         1.22100        -7.09052
|103>    H       -3.13799        -0.16584        -8.16865
|104>    H       -5.70509         2.50996        -8.74918
|105>    H       -1.76657         2.76162       -11.98683
|106>    H       -6.41048         6.82260       -12.73141
|107>    H       -4.54401         7.15672       -14.49077
|108>    H       -7.14662         4.04177        -9.23782
|109>    H       -7.73344         6.27494       -11.25419
|110>    H       -9.20601         5.07861        -8.84903
|111>    H      -11.16612         9.77694       -12.59388
|112>    H      -13.89568         8.12788        -8.77601
|113> *
|114>
|115>                          ****END OF INPUT****

CARTESIAN COORDINATES (ANGSTROEM)
---------------------------------
  C     -3.036700   -1.165860   -0.453700
  C     -2.181530   -2.007260   -1.132620
  C     -1.871940   -1.876400   -2.497830
  N     -1.601430   -1.824400   -3.613830
  C     -1.462900   -3.046890   -0.513380
  N     -0.837680   -3.884760   -0.037850
  C     -3.579260    0.071600   -1.020240
  C     -3.995620    0.905030    0.031700
  C     -4.514100    2.160940   -0.201560
  C     -4.628960    2.593590   -1.518920
  C     -4.228580    1.763780   -2.569140
  C     -3.701780    0.498640   -2.330250
  Cl    -4.372950    2.307190   -4.192200
  Cl    -5.267340    4.154500   -1.851390
  C     -3.794000    0.198810    1.320540
  O     -3.998670    0.626690    2.434140
  C     -3.337050   -1.162510    0.953790
  C     -3.336920   -2.132770    1.934240
  C     -3.409680   -3.528780    1.800990
  C     -3.760660   -4.157420    0.618220
  C     -3.853830   -5.518810    0.428570
  C     -3.480140   -6.468540    1.483210
  C     -3.179060   -6.091350    2.746810
  S     -3.135970   -4.460400    3.276710
  C     -3.491800   -7.740620    0.852160
  C     -3.820630   -7.598110   -0.504520
  C     -3.829820   -8.838290   -1.183270
  C     -3.516760   -9.863460   -0.351330
  S     -3.196850   -9.374890    1.282690
  C     -4.086400   -6.222210   -0.780840
  C     -4.372700   -5.618570   -2.028830
  C     -5.068840   -4.452880   -2.152230
  C     -5.073530   -3.598860   -3.276890
  N     -5.901560   -2.491070   -3.321950
  C     -5.577090   -1.753710   -4.415490
  C     -5.873840   -0.595940   -5.118090
  C     -4.960880   -0.544730   -6.185220
  N     -4.141950   -1.653950   -6.140530
  C     -4.498410   -2.409930   -5.072310
  C     -4.199860   -3.571380   -4.373940
  C     -4.884480    0.469460   -7.165840
  C     -3.939130    0.561050   -8.139350
  C     -3.876100    1.556060   -9.153980
  C     -4.839510    2.515200   -9.394670
  C     -4.783010    3.460630  -10.409500
  C     -3.652990    3.528030  -11.335740
  C     -2.587920    2.695330  -11.291390
  S     -2.425070    1.440410  -10.137940
  C     -3.954850    4.595330  -12.225070
  C     -5.187860    5.163730  -11.898790
  C     -5.518750    6.225190  -12.771620
  C     -4.554000    6.423570  -13.708160
  S     -3.209130    5.344120  -13.579060
  C     -5.727750    4.463310  -10.754890
  C     -6.938140    4.680560  -10.088320
  C     -7.886440    5.618310  -10.416130
  C     -9.071190    5.746770   -9.689890
  C    -10.071510    6.656760   -9.966510
  C    -11.308030    6.818980   -9.245080
  C    -11.744130    6.098890   -8.157370
  C    -12.969990    6.322380   -7.499690
  N    -13.950180    6.448720   -6.913940
  C    -11.051520    5.038610   -7.541010
  N    -10.561050    4.162340   -6.980650
  C    -12.053500    7.905390   -9.884110
  C    -11.303310    8.391380  -10.967890
  C    -10.032540    7.635360  -11.066870
  O     -9.160820    7.811270  -11.896630
  C    -11.757850    9.419220  -11.766200
  C    -12.995760    9.980410  -11.475890
  C    -13.748430    9.505170  -10.399450
  C    -13.285730    8.466920   -9.597010
  Cl   -15.278020   10.207710  -10.049570
  Cl   -13.598680   11.263680  -12.448040
  H     -4.819520    2.792370    0.617610
  H     -3.409830   -0.116220   -3.165440
  H     -3.382040   -1.740950    2.945720
  H     -3.979920   -3.512630   -0.218760
  H     -2.929970   -6.800940    3.520190
  H     -4.056340   -8.963900   -2.226340
  H     -3.449560  -10.906890   -0.590150
  H     -3.975350   -6.098020   -2.912860
  H     -5.659390   -4.115560   -1.308480
  H     -6.636760   -2.299020   -2.663510
  H     -6.628160    0.136220   -4.911900
  H     -3.375350   -1.834680   -6.763950
  H     -3.429260   -4.286390   -4.575910
  H     -5.656190    1.221000   -7.090520
  H     -3.137990   -0.165840   -8.168650
  H     -5.705090    2.509960   -8.749180
  H     -1.766570    2.761620  -11.986830
  H     -6.410480    6.822600  -12.731410
  H     -4.544010    7.156720  -14.490770
  H     -7.146620    4.041770   -9.237820
  H     -7.733440    6.274940  -11.254190
  H     -9.206010    5.078610   -8.849030
  H    -11.166120    9.776940  -12.593880
  H    -13.895680    8.127880   -8.776010

 Total Charge           Charge          ....    0
 Multiplicity           Mult            ....    1
 Number of Electrons    NEL             ....  562
 Basis Dimension        Dim             .... 1188

ORBITAL ENERGIES
----------------

  NO   OCC          E(Eh)            E(eV)
   0   2.0000    -101.602961     -2764.7571
   1   2.0000    -101.600009     -2764.6768
   2   2.0000    -101.587885     -2764.3469
   3   2.0000    -101.585806     -2764.2903
   4   2.0000     -88.988444     -2421.4987
   5   2.0000     -88.978029     -2421.2153
   6   2.0000     -88.968104     -2420.9452
   7   2.0000     -88.958429     -2420.6819
   8   2.0000     -19.215937      -522.8922
   9   2.0000     -19.202268      -522.5203
  10   2.0000     -14.469459      -393.7340
  11   2.0000     -14.467016      -393.6675
  12   2.0000     -14.417622      -392.3234
  13   2.0000     -14.416400      -392.2902
  14   2.0000     -14.402848      -391.9214
  15   2.0000     -14.398558      -391.8047
  16   2.0000     -10.368163      -282.1321
  17   2.0000     -10.356534      -281.8156
  18   2.0000     -10.355877      -281.7977
  19   2.0000     -10.352708      -281.7115
  20   2.0000     -10.345037      -281.5028
  21   2.0000     -10.342012      -281.4205
  22   2.0000     -10.341371      -281.4030
  23   2.0000     -10.340745      -281.3860
  24   2.0000     -10.338721      -281.3309
  25   2.0000     -10.337159      -281.2884
  26   2.0000     -10.335870      -281.2533
  27   2.0000     -10.325639      -280.9749
  28   2.0000     -10.324597      -280.9466
  29   2.0000     -10.323296      -280.9112
  30   2.0000     -10.323119      -280.9064
  31   2.0000     -10.321886      -280.8728
  32   2.0000     -10.318192      -280.7723
  33   2.0000     -10.317526      -280.7541
  34   2.0000     -10.317479      -280.7529
  35   2.0000     -10.315013      -280.6858
  36   2.0000     -10.312818      -280.6261
  37   2.0000     -10.309101      -280.5249
  38   2.0000     -10.308399      -280.5058
  39   2.0000     -10.308169      -280.4995
  40   2.0000     -10.307634      -280.4850
  41   2.0000     -10.307156      -280.4720
  42   2.0000     -10.306183      -280.4455
  43   2.0000     -10.305334      -280.4224
  44   2.0000     -10.304977      -280.4127
  45   2.0000     -10.304824      -280.4085
  46   2.0000     -10.304706      -280.4053
  47   2.0000     -10.303343      -280.3682
  48   2.0000     -10.302741      -280.3518
  49   2.0000     -10.302171      -280.3363
  50   2.0000     -10.301120      -280.3077
  51   2.0000     -10.298642      -280.2403
  52   2.0000     -10.297137      -280.1994
  53   2.0000     -10.296603      -280.1848
  54   2.0000     -10.296499      -280.1820
  55   2.0000     -10.296060      -280.1700
  56   2.0000     -10.295520      -280.1553
  57   2.0000     -10.295229      -280.1474
  58   2.0000     -10.294793      -280.1356
  59   2.0000     -10.294035      -280.1149
  60   2.0000     -10.293324      -280.0956
  61   2.0000     -10.293219      -280.0927
  62   2.0000     -10.290159      -280.0095
  63   2.0000     -10.287424      -279.9350
  64   2.0000     -10.286291      -279.9042
  65   2.0000     -10.285971      -279.8955
  66   2.0000     -10.284434      -279.8537
  67   2.0000     -10.278969      -279.7050
  68   2.0000     -10.278673      -279.6969
  69   2.0000     -10.278516      -279.6926
  70   2.0000     -10.274157      -279.5740
  71   2.0000     -10.272803      -279.5372
  72   2.0000     -10.272474      -279.5282
  73   2.0000     -10.261630      -279.2332
  74   2.0000      -9.557666      -260.0773
  75   2.0000      -9.555026      -260.0055
  76   2.0000      -9.542888      -259.6752
  77   2.0000      -9.540837      -259.6194
  78   2.0000      -8.083734      -219.9696
  79   2.0000      -8.073473      -219.6904
  80   2.0000      -8.063571      -219.4209
  81   2.0000      -8.053949      -219.1591
  82   2.0000      -7.328003      -199.4051
  83   2.0000      -7.325395      -199.3341
  84   2.0000      -7.318002      -199.1330
  85   2.0000      -7.317200      -199.1111
  86   2.0000      -7.315279      -199.0589
  87   2.0000      -7.314591      -199.0401
  88   2.0000      -7.313251      -199.0037
  89   2.0000      -7.311202      -198.9479
  90   2.0000      -7.303155      -198.7290
  91   2.0000      -7.302464      -198.7101
  92   2.0000      -7.301096      -198.6729
  93   2.0000      -7.300412      -198.6543
  94   2.0000      -6.053128      -164.7140
  95   2.0000      -6.048601      -164.5908
  96   2.0000      -6.046001      -164.5200
  97   2.0000      -6.043042      -164.4395
  98   2.0000      -6.038610      -164.3189
  99   2.0000      -6.035202      -164.2262
 100   2.0000      -6.033013      -164.1666
 101   2.0000      -6.028747      -164.0506
 102   2.0000      -6.025583      -163.9645
 103   2.0000      -6.023375      -163.9044
 104   2.0000      -6.019113      -163.7884
 105   2.0000      -6.016000      -163.7037
 106   2.0000      -1.131294       -30.7841
 107   2.0000      -1.115387       -30.3512
 108   2.0000      -1.100960       -29.9587
 109   2.0000      -1.064348       -28.9624
 110   2.0000      -1.031670       -28.0732
 111   2.0000      -1.018874       -27.7250
 112   2.0000      -1.015815       -27.6417
 113   2.0000      -1.014977       -27.6189
 114   2.0000      -1.013169       -27.5697
 115   2.0000      -1.000377       -27.2216
 116   2.0000      -0.995972       -27.1018
 117   2.0000      -0.991250       -26.9733
 118   2.0000      -0.980995       -26.6942
 119   2.0000      -0.980119       -26.6704
 120   2.0000      -0.979697       -26.6589
 121   2.0000      -0.973877       -26.5005
 122   2.0000      -0.962905       -26.2020
 123   2.0000      -0.948153       -25.8006
 124   2.0000      -0.943068       -25.6622
 125   2.0000      -0.937759       -25.5177
 126   2.0000      -0.933081       -25.3904
 127   2.0000      -0.923134       -25.1198
 128   2.0000      -0.917479       -24.9659
 129   2.0000      -0.915639       -24.9158
 130   2.0000      -0.901942       -24.5431
 131   2.0000      -0.899609       -24.4796
 132   2.0000      -0.891350       -24.2549
 133   2.0000      -0.886614       -24.1260
 134   2.0000      -0.875184       -23.8150
 135   2.0000      -0.874787       -23.8042
 136   2.0000      -0.864262       -23.5178
 137   2.0000      -0.860441       -23.4138
 138   2.0000      -0.856057       -23.2945
 139   2.0000      -0.851208       -23.1625
 140   2.0000      -0.851106       -23.1598
 141   2.0000      -0.845175       -22.9984
 142   2.0000      -0.828147       -22.5350
 143   2.0000      -0.821081       -22.3427
 144   2.0000      -0.817192       -22.2369
 145   2.0000      -0.806435       -21.9442
 146   2.0000      -0.791409       -21.5353
 147   2.0000      -0.781992       -21.2791
 148   2.0000      -0.771343       -20.9893
 149   2.0000      -0.764049       -20.7908
 150   2.0000      -0.755456       -20.5570
 151   2.0000      -0.749519       -20.3954
 152   2.0000      -0.746661       -20.3177
 153   2.0000      -0.733576       -19.9616
 154   2.0000      -0.728882       -19.8339
 155   2.0000      -0.716679       -19.5018
 156   2.0000      -0.707625       -19.2554
 157   2.0000      -0.702925       -19.1276
 158   2.0000      -0.702112       -19.1054
 159   2.0000      -0.694157       -18.8890
 160   2.0000      -0.687999       -18.7214
 161   2.0000      -0.679648       -18.4942
 162   2.0000      -0.678761       -18.4700
 163   2.0000      -0.672863       -18.3095
 164   2.0000      -0.670783       -18.2529
 165   2.0000      -0.666233       -18.1291
 166   2.0000      -0.662551       -18.0289
 167   2.0000      -0.657399       -17.8887
 168   2.0000      -0.650974       -17.7139
 169   2.0000      -0.646721       -17.5982
 170   2.0000      -0.642581       -17.4855
 171   2.0000      -0.628515       -17.1028
 172   2.0000      -0.624526       -16.9942
 173   2.0000      -0.623335       -16.9618
 174   2.0000      -0.617844       -16.8124
 175   2.0000      -0.613131       -16.6841
 176   2.0000      -0.601804       -16.3759
 177   2.0000      -0.600545       -16.3416
 178   2.0000      -0.596207       -16.2236
 179   2.0000      -0.592162       -16.1135
 180   2.0000      -0.588184       -16.0053
 181   2.0000      -0.580263       -15.7898
 182   2.0000      -0.575039       -15.6476
 183   2.0000      -0.574118       -15.6225
 184   2.0000      -0.571371       -15.5478
 185   2.0000      -0.570207       -15.5161
 186   2.0000      -0.563272       -15.3274
 187   2.0000      -0.561142       -15.2694
 188   2.0000      -0.557184       -15.1617
 189   2.0000      -0.554344       -15.0845
 190   2.0000      -0.551187       -14.9986
 191   2.0000      -0.543214       -14.7816
 192   2.0000      -0.542319       -14.7573
 193   2.0000      -0.538878       -14.6636
 194   2.0000      -0.537053       -14.6139
 195   2.0000      -0.536401       -14.5962
 196   2.0000      -0.534190       -14.5360
 197   2.0000      -0.531910       -14.4740
 198   2.0000      -0.528136       -14.3713
 199   2.0000      -0.526214       -14.3190
 200   2.0000      -0.525114       -14.2891
 201   2.0000      -0.522430       -14.2161
 202   2.0000      -0.520249       -14.1567
 203   2.0000      -0.518819       -14.1178
 204   2.0000      -0.517349       -14.0778
 205   2.0000      -0.516729       -14.0609
 206   2.0000      -0.512299       -13.9404
 207   2.0000      -0.507095       -13.7987
 208   2.0000      -0.504717       -13.7340
 209   2.0000      -0.501315       -13.6415
 210   2.0000      -0.500335       -13.6148
 211   2.0000      -0.496561       -13.5121
 212   2.0000      -0.492926       -13.4132
 213   2.0000      -0.492027       -13.3887
 214   2.0000      -0.487560       -13.2672
 215   2.0000      -0.485638       -13.2149
 216   2.0000      -0.482760       -13.1366
 217   2.0000      -0.479630       -13.0514
 218   2.0000      -0.478717       -13.0266
 219   2.0000      -0.477957       -13.0059
 220   2.0000      -0.474530       -12.9126
 221   2.0000      -0.472843       -12.8667
 222   2.0000      -0.469684       -12.7807
 223   2.0000      -0.468015       -12.7353
 224   2.0000      -0.466663       -12.6986
 225   2.0000      -0.466369       -12.6905
 226   2.0000      -0.456076       -12.4105
 227   2.0000      -0.454115       -12.3571
 228   2.0000      -0.452722       -12.3192
 229   2.0000      -0.451955       -12.2983
 230   2.0000      -0.450174       -12.2498
 231   2.0000      -0.446137       -12.1400
 232   2.0000      -0.444932       -12.1072
 233   2.0000      -0.441973       -12.0267
 234   2.0000      -0.437395       -11.9021
 235   2.0000      -0.436760       -11.8848
 236   2.0000      -0.435409       -11.8481
 237   2.0000      -0.435261       -11.8441
 238   2.0000      -0.431503       -11.7418
 239   2.0000      -0.431397       -11.7389
 240   2.0000      -0.430369       -11.7109
 241   2.0000      -0.429618       -11.6905
 242   2.0000      -0.428851       -11.6696
 243   2.0000      -0.428547       -11.6613
 244   2.0000      -0.423652       -11.5282
 245   2.0000      -0.422963       -11.5094
 246   2.0000      -0.421572       -11.4716
 247   2.0000      -0.420956       -11.4548
 248   2.0000      -0.418235       -11.3808
 249   2.0000      -0.415007       -11.2929
 250   2.0000      -0.414432       -11.2773
 251   2.0000      -0.412648       -11.2287
 252   2.0000      -0.412032       -11.2119
 253   2.0000      -0.410840       -11.1795
 254   2.0000      -0.407304       -11.0833
 255   2.0000      -0.399790       -10.8788
 256   2.0000      -0.398243       -10.8367
 257   2.0000      -0.392553       -10.6819
 258   2.0000      -0.386159       -10.5079
 259   2.0000      -0.383585       -10.4379
 260   2.0000      -0.380266       -10.3476
 261   2.0000      -0.370908       -10.0929
 262   2.0000      -0.369204       -10.0466
 263   2.0000      -0.367441        -9.9986
 264   2.0000      -0.349883        -9.5208
 265   2.0000      -0.343042        -9.3346
 266   2.0000      -0.341727        -9.2989
 267   2.0000      -0.340360        -9.2617
 268   2.0000      -0.329880        -8.9765
 269   2.0000      -0.326607        -8.8874
 270   2.0000      -0.326229        -8.8771
 271   2.0000      -0.321983        -8.7616
 272   2.0000      -0.311676        -8.4811
 273   2.0000      -0.306687        -8.3454
 274   2.0000      -0.299827        -8.1587
 275   2.0000      -0.294357        -8.0099
 276   2.0000      -0.291959        -7.9446
 277   2.0000      -0.284087        -7.7304
 278   2.0000      -0.262496        -7.1429
 279   2.0000      -0.239260        -6.5106
 280   2.0000      -0.218200        -5.9375
 281   0.0000      -0.106584        -2.9003
 282   0.0000      -0.088898        -2.4190
 283   0.0000      -0.068616        -1.8671
 284   0.0000      -0.057706        -1.5702
 285   0.0000      -0.049780        -1.3546

MULLIKEN ATOMIC CHARGES
-----------------------
   0 C :    0.271078
   1 C :   -0.347727
   2 C :   -0.142175
   3 N :    0.123350
   4 C :   -0.214491
   5 N :    0.173052
   6 C :   -0.002248
   7 C :    0.011357
   8 C :   -0.040485
   9 C :    0.057929
  10 C :    0.046269
  11 C :   -0.009503
  12 Cl:   -0.037449
  13 Cl:   -0.042718
  14 C :    0.133622
  15 O :   -0.144479
  16 C :   -0.148898
  17 C :    0.082172
  18 C :   -0.107107
  19 C :   -0.015893
  20 C :    0.026898
  21 C :    0.066776
  22 C :   -0.113632
  23 S :    0.150288
  24 C :   -0.097541
  25 C :    0.050009
  26 C :    0.020146
  27 C :   -0.069720
  28 S :    0.141085
  29 C :    0.091053
  30 C :   -0.055817
  31 C :   -0.013229
  32 C :    0.074713
  33 N :   -0.039296
  34 C :    0.116196
  35 C :   -0.175262
  36 C :    0.076133
  37 N :   -0.027084
  38 C :    0.122144
  39 C :   -0.133562
  40 C :    0.060634
  41 C :    0.006143
  42 C :   -0.072985
  43 C :   -0.040755
  44 C :    0.082805
  45 C :    0.063262
  46 C :   -0.130874
  47 S :    0.153440
  48 C :   -0.122110
  49 C :    0.058966
  50 C :   -0.009161
  51 C :   -0.066178
  52 S :    0.128007
  53 C :    0.095258
  54 C :   -0.000140
  55 C :   -0.024557
  56 C :   -0.021462
  57 C :   -0.094467
  58 C :    0.335724
  59 C :   -0.365355
  60 C :   -0.195550
  61 N :    0.143087
  62 C :   -0.185357
  63 N :    0.125548
  64 C :    0.024888
  65 C :   -0.008101
  66 C :    0.142799
  67 O :   -0.166583
  68 C :   -0.038131
  69 C :    0.061205
  70 C :    0.046794
  71 C :   -0.017169
  72 Cl:   -0.045577
  73 Cl:   -0.054355
  74 H :   -0.000876
  75 H :    0.002620
  76 H :    0.022876
  77 H :    0.000671
  78 H :    0.039417
  79 H :   -0.013432
  80 H :    0.032669
  81 H :   -0.000719
  82 H :   -0.005899
  83 H :    0.124698
  84 H :   -0.022147
  85 H :    0.130352
  86 H :   -0.026920
  87 H :   -0.005883
  88 H :   -0.032518
  89 H :   -0.018431
  90 H :    0.040185
  91 H :    0.016473
  92 H :    0.029734
  93 H :   -0.020474
  94 H :   -0.001239
  95 H :   -0.004524
  96 H :   -0.008048
  97 H :   -0.004232
Sum of atomic charges:   -0.0000000

LOEWDIN ATOMIC CHARGES
----------------------
   0 C :    0.059235
   1 C :   -0.152214
   2 C :   -0.012243
   3 N :   -0.070173
   4 C :   -0.019481
   5 N :   -0.044468
   6 C :   -0.013940
   7 C :   -0.044254
   8 C :   -0.001069
   9 C :   -0.136497
  10 C :   -0.133642
  11 C :   -0.016326
  12 Cl:    0.170526
  13 Cl:    0.157118
  14 C :    0.080277
  15 O :   -0.145925
  16 C :   -0.116112
  17 C :    0.049616
  18 C :   -0.197975
  19 C :    0.032374
  20 C :   -0.028007
  21 C :   -0.057785
  22 C :   -0.125552
  23 S :    0.453969
  24 C :   -0.179806
  25 C :   -0.045589
  26 C :   -0.057123
  27 C :   -0.159416
  28 S :    0.431666
  29 C :   -0.011796
  30 C :   -0.027634
  31 C :   -0.030794
  32 C :   -0.005512
  33 N :    0.067574
  34 C :   -0.023303
  35 C :   -0.078039
  36 C :   -0.006200
  37 N :    0.076891
  38 C :   -0.004789
  39 C :   -0.073522
  40 C :    0.000738
  41 C :   -0.083680
  42 C :   -0.141335
  43 C :   -0.031851
  44 C :    0.020479
  45 C :   -0.046075
  46 C :   -0.146111
  47 S :    0.475296
  48 C :   -0.206939
  49 C :   -0.029367
  50 C :   -0.059178
  51 C :   -0.160096
  52 S :    0.422892
  53 C :   -0.071846
  54 C :    0.044916
  55 C :   -0.060419
  56 C :    0.067388
  57 C :   -0.125390
  58 C :    0.075871
  59 C :   -0.156656
  60 C :   -0.021287
  61 N :   -0.065287
  62 C :   -0.016803
  63 N :   -0.072960
  64 C :   -0.012473
  65 C :   -0.040851
  66 C :    0.083483
  67 O :   -0.161136
  68 C :   -0.004719
  69 C :   -0.137306
  70 C :   -0.134282
  71 C :   -0.015120
  72 Cl:    0.152773
  73 Cl:    0.149287
  74 H :    0.045986
  75 H :    0.044099
  76 H :    0.043642
  77 H :    0.040058
  78 H :    0.038499
  79 H :    0.033238
  80 H :    0.025792
  81 H :    0.032773
  82 H :    0.029200
  83 H :    0.090494
  84 H :    0.027339
  85 H :    0.091394
  86 H :    0.027531
  87 H :    0.037429
  88 H :    0.017988
  89 H :    0.036400
  90 H :    0.038074
  91 H :    0.039308
  92 H :    0.025505
  93 H :    0.030520
  94 H :    0.028803
  95 H :    0.037972
  96 H :    0.042785
  97 H :    0.043155

  Mayer bond orders larger than 0.100000
B(  0-C ,  1-C ) :   1.6034 B(  0-C ,  6-C ) :   0.9933 B(  0-C , 16-C ) :   1.0812
B(  1-C ,  2-C ) :   1.1478 B(  1-C ,  4-C ) :   1.1752 B(  2-C ,  3-N ) :   2.9169
B(  4-C ,  5-N ) :   2.9980 B(  6-C ,  7-C ) :   1.3356 B(  6-C , 11-C ) :   1.3612
B(  7-C ,  8-C ) :   1.3484 B(  7-C , 14-C ) :   0.9117 B(  8-C ,  9-C ) :   1.3312
B(  8-C , 74-H ) :   1.0184 B(  9-C , 10-C ) :   1.4209 B(  9-C , 13-Cl) :   1.0472
B( 10-C , 11-C ) :   1.3505 B( 10-C , 12-Cl) :   1.0656 B( 11-C , 75-H ) :   0.9873
B( 14-C , 15-O ) :   2.2607 B( 14-C , 16-C ) :   0.9723 B( 16-C , 17-C ) :   1.5484
B( 17-C , 18-C ) :   1.2271 B( 17-C , 76-H ) :   0.9288 B( 18-C , 19-C ) :   1.4017
B( 18-C , 23-S ) :   1.0275 B( 19-C , 20-C ) :   1.3656 B( 19-C , 77-H ) :   0.9498
B( 20-C , 21-C ) :   1.0455 B( 20-C , 29-C ) :   1.3258 B( 21-C , 22-C ) :   1.5956
B( 21-C , 24-C ) :   1.1955 B( 22-C , 23-S ) :   1.1598 B( 22-C , 78-H ) :   0.9387
B( 24-C , 25-C ) :   1.3994 B( 24-C , 28-S ) :   1.0930 B( 25-C , 26-C ) :   1.2115
B( 25-C , 29-C ) :   1.1326 B( 26-C , 27-C ) :   1.5999 B( 26-C , 79-H ) :   0.9998
B( 27-C , 28-S ) :   1.1405 B( 27-C , 80-H ) :   0.9663 B( 29-C , 30-C ) :   1.1591
B( 30-C , 31-C ) :   1.6203 B( 30-C , 81-H ) :   0.9671 B( 31-C , 32-C ) :   1.1312
B( 31-C , 82-H ) :   0.9569 B( 32-C , 33-N ) :   1.1622 B( 32-C , 39-C ) :   1.3834
B( 33-N , 34-C ) :   1.1621 B( 33-N , 83-H ) :   0.9357 B( 34-C , 35-C ) :   1.2607
B( 34-C , 38-C ) :   1.2967 B( 35-C , 36-C ) :   1.3182 B( 35-C , 84-H ) :   1.0461
B( 36-C , 37-N ) :   1.1954 B( 36-C , 40-C ) :   1.1995 B( 37-N , 38-C ) :   1.1747
B( 37-N , 85-H ) :   0.9299 B( 38-C , 39-C ) :   1.2787 B( 39-C , 86-H ) :   1.0323
B( 40-C , 41-C ) :   1.5984 B( 40-C , 87-H ) :   0.9520 B( 41-C , 42-C ) :   1.1346
B( 41-C , 88-H ) :   0.9627 B( 42-C , 43-C ) :   1.4873 B( 42-C , 47-S ) :   1.0874
B( 43-C , 44-C ) :   1.3044 B( 43-C , 89-H ) :   0.9618 B( 44-C , 45-C ) :   1.0694
B( 44-C , 53-C ) :   1.2830 B( 45-C , 46-C ) :   1.5879 B( 45-C , 48-C ) :   1.1775
B( 46-C , 47-S ) :   1.1476 B( 46-C , 90-H ) :   0.9405 B( 48-C , 49-C ) :   1.4559
B( 48-C , 52-S ) :   1.0780 B( 49-C , 50-C ) :   1.2225 B( 49-C , 53-C ) :   1.0686
B( 50-C , 51-C ) :   1.5848 B( 50-C , 91-H ) :   0.9980 B( 51-C , 52-S ) :   1.1556
B( 51-C , 92-H ) :   0.9628 B( 53-C , 54-C ) :   1.2271 B( 54-C , 55-C ) :   1.4142
B( 54-C , 93-H ) :   0.9751 B( 55-C , 56-C ) :   1.2666 B( 55-C , 94-H ) :   0.9964
B( 56-C , 57-C ) :   1.4059 B( 56-C , 95-H ) :   0.9651 B( 57-C , 58-C ) :   1.1144
B( 57-C , 66-C ) :   0.9792 B( 58-C , 59-C ) :   1.5886 B( 58-C , 64-C ) :   0.9789
B( 59-C , 60-C ) :   1.1459 B( 59-C , 62-C ) :   1.1575 B( 60-C , 61-N ) :   2.9668
B( 62-C , 63-N ) :   2.9529 B( 64-C , 65-C ) :   1.3373 B( 64-C , 71-C ) :   1.3482
B( 65-C , 66-C ) :   0.9358 B( 65-C , 68-C ) :   1.3552 B( 66-C , 67-O ) :   2.1799
B( 68-C , 69-C ) :   1.3298 B( 68-C , 96-H ) :   1.0168 B( 69-C , 70-C ) :   1.4235
B( 69-C , 73-Cl) :   1.0368 B( 70-C , 71-C ) :   1.3498 B( 70-C , 72-Cl) :   1.0664
B( 71-C , 97-H ) :   0.9864

-----------------------------------------------------------------------------
         ABSORPTION SPECTRUM VIA TRANSITION ELECTRIC DIPOLE MOMENTS
-----------------------------------------------------------------------------
State   Energy  Wavelength   fosc         T2         TX        TY        TZ
        (cm-1)    (nm)                  (au**2)     (au)      (au)      (au)
-----------------------------------------------------------------------------
   0    8923.1   1120.7   0.304494025  11.23414   1.56974  -0.83187   2.84219
   1   13733.6    728.1   1.223506537  29.32899   2.59213  -4.30202   2.02545
   2   16566.5    603.6   0.162795534   3.23509   0.05634  -1.79773  -0.00827
   3   17567.6    569.2   0.186922502   3.50287   0.74433  -0.02430  -1.71705
   4   19780.9    505.5   0.778519983  12.95687   2.27680   1.30977  -2.46121
   5   20516.1    487.4   0.087475339   1.40367   0.46451   0.11595  -1.08373
   6   21390.8    467.5   0.115240618   1.77360   1.13869   0.33425  -0.60437
   7   21635.3    462.2   0.010083807   0.15344  -0.10294   0.15804  -0.34332
   8   22413.3    446.2   0.372512614   5.47155   0.63359  -2.01238   1.01016
   9   23490.7    425.7   0.035637227   0.49944  -0.45120  -0.39481   0.37414
  10   24065.3    415.5   0.080185999   1.09694  -1.02252  -0.14844   0.17132
  11   24893.5    401.7   0.027838643   0.36816  -0.20580   0.52395   0.22647
  12   24993.0    400.1   0.549917267   7.24361   1.03343   1.54398  -1.94724
  13   25394.9    393.8   0.166684943   2.16086  -1.20676   0.36667   0.75508
  14   26975.2    370.7   0.009782899   0.11939   0.09291  -0.09307   0.31953
  15   27141.2    368.4   0.065856602   0.79882   0.30212  -0.52483   0.65734
  16   27532.9    363.2   0.436070669   5.21412  -0.92811   2.02077  -0.51888
  17   28226.7    354.3   0.031077607   0.36246  -0.46701   0.23516  -0.29844
  18   28993.9    344.9   0.016820747   0.19099   0.12240  -0.35296  -0.22678
  19   29023.4    344.5   0.008908765   0.10105   0.25529  -0.11723  -0.14877
  20   29328.3    341.0   0.143815442   1.61434   0.13252  -0.99622   0.77737
  21   29610.8    337.7   0.038514434   0.42820  -0.01825   0.49608  -0.42635
  22   29751.7    336.1   0.001028434   0.01138   0.00073   0.08463  -0.06493
  23   29763.8    336.0   0.056383648   0.62365  -0.19201   0.68298  -0.34687
  24   29937.6    334.0   0.018319952   0.20146   0.30143  -0.14571  -0.29894
  25   31017.6    322.4   0.057345473   0.60865   0.48582  -0.60322   0.09355
  26   31184.4    320.7   0.000123984   0.00131   0.03246  -0.00740   0.01415
  27   31367.3    318.8   0.034805762   0.36530   0.43614  -0.18222  -0.37666
  28   31395.8    318.5   0.064481659   0.67615   0.62771  -0.51873   0.11420
  29   31772.5    314.7   0.137564101   1.42538  -0.81344   0.80362  -0.34333
  30   32191.1    310.6   0.063697673   0.65142  -0.19252  -0.76814   0.15597
  31   32472.8    308.0   0.007745945   0.07853  -0.25211   0.09575  -0.07617
  32   32670.1    306.1   0.029409125   0.29635   0.26801  -0.33674   0.33335
  33   33261.8    300.6   0.090813387   0.89883  -0.27348   0.90700   0.03735
  34   33536.0    298.2   0.012023240   0.11803   0.13362   0.31608  -0.01622
  35   33888.6    295.1   0.060507319   0.58780  -0.12161   0.58470  -0.48076
  36   34034.3    293.8   0.063824288   0.61737   0.16107   0.56305  -0.52383
  37   34102.1    293.2   0.070867849   0.68414  -0.58526   0.49589  -0.30935
  38   34220.1    292.2   0.075057059   0.72208  -0.06303   0.84691  -0.02908
  39   34682.9    288.3   0.288103293   2.73469   0.60662  -1.36640   0.70686
  40   34875.6    286.7   0.198347862   1.87233  -0.24555   1.20656  -0.59686
  41   35030.7    285.5   0.100714725   0.94650   0.04866  -0.52914   0.81495
  42   35169.6    284.3   0.185517240   1.73657  -0.62598   0.84331   0.79596
  43   35697.0    280.1   0.268932914   2.48021   0.15492   1.32720  -0.83351
  44   35951.2    278.2   0.234323352   2.14574   0.83660  -1.14354  -0.37169
  45   36104.5    277.0   0.028959680   0.26406   0.06176   0.10154  -0.49994
  46   36367.5    275.0   0.017620856   0.15951  -0.15805  -0.34821   0.11526
  47   36868.3    271.2   0.099120877   0.88509   0.29607   0.53950  -0.71160
  48   37020.4    270.1   0.075681845   0.67302  -0.43848   0.29524  -0.62737
  49   37132.5    269.3   0.023927762   0.21214  -0.44962   0.03303   0.09431
  50   37247.3    268.5   0.075081901   0.66361   0.72342  -0.08118  -0.36564
  51   37569.4    266.2   0.083529928   0.73195  -0.28953  -0.46149  -0.65966
  52   38067.1    262.7   0.017192944   0.14869  -0.26321  -0.20299  -0.19546
  53   38268.3    261.3   0.146191337   1.25764  -0.57331   0.95553  -0.12620
  54   38382.3    260.5   0.086103804   0.73853  -0.71036   0.48134  -0.04722
  55   38407.2    260.4   0.014548630   0.12471   0.17955   0.19670  -0.23190
  56   38732.1    258.2   0.017891809   0.15208   0.31943  -0.17045  -0.14486
  57   38852.3    257.4   0.012533879   0.10620   0.18770   0.24820   0.09679
  58   38882.0    257.2   0.022355707   0.18928   0.13213  -0.41428  -0.01418
  59   39298.2    254.5   0.067056031   0.56175  -0.01544   0.63616   0.39599
  60   39487.5    253.2   0.081155875   0.67661  -0.43215  -0.08534   0.69467
  61   39620.2    252.4   0.046005444   0.38227   0.28538  -0.15248   0.52685
  62   39840.6    251.0   0.077332298   0.63901   0.20503   0.57282   0.51851
  63   40065.5    249.6   0.212053555   1.74241   0.19221  -0.77869  -1.04839
  64   40255.5    248.4   0.004049803   0.03312   0.05414  -0.15837   0.07148
  65   40282.3    248.2   0.055948959   0.45725  -0.21821   0.55882  -0.31202

FINAL SINGLE POINT ENERGY     -6132.514370085828

DIPOLE MOMENT
-------------
                                X             Y             Z
Electronic contribution:    -28.22222      52.72451      -4.04761
Nuclear contribution   :     30.99885     -56.59343       4.00557
                        -----------------------------------------
Total Dipole Moment    :      2.77664      -3.86892      -0.04204
                        -----------------------------------------
Magnitude (a.u.)       :      4.76235
Magnitude (Debye)      :     12.10494

Rotational constants in cm-1:     0.001224     0.000243     0.000223
Rotational constants in MHz :    36.700533     7.288022     6.694267

                             ****ORCA TERMINATED NORMALLY****
TOTAL RUN TIME: 0 days 0 hours 12 minutes 39 seconds 573 msec
