                         Program Version 4.2.0 -  RELEASE  -
|  1> # ORCA input file
|  2> # SCF done       -175.326035147844          0.000658601667
|  3> ! CAM-B3LYP def2-SVP def2/J RIJCOSX Grid4 TightSCF
|  4> %maxcore 5000
|  5> %tddft
|  6>     Mode sTDDFT
|  7>     Ethresh 5.0
|  8>     maxcore 5000
|  9> end
| 10>
| 11> %pal
| 12>   nprocs 6
| 13>   end
| 14> * xyz 0 1
| 15>    C       -1.97480        -3.72890         2.59136
| 16>    C       -0.79306        -3.13733         2.95335
| 17>    C       -0.35573        -3.01254         4.28814
| 18>    N        0.04690        -2.90141         5.35658
| 19>    C        0.06112        -2.49537         2.03305
| 20>    N        0.74965        -1.91904         1.31740
| 21>    C       -3.04567        -4.12055         3.50265
| 22>    C       -4.25437        -4.17924         2.78273
| 23>    C       -5.44992        -4.48135         3.40225
| 24>    C       -5.43863        -4.74225         4.76736
| 25>    C       -4.23775        -4.69816         5.48663
| 26>    C       -3.03583        -4.38261         4.86185
| 27>   Cl       -4.23904        -5.03759         7.16841
| 28>   Cl       -6.90578        -5.12162         5.57267
| 29>    C       -3.99793        -3.88870         1.35478
| 30>    O       -4.79821        -3.79837         0.45574
| 31>    C       -2.51542        -3.78965         1.24897
| 32>    C       -1.91015        -3.84793         0.03471
| 33>    C       -0.55754        -4.16461        -0.25438
| 34>    S        0.40128        -5.21392         0.76644
| 35>    C        1.73848        -5.08087        -0.28320
| 36>    C        1.48927        -4.30695        -1.38000
| 37>    C        2.53616        -4.09793        -2.41740
| 38>    O        3.68891        -3.90020        -2.14206
| 39>    O        2.13525        -4.20248        -3.68915
| 40>    C        0.16486        -3.78367        -1.37376
| 41>    S       -0.49480        -2.64804        -2.54598
| 42>    C        0.95292        -1.72943        -2.91349
| 43>    N        1.26661        -1.42140        -4.21403
| 44>    C        2.49808        -0.83496        -4.20617
| 45>    C        3.49992        -0.30936        -5.01995
| 46>    C        4.55627         0.01022        -4.16506
| 47>    N        4.19779        -0.27235        -2.86339
| 48>    C        2.94474        -0.78785        -2.86639
| 49>    C        1.95367        -1.33711        -2.04274
| 50>    C        5.86100         0.43011        -4.54568
| 51>    C        6.94413         0.35332        -3.74475
| 52>    C        8.28598         0.63380        -4.14152
| 53>    S        8.68096         1.70705        -5.45713
| 54>    C       10.35723         1.47977        -5.21094
| 55>    C       10.62194         0.61348        -4.18482
| 56>    C       11.96204         0.20009        -3.75442
| 57>    O       12.18113        -0.57665        -2.85941
| 58>    O       12.94016         0.77557        -4.46958
| 59>    C        9.43516         0.11613        -3.58148
| 60>    S        9.41901        -1.07636        -2.26550
| 61>    C        8.27926        -2.14733        -2.96237
| 62>    C        7.71018        -3.15755        -2.25032
| 63>    C        6.72120        -4.13881        -2.62980
| 64>    C        6.07912        -4.23792        -3.83479
| 65>    C        5.15808        -5.25408        -4.16214
| 66>    N        4.43458        -6.08011        -4.49634
| 67>    C        6.24436        -3.30691        -4.87826
| 68>    N        6.33276        -2.55049        -5.73822
| 69>    C        6.47273        -4.95983        -1.44612
| 70>    C        7.24393        -4.47965        -0.36981
| 71>    C        8.06555        -3.34465        -0.83823
| 72>    O        8.86820        -2.66614        -0.22945
| 73>    C        7.15454        -5.03259         0.89088
| 74>    C        6.26775        -6.08485         1.08852
| 75>    C        5.50162        -6.56583         0.02353
| 76>    C        5.60341        -6.01835        -1.24943
| 77>   Cl        4.39117        -7.85729         0.28655
| 78>   Cl        6.10987        -6.78655         2.64950
| 79>    H       -6.36943        -4.51223         2.83943
| 80>    H       -2.12720        -4.35969         5.44153
| 81>    H       -2.55761        -3.69526        -0.82351
| 82>    H        2.64715        -5.60859        -0.06962
| 83>    H        1.19422        -4.41462        -3.77605
| 84>    H        0.68501        -1.60949        -5.01194
| 85>    H        3.50871        -0.20742        -6.08563
| 86>    H        4.77939        -0.13333        -2.05620
| 87>    H        1.94419        -1.45024        -0.97730
| 88>    H        5.97956         0.73720        -5.57486
| 89>    H        6.84555        -0.02236        -2.73413
| 90>    H       11.06989         1.98193        -5.83352
| 91>    H       13.80279         0.47065        -4.14688
| 92>    H        8.03422        -1.97796        -3.99802
| 93>    H        7.75035        -4.65105         1.70482
| 94>    H        4.99920        -6.41374        -2.04867
| 95> *
| 96>
| 97>                          ****END OF INPUT****

CARTESIAN COORDINATES (ANGSTROEM)
---------------------------------
  C     -1.974800   -3.728900    2.591360
  C     -0.793060   -3.137330    2.953350
  C     -0.355730   -3.012540    4.288140
  N      0.046900   -2.901410    5.356580
  C      0.061120   -2.495370    2.033050
  N      0.749650   -1.919040    1.317400
  C     -3.045670   -4.120550    3.502650
  C     -4.254370   -4.179240    2.782730
  C     -5.449920   -4.481350    3.402250
  C     -5.438630   -4.742250    4.767360
  C     -4.237750   -4.698160    5.486630
  C     -3.035830   -4.382610    4.861850
  Cl    -4.239040   -5.037590    7.168410
  Cl    -6.905780   -5.121620    5.572670
  C     -3.997930   -3.888700    1.354780
  O     -4.798210   -3.798370    0.455740
  C     -2.515420   -3.789650    1.248970
  C     -1.910150   -3.847930    0.034710
  C     -0.557540   -4.164610   -0.254380
  S      0.401280   -5.213920    0.766440
  C      1.738480   -5.080870   -0.283200
  C      1.489270   -4.306950   -1.380000
  C      2.536160   -4.097930   -2.417400
  O      3.688910   -3.900200   -2.142060
  O      2.135250   -4.202480   -3.689150
  C      0.164860   -3.783670   -1.373760
  S     -0.494800   -2.648040   -2.545980
  C      0.952920   -1.729430   -2.913490
  N      1.266610   -1.421400   -4.214030
  C      2.498080   -0.834960   -4.206170
  C      3.499920   -0.309360   -5.019950
  C      4.556270    0.010220   -4.165060
  N      4.197790   -0.272350   -2.863390
  C      2.944740   -0.787850   -2.866390
  C      1.953670   -1.337110   -2.042740
  C      5.861000    0.430110   -4.545680
  C      6.944130    0.353320   -3.744750
  C      8.285980    0.633800   -4.141520
  S      8.680960    1.707050   -5.457130
  C     10.357230    1.479770   -5.210940
  C     10.621940    0.613480   -4.184820
  C     11.962040    0.200090   -3.754420
  O     12.181130   -0.576650   -2.859410
  O     12.940160    0.775570   -4.469580
  C      9.435160    0.116130   -3.581480
  S      9.419010   -1.076360   -2.265500
  C      8.279260   -2.147330   -2.962370
  C      7.710180   -3.157550   -2.250320
  C      6.721200   -4.138810   -2.629800
  C      6.079120   -4.237920   -3.834790
  C      5.158080   -5.254080   -4.162140
  N      4.434580   -6.080110   -4.496340
  C      6.244360   -3.306910   -4.878260
  N      6.332760   -2.550490   -5.738220
  C      6.472730   -4.959830   -1.446120
  C      7.243930   -4.479650   -0.369810
  C      8.065550   -3.344650   -0.838230
  O      8.868200   -2.666140   -0.229450
  C      7.154540   -5.032590    0.890880
  C      6.267750   -6.084850    1.088520
  C      5.501620   -6.565830    0.023530
  C      5.603410   -6.018350   -1.249430
  Cl     4.391170   -7.857290    0.286550
  Cl     6.109870   -6.786550    2.649500
  H     -6.369430   -4.512230    2.839430
  H     -2.127200   -4.359690    5.441530
  H     -2.557610   -3.695260   -0.823510
  H      2.647150   -5.608590   -0.069620
  H      1.194220   -4.414620   -3.776050
  H      0.685010   -1.609490   -5.011940
  H      3.508710   -0.207420   -6.085630
  H      4.779390   -0.133330   -2.056200
  H      1.944190   -1.450240   -0.977300
  H      5.979560    0.737200   -5.574860
  H      6.845550   -0.022360   -2.734130
  H     11.069890    1.981930   -5.833520
  H     13.802790    0.470650   -4.146880
  H      8.034220   -1.977960   -3.998020
  H      7.750350   -4.651050    1.704820
  H      4.999200   -6.413740   -2.048670

 Total Charge           Charge          ....    0
 Multiplicity           Mult            ....    1
 Number of Electrons    NEL             ....  502
 Basis Dimension        Dim             .... 1008

ORBITAL ENERGIES
----------------

  NO   OCC          E(Eh)            E(eV)
   0   2.0000    -101.607576     -2764.8827
   1   2.0000    -101.606794     -2764.8614
   2   2.0000    -101.603759     -2764.7788
   3   2.0000    -101.597688     -2764.6136
   4   2.0000     -88.987991     -2421.4863
   5   2.0000     -88.968445     -2420.9545
   6   2.0000     -88.966307     -2420.8963
   7   2.0000     -88.959832     -2420.7201
   8   2.0000     -19.267488      -524.2950
   9   2.0000     -19.262133      -524.1493
  10   2.0000     -19.231021      -523.3027
  11   2.0000     -19.214781      -522.8608
  12   2.0000     -19.209231      -522.7097
  13   2.0000     -19.203882      -522.5642
  14   2.0000     -14.461044      -393.5050
  15   2.0000     -14.450418      -393.2159
  16   2.0000     -14.430207      -392.6659
  17   2.0000     -14.428565      -392.6212
  18   2.0000     -14.410994      -392.1431
  19   2.0000     -14.404043      -391.9539
  20   2.0000     -10.417378      -283.4713
  21   2.0000     -10.405903      -283.1590
  22   2.0000     -10.382653      -282.5263
  23   2.0000     -10.365470      -282.0588
  24   2.0000     -10.364628      -282.0359
  25   2.0000     -10.361318      -281.9458
  26   2.0000     -10.360031      -281.9108
  27   2.0000     -10.357495      -281.8418
  28   2.0000     -10.352398      -281.7031
  29   2.0000     -10.351590      -281.6811
  30   2.0000     -10.341475      -281.4058
  31   2.0000     -10.336030      -281.2577
  32   2.0000     -10.333349      -281.1847
  33   2.0000     -10.332746      -281.1683
  34   2.0000     -10.332247      -281.1547
  35   2.0000     -10.332124      -281.1514
  36   2.0000     -10.330854      -281.1168
  37   2.0000     -10.330014      -281.0940
  38   2.0000     -10.328277      -281.0467
  39   2.0000     -10.326832      -281.0074
  40   2.0000     -10.326294      -280.9927
  41   2.0000     -10.318794      -280.7887
  42   2.0000     -10.318673      -280.7854
  43   2.0000     -10.313576      -280.6467
  44   2.0000     -10.312989      -280.6307
  45   2.0000     -10.312764      -280.6246
  46   2.0000     -10.312299      -280.6119
  47   2.0000     -10.311520      -280.5907
  48   2.0000     -10.309738      -280.5422
  49   2.0000     -10.307877      -280.4916
  50   2.0000     -10.307293      -280.4757
  51   2.0000     -10.303768      -280.3798
  52   2.0000     -10.302695      -280.3506
  53   2.0000     -10.302363      -280.3416
  54   2.0000     -10.296800      -280.1902
  55   2.0000     -10.295941      -280.1668
  56   2.0000     -10.292360      -280.0694
  57   2.0000     -10.286976      -279.9229
  58   2.0000     -10.286381      -279.9066
  59   2.0000     -10.285278      -279.8767
  60   2.0000     -10.283521      -279.8288
  61   2.0000     -10.277521      -279.6656
  62   2.0000     -10.263085      -279.2727
  63   2.0000     -10.259525      -279.1759
  64   2.0000      -9.562558      -260.2104
  65   2.0000      -9.561854      -260.1913
  66   2.0000      -9.558378      -260.0967
  67   2.0000      -9.552687      -259.9418
  68   2.0000      -8.083196      -219.9549
  69   2.0000      -8.064258      -219.4396
  70   2.0000      -8.061489      -219.3643
  71   2.0000      -8.053145      -219.1372
  72   2.0000      -7.332967      -199.5402
  73   2.0000      -7.332281      -199.5215
  74   2.0000      -7.328644      -199.4225
  75   2.0000      -7.323070      -199.2709
  76   2.0000      -7.322823      -199.2641
  77   2.0000      -7.322089      -199.2442
  78   2.0000      -7.322067      -199.2436
  79   2.0000      -7.321347      -199.2240
  80   2.0000      -7.318779      -199.1541
  81   2.0000      -7.317980      -199.1324
  82   2.0000      -7.312933      -198.9950
  83   2.0000      -7.312262      -198.9768
  84   2.0000      -6.052573      -164.6989
  85   2.0000      -6.048209      -164.5801
  86   2.0000      -6.045344      -164.5022
  87   2.0000      -6.033383      -164.1767
  88   2.0000      -6.031900      -164.1363
  89   2.0000      -6.029196      -164.0628
  90   2.0000      -6.027705      -164.0222
  91   2.0000      -6.026674      -163.9941
  92   2.0000      -6.023023      -163.8948
  93   2.0000      -6.021360      -163.8495
  94   2.0000      -6.018351      -163.7676
  95   2.0000      -6.014464      -163.6619
  96   2.0000      -1.192865       -32.4595
  97   2.0000      -1.189631       -32.3715
  98   2.0000      -1.146752       -31.2047
  99   2.0000      -1.129941       -30.7473
 100   2.0000      -1.107209       -30.1287
 101   2.0000      -1.094470       -29.7820
 102   2.0000      -1.088513       -29.6200
 103   2.0000      -1.052114       -28.6295
 104   2.0000      -1.041677       -28.3455
 105   2.0000      -1.029766       -28.0214
 106   2.0000      -1.026534       -27.9334
 107   2.0000      -1.019026       -27.7291
 108   2.0000      -1.007681       -27.4204
 109   2.0000      -1.006504       -27.3884
 110   2.0000      -1.002192       -27.2710
 111   2.0000      -1.000281       -27.2190
 112   2.0000      -0.986600       -26.8468
 113   2.0000      -0.983020       -26.7493
 114   2.0000      -0.969815       -26.3900
 115   2.0000      -0.960716       -26.1424
 116   2.0000      -0.946016       -25.7424
 117   2.0000      -0.938576       -25.5400
 118   2.0000      -0.926028       -25.1985
 119   2.0000      -0.919982       -25.0340
 120   2.0000      -0.917778       -24.9740
 121   2.0000      -0.902259       -24.5517
 122   2.0000      -0.892103       -24.2753
 123   2.0000      -0.885144       -24.0860
 124   2.0000      -0.870666       -23.6920
 125   2.0000      -0.869560       -23.6619
 126   2.0000      -0.862032       -23.4571
 127   2.0000      -0.854945       -23.2642
 128   2.0000      -0.852790       -23.2056
 129   2.0000      -0.849113       -23.1055
 130   2.0000      -0.840165       -22.8620
 131   2.0000      -0.825494       -22.4628
 132   2.0000      -0.801843       -21.8193
 133   2.0000      -0.788434       -21.4544
 134   2.0000      -0.776154       -21.1202
 135   2.0000      -0.769892       -20.9498
 136   2.0000      -0.759633       -20.6707
 137   2.0000      -0.747462       -20.3395
 138   2.0000      -0.733593       -19.9621
 139   2.0000      -0.730379       -19.8746
 140   2.0000      -0.727024       -19.7833
 141   2.0000      -0.710070       -19.3220
 142   2.0000      -0.707732       -19.2584
 143   2.0000      -0.697877       -18.9902
 144   2.0000      -0.696625       -18.9561
 145   2.0000      -0.691048       -18.8044
 146   2.0000      -0.689322       -18.7574
 147   2.0000      -0.688240       -18.7280
 148   2.0000      -0.687050       -18.6956
 149   2.0000      -0.668297       -18.1853
 150   2.0000      -0.666815       -18.1449
 151   2.0000      -0.663896       -18.0655
 152   2.0000      -0.648981       -17.6597
 153   2.0000      -0.634677       -17.2704
 154   2.0000      -0.627638       -17.0789
 155   2.0000      -0.626164       -17.0388
 156   2.0000      -0.616917       -16.7872
 157   2.0000      -0.615062       -16.7367
 158   2.0000      -0.612030       -16.6542
 159   2.0000      -0.610242       -16.6055
 160   2.0000      -0.602067       -16.3831
 161   2.0000      -0.596670       -16.2362
 162   2.0000      -0.588778       -16.0215
 163   2.0000      -0.584869       -15.9151
 164   2.0000      -0.565931       -15.3998
 165   2.0000      -0.563947       -15.3458
 166   2.0000      -0.559239       -15.2177
 167   2.0000      -0.558814       -15.2061
 168   2.0000      -0.557310       -15.1652
 169   2.0000      -0.554811       -15.0972
 170   2.0000      -0.554376       -15.0853
 171   2.0000      -0.552241       -15.0272
 172   2.0000      -0.551367       -15.0035
 173   2.0000      -0.545781       -14.8515
 174   2.0000      -0.542712       -14.7680
 175   2.0000      -0.540965       -14.7204
 176   2.0000      -0.536582       -14.6011
 177   2.0000      -0.533723       -14.5233
 178   2.0000      -0.529812       -14.4169
 179   2.0000      -0.528948       -14.3934
 180   2.0000      -0.525047       -14.2872
 181   2.0000      -0.524884       -14.2828
 182   2.0000      -0.521976       -14.2037
 183   2.0000      -0.516889       -14.0653
 184   2.0000      -0.515497       -14.0274
 185   2.0000      -0.513771       -13.9804
 186   2.0000      -0.513515       -13.9734
 187   2.0000      -0.508238       -13.8299
 188   2.0000      -0.504585       -13.7305
 189   2.0000      -0.501498       -13.6464
 190   2.0000      -0.500377       -13.6160
 191   2.0000      -0.495496       -13.4831
 192   2.0000      -0.491899       -13.3852
 193   2.0000      -0.489910       -13.3311
 194   2.0000      -0.484973       -13.1968
 195   2.0000      -0.482796       -13.1375
 196   2.0000      -0.480064       -13.0632
 197   2.0000      -0.477455       -12.9922
 198   2.0000      -0.473804       -12.8929
 199   2.0000      -0.469824       -12.7846
 200   2.0000      -0.469247       -12.7689
 201   2.0000      -0.465333       -12.6624
 202   2.0000      -0.463759       -12.6195
 203   2.0000      -0.462693       -12.5905
 204   2.0000      -0.460960       -12.5434
 205   2.0000      -0.455638       -12.3985
 206   2.0000      -0.449186       -12.2230
 207   2.0000      -0.447238       -12.1700
 208   2.0000      -0.445801       -12.1308
 209   2.0000      -0.444434       -12.0937
 210   2.0000      -0.442382       -12.0378
 211   2.0000      -0.438821       -11.9409
 212   2.0000      -0.437258       -11.8984
 213   2.0000      -0.436564       -11.8795
 214   2.0000      -0.436252       -11.8710
 215   2.0000      -0.432091       -11.7578
 216   2.0000      -0.430083       -11.7032
 217   2.0000      -0.427026       -11.6200
 218   2.0000      -0.426441       -11.6040
 219   2.0000      -0.421538       -11.4706
 220   2.0000      -0.419093       -11.4041
 221   2.0000      -0.417045       -11.3484
 222   2.0000      -0.415198       -11.2981
 223   2.0000      -0.413802       -11.2601
 224   2.0000      -0.411753       -11.2044
 225   2.0000      -0.410025       -11.1573
 226   2.0000      -0.404540       -11.0081
 227   2.0000      -0.400530       -10.8990
 228   2.0000      -0.397477       -10.8159
 229   2.0000      -0.390225       -10.6186
 230   2.0000      -0.388847       -10.5811
 231   2.0000      -0.383753       -10.4424
 232   2.0000      -0.382062       -10.3964
 233   2.0000      -0.375406       -10.2153
 234   2.0000      -0.374816       -10.1993
 235   2.0000      -0.363903        -9.9023
 236   2.0000      -0.353244        -9.6123
 237   2.0000      -0.353020        -9.6062
 238   2.0000      -0.351694        -9.5701
 239   2.0000      -0.346466        -9.4278
 240   2.0000      -0.340218        -9.2578
 241   2.0000      -0.335355        -9.1255
 242   2.0000      -0.330132        -8.9833
 243   2.0000      -0.324504        -8.8302
 244   2.0000      -0.320632        -8.7248
 245   2.0000      -0.309561        -8.4236
 246   2.0000      -0.304034        -8.2732
 247   2.0000      -0.293422        -7.9844
 248   2.0000      -0.284117        -7.7312
 249   2.0000      -0.278460        -7.5773
 250   2.0000      -0.228518        -6.2183
 251   0.0000      -0.104745        -2.8503
 252   0.0000      -0.074496        -2.0271
 253   0.0000      -0.073553        -2.0015
 254   0.0000      -0.050591        -1.3766
 255   0.0000      -0.032535        -0.8853

MULLIKEN ATOMIC CHARGES
-----------------------
   0 C :    0.243074
   1 C :   -0.311528
   2 C :   -0.180020
   3 N :    0.166650
   4 C :   -0.187223
   5 N :    0.187553
   6 C :    0.022926
   7 C :   -0.003195
   8 C :   -0.028706
   9 C :    0.058737
  10 C :    0.052348
  11 C :   -0.015036
  12 Cl:   -0.030603
  13 Cl:   -0.037757
  14 C :    0.142796
  15 O :   -0.127872
  16 C :   -0.137425
  17 C :    0.056282
  18 C :   -0.203812
  19 S :    0.178203
  20 C :   -0.049756
  21 C :   -0.023363
  22 C :    0.219324
  23 O :   -0.205868
  24 O :   -0.142622
  25 C :    0.028800
  26 S :    0.081663
  27 C :   -0.111488
  28 N :   -0.016735
  29 C :    0.114653
  30 C :   -0.146357
  31 C :    0.062667
  32 N :   -0.035257
  33 C :    0.090187
  34 C :   -0.072694
  35 C :    0.066780
  36 C :   -0.058856
  37 C :   -0.111054
  38 S :    0.158179
  39 C :   -0.085628
  40 C :   -0.000864
  41 C :    0.127265
  42 O :   -0.185380
  43 O :   -0.175421
  44 C :   -0.045985
  45 S :    0.240106
  46 C :   -0.149659
  47 C :   -0.077108
  48 C :    0.349315
  49 C :   -0.329214
  50 C :   -0.170516
  51 N :    0.139384
  52 C :   -0.193145
  53 N :    0.144860
  54 C :    0.039702
  55 C :   -0.019174
  56 C :    0.135880
  57 O :   -0.152201
  58 C :   -0.033240
  59 C :    0.069249
  60 C :    0.017439
  61 C :    0.005666
  62 Cl:   -0.045505
  63 Cl:   -0.049775
  64 H :    0.004336
  65 H :    0.006309
  66 H :    0.037406
  67 H :    0.025439
  68 H :    0.183499
  69 H :    0.121685
  70 H :   -0.032603
  71 H :    0.127694
  72 H :   -0.014973
  73 H :   -0.007994
  74 H :   -0.005539
  75 H :    0.039161
  76 H :    0.193284
  77 H :    0.085192
  78 H :   -0.002726
  79 H :   -0.009816
Sum of atomic charges:   -0.0000000

LOEWDIN ATOMIC CHARGES
----------------------
   0 C :    0.060701
   1 C :   -0.132246
   2 C :   -0.022221
   3 N :   -0.037704
   4 C :   -0.020429
   5 N :   -0.041907
   6 C :   -0.011325
   7 C :   -0.046171
   8 C :    0.003392
   9 C :   -0.133874
  10 C :   -0.128331
  11 C :   -0.013247
  12 Cl:    0.166989
  13 Cl:    0.163074
  14 C :    0.084401
  15 O :   -0.129723
  16 C :   -0.091041
  17 C :    0.053468
  18 C :   -0.211853
  19 S :    0.488726
  20 C :   -0.118217
  21 C :   -0.124541
  22 C :    0.091564
  23 O :   -0.157417
  24 O :   -0.005659
  25 C :   -0.158137
  26 S :    0.346306
  27 C :   -0.178564
  28 N :    0.061313
  29 C :   -0.028544
  30 C :   -0.075270
  31 C :   -0.008087
  32 N :    0.077032
  33 C :   -0.017968
  34 C :   -0.093468
  35 C :   -0.000962
  36 C :   -0.086612
  37 C :   -0.171937
  38 S :    0.469713
  39 C :   -0.151968
  40 C :   -0.125847
  41 C :    0.077422
  42 O :   -0.177753
  43 O :   -0.040407
  44 C :   -0.204134
  45 S :    0.504715
  46 C :   -0.077638
  47 C :   -0.141796
  48 C :    0.078546
  49 C :   -0.126659
  50 C :   -0.013051
  51 N :   -0.064874
  52 C :   -0.008312
  53 N :   -0.057698
  54 C :   -0.000652
  55 C :   -0.040234
  56 C :    0.072761
  57 O :   -0.150114
  58 C :   -0.002241
  59 C :   -0.136608
  60 C :   -0.141296
  61 C :   -0.006649
  62 Cl:    0.152067
  63 Cl:    0.152461
  64 H :    0.047597
  65 H :    0.045335
  66 H :    0.049188
  67 H :    0.027703
  68 H :    0.086946
  69 H :    0.086221
  70 H :    0.026991
  71 H :    0.089098
  72 H :    0.030342
  73 H :    0.033517
  74 H :    0.022629
  75 H :    0.032008
  76 H :    0.102568
  77 H :    0.042197
  78 H :    0.045627
  79 H :    0.040765

  Mayer bond orders larger than 0.100000
B(  0-C ,  1-C ) :   1.6690 B(  0-C ,  6-C ) :   1.0089 B(  0-C , 16-C ) :   1.0320
B(  1-C ,  2-C ) :   1.1307 B(  1-C ,  4-C ) :   1.1512 B(  2-C ,  3-N ) :   2.9950
B(  4-C ,  5-N ) :   3.0086 B(  6-C ,  7-C ) :   1.3288 B(  6-C , 11-C ) :   1.3411
B(  7-C ,  8-C ) :   1.3483 B(  7-C , 14-C ) :   0.9197 B(  8-C ,  9-C ) :   1.3448
B(  8-C , 64-H ) :   1.0171 B(  9-C , 10-C ) :   1.4037 B(  9-C , 13-Cl) :   1.0518
B( 10-C , 11-C ) :   1.3598 B( 10-C , 12-Cl) :   1.0739 B( 11-C , 65-H ) :   0.9921
B( 14-C , 15-O ) :   2.2858 B( 14-C , 16-C ) :   0.9353 B( 16-C , 17-C ) :   1.7025
B( 17-C , 18-C ) :   1.0999 B( 17-C , 66-H ) :   0.9398 B( 18-C , 19-S ) :   1.1257
B( 18-C , 25-C ) :   1.5005 B( 19-S , 20-C ) :   1.1940 B( 20-C , 21-C ) :   1.5820
B( 20-C , 67-H ) :   0.9663 B( 21-C , 22-C ) :   0.9041 B( 21-C , 25-C ) :   1.2503
B( 22-C , 23-O ) :   2.0790 B( 22-C , 24-O ) :   1.2245 B( 24-O , 68-H ) :   0.9389
B( 25-C , 26-S ) :   1.0420 B( 26-S , 27-C ) :   0.9873 B( 27-C , 28-N ) :   1.1838
B( 27-C , 34-C ) :   1.4258 B( 28-N , 29-C ) :   1.1455 B( 28-N , 69-H ) :   0.9379
B( 29-C , 30-C ) :   1.2467 B( 29-C , 33-C ) :   1.3518 B( 30-C , 31-C ) :   1.3824
B( 30-C , 70-H ) :   1.0391 B( 31-C , 32-N ) :   1.1995 B( 31-C , 35-C ) :   1.1551
B( 32-N , 33-C ) :   1.1780 B( 32-N , 71-H ) :   0.9320 B( 33-C , 34-C ) :   1.2347
B( 34-C , 72-H ) :   1.0364 B( 35-C , 36-C ) :   1.6655 B( 35-C , 73-H ) :   0.9581
B( 36-C , 37-C ) :   1.1465 B( 36-C , 74-H ) :   0.9446 B( 37-C , 38-S ) :   1.1403
B( 37-C , 44-C ) :   1.5223 B( 38-S , 39-C ) :   1.1821 B( 39-C , 40-C ) :   1.5366
B( 39-C , 75-H ) :   0.9647 B( 40-C , 41-C ) :   0.9359 B( 40-C , 44-C ) :   1.2707
B( 41-C , 42-O ) :   2.1476 B( 41-C , 43-O ) :   1.2937 B( 43-O , 76-H ) :   0.9416
B( 44-C , 45-S ) :   0.9779 B( 45-S , 46-C ) :   1.2071 B( 46-C , 47-C ) :   1.5977
B( 46-C , 77-H ) :   0.9082 B( 47-C , 48-C ) :   1.0753 B( 47-C , 56-C ) :   0.9740
B( 48-C , 49-C ) :   1.6617 B( 48-C , 54-C ) :   0.9938 B( 49-C , 50-C ) :   1.1354
B( 49-C , 52-C ) :   1.1743 B( 50-C , 51-N ) :   2.9400 B( 52-C , 53-N ) :   2.9238
B( 54-C , 55-C ) :   1.3441 B( 54-C , 61-C ) :   1.3472 B( 55-C , 56-C ) :   0.9348
B( 55-C , 58-C ) :   1.3439 B( 56-C , 57-O ) :   2.1986 B( 58-C , 59-C ) :   1.3377
B( 58-C , 78-H ) :   1.0174 B( 59-C , 60-C ) :   1.4173 B( 59-C , 63-Cl) :   1.0434
B( 60-C , 61-C ) :   1.3583 B( 60-C , 62-Cl) :   1.0435 B( 61-C , 79-H ) :   0.9831

-----------------------------------------------------------------------------
         ABSORPTION SPECTRUM VIA TRANSITION ELECTRIC DIPOLE MOMENTS
-----------------------------------------------------------------------------
State   Energy  Wavelength   fosc         T2         TX        TY        TZ
        (cm-1)    (nm)                  (au**2)     (au)      (au)      (au)
-----------------------------------------------------------------------------
   0   12920.8    773.9   0.096930894   2.46972  -0.99037  -0.54741   1.09052
   1   16529.0    605.0   0.006179563   0.12308  -0.29445  -0.18932  -0.02323
   2   21536.4    464.3   0.021975976   0.33593   0.47227   0.24964  -0.22488
   3   22625.5    442.0   0.008796778   0.12800   0.13276  -0.28167   0.17617
   4   23641.3    423.0   0.394602401   5.49495  -1.44296   0.18717   1.83788
   5   24102.9    414.9   0.001428524   0.01951   0.06576  -0.11351  -0.04799
   6   25567.7    391.1   0.198473781   2.55556   1.50285  -0.30589  -0.45104
   7   26949.9    371.1   0.567887628   6.93716   2.30461   1.26018   0.19463
   8   27055.1    369.6   0.163131540   1.98502  -1.40264  -0.11687   0.06295
   9   28046.3    356.6   0.017781917   0.20873  -0.14300  -0.35119   0.25484
  10   28701.0    348.4   0.007970121   0.09142   0.07314   0.01759   0.29285
  11   28716.1    348.2   0.048231312   0.55294  -0.71609  -0.19841   0.02806
  12   29725.9    336.4   0.039994512   0.44294  -0.64166   0.16953  -0.04973
  13   30139.1    331.8   0.003710052   0.04053   0.15739   0.11990  -0.03708
  14   30354.5    329.4   0.379992291   4.12123   1.35947   1.42149  -0.50245
  15   31020.4    322.4   0.061403039   0.65165  -0.33277  -0.52763   0.51237
  16   31118.3    321.4   0.167091087   1.76772  -1.06330  -0.21091   0.76982
  17   31226.5    320.2   0.098164868   1.03492   0.93412   0.05905  -0.39856
  18   31509.4    317.4   0.127436408   1.33146  -0.79375  -0.54907  -0.63241
  19   32169.1    310.9   0.117905449   1.20662   1.01264   0.29018  -0.31141
  20   32527.8    307.4   0.006922232   0.07006   0.03705  -0.11269   0.23661
  21   33200.2    301.2   0.015157360   0.15030   0.32711  -0.03251  -0.20552
  22   33466.3    298.8   0.114149796   1.12290   0.07144  -0.55045   0.90266
  23   33494.1    298.6   0.139419522   1.37035  -0.32216  -0.81328   0.77791
  24   33948.9    294.6   0.319946704   3.10261   1.46420   0.73868  -0.64272
  25   34223.8    292.2   0.136698318   1.31496   0.97061   0.29375  -0.53533
  26   34548.5    289.4   0.057550777   0.54840  -0.63849  -0.36561   0.08403
  27   34674.0    288.4   0.546947897   5.19299  -0.21962   0.79223  -2.12535
  28   35009.1    285.6   0.223998579   2.10640  -1.40356  -0.20680   0.30604
  29   35213.0    284.0   0.193849909   1.81233   1.27573   0.19253   0.38443
  30   35629.9    280.7   0.008233027   0.07607  -0.25524  -0.03225  -0.09940
  31   35679.3    280.3   0.049129265   0.45331  -0.46316  -0.06909  -0.48376
  32   36285.5    275.6   0.072644334   0.65909   0.15638   0.20271  -0.77042
  33   36892.5    271.1   0.062008868   0.55334  -0.23727   0.07100  -0.70143
  34   36980.5    270.4   0.019025416   0.16937  -0.13787   0.13546   0.36334
  35   37412.8    267.3   0.020139466   0.17722  -0.27164  -0.31806   0.04759
  36   37523.8    266.5   0.014613301   0.12821  -0.13521   0.12606   0.30665
  37   37859.2    264.1   0.002546856   0.02215  -0.05485   0.08316  -0.11056
  38   38338.6    260.8   0.066484622   0.57090  -0.46000  -0.59930  -0.01158
  39   38703.9    258.4   0.124107105   1.05564   0.78025   0.60996  -0.27351
  40   38742.6    258.1   0.098215728   0.83458   0.53043   0.60410   0.43392
  41   39191.6    255.2   0.014351346   0.12055  -0.09424  -0.15463  -0.29624
  42   39365.4    254.0   0.062629345   0.52377  -0.43613  -0.53820   0.20952
  43   39700.3    251.9   0.005057385   0.04194  -0.11489   0.00629   0.16941
  44   40237.3    248.5   0.039798238   0.32562   0.10787   0.18217  -0.52990
  45   40311.9    248.1   0.116177311   0.94878  -0.68061  -0.65789   0.22963

FINAL SINGLE POINT ENERGY     -5895.569884576822

DIPOLE MOMENT
-------------
                                X             Y             Z
Electronic contribution:    -30.97529     -30.15047      45.52404
Nuclear contribution   :     29.85892      30.32903     -46.18777
                        -----------------------------------------
Total Dipole Moment    :     -1.11637       0.17857      -0.66373
                        -----------------------------------------
Magnitude (a.u.)       :      1.31100
Magnitude (Debye)      :      3.33229

Rotational constants in cm-1:     0.001945     0.000446     0.000413
Rotational constants in MHz :    58.307768    13.381069    12.374443

                             ****ORCA TERMINATED NORMALLY****
TOTAL RUN TIME: 0 days 0 hours 8 minutes 53 seconds 467 msec
