                         Program Version 4.2.0 -  RELEASE  -
|  1> # ORCA input file
|  2> # SCF done       -214.987847546363          0.000761353865
|  3> ! CAM-B3LYP def2-SVP def2/J RIJCOSX Grid4 TightSCF
|  4> %maxcore 5000
|  5> %tddft
|  6>     Mode sTDDFT
|  7>     Ethresh 5.0
|  8>     maxcore 5000
|  9> end
| 10>
| 11> %pal
| 12>   nprocs 6
| 13>   end
| 14> * xyz 0 1
| 15>    C        2.53148        -2.71527        -0.24647
| 16>    C        1.67607        -3.13485         0.73707
| 17>    C        2.09523        -3.53627         2.02410
| 18>    N        2.37893        -3.87971         3.08125
| 19>    C        0.27071        -3.13664         0.62511
| 20>    N       -0.87678        -3.13366         0.61266
| 21>    C        3.96293        -2.47529        -0.06276
| 22>    C        4.42055        -1.62686        -1.08793
| 23>    C        5.73161        -1.19880        -1.14393
| 24>    C        6.61079        -1.63655        -0.16111
| 25>    C        6.16683        -2.49500         0.85272
| 26>    C        4.84263        -2.91681         0.91095
| 27>   Cl        7.26825        -3.04173         2.04893
| 28>   Cl        8.24837        -1.12498        -0.19432
| 29>    C        3.30945        -1.33363        -2.01594
| 30>    O        3.31102        -0.60165        -2.97634
| 31>    C        2.17640        -2.18380        -1.54607
| 32>    C        1.11296        -2.36986        -2.37786
| 33>    C        0.10528        -3.36180        -2.35696
| 34>    C        0.12508        -4.60331        -1.75881
| 35>    C       -1.10281        -5.27299        -2.03949
| 36>    C       -1.86441        -4.34601        -2.87884
| 37>    C       -1.15850        -3.22494        -3.08837
| 38>    F       -3.08264        -4.62244        -3.35295
| 39>    C       -1.51544        -6.50352        -1.58246
| 40>    C       -2.75329        -7.15971        -1.80992
| 41>    C       -2.75575        -8.37536        -1.14271
| 42>    C       -1.46562        -8.51894        -0.45433
| 43>    C       -0.75201        -7.41583        -0.71836
| 44>    F        0.48151        -7.14649        -0.28301
| 45>    C       -3.82167        -9.29064        -1.13775
| 46>    C       -3.80089       -10.49542        -0.48674
| 47>    C       -4.85619       -11.43122        -0.45744
| 48>    C       -4.68341       -12.65717         0.25002
| 49>    C       -5.70818       -13.66245         0.33253
| 50>    N       -5.47141       -14.77731         1.03849
| 51>    C       -4.31542       -14.94671         1.63046
| 52>    C       -3.29252       -13.95216         1.53320
| 53>    N       -3.50329       -12.84982         0.85691
| 54>    C       -2.03937       -14.14644         2.16786
| 55>    N       -1.03835       -14.33202         2.69185
| 56>    C       -4.08914       -16.13588         2.36999
| 57>    N       -3.87400       -17.08749         2.96935
| 58>    C       -6.98491       -13.49583        -0.28066
| 59>    C       -7.15609       -12.27095        -0.98007
| 60>    C       -6.11974       -11.26914        -1.07683
| 61>    N       -6.51527       -10.22181        -1.80086
| 62>    S       -8.01604       -10.46363        -2.31271
| 63>    N       -8.24842       -11.89955        -1.64885
| 64>    C       -8.02663       -14.45659        -0.20100
| 65>    C       -9.35558       -14.23729        -0.53363
| 66>    C      -10.10042       -15.42422        -0.30292
| 67>    C       -9.11916       -16.40476         0.17418
| 68>    C       -7.90132       -15.84873         0.25071
| 69>    F       -9.43526       -17.66500         0.47996
| 70>    C      -11.45516       -15.61939        -0.45479
| 71>    C      -12.20947       -16.79922        -0.20221
| 72>    C      -13.54604       -16.54331        -0.44630
| 73>    C      -13.67324       -15.14704        -0.88373
| 74>    C      -12.44013       -14.62106        -0.88929
| 75>    F      -12.11337       -13.36993        -1.22766
| 76>    C      -14.60020       -17.46589        -0.28586
| 77>    C      -15.92251       -17.17341        -0.46785
| 78>    C      -16.93134       -18.13754        -0.27341
| 79>    C      -18.27433       -17.89389        -0.39216
| 80>    C      -19.35339       -18.84368        -0.19735
| 81>    C      -19.23944       -20.18622         0.05305
| 82>    C      -20.33867       -21.05623         0.22147
| 83>    N      -21.18480       -21.81774         0.36597
| 84>    C      -18.02861       -20.90269         0.16645
| 85>    N      -17.09229       -21.55900         0.27204
| 86>    C      -20.61266       -18.11474        -0.33773
| 87>    C      -20.33192       -16.77170        -0.64381
| 88>    C      -18.86980       -16.57027        -0.70921
| 89>    O      -18.29680       -15.53370        -0.96553
| 90>    C      -21.33375       -15.84128        -0.83157
| 91>    C      -22.65289       -16.25892        -0.70878
| 92>    C      -22.94288       -17.59435        -0.40266
| 93>    C      -21.92950       -18.52847        -0.21646
| 94>   Cl      -24.57657       -18.09785        -0.25017
| 95>   Cl      -23.92871       -15.13311        -0.93077
| 96>    H        6.06270        -0.54062        -1.93157
| 97>    H        4.53593        -3.58210         1.70154
| 98>    H        1.07967        -1.68232        -3.21908
| 99>    H        0.94026        -5.03256        -1.21025
|100>    H       -1.44897        -2.36035        -3.65199
|101>    H       -3.55872        -6.77074        -2.40158
|102>    H       -1.16332        -9.35141         0.14914
|103>    H       -4.70951        -9.01189        -1.68842
|104>    H       -2.91860       -10.79467         0.06087
|105>    H       -9.76484       -13.31262        -0.88592
|106>    H       -6.99346       -16.31887         0.56639
|107>    H      -11.80069       -17.73239         0.13328
|108>    H      -14.58736       -14.65528        -1.15002
|109>    H      -14.32113       -18.46869         0.01619
|110>    H      -16.22521       -16.17918        -0.75700
|111>    H      -16.60388       -19.13245         0.00014
|112>    H      -21.09451       -14.81602        -1.06593
|113>    H      -22.19331       -19.54619         0.01940
|114> *
|115>
|116>                          ****END OF INPUT****

CARTESIAN COORDINATES (ANGSTROEM)
---------------------------------
  C      2.531480   -2.715270   -0.246470
  C      1.676070   -3.134850    0.737070
  C      2.095230   -3.536270    2.024100
  N      2.378930   -3.879710    3.081250
  C      0.270710   -3.136640    0.625110
  N     -0.876780   -3.133660    0.612660
  C      3.962930   -2.475290   -0.062760
  C      4.420550   -1.626860   -1.087930
  C      5.731610   -1.198800   -1.143930
  C      6.610790   -1.636550   -0.161110
  C      6.166830   -2.495000    0.852720
  C      4.842630   -2.916810    0.910950
  Cl     7.268250   -3.041730    2.048930
  Cl     8.248370   -1.124980   -0.194320
  C      3.309450   -1.333630   -2.015940
  O      3.311020   -0.601650   -2.976340
  C      2.176400   -2.183800   -1.546070
  C      1.112960   -2.369860   -2.377860
  C      0.105280   -3.361800   -2.356960
  C      0.125080   -4.603310   -1.758810
  C     -1.102810   -5.272990   -2.039490
  C     -1.864410   -4.346010   -2.878840
  C     -1.158500   -3.224940   -3.088370
  F     -3.082640   -4.622440   -3.352950
  C     -1.515440   -6.503520   -1.582460
  C     -2.753290   -7.159710   -1.809920
  C     -2.755750   -8.375360   -1.142710
  C     -1.465620   -8.518940   -0.454330
  C     -0.752010   -7.415830   -0.718360
  F      0.481510   -7.146490   -0.283010
  C     -3.821670   -9.290640   -1.137750
  C     -3.800890  -10.495420   -0.486740
  C     -4.856190  -11.431220   -0.457440
  C     -4.683410  -12.657170    0.250020
  C     -5.708180  -13.662450    0.332530
  N     -5.471410  -14.777310    1.038490
  C     -4.315420  -14.946710    1.630460
  C     -3.292520  -13.952160    1.533200
  N     -3.503290  -12.849820    0.856910
  C     -2.039370  -14.146440    2.167860
  N     -1.038350  -14.332020    2.691850
  C     -4.089140  -16.135880    2.369990
  N     -3.874000  -17.087490    2.969350
  C     -6.984910  -13.495830   -0.280660
  C     -7.156090  -12.270950   -0.980070
  C     -6.119740  -11.269140   -1.076830
  N     -6.515270  -10.221810   -1.800860
  S     -8.016040  -10.463630   -2.312710
  N     -8.248420  -11.899550   -1.648850
  C     -8.026630  -14.456590   -0.201000
  C     -9.355580  -14.237290   -0.533630
  C    -10.100420  -15.424220   -0.302920
  C     -9.119160  -16.404760    0.174180
  C     -7.901320  -15.848730    0.250710
  F     -9.435260  -17.665000    0.479960
  C    -11.455160  -15.619390   -0.454790
  C    -12.209470  -16.799220   -0.202210
  C    -13.546040  -16.543310   -0.446300
  C    -13.673240  -15.147040   -0.883730
  C    -12.440130  -14.621060   -0.889290
  F    -12.113370  -13.369930   -1.227660
  C    -14.600200  -17.465890   -0.285860
  C    -15.922510  -17.173410   -0.467850
  C    -16.931340  -18.137540   -0.273410
  C    -18.274330  -17.893890   -0.392160
  C    -19.353390  -18.843680   -0.197350
  C    -19.239440  -20.186220    0.053050
  C    -20.338670  -21.056230    0.221470
  N    -21.184800  -21.817740    0.365970
  C    -18.028610  -20.902690    0.166450
  N    -17.092290  -21.559000    0.272040
  C    -20.612660  -18.114740   -0.337730
  C    -20.331920  -16.771700   -0.643810
  C    -18.869800  -16.570270   -0.709210
  O    -18.296800  -15.533700   -0.965530
  C    -21.333750  -15.841280   -0.831570
  C    -22.652890  -16.258920   -0.708780
  C    -22.942880  -17.594350   -0.402660
  C    -21.929500  -18.528470   -0.216460
  Cl   -24.576570  -18.097850   -0.250170
  Cl   -23.928710  -15.133110   -0.930770
  H      6.062700   -0.540620   -1.931570
  H      4.535930   -3.582100    1.701540
  H      1.079670   -1.682320   -3.219080
  H      0.940260   -5.032560   -1.210250
  H     -1.448970   -2.360350   -3.651990
  H     -3.558720   -6.770740   -2.401580
  H     -1.163320   -9.351410    0.149140
  H     -4.709510   -9.011890   -1.688420
  H     -2.918600  -10.794670    0.060870
  H     -9.764840  -13.312620   -0.885920
  H     -6.993460  -16.318870    0.566390
  H    -11.800690  -17.732390    0.133280
  H    -14.587360  -14.655280   -1.150020
  H    -14.321130  -18.468690    0.016190
  H    -16.225210  -16.179180   -0.757000
  H    -16.603880  -19.132450    0.000140
  H    -21.094510  -14.816020   -1.065930
  H    -22.193310  -19.546190    0.019400

 Total Charge           Charge          ....    0
 Multiplicity           Mult            ....    1
 Number of Electrons    NEL             ....  584
 Basis Dimension        Dim             .... 1244

ORBITAL ENERGIES
----------------

  NO   OCC          E(Eh)            E(eV)
   0   2.0000    -101.605244     -2764.8193
   1   2.0000    -101.604924     -2764.8105
   2   2.0000    -101.604119     -2764.7886
   3   2.0000    -101.603518     -2764.7723
   4   2.0000     -89.061947     -2423.4988
   5   2.0000     -24.807057      -675.0343
   6   2.0000     -24.803924      -674.9491
   7   2.0000     -24.801382      -674.8799
   8   2.0000     -24.800072      -674.8443
   9   2.0000     -19.229762      -523.2684
  10   2.0000     -19.227959      -523.2194
  11   2.0000     -14.476099      -393.9147
  12   2.0000     -14.474220      -393.8635
  13   2.0000     -14.470307      -393.7571
  14   2.0000     -14.468519      -393.7084
  15   2.0000     -14.440326      -392.9412
  16   2.0000     -14.439797      -392.9269
  17   2.0000     -14.425699      -392.5432
  18   2.0000     -14.425076      -392.5263
  19   2.0000     -14.424771      -392.5180
  20   2.0000     -14.422836      -392.4653
  21   2.0000     -10.395014      -282.8627
  22   2.0000     -10.394313      -282.8436
  23   2.0000     -10.380426      -282.4658
  24   2.0000     -10.378575      -282.4154
  25   2.0000     -10.374466      -282.3036
  26   2.0000     -10.371395      -282.2200
  27   2.0000     -10.367538      -282.1150
  28   2.0000     -10.366309      -282.0816
  29   2.0000     -10.365264      -282.0532
  30   2.0000     -10.364008      -282.0190
  31   2.0000     -10.362373      -281.9745
  32   2.0000     -10.361730      -281.9570
  33   2.0000     -10.361552      -281.9522
  34   2.0000     -10.361328      -281.9461
  35   2.0000     -10.359571      -281.8982
  36   2.0000     -10.359326      -281.8916
  37   2.0000     -10.356087      -281.8034
  38   2.0000     -10.353651      -281.7372
  39   2.0000     -10.353624      -281.7364
  40   2.0000     -10.351452      -281.6773
  41   2.0000     -10.334515      -281.2165
  42   2.0000     -10.333311      -281.1837
  43   2.0000     -10.333056      -281.1768
  44   2.0000     -10.332808      -281.1700
  45   2.0000     -10.328065      -281.0409
  46   2.0000     -10.327889      -281.0362
  47   2.0000     -10.326554      -280.9998
  48   2.0000     -10.325810      -280.9796
  49   2.0000     -10.325108      -280.9605
  50   2.0000     -10.324850      -280.9535
  51   2.0000     -10.324691      -280.9491
  52   2.0000     -10.323556      -280.9182
  53   2.0000     -10.323474      -280.9160
  54   2.0000     -10.323403      -280.9141
  55   2.0000     -10.322730      -280.8958
  56   2.0000     -10.321945      -280.8744
  57   2.0000     -10.315842      -280.7083
  58   2.0000     -10.315253      -280.6923
  59   2.0000     -10.315092      -280.6879
  60   2.0000     -10.314433      -280.6700
  61   2.0000     -10.314271      -280.6656
  62   2.0000     -10.314198      -280.6636
  63   2.0000     -10.311229      -280.5828
  64   2.0000     -10.310555      -280.5645
  65   2.0000     -10.308718      -280.5145
  66   2.0000     -10.308700      -280.5140
  67   2.0000     -10.308656      -280.5128
  68   2.0000     -10.307392      -280.4784
  69   2.0000     -10.307135      -280.4714
  70   2.0000     -10.305678      -280.4317
  71   2.0000     -10.303458      -280.3713
  72   2.0000     -10.297027      -280.1963
  73   2.0000     -10.296037      -280.1694
  74   2.0000     -10.291813      -280.0545
  75   2.0000     -10.291652      -280.0501
  76   2.0000     -10.289450      -279.9902
  77   2.0000     -10.288311      -279.9592
  78   2.0000     -10.287718      -279.9430
  79   2.0000     -10.285143      -279.8730
  80   2.0000     -10.282345      -279.7968
  81   2.0000      -9.560296      -260.1489
  82   2.0000      -9.559994      -260.1407
  83   2.0000      -9.559169      -260.1182
  84   2.0000      -9.558529      -260.1008
  85   2.0000      -8.153187      -221.8595
  86   2.0000      -7.330668      -199.4776
  87   2.0000      -7.330402      -199.4704
  88   2.0000      -7.329589      -199.4483
  89   2.0000      -7.328949      -199.4308
  90   2.0000      -7.320561      -199.2026
  91   2.0000      -7.320237      -199.1938
  92   2.0000      -7.319829      -199.1827
  93   2.0000      -7.319502      -199.1738
  94   2.0000      -7.319414      -199.1714
  95   2.0000      -7.318773      -199.1539
  96   2.0000      -7.318668      -199.1511
  97   2.0000      -7.318034      -199.1338
  98   2.0000      -6.124305      -166.6508
  99   2.0000      -6.116282      -166.4325
 100   2.0000      -6.116117      -166.4280
 101   2.0000      -1.320420       -35.9305
 102   2.0000      -1.317026       -35.8381
 103   2.0000      -1.314528       -35.7701
 104   2.0000      -1.313814       -35.7507
 105   2.0000      -1.159413       -31.5492
 106   2.0000      -1.144657       -31.1477
 107   2.0000      -1.143575       -31.1183
 108   2.0000      -1.135343       -30.8943
 109   2.0000      -1.060975       -28.8706
 110   2.0000      -1.037816       -28.2404
 111   2.0000      -1.036896       -28.2154
 112   2.0000      -1.025068       -27.8935
 113   2.0000      -1.024019       -27.8650
 114   2.0000      -1.023202       -27.8427
 115   2.0000      -1.016446       -27.6589
 116   2.0000      -1.012719       -27.5575
 117   2.0000      -1.008476       -27.4420
 118   2.0000      -1.005950       -27.3733
 119   2.0000      -1.002618       -27.2826
 120   2.0000      -1.002443       -27.2779
 121   2.0000      -0.998717       -27.1765
 122   2.0000      -0.997747       -27.1501
 123   2.0000      -0.995276       -27.0828
 124   2.0000      -0.987660       -26.8756
 125   2.0000      -0.980178       -26.6720
 126   2.0000      -0.967159       -26.3177
 127   2.0000      -0.966830       -26.3088
 128   2.0000      -0.944700       -25.7066
 129   2.0000      -0.940823       -25.6011
 130   2.0000      -0.929529       -25.2938
 131   2.0000      -0.927069       -25.2268
 132   2.0000      -0.921458       -25.0742
 133   2.0000      -0.913317       -24.8526
 134   2.0000      -0.901245       -24.5241
 135   2.0000      -0.894454       -24.3393
 136   2.0000      -0.881820       -23.9956
 137   2.0000      -0.872684       -23.7469
 138   2.0000      -0.867293       -23.6002
 139   2.0000      -0.866575       -23.5807
 140   2.0000      -0.858935       -23.3728
 141   2.0000      -0.851758       -23.1775
 142   2.0000      -0.847684       -23.0667
 143   2.0000      -0.827484       -22.5170
 144   2.0000      -0.824085       -22.4245
 145   2.0000      -0.819425       -22.2977
 146   2.0000      -0.816720       -22.2241
 147   2.0000      -0.805176       -21.9099
 148   2.0000      -0.799424       -21.7534
 149   2.0000      -0.785522       -21.3751
 150   2.0000      -0.777960       -21.1694
 151   2.0000      -0.774297       -21.0697
 152   2.0000      -0.767769       -20.8920
 153   2.0000      -0.758112       -20.6293
 154   2.0000      -0.752736       -20.4830
 155   2.0000      -0.739069       -20.1111
 156   2.0000      -0.728997       -19.8370
 157   2.0000      -0.723865       -19.6974
 158   2.0000      -0.718818       -19.5600
 159   2.0000      -0.704709       -19.1761
 160   2.0000      -0.703767       -19.1505
 161   2.0000      -0.702996       -19.1295
 162   2.0000      -0.699457       -19.0332
 163   2.0000      -0.695272       -18.9193
 164   2.0000      -0.692926       -18.8555
 165   2.0000      -0.686629       -18.6841
 166   2.0000      -0.684673       -18.6309
 167   2.0000      -0.678760       -18.4700
 168   2.0000      -0.675980       -18.3943
 169   2.0000      -0.675379       -18.3780
 170   2.0000      -0.666237       -18.1292
 171   2.0000      -0.663091       -18.0436
 172   2.0000      -0.651162       -17.7190
 173   2.0000      -0.650318       -17.6960
 174   2.0000      -0.643657       -17.5148
 175   2.0000      -0.640650       -17.4330
 176   2.0000      -0.637952       -17.3596
 177   2.0000      -0.637050       -17.3350
 178   2.0000      -0.630817       -17.1654
 179   2.0000      -0.629929       -17.1412
 180   2.0000      -0.623363       -16.9626
 181   2.0000      -0.612804       -16.6753
 182   2.0000      -0.610136       -16.6026
 183   2.0000      -0.605608       -16.4794
 184   2.0000      -0.598353       -16.2820
 185   2.0000      -0.594007       -16.1638
 186   2.0000      -0.590805       -16.0766
 187   2.0000      -0.585204       -15.9242
 188   2.0000      -0.582506       -15.8508
 189   2.0000      -0.576764       -15.6946
 190   2.0000      -0.574506       -15.6331
 191   2.0000      -0.574128       -15.6228
 192   2.0000      -0.572368       -15.5749
 193   2.0000      -0.568589       -15.4721
 194   2.0000      -0.567649       -15.4465
 195   2.0000      -0.566630       -15.4188
 196   2.0000      -0.565981       -15.4011
 197   2.0000      -0.564646       -15.3648
 198   2.0000      -0.563622       -15.3369
 199   2.0000      -0.558981       -15.2106
 200   2.0000      -0.557727       -15.1765
 201   2.0000      -0.555905       -15.1269
 202   2.0000      -0.553869       -15.0715
 203   2.0000      -0.552121       -15.0240
 204   2.0000      -0.551997       -15.0206
 205   2.0000      -0.548698       -14.9308
 206   2.0000      -0.543655       -14.7936
 207   2.0000      -0.542441       -14.7606
 208   2.0000      -0.539039       -14.6680
 209   2.0000      -0.536824       -14.6077
 210   2.0000      -0.533986       -14.5305
 211   2.0000      -0.528963       -14.3938
 212   2.0000      -0.523687       -14.2503
 213   2.0000      -0.522947       -14.2301
 214   2.0000      -0.514177       -13.9915
 215   2.0000      -0.513259       -13.9665
 216   2.0000      -0.512385       -13.9427
 217   2.0000      -0.511870       -13.9287
 218   2.0000      -0.508846       -13.8464
 219   2.0000      -0.506532       -13.7834
 220   2.0000      -0.503481       -13.7004
 221   2.0000      -0.502070       -13.6620
 222   2.0000      -0.500310       -13.6141
 223   2.0000      -0.499096       -13.5811
 224   2.0000      -0.498553       -13.5663
 225   2.0000      -0.494492       -13.4558
 226   2.0000      -0.492729       -13.4078
 227   2.0000      -0.490792       -13.3551
 228   2.0000      -0.487941       -13.2775
 229   2.0000      -0.487776       -13.2730
 230   2.0000      -0.485361       -13.2073
 231   2.0000      -0.483403       -13.1541
 232   2.0000      -0.480523       -13.0757
 233   2.0000      -0.476890       -12.9768
 234   2.0000      -0.474745       -12.9185
 235   2.0000      -0.472758       -12.8644
 236   2.0000      -0.470879       -12.8133
 237   2.0000      -0.469257       -12.7691
 238   2.0000      -0.465491       -12.6667
 239   2.0000      -0.464444       -12.6382
 240   2.0000      -0.463165       -12.6034
 241   2.0000      -0.462445       -12.5838
 242   2.0000      -0.460614       -12.5339
 243   2.0000      -0.457755       -12.4562
 244   2.0000      -0.456858       -12.4317
 245   2.0000      -0.454034       -12.3549
 246   2.0000      -0.451928       -12.2976
 247   2.0000      -0.450692       -12.2639
 248   2.0000      -0.450096       -12.2477
 249   2.0000      -0.448471       -12.2035
 250   2.0000      -0.444192       -12.0871
 251   2.0000      -0.442235       -12.0338
 252   2.0000      -0.438229       -11.9248
 253   2.0000      -0.437459       -11.9039
 254   2.0000      -0.436518       -11.8782
 255   2.0000      -0.435048       -11.8383
 256   2.0000      -0.434809       -11.8317
 257   2.0000      -0.433653       -11.8003
 258   2.0000      -0.433570       -11.7980
 259   2.0000      -0.433087       -11.7849
 260   2.0000      -0.431928       -11.7534
 261   2.0000      -0.428698       -11.6655
 262   2.0000      -0.424443       -11.5497
 263   2.0000      -0.421213       -11.4618
 264   2.0000      -0.419463       -11.4142
 265   2.0000      -0.418204       -11.3799
 266   2.0000      -0.416710       -11.3393
 267   2.0000      -0.414145       -11.2694
 268   2.0000      -0.412623       -11.2281
 269   2.0000      -0.408160       -11.1066
 270   2.0000      -0.393332       -10.7031
 271   2.0000      -0.391644       -10.6572
 272   2.0000      -0.389574       -10.6008
 273   2.0000      -0.386400       -10.5145
 274   2.0000      -0.386179       -10.5085
 275   2.0000      -0.372066       -10.1244
 276   2.0000      -0.367511       -10.0005
 277   2.0000      -0.363941        -9.9033
 278   2.0000      -0.357177        -9.7193
 279   2.0000      -0.350203        -9.5295
 280   2.0000      -0.348011        -9.4699
 281   2.0000      -0.346946        -9.4409
 282   2.0000      -0.343004        -9.3336
 283   2.0000      -0.333298        -9.0695
 284   2.0000      -0.325288        -8.8515
 285   2.0000      -0.319879        -8.7043
 286   2.0000      -0.316426        -8.6104
 287   2.0000      -0.316300        -8.6070
 288   2.0000      -0.303223        -8.2511
 289   2.0000      -0.292000        -7.9457
 290   2.0000      -0.283255        -7.7077
 291   2.0000      -0.255724        -6.9586
 292   0.0000      -0.155196        -4.2231
 293   0.0000      -0.123798        -3.3687
 294   0.0000      -0.113396        -3.0857
 295   0.0000      -0.085478        -2.3260
 296   0.0000      -0.084528        -2.3001

MULLIKEN ATOMIC CHARGES
-----------------------
   0 C :    0.265693
   1 C :   -0.320098
   2 C :   -0.181603
   3 N :    0.169230
   4 C :   -0.205035
   5 N :    0.182902
   6 C :    0.016223
   7 C :    0.006554
   8 C :   -0.031099
   9 C :    0.060319
  10 C :    0.051830
  11 C :   -0.018463
  12 Cl:   -0.032557
  13 Cl:   -0.039768
  14 C :    0.134527
  15 O :   -0.132711
  16 C :   -0.112432
  17 C :    0.035598
  18 C :    0.070246
  19 C :   -0.048309
  20 C :   -0.002663
  21 C :    0.263906
  22 C :   -0.059388
  23 F :   -0.173518
  24 C :    0.029392
  25 C :   -0.073077
  26 C :    0.117079
  27 C :   -0.069300
  28 C :    0.263623
  29 F :   -0.168405
  30 C :    0.025239
  31 C :   -0.087576
  32 C :    0.116455
  33 C :   -0.047429
  34 C :   -0.063625
  35 N :    0.040791
  36 C :   -0.116545
  37 C :   -0.135419
  38 N :    0.047355
  39 C :   -0.213819
  40 N :    0.249331
  41 C :   -0.220255
  42 N :    0.248501
  43 C :    0.199507
  44 C :   -0.002612
  45 C :    0.015320
  46 N :   -0.288714
  47 S :    0.568649
  48 N :   -0.286502
  49 C :   -0.054309
  50 C :   -0.078112
  51 C :    0.041024
  52 C :    0.262965
  53 C :   -0.057702
  54 F :   -0.170555
  55 C :   -0.000909
  56 C :   -0.060097
  57 C :    0.105586
  58 C :   -0.072400
  59 C :    0.258386
  60 F :   -0.169938
  61 C :    0.029718
  62 C :   -0.005931
  63 C :   -0.026847
  64 C :   -0.071946
  65 C :    0.323205
  66 C :   -0.338927
  67 C :   -0.189482
  68 N :    0.161808
  69 C :   -0.191174
  70 N :    0.152707
  71 C :    0.030882
  72 C :   -0.016295
  73 C :    0.150566
  74 O :   -0.144857
  75 C :   -0.027164
  76 C :    0.060485
  77 C :    0.047032
  78 C :   -0.011149
  79 Cl:   -0.032318
  80 Cl:   -0.040021
  81 H :    0.002561
  82 H :    0.005319
  83 H :    0.023750
  84 H :    0.007128
  85 H :   -0.008324
  86 H :   -0.003433
  87 H :   -0.000992
  88 H :    0.008924
  89 H :    0.000934
  90 H :    0.003588
  91 H :   -0.002240
  92 H :    0.000693
  93 H :    0.000600
  94 H :    0.007225
  95 H :    0.029634
  96 H :    0.012747
  97 H :   -0.000654
  98 H :    0.000962
Sum of atomic charges:   -0.0000000

LOEWDIN ATOMIC CHARGES
----------------------
   0 C :    0.062837
   1 C :   -0.126979
   2 C :   -0.021770
   3 N :   -0.039969
   4 C :   -0.015763
   5 N :   -0.033337
   6 C :   -0.010588
   7 C :   -0.046814
   8 C :    0.002735
   9 C :   -0.134823
  10 C :   -0.128613
  11 C :   -0.014262
  12 Cl:    0.165996
  13 Cl:    0.161433
  14 C :    0.083928
  15 O :   -0.132020
  16 C :   -0.078826
  17 C :    0.068007
  18 C :   -0.024123
  19 C :    0.001559
  20 C :    0.002504
  21 C :    0.077392
  22 C :   -0.043287
  23 F :   -0.049291
  24 C :    0.019597
  25 C :   -0.033005
  26 C :    0.008607
  27 C :   -0.048235
  28 C :    0.084680
  29 F :   -0.045130
  30 C :    0.016236
  31 C :   -0.006502
  32 C :   -0.013880
  33 C :   -0.003064
  34 C :   -0.001391
  35 N :    0.009803
  36 C :   -0.023446
  37 C :   -0.025853
  38 N :    0.003747
  39 C :   -0.038061
  40 N :    0.001780
  41 C :   -0.038908
  42 N :    0.003070
  43 C :   -0.015355
  44 C :   -0.032194
  45 C :   -0.037773
  46 N :   -0.274323
  47 S :    0.691999
  48 N :   -0.266512
  49 C :    0.002892
  50 C :   -0.020385
  51 C :    0.009729
  52 C :    0.071686
  53 C :   -0.046435
  54 F :   -0.047254
  55 C :    0.004115
  56 C :   -0.020223
  57 C :   -0.007415
  58 C :   -0.049399
  59 C :    0.079988
  60 F :   -0.047604
  61 C :    0.037248
  62 C :   -0.022851
  63 C :    0.068414
  64 C :   -0.090558
  65 C :    0.072025
  66 C :   -0.130852
  67 C :   -0.020361
  68 N :   -0.043235
  69 C :   -0.020044
  70 N :   -0.045046
  71 C :   -0.012891
  72 C :   -0.044223
  73 C :    0.085754
  74 O :   -0.139524
  75 C :    0.001481
  76 C :   -0.133999
  77 C :   -0.129651
  78 C :   -0.012044
  79 Cl:    0.164909
  80 Cl:    0.161364
  81 H :    0.047038
  82 H :    0.044991
  83 H :    0.049352
  84 H :    0.026252
  85 H :    0.034694
  86 H :    0.028781
  87 H :    0.035761
  88 H :    0.034145
  89 H :    0.033220
  90 H :    0.022063
  91 H :    0.031090
  92 H :    0.030079
  93 H :    0.037023
  94 H :    0.041085
  95 H :    0.033203
  96 H :    0.043167
  97 H :    0.045916
  98 H :    0.044716

  Mayer bond orders larger than 0.100000
B(  0-C ,  1-C ) :   1.6637 B(  0-C ,  6-C ) :   0.9993 B(  0-C , 16-C ) :   1.0393
B(  1-C ,  2-C ) :   1.1231 B(  1-C ,  4-C ) :   1.1705 B(  2-C ,  3-N ) :   2.9942
B(  4-C ,  5-N ) :   3.0016 B(  6-C ,  7-C ) :   1.3296 B(  6-C , 11-C ) :   1.3448
B(  7-C ,  8-C ) :   1.3439 B(  7-C , 14-C ) :   0.9210 B(  8-C ,  9-C ) :   1.3460
B(  8-C , 81-H ) :   1.0173 B(  9-C , 10-C ) :   1.4044 B(  9-C , 13-Cl) :   1.0502
B( 10-C , 11-C ) :   1.3582 B( 10-C , 12-Cl) :   1.0735 B( 11-C , 82-H ) :   0.9904
B( 14-C , 15-O ) :   2.2713 B( 14-C , 16-C ) :   0.9382 B( 16-C , 17-C ) :   1.6527
B( 17-C , 18-C ) :   1.1035 B( 17-C , 83-H ) :   0.9410 B( 18-C , 19-C ) :   1.5106
B( 18-C , 22-C ) :   1.0225 B( 19-C , 20-C ) :   1.1337 B( 19-C , 84-H ) :   1.0033
B( 20-C , 21-C ) :   1.0300 B( 20-C , 24-C ) :   1.4593 B( 21-C , 22-C ) :   1.6543
B( 21-C , 23-F ) :   1.1268 B( 22-C , 85-H ) :   1.0193 B( 24-C , 25-C ) :   1.1275
B( 24-C , 28-C ) :   1.0105 B( 25-C , 26-C ) :   1.4758 B( 25-C , 86-H ) :   1.0240
B( 26-C , 27-C ) :   1.0053 B( 26-C , 30-C ) :   1.1552 B( 27-C , 28-C ) :   1.6768
B( 27-C , 87-H ) :   1.0143 B( 28-C , 29-F ) :   1.1283 B( 30-C , 31-C ) :   1.4937
B( 30-C , 88-H ) :   0.9677 B( 31-C , 32-C ) :   1.2403 B( 31-C , 89-H ) :   0.9567
B( 32-C , 33-C ) :   1.2082 B( 32-C , 43-C ) :   0.1317 B( 32-C , 45-C ) :   1.1568
B( 33-C , 34-C ) :   1.1192 B( 33-C , 38-N ) :   1.4462 B( 34-C , 35-N ) :   1.4449
B( 34-C , 43-C ) :   1.2364 B( 35-N , 36-C ) :   1.7300 B( 36-C , 37-C ) :   1.2104
B( 36-C , 41-C ) :   1.1494 B( 37-C , 38-N ) :   1.7349 B( 37-C , 39-C ) :   1.1583
B( 39-C , 40-N ) :   3.0490 B( 41-C , 42-N ) :   3.0470 B( 43-C , 44-C ) :   1.1917
B( 43-C , 49-C ) :   1.1297 B( 44-C , 45-C ) :   1.1069 B( 44-C , 48-N ) :   1.5150
B( 45-C , 46-N ) :   1.5034 B( 46-N , 47-S ) :   1.2805 B( 46-N , 48-N ) :   0.1476
B( 47-S , 48-N ) :   1.2893 B( 49-C , 50-C ) :   1.5124 B( 49-C , 53-C ) :   1.0163
B( 50-C , 51-C ) :   1.1028 B( 50-C , 90-H ) :   1.0016 B( 51-C , 52-C ) :   1.0138
B( 51-C , 55-C ) :   1.4455 B( 52-C , 53-C ) :   1.6363 B( 52-C , 54-F ) :   1.1316
B( 53-C , 91-H ) :   1.0166 B( 55-C , 56-C ) :   1.1189 B( 55-C , 59-C ) :   1.0213
B( 56-C , 57-C ) :   1.4918 B( 56-C , 92-H ) :   1.0222 B( 57-C , 58-C ) :   1.0179
B( 57-C , 61-C ) :   1.1292 B( 58-C , 59-C ) :   1.6674 B( 58-C , 93-H ) :   1.0154
B( 59-C , 60-F ) :   1.1294 B( 61-C , 62-C ) :   1.5260 B( 61-C , 94-H ) :   0.9916
B( 62-C , 63-C ) :   1.1680 B( 62-C , 95-H ) :   0.9778 B( 63-C , 64-C ) :   1.5313
B( 63-C , 96-H ) :   0.9635 B( 64-C , 65-C ) :   1.0674 B( 64-C , 73-C ) :   0.9468
B( 65-C , 66-C ) :   1.6374 B( 65-C , 71-C ) :   0.9926 B( 66-C , 67-C ) :   1.1389
B( 66-C , 69-C ) :   1.1471 B( 67-C , 68-N ) :   2.9726 B( 69-C , 70-N ) :   2.9626
B( 71-C , 72-C ) :   1.3290 B( 71-C , 78-C ) :   1.3424 B( 72-C , 73-C ) :   0.9468
B( 72-C , 75-C ) :   1.3437 B( 73-C , 74-O ) :   2.2006 B( 75-C , 76-C ) :   1.3438
B( 75-C , 97-H ) :   1.0167 B( 76-C , 77-C ) :   1.4031 B( 76-C , 80-Cl) :   1.0492
B( 77-C , 78-C ) :   1.3608 B( 77-C , 79-Cl) :   1.0789 B( 78-C , 98-H ) :   0.9850

-----------------------------------------------------------------------------
         ABSORPTION SPECTRUM VIA TRANSITION ELECTRIC DIPOLE MOMENTS
-----------------------------------------------------------------------------
State   Energy  Wavelength   fosc         T2         TX        TY        TZ
        (cm-1)    (nm)                  (au**2)     (au)      (au)      (au)
-----------------------------------------------------------------------------
   0    8409.1   1189.2   1.187738584  46.49952  -5.24299  -4.34203   0.39662
   1   14009.1    713.8   0.114747705   2.69655  -0.89022   1.35566  -0.25739
   2   14432.3    692.9   0.048871766   1.11480  -0.94025  -0.47696   0.05700
   3   15083.0    663.0   0.236311131   5.15787  -2.08824  -0.84546  -0.28693
   4   15367.5    650.7   0.041604124   0.89127   0.58759   0.70912  -0.20776
   5   16431.9    608.6   0.049754241   0.99682   0.91708   0.36435  -0.15176
   6   19384.9    515.9   0.590930082  10.03574  -2.57260  -1.84859   0.01410
   7   21296.0    469.6   0.211300850   3.26647   1.23253   1.31997  -0.07080
   8   21923.0    456.1   0.362771835   5.44764  -2.31116   0.30065  -0.12565
   9   22615.0    442.2   0.024677153   0.35923  -0.27036  -0.13638   0.51724
  10   23507.1    425.4   0.065358334   0.91533  -0.66163  -0.34267  -0.60013
  11   24112.1    414.7   0.202073432   2.75898  -1.41608  -0.72389  -0.47926
  12   24429.1    409.3   0.048697624   0.65626  -0.38574  -0.64722   0.29761
  13   24599.7    406.5   0.029291658   0.39200   0.13869  -0.48257   0.37403
  14   24974.1    400.4   0.145243816   1.91462  -0.77102  -1.07797   0.39764
  15   25751.5    388.3   0.083372819   1.06585  -0.04454  -0.89977   0.50427
  16   25991.3    384.7   0.027113476   0.34343  -0.08325  -0.58007  -0.00409
  17   26049.0    383.9   0.161109684   2.03613   1.22499   0.71481  -0.15674
  18   26147.4    382.4   0.017422164   0.21936   0.35588  -0.29832   0.06093
  19   26676.8    374.9   0.174678499   2.15566  -1.43868  -0.27341  -0.10535
  20   26702.9    374.5   0.004107903   0.05065   0.19056   0.11971  -0.00042
  21   27310.7    366.2   0.016370542   0.19734  -0.09273   0.39859  -0.17281
  22   27624.2    362.0   0.015796314   0.18825   0.34439  -0.02038   0.26312
  23   27940.0    357.9   0.177378092   2.09002   1.43655   0.15585  -0.04535
  24   28176.5    354.9   0.038485400   0.44966  -0.11311  -0.66050   0.02463
  25   28648.6    349.1   0.040468677   0.46504   0.66436  -0.01176  -0.15337
  26   29239.3    342.0   0.110573748   1.24497   0.90579   0.53838   0.36697
  27   29361.3    340.6   0.014152398   0.15868  -0.37624   0.00956   0.13053
  28   29632.6    337.5   0.003022990   0.03358   0.15508   0.09182   0.03325
  29   29815.0    335.4   0.023903279   0.26394   0.46405  -0.01821   0.21969
  30   30557.0    327.3   0.030787705   0.33170   0.30099   0.21781   0.44007
  31   30696.4    325.8   0.024117651   0.25866   0.38535  -0.18227   0.27737
  32   30962.4    323.0   0.283214810   3.01132   1.53312  -0.56278   0.58663
  33   30992.0    322.7   0.022270013   0.23656   0.24092   0.42073   0.03883
  34   31220.2    320.3   0.359673800   3.79270   0.41933  -1.43829   1.24426
  35   31652.4    315.9   0.368563613   3.83338  -1.52697   0.98615  -0.72750
  36   31765.1    314.8   0.000373883   0.00387   0.02290  -0.05446  -0.01963
  37   32039.7    312.1   0.066710956   0.68546   0.16048  -0.27425   0.76453
  38   32643.2    306.3   0.053690987   0.54148  -0.28728  -0.59330   0.32703
  39   32898.0    304.0   0.057342888   0.57383   0.74702  -0.01106  -0.12522
  40   33128.0    301.9   0.022031241   0.21894   0.42418  -0.06058   0.18798
  41   33375.0    299.6   0.028459421   0.28072   0.50617   0.08969   0.12835
  42   33782.2    296.0   0.023060459   0.22473  -0.31158   0.17719  -0.31024
  43   33912.0    294.9   0.149964254   1.45583   1.15901  -0.07177  -0.32769
  44   34319.0    291.4   0.420550250   4.03422  -1.50486  -1.18520   0.60407
  45   34817.9    287.2   0.020108662   0.19013   0.39697  -0.11404  -0.13978
  46   34995.6    285.7   0.542482874   5.10326  -1.04947   1.96950  -0.35064
  47   35076.7    285.1   0.040395317   0.37913   0.33377  -0.50889   0.09362
  48   35293.6    283.3   0.110885409   1.03432  -0.56885  -0.80398   0.25367
  49   35439.9    282.2   0.048689590   0.45229   0.49398   0.42610  -0.16344
  50   35596.8    280.9   0.252329269   2.33363   1.10200   0.87235  -0.59853
  51   35861.4    278.9   0.012291994   0.11284   0.12665  -0.22714  -0.21263
  52   35916.7    278.4   0.069878046   0.64050   0.77678   0.19181   0.01809
  53   36183.4    276.4   0.008253026   0.07509  -0.01753  -0.24351   0.12444
  54   36303.3    275.5   0.009429084   0.08551   0.05873   0.20438  -0.20071
  55   36484.6    274.1   0.058973885   0.53214  -0.16524   0.61037  -0.36371
  56   36556.7    273.5   0.004718350   0.04249   0.08847  -0.16357   0.08892
  57   36617.4    273.1   0.028791466   0.25885  -0.26133  -0.34395   0.26881
  58   36785.4    271.8   0.034528448   0.30901   0.52343   0.06091   0.17700
  59   36922.1    270.8   0.011589868   0.10334   0.19183   0.25104  -0.05933
  60   37120.8    269.4   0.027871778   0.24719  -0.08062  -0.41291   0.26493
  61   37530.4    266.5   0.034506594   0.30269  -0.49321  -0.23505   0.06472
  62   37849.4    264.2   0.005967840   0.05191  -0.11967  -0.13822   0.13596
  63   38126.7    262.3   0.010582556   0.09138  -0.17798   0.00682   0.24424
  64   38181.0    261.9   0.020211547   0.17427   0.35584  -0.00979   0.21807
  65   38281.6    261.2   0.025413386   0.21855   0.42288   0.16857  -0.10634
  66   38409.4    260.4   0.018816875   0.16128  -0.37099  -0.11628  -0.10063
  67   38526.2    259.6   0.005615593   0.04799  -0.06538   0.20906   0.00257
  68   38608.5    259.0   0.117482300   1.00176   0.52404  -0.51874   0.67680
  69   38799.9    257.7   0.016324464   0.13851  -0.25827   0.24385  -0.11110
  70   38858.7    257.3   0.017954968   0.15211   0.32414   0.12386   0.17807
  71   38983.7    256.5   0.034500449   0.29135   0.44299   0.22626   0.20957
  72   39438.7    253.6   0.013765465   0.11491  -0.26014   0.06068  -0.20868
  73   39603.2    252.5   0.063692605   0.52946   0.39849  -0.28910   0.53581
  74   39833.5    251.0   0.066853244   0.55252  -0.14458   0.63061  -0.36600
  75   39917.2    250.5   0.043753237   0.36085  -0.03429  -0.48204   0.35681
  76   40094.3    249.4   0.005539488   0.04548  -0.08807   0.18234   0.06694

FINAL SINGLE POINT ENERGY     -5628.369078515981

DIPOLE MOMENT
-------------
                                X             Y             Z
Electronic contribution:      3.77335      13.39393       5.71863
Nuclear contribution   :     -4.04932     -10.87103      -8.40479
                        -----------------------------------------
Total Dipole Moment    :     -0.27597       2.52289      -2.68617
                        -----------------------------------------
Magnitude (a.u.)       :      3.69549
Magnitude (Debye)      :      9.39319

Rotational constants in cm-1:     0.001615     0.000117     0.000111
Rotational constants in MHz :    48.420366     3.509444     3.325771

                             ****ORCA TERMINATED NORMALLY****
TOTAL RUN TIME: 0 days 0 hours 11 minutes 58 seconds 883 msec
