                         Program Version 4.2.0 -  RELEASE  -
|  1> # ORCA input file
|  2> # SCF done       -195.960494296269          0.000919999792
|  3> ! CAM-B3LYP def2-SVP def2/J RIJCOSX Grid4 TightSCF
|  4> %maxcore 5000
|  5> %tddft
|  6>     Mode sTDDFT
|  7>     Ethresh 5.0
|  8>     maxcore 5000
|  9> end
| 10>
| 11> %pal
| 12>   nprocs 6
| 13>   end
| 14> * xyz 0 1
| 15>    C        0.94084        -1.56974        -0.34125
| 16>    C        0.97414        -2.70718        -1.10233
| 17>    C        0.62241        -2.75016        -2.46909
| 18>    N        0.34027        -2.85203        -3.57646
| 19>    C        1.43789        -3.96119        -0.65464
| 20>    N        1.83405        -5.00045        -0.37156
| 21>    C        0.70378        -0.22485        -0.86523
| 22>    C        1.19992         0.71901         0.05292
| 23>    C        1.15282         2.07444        -0.20382
| 24>    C        0.58719         2.50029        -1.39930
| 25>    C        0.07422         1.56771        -2.30988
| 26>    C        0.13121         0.20240        -2.05151
| 27>   Cl       -0.63793         2.10922        -3.77372
| 28>   Cl        0.51495         4.17661        -1.75800
| 29>    C        1.71990         0.01903         1.24554
| 30>    O        2.26644         0.49489         2.21142
| 31>    C        1.37951        -1.41800         1.03228
| 32>    C        1.45437        -2.27236         2.08942
| 33>    C        0.88826        -3.56150         2.24835
| 34>    C       -0.19592        -4.10595         1.60208
| 35>    C       -0.39949        -5.44017         2.07885
| 36>    C        0.62791        -5.64166         3.10116
| 37>    C        1.38032        -4.53779         3.22548
| 38>    F        0.75634        -6.77737         3.79262
| 39>    C       -1.29347        -6.36587         1.60581
| 40>    C       -1.41662        -7.74325         1.95407
| 41>    C       -2.37338        -8.32657         1.15608
| 42>    C       -2.93097        -7.29200         0.26988
| 43>    C       -2.28679        -6.15089         0.54248
| 44>    F       -2.49036        -4.96631        -0.04206
| 45>    C       -2.71191        -9.70134         1.14165
| 46>    C       -3.60774       -10.26372         0.29216
| 47>    C       -3.87575       -11.65683         0.20965
| 48>    C       -4.72100       -12.29171        -0.68624
| 49>    C       -5.49138       -11.52369        -1.70876
| 50>    O       -6.68530       -11.48321        -1.75620
| 51>    O       -4.73769       -10.83235        -2.58433
| 52>    C       -4.73979       -13.70584        -0.53205
| 53>    C       -3.90239       -14.10489         0.48709
| 54>    S       -3.12369       -12.81554         1.27884
| 55>    C       -5.43426       -14.65586        -1.36933
| 56>    C       -4.95204       -15.88087        -1.72926
| 57>    C       -5.89065       -16.50505        -2.61970
| 58>    C       -7.01003       -15.55927        -2.71069
| 59>    C       -6.75038       -14.45955        -1.98843
| 60>    F       -8.11187       -15.80408        -3.42503
| 61>    C       -5.74284       -17.67323        -3.31622
| 62>    C       -6.62303       -18.23934        -4.29412
| 63>    C       -6.04035       -19.36784        -4.82474
| 64>    C       -4.74587       -19.57533        -4.16047
| 65>    C       -4.58960       -18.57988        -3.27714
| 66>    F       -3.54537       -18.39864        -2.46129
| 67>    C       -6.58128       -20.16446        -5.86067
| 68>    C       -5.93497       -21.20948        -6.45148
| 69>    C       -6.51052       -21.93451        -7.51636
| 70>    C       -5.88837       -22.94757        -8.19455
| 71>    C       -6.42472       -23.71031        -9.30697
| 72>    C       -7.67801       -23.61181        -9.85138
| 73>    C       -8.13357       -24.39026       -10.93785
| 74>    N       -8.57064       -24.98455       -11.81682
| 75>    C       -8.69837       -22.73780        -9.41828
| 76>    N       -9.58018       -22.06277        -9.12673
| 77>    C       -5.38050       -24.62989        -9.75445
| 78>    C       -4.24708       -24.46696        -8.93917
| 79>    C       -4.50877       -23.42643        -7.92327
| 80>    O       -3.74186       -23.05300        -7.06244
| 81>    C       -3.09764       -25.20609        -9.13151
| 82>    C       -3.07520       -26.13323       -10.16563
| 83>    C       -4.19914       -26.30276       -10.98352
| 84>    C       -5.35532       -25.55620       -10.78481
| 85>   Cl       -4.15866       -27.44993       -12.25980
| 86>   Cl       -1.66468       -27.07101       -10.44081
| 87>    H        1.54738         2.78322         0.50692
| 88>    H       -0.27819        -0.48727        -2.77153
| 89>    H        1.98394        -1.87635         2.95181
| 90>    H       -0.81912        -3.61585         0.88025
| 91>    H        2.21447        -4.38112         3.88074
| 92>    H       -0.82722        -8.24114         2.69863
| 93>    H       -3.70691        -7.43304        -0.45592
| 94>    H       -2.17919       -10.33494         1.83980
| 95>    H       -4.16026        -9.63531        -0.39252
| 96>    H       -3.78836       -10.97427        -2.46978
| 97>    H       -3.73741       -15.11037         0.81979
| 98>    H       -4.00356       -16.29824        -1.45554
| 99>    H       -7.37296       -13.59735        -1.85571
|100>    H       -7.57071       -17.82476        -4.57765
|101>    H       -4.06630       -20.38138        -4.35309
|102>    H       -7.56853       -19.88846        -6.21239
|103>    H       -4.94633       -21.49378        -6.12691
|104>    H       -7.51053       -21.64473        -7.81259
|105>    H       -2.23992       -25.06412        -8.49316
|106>    H       -6.19880       -25.71476       -11.43627
|107> *
|108>
|109>                          ****END OF INPUT****

CARTESIAN COORDINATES (ANGSTROEM)
---------------------------------
  C      0.940840   -1.569740   -0.341250
  C      0.974140   -2.707180   -1.102330
  C      0.622410   -2.750160   -2.469090
  N      0.340270   -2.852030   -3.576460
  C      1.437890   -3.961190   -0.654640
  N      1.834050   -5.000450   -0.371560
  C      0.703780   -0.224850   -0.865230
  C      1.199920    0.719010    0.052920
  C      1.152820    2.074440   -0.203820
  C      0.587190    2.500290   -1.399300
  C      0.074220    1.567710   -2.309880
  C      0.131210    0.202400   -2.051510
  Cl    -0.637930    2.109220   -3.773720
  Cl     0.514950    4.176610   -1.758000
  C      1.719900    0.019030    1.245540
  O      2.266440    0.494890    2.211420
  C      1.379510   -1.418000    1.032280
  C      1.454370   -2.272360    2.089420
  C      0.888260   -3.561500    2.248350
  C     -0.195920   -4.105950    1.602080
  C     -0.399490   -5.440170    2.078850
  C      0.627910   -5.641660    3.101160
  C      1.380320   -4.537790    3.225480
  F      0.756340   -6.777370    3.792620
  C     -1.293470   -6.365870    1.605810
  C     -1.416620   -7.743250    1.954070
  C     -2.373380   -8.326570    1.156080
  C     -2.930970   -7.292000    0.269880
  C     -2.286790   -6.150890    0.542480
  F     -2.490360   -4.966310   -0.042060
  C     -2.711910   -9.701340    1.141650
  C     -3.607740  -10.263720    0.292160
  C     -3.875750  -11.656830    0.209650
  C     -4.721000  -12.291710   -0.686240
  C     -5.491380  -11.523690   -1.708760
  O     -6.685300  -11.483210   -1.756200
  O     -4.737690  -10.832350   -2.584330
  C     -4.739790  -13.705840   -0.532050
  C     -3.902390  -14.104890    0.487090
  S     -3.123690  -12.815540    1.278840
  C     -5.434260  -14.655860   -1.369330
  C     -4.952040  -15.880870   -1.729260
  C     -5.890650  -16.505050   -2.619700
  C     -7.010030  -15.559270   -2.710690
  C     -6.750380  -14.459550   -1.988430
  F     -8.111870  -15.804080   -3.425030
  C     -5.742840  -17.673230   -3.316220
  C     -6.623030  -18.239340   -4.294120
  C     -6.040350  -19.367840   -4.824740
  C     -4.745870  -19.575330   -4.160470
  C     -4.589600  -18.579880   -3.277140
  F     -3.545370  -18.398640   -2.461290
  C     -6.581280  -20.164460   -5.860670
  C     -5.934970  -21.209480   -6.451480
  C     -6.510520  -21.934510   -7.516360
  C     -5.888370  -22.947570   -8.194550
  C     -6.424720  -23.710310   -9.306970
  C     -7.678010  -23.611810   -9.851380
  C     -8.133570  -24.390260  -10.937850
  N     -8.570640  -24.984550  -11.816820
  C     -8.698370  -22.737800   -9.418280
  N     -9.580180  -22.062770   -9.126730
  C     -5.380500  -24.629890   -9.754450
  C     -4.247080  -24.466960   -8.939170
  C     -4.508770  -23.426430   -7.923270
  O     -3.741860  -23.053000   -7.062440
  C     -3.097640  -25.206090   -9.131510
  C     -3.075200  -26.133230  -10.165630
  C     -4.199140  -26.302760  -10.983520
  C     -5.355320  -25.556200  -10.784810
  Cl    -4.158660  -27.449930  -12.259800
  Cl    -1.664680  -27.071010  -10.440810
  H      1.547380    2.783220    0.506920
  H     -0.278190   -0.487270   -2.771530
  H      1.983940   -1.876350    2.951810
  H     -0.819120   -3.615850    0.880250
  H      2.214470   -4.381120    3.880740
  H     -0.827220   -8.241140    2.698630
  H     -3.706910   -7.433040   -0.455920
  H     -2.179190  -10.334940    1.839800
  H     -4.160260   -9.635310   -0.392520
  H     -3.788360  -10.974270   -2.469780
  H     -3.737410  -15.110370    0.819790
  H     -4.003560  -16.298240   -1.455540
  H     -7.372960  -13.597350   -1.855710
  H     -7.570710  -17.824760   -4.577650
  H     -4.066300  -20.381380   -4.353090
  H     -7.568530  -19.888460   -6.212390
  H     -4.946330  -21.493780   -6.126910
  H     -7.510530  -21.644730   -7.812590
  H     -2.239920  -25.064120   -8.493160
  H     -6.198800  -25.714760  -11.436270

 Total Charge           Charge          ....    0
 Multiplicity           Mult            ....    1
 Number of Electrons    NEL             ....  530
 Basis Dimension        Dim             .... 1128

ORBITAL ENERGIES
----------------

  NO   OCC          E(Eh)            E(eV)
   0   2.0000    -101.604732     -2764.8053
   1   2.0000    -101.603911     -2764.7830
   2   2.0000    -101.603288     -2764.7660
   3   2.0000    -101.601498     -2764.7173
   4   2.0000     -88.988081     -2421.4888
   5   2.0000     -24.807348      -675.0423
   6   2.0000     -24.801072      -674.8715
   7   2.0000     -24.799148      -674.8191
   8   2.0000     -24.797166      -674.7652
   9   2.0000     -19.279946      -524.6340
  10   2.0000     -19.227024      -523.1939
  11   2.0000     -19.226809      -523.1881
  12   2.0000     -19.221920      -523.0550
  13   2.0000     -14.424591      -392.5131
  14   2.0000     -14.424431      -392.5087
  15   2.0000     -14.423277      -392.4773
  16   2.0000     -14.420557      -392.4033
  17   2.0000     -10.426150      -283.7100
  18   2.0000     -10.377761      -282.3932
  19   2.0000     -10.377542      -282.3873
  20   2.0000     -10.374391      -282.3015
  21   2.0000     -10.367548      -282.1153
  22   2.0000     -10.365537      -282.0606
  23   2.0000     -10.363250      -281.9984
  24   2.0000     -10.362176      -281.9691
  25   2.0000     -10.361317      -281.9458
  26   2.0000     -10.359603      -281.8991
  27   2.0000     -10.359226      -281.8889
  28   2.0000     -10.355222      -281.7799
  29   2.0000     -10.353254      -281.7264
  30   2.0000     -10.350945      -281.6635
  31   2.0000     -10.348965      -281.6097
  32   2.0000     -10.337011      -281.2844
  33   2.0000     -10.326666      -281.0029
  34   2.0000     -10.326567      -281.0002
  35   2.0000     -10.325589      -280.9736
  36   2.0000     -10.325527      -280.9719
  37   2.0000     -10.324882      -280.9543
  38   2.0000     -10.324017      -280.9308
  39   2.0000     -10.322968      -280.9022
  40   2.0000     -10.322933      -280.9013
  41   2.0000     -10.321750      -280.8691
  42   2.0000     -10.320783      -280.8428
  43   2.0000     -10.319490      -280.8076
  44   2.0000     -10.319433      -280.8061
  45   2.0000     -10.319157      -280.7985
  46   2.0000     -10.316639      -280.7300
  47   2.0000     -10.316189      -280.7178
  48   2.0000     -10.315381      -280.6958
  49   2.0000     -10.314881      -280.6822
  50   2.0000     -10.314261      -280.6653
  51   2.0000     -10.312730      -280.6237
  52   2.0000     -10.312047      -280.6051
  53   2.0000     -10.311746      -280.5969
  54   2.0000     -10.311266      -280.5838
  55   2.0000     -10.309137      -280.5259
  56   2.0000     -10.308336      -280.5041
  57   2.0000     -10.308277      -280.5025
  58   2.0000     -10.307745      -280.4880
  59   2.0000     -10.305027      -280.4140
  60   2.0000     -10.304954      -280.4120
  61   2.0000     -10.304428      -280.3977
  62   2.0000     -10.303607      -280.3754
  63   2.0000     -10.294393      -280.1247
  64   2.0000     -10.292533      -280.0740
  65   2.0000     -10.292396      -280.0703
  66   2.0000     -10.289665      -279.9960
  67   2.0000     -10.286138      -279.9000
  68   2.0000     -10.285826      -279.8916
  69   2.0000     -10.282982      -279.8142
  70   2.0000     -10.279912      -279.7306
  71   2.0000     -10.278128      -279.6821
  72   2.0000      -9.559812      -260.1357
  73   2.0000      -9.559017      -260.1141
  74   2.0000      -9.558326      -260.0953
  75   2.0000      -9.556565      -260.0473
  76   2.0000      -8.083856      -219.9729
  77   2.0000      -7.330214      -199.4653
  78   2.0000      -7.329402      -199.4432
  79   2.0000      -7.328721      -199.4246
  80   2.0000      -7.326927      -199.3758
  81   2.0000      -7.320061      -199.1890
  82   2.0000      -7.319318      -199.1688
  83   2.0000      -7.319270      -199.1675
  84   2.0000      -7.318583      -199.1488
  85   2.0000      -7.318529      -199.1473
  86   2.0000      -7.317846      -199.1287
  87   2.0000      -7.316835      -199.1012
  88   2.0000      -7.316097      -199.0811
  89   2.0000      -6.052929      -164.7086
  90   2.0000      -6.048762      -164.5952
  91   2.0000      -6.046372      -164.5302
  92   2.0000      -1.320305       -35.9273
  93   2.0000      -1.313933       -35.7539
  94   2.0000      -1.312379       -35.7117
  95   2.0000      -1.310490       -35.6602
  96   2.0000      -1.203063       -32.7370
  97   2.0000      -1.142716       -31.0949
  98   2.0000      -1.141720       -31.0678
  99   2.0000      -1.119680       -30.4680
 100   2.0000      -1.037488       -28.2315
 101   2.0000      -1.034665       -28.1547
 102   2.0000      -1.023720       -27.8568
 103   2.0000      -1.020928       -27.7809
 104   2.0000      -1.019709       -27.7477
 105   2.0000      -1.007071       -27.4038
 106   2.0000      -1.001988       -27.2655
 107   2.0000      -1.001173       -27.2433
 108   2.0000      -1.000333       -27.2205
 109   2.0000      -0.998220       -27.1629
 110   2.0000      -0.995200       -27.0808
 111   2.0000      -0.986477       -26.8434
 112   2.0000      -0.981467       -26.7071
 113   2.0000      -0.967019       -26.3139
 114   2.0000      -0.964814       -26.2539
 115   2.0000      -0.941966       -25.6322
 116   2.0000      -0.940305       -25.5870
 117   2.0000      -0.927790       -25.2465
 118   2.0000      -0.924621       -25.1602
 119   2.0000      -0.912010       -24.8171
 120   2.0000      -0.898624       -24.4528
 121   2.0000      -0.887823       -24.1589
 122   2.0000      -0.884149       -24.0589
 123   2.0000      -0.872536       -23.7429
 124   2.0000      -0.867031       -23.5931
 125   2.0000      -0.865842       -23.5608
 126   2.0000      -0.864127       -23.5141
 127   2.0000      -0.853177       -23.2161
 128   2.0000      -0.845558       -23.0088
 129   2.0000      -0.822960       -22.3939
 130   2.0000      -0.817018       -22.2322
 131   2.0000      -0.815069       -22.1792
 132   2.0000      -0.804609       -21.8945
 133   2.0000      -0.793767       -21.5995
 134   2.0000      -0.782839       -21.3021
 135   2.0000      -0.776005       -21.1162
 136   2.0000      -0.771375       -20.9902
 137   2.0000      -0.761298       -20.7160
 138   2.0000      -0.755990       -20.5715
 139   2.0000      -0.740347       -20.1459
 140   2.0000      -0.729475       -19.8500
 141   2.0000      -0.725032       -19.7291
 142   2.0000      -0.722526       -19.6609
 143   2.0000      -0.705379       -19.1943
 144   2.0000      -0.702397       -19.1132
 145   2.0000      -0.700112       -19.0510
 146   2.0000      -0.695395       -18.9227
 147   2.0000      -0.694594       -18.9009
 148   2.0000      -0.692634       -18.8475
 149   2.0000      -0.684770       -18.6335
 150   2.0000      -0.680211       -18.5095
 151   2.0000      -0.674888       -18.3646
 152   2.0000      -0.673930       -18.3386
 153   2.0000      -0.669309       -18.2128
 154   2.0000      -0.665794       -18.1172
 155   2.0000      -0.657942       -17.9035
 156   2.0000      -0.647537       -17.6204
 157   2.0000      -0.641077       -17.4446
 158   2.0000      -0.637876       -17.3575
 159   2.0000      -0.634322       -17.2608
 160   2.0000      -0.630400       -17.1541
 161   2.0000      -0.628500       -17.1024
 162   2.0000      -0.621198       -16.9036
 163   2.0000      -0.613809       -16.7026
 164   2.0000      -0.605456       -16.4753
 165   2.0000      -0.600730       -16.3467
 166   2.0000      -0.594337       -16.1727
 167   2.0000      -0.588093       -16.0028
 168   2.0000      -0.581653       -15.8276
 169   2.0000      -0.580193       -15.7878
 170   2.0000      -0.576332       -15.6828
 171   2.0000      -0.575337       -15.6557
 172   2.0000      -0.571610       -15.5543
 173   2.0000      -0.567741       -15.4490
 174   2.0000      -0.566012       -15.4020
 175   2.0000      -0.565771       -15.3954
 176   2.0000      -0.564130       -15.3507
 177   2.0000      -0.562510       -15.3067
 178   2.0000      -0.559901       -15.2357
 179   2.0000      -0.557465       -15.1694
 180   2.0000      -0.556271       -15.1369
 181   2.0000      -0.555417       -15.1137
 182   2.0000      -0.552615       -15.0374
 183   2.0000      -0.551638       -15.0108
 184   2.0000      -0.551220       -14.9995
 185   2.0000      -0.549547       -14.9539
 186   2.0000      -0.545745       -14.8505
 187   2.0000      -0.544882       -14.8270
 188   2.0000      -0.541231       -14.7276
 189   2.0000      -0.538976       -14.6663
 190   2.0000      -0.536558       -14.6005
 191   2.0000      -0.532962       -14.5026
 192   2.0000      -0.529432       -14.4066
 193   2.0000      -0.523364       -14.2415
 194   2.0000      -0.520035       -14.1509
 195   2.0000      -0.517556       -14.0834
 196   2.0000      -0.513715       -13.9789
 197   2.0000      -0.512558       -13.9474
 198   2.0000      -0.511876       -13.9288
 199   2.0000      -0.507027       -13.7969
 200   2.0000      -0.506145       -13.7729
 201   2.0000      -0.502609       -13.6767
 202   2.0000      -0.500756       -13.6263
 203   2.0000      -0.497982       -13.5508
 204   2.0000      -0.493365       -13.4251
 205   2.0000      -0.491739       -13.3809
 206   2.0000      -0.490117       -13.3368
 207   2.0000      -0.489044       -13.3076
 208   2.0000      -0.488423       -13.2907
 209   2.0000      -0.485994       -13.2246
 210   2.0000      -0.484561       -13.1856
 211   2.0000      -0.481513       -13.1026
 212   2.0000      -0.477612       -12.9965
 213   2.0000      -0.474856       -12.9215
 214   2.0000      -0.474112       -12.9012
 215   2.0000      -0.470812       -12.8115
 216   2.0000      -0.469948       -12.7879
 217   2.0000      -0.468004       -12.7350
 218   2.0000      -0.464367       -12.6361
 219   2.0000      -0.461494       -12.5579
 220   2.0000      -0.457746       -12.4559
 221   2.0000      -0.456990       -12.4353
 222   2.0000      -0.456284       -12.4161
 223   2.0000      -0.454546       -12.3688
 224   2.0000      -0.450038       -12.2462
 225   2.0000      -0.448415       -12.2020
 226   2.0000      -0.445208       -12.1147
 227   2.0000      -0.441960       -12.0263
 228   2.0000      -0.441848       -12.0233
 229   2.0000      -0.436570       -11.8797
 230   2.0000      -0.434059       -11.8114
 231   2.0000      -0.433782       -11.8038
 232   2.0000      -0.432711       -11.7747
 233   2.0000      -0.432620       -11.7722
 234   2.0000      -0.431499       -11.7417
 235   2.0000      -0.430707       -11.7201
 236   2.0000      -0.427853       -11.6425
 237   2.0000      -0.425869       -11.5885
 238   2.0000      -0.421437       -11.4679
 239   2.0000      -0.415949       -11.3185
 240   2.0000      -0.415315       -11.3013
 241   2.0000      -0.413196       -11.2436
 242   2.0000      -0.410535       -11.1712
 243   2.0000      -0.410038       -11.1577
 244   2.0000      -0.399713       -10.8767
 245   2.0000      -0.389537       -10.5998
 246   2.0000      -0.386265       -10.5108
 247   2.0000      -0.384235       -10.4556
 248   2.0000      -0.377078       -10.2608
 249   2.0000      -0.369434       -10.0528
 250   2.0000      -0.360698        -9.8151
 251   2.0000      -0.349609        -9.5133
 252   2.0000      -0.347630        -9.4595
 253   2.0000      -0.346331        -9.4241
 254   2.0000      -0.345081        -9.3901
 255   2.0000      -0.338562        -9.2128
 256   2.0000      -0.333929        -9.0867
 257   2.0000      -0.322737        -8.7821
 258   2.0000      -0.318661        -8.6712
 259   2.0000      -0.315994        -8.5986
 260   2.0000      -0.313912        -8.5420
 261   2.0000      -0.296754        -8.0751
 262   2.0000      -0.291719        -7.9381
 263   2.0000      -0.278014        -7.5651
 264   2.0000      -0.267862        -7.2889
 265   0.0000      -0.126847        -3.4517
 266   0.0000      -0.122214        -3.3256
 267   0.0000      -0.085386        -2.3235
 268   0.0000      -0.083117        -2.2617
 269   0.0000      -0.064949        -1.7673

MULLIKEN ATOMIC CHARGES
-----------------------
   0 C :    0.270066
   1 C :   -0.328473
   2 C :   -0.183526
   3 N :    0.165644
   4 C :   -0.202228
   5 N :    0.186919
   6 C :    0.014198
   7 C :   -0.000999
   8 C :   -0.025504
   9 C :    0.058722
  10 C :    0.049942
  11 C :   -0.013204
  12 Cl:   -0.032280
  13 Cl:   -0.039914
  14 C :    0.135702
  15 O :   -0.132400
  16 C :   -0.112179
  17 C :    0.038991
  18 C :    0.065572
  19 C :   -0.051271
  20 C :   -0.007897
  21 C :    0.266415
  22 C :   -0.060199
  23 F :   -0.173755
  24 C :    0.024845
  25 C :   -0.077824
  26 C :    0.112034
  27 C :   -0.080155
  28 C :    0.265128
  29 F :   -0.169678
  30 C :    0.000692
  31 C :   -0.017695
  32 C :   -0.114306
  33 C :   -0.037581
  34 C :    0.166261
  35 O :   -0.162563
  36 O :   -0.160365
  37 C :    0.113076
  38 C :   -0.105122
  39 S :    0.157359
  40 C :    0.050813
  41 C :   -0.087806
  42 C :    0.016686
  43 C :    0.254611
  44 C :   -0.076452
  45 F :   -0.171107
  46 C :   -0.006149
  47 C :   -0.052595
  48 C :    0.097289
  49 C :   -0.070759
  50 C :    0.256858
  51 F :   -0.174236
  52 C :    0.035610
  53 C :   -0.010440
  54 C :   -0.024360
  55 C :   -0.072414
  56 C :    0.325465
  57 C :   -0.339520
  58 C :   -0.190654
  59 N :    0.159365
  60 C :   -0.191797
  61 N :    0.152492
  62 C :    0.029572
  63 C :   -0.013799
  64 C :    0.151038
  65 O :   -0.146878
  66 C :   -0.029456
  67 C :    0.063632
  68 C :    0.044071
  69 C :   -0.012223
  70 Cl:   -0.032723
  71 Cl:   -0.041647
  72 H :    0.000988
  73 H :    0.004558
  74 H :    0.023361
  75 H :    0.008084
  76 H :   -0.009218
  77 H :   -0.006775
  78 H :   -0.003244
  79 H :   -0.003961
  80 H :    0.011505
  81 H :    0.193515
  82 H :    0.037209
  83 H :   -0.013598
  84 H :    0.014765
  85 H :    0.000338
  86 H :    0.000556
  87 H :    0.005696
  88 H :    0.028323
  89 H :    0.011457
  90 H :   -0.000294
  91 H :    0.001799
Sum of atomic charges:   -0.0000000

LOEWDIN ATOMIC CHARGES
----------------------
   0 C :    0.064247
   1 C :   -0.128216
   2 C :   -0.021623
   3 N :   -0.042010
   4 C :   -0.015587
   5 N :   -0.034872
   6 C :   -0.010768
   7 C :   -0.046727
   8 C :    0.002902
   9 C :   -0.135037
  10 C :   -0.128888
  11 C :   -0.014350
  12 Cl:    0.165603
  13 Cl:    0.161543
  14 C :    0.083731
  15 O :   -0.132345
  16 C :   -0.081498
  17 C :    0.071338
  18 C :   -0.028419
  19 C :    0.002686
  20 C :   -0.003077
  21 C :    0.078305
  22 C :   -0.044255
  23 F :   -0.049396
  24 C :    0.024230
  25 C :   -0.049341
  26 C :    0.010050
  27 C :   -0.051338
  28 C :    0.086467
  29 F :   -0.045952
  30 C :   -0.014110
  31 C :   -0.032731
  32 C :   -0.167430
  33 C :   -0.095407
  34 C :    0.085727
  35 O :   -0.132132
  36 O :   -0.023828
  37 C :   -0.049945
  38 C :   -0.155614
  39 S :    0.475384
  40 C :    0.007265
  41 C :   -0.057849
  42 C :    0.018441
  43 C :    0.073126
  44 C :   -0.046488
  45 F :   -0.047762
  46 C :   -0.004065
  47 C :   -0.013476
  48 C :   -0.014453
  49 C :   -0.048304
  50 C :    0.078578
  51 F :   -0.050529
  52 C :    0.039611
  53 C :   -0.027993
  54 C :    0.071021
  55 C :   -0.093940
  56 C :    0.072823
  57 C :   -0.132078
  58 C :   -0.020455
  59 N :   -0.044646
  60 C :   -0.019915
  61 N :   -0.045979
  62 C :   -0.013132
  63 C :   -0.043801
  64 C :    0.085896
  65 O :   -0.140186
  66 C :    0.001026
  67 C :   -0.134052
  68 C :   -0.130077
  69 C :   -0.012381
  70 Cl:    0.163940
  71 Cl:    0.160589
  72 H :    0.046815
  73 H :    0.044845
  74 H :    0.049134
  75 H :    0.025848
  76 H :    0.034292
  77 H :    0.027627
  78 H :    0.033923
  79 H :    0.029712
  80 H :    0.034867
  81 H :    0.100050
  82 H :    0.031781
  83 H :    0.022586
  84 H :    0.036845
  85 H :    0.029750
  86 H :    0.036810
  87 H :    0.040511
  88 H :    0.032812
  89 H :    0.042928
  90 H :    0.045957
  91 H :    0.044836

  Mayer bond orders larger than 0.100000
B(  0-C ,  1-C ) :   1.6642 B(  0-C ,  6-C ) :   1.0015 B(  0-C , 16-C ) :   1.0331
B(  1-C ,  2-C ) :   1.1232 B(  1-C ,  4-C ) :   1.1733 B(  2-C ,  3-N ) :   2.9933
B(  4-C ,  5-N ) :   3.0027 B(  6-C ,  7-C ) :   1.3299 B(  6-C , 11-C ) :   1.3430
B(  7-C ,  8-C ) :   1.3486 B(  7-C , 14-C ) :   0.9203 B(  8-C ,  9-C ) :   1.3457
B(  8-C , 72-H ) :   1.0165 B(  9-C , 10-C ) :   1.4036 B(  9-C , 13-Cl) :   1.0504
B( 10-C , 11-C ) :   1.3614 B( 10-C , 12-Cl) :   1.0735 B( 11-C , 73-H ) :   0.9894
B( 14-C , 15-O ) :   2.2730 B( 14-C , 16-C ) :   0.9382 B( 16-C , 17-C ) :   1.6646
B( 17-C , 18-C ) :   1.0923 B( 17-C , 74-H ) :   0.9413 B( 18-C , 19-C ) :   1.5243
B( 18-C , 22-C ) :   1.0235 B( 19-C , 20-C ) :   1.1181 B( 19-C , 75-H ) :   1.0049
B( 20-C , 21-C ) :   1.0298 B( 20-C , 24-C ) :   1.4855 B( 21-C , 22-C ) :   1.6538
B( 21-C , 23-F ) :   1.1285 B( 22-C , 76-H ) :   1.0203 B( 24-C , 25-C ) :   1.1168
B( 24-C , 28-C ) :   1.0072 B( 25-C , 26-C ) :   1.5183 B( 25-C , 77-H ) :   1.0236
B( 26-C , 27-C ) :   1.0037 B( 26-C , 30-C ) :   1.1497 B( 27-C , 28-C ) :   1.6852
B( 27-C , 78-H ) :   1.0128 B( 28-C , 29-F ) :   1.1278 B( 30-C , 31-C ) :   1.6232
B( 30-C , 79-H ) :   0.9813 B( 31-C , 32-C ) :   1.1497 B( 31-C , 80-H ) :   0.9632
B( 32-C , 33-C ) :   1.4920 B( 32-C , 39-S ) :   1.1347 B( 33-C , 34-C ) :   0.8772
B( 33-C , 37-C ) :   1.2860 B( 34-C , 35-O ) :   2.1512 B( 34-C , 36-O ) :   1.2116
B( 36-O , 81-H ) :   0.9478 B( 37-C , 38-C ) :   1.5297 B( 37-C , 40-C ) :   0.9967
B( 38-C , 39-S ) :   1.1766 B( 38-C , 82-H ) :   0.9655 B( 40-C , 41-C ) :   1.6161
B( 40-C , 44-C ) :   1.0321 B( 41-C , 42-C ) :   1.0851 B( 41-C , 83-H ) :   1.0175
B( 42-C , 43-C ) :   1.0132 B( 42-C , 46-C ) :   1.5006 B( 43-C , 44-C ) :   1.6426
B( 43-C , 45-F ) :   1.1278 B( 44-C , 84-H ) :   1.0122 B( 46-C , 47-C ) :   1.0954
B( 46-C , 50-C ) :   1.0223 B( 47-C , 48-C ) :   1.5185 B( 47-C , 85-H ) :   1.0220
B( 48-C , 49-C ) :   1.0187 B( 48-C , 52-C ) :   1.1173 B( 49-C , 50-C ) :   1.6680
B( 49-C , 86-H ) :   1.0150 B( 50-C , 51-F ) :   1.1266 B( 52-C , 53-C ) :   1.5413
B( 52-C , 87-H ) :   0.9910 B( 53-C , 54-C ) :   1.1642 B( 53-C , 88-H ) :   0.9777
B( 54-C , 55-C ) :   1.5349 B( 54-C , 89-H ) :   0.9622 B( 55-C , 56-C ) :   1.0669
B( 55-C , 64-C ) :   0.9469 B( 56-C , 57-C ) :   1.6363 B( 56-C , 62-C ) :   0.9914
B( 57-C , 58-C ) :   1.1378 B( 57-C , 60-C ) :   1.1484 B( 58-C , 59-N ) :   2.9719
B( 60-C , 61-N ) :   2.9616 B( 62-C , 63-C ) :   1.3308 B( 62-C , 69-C ) :   1.3412
B( 63-C , 64-C ) :   0.9449 B( 63-C , 66-C ) :   1.3440 B( 64-C , 65-O ) :   2.1989
B( 66-C , 67-C ) :   1.3422 B( 66-C , 90-H ) :   1.0164 B( 67-C , 68-C ) :   1.4043
B( 67-C , 71-Cl) :   1.0476 B( 68-C , 69-C ) :   1.3620 B( 68-C , 70-Cl) :   1.0788
B( 69-C , 91-H ) :   0.9845

-----------------------------------------------------------------------------
         ABSORPTION SPECTRUM VIA TRANSITION ELECTRIC DIPOLE MOMENTS
-----------------------------------------------------------------------------
State   Energy  Wavelength   fosc         T2         TX        TY        TZ
        (cm-1)    (nm)                  (au**2)     (au)      (au)      (au)
-----------------------------------------------------------------------------
   0   14638.0    683.2   0.969143966  21.79625   1.78499   4.16900   1.10883
   1   16285.5    614.0   0.365215642   7.38284   0.23901  -1.77504  -2.04327
   2   17298.6    578.1   0.003049515   0.05804  -0.09946   0.00882  -0.21924
   3   18241.9    548.2   0.187727986   3.38793  -0.09527   1.38994   1.20288
   4   21730.9    460.2   0.352098881   5.33412  -0.69835  -1.96764  -0.98733
   5   22356.2    447.3   0.179031587   2.63637   0.60085   1.36823  -0.63506
   6   23511.3    425.3   0.071376797   0.99944   0.21581   0.56207  -0.79809
   7   24066.8    415.5   1.003305853  13.72430  -0.92020  -2.85141  -2.17876
   8   24301.3    411.5   0.204978123   2.77686  -0.66651   0.61538   1.39783
   9   26018.0    384.3   0.272315573   3.44567  -0.35833  -1.67424  -0.71707
  10   26141.7    382.5   0.071398214   0.89914   0.40920   0.85491   0.02882
  11   26686.1    374.7   0.078866136   0.97293  -0.42477  -0.87521  -0.16279
  12   27720.2    360.7   0.008369862   0.09940  -0.05040   0.27014   0.15455
  13   27912.9    358.3   0.212000962   2.50040   0.21473  -1.47671  -0.52308
  14   28084.4    356.1   0.073856635   0.86577   0.90097   0.20395  -0.11150
  15   28570.6    350.0   0.285192508   3.28621  -0.93573   1.27000   0.89316
  16   28713.9    348.3   0.029366530   0.33669   0.23706  -0.48634   0.20968
  17   29775.9    335.8   0.023759533   0.26269  -0.15357  -0.48889   0.00973
  18   29952.9    333.9   0.007649121   0.08407   0.25421  -0.08410  -0.11125
  19   30656.3    326.2   0.128139263   1.37606   0.18550   0.72641  -0.90221
  20   31592.4    316.5   0.019606339   0.20431   0.38674  -0.17555  -0.15466
  21   31734.2    315.1   0.000962470   0.00998  -0.00818  -0.08958  -0.04352
  22   31827.5    314.2   0.075335492   0.77924  -0.59235  -0.61854  -0.21396
  23   32350.3    309.1   0.015304910   0.15575   0.24916  -0.26150   0.15903
  24   32565.1    307.1   0.068290447   0.69037   0.23065   0.69456   0.39340
  25   32736.5    305.5   0.081651646   0.82112   0.12764   0.89492  -0.06280
  26   33354.6    299.8   0.088318396   0.87171   0.39720   0.79364   0.28995
  27   33789.2    296.0   0.270079883   2.63142   0.32991  -1.48934  -0.55178
  28   33884.2    295.1   0.081477777   0.79162   0.54678   0.68243   0.16414
  29   33997.1    294.1   0.246954156   2.39139   0.03008   1.54532  -0.04965
  30   34395.2    290.7   0.142837739   1.36716  -0.30852  -1.01272  -0.49637
  31   34818.3    287.2   0.546456811   5.16683   2.12581  -0.73375   0.33068
  32   34940.3    286.2   0.073011045   0.68792   0.11198   0.80549   0.16299
  33   34999.9    285.7   0.048729279   0.45835   0.25781  -0.61223  -0.13062
  34   35254.2    283.7   0.052301912   0.48841  -0.31019  -0.48031  -0.40186
  35   35491.0    281.8   0.008545066   0.07926  -0.12885   0.25011  -0.01025
  36   35825.4    279.1   0.119413832   1.09734  -0.87359  -0.10994  -0.56752
  37   36021.9    277.6   0.103386945   0.94488   0.02530  -0.96481  -0.11564
  38   36177.3    276.4   0.001040100   0.00946   0.02093  -0.05567   0.07699
  39   36551.2    273.6   0.009861320   0.08882   0.23872   0.04024   0.17382
  40   36724.0    272.3   0.028405931   0.25465  -0.05506   0.38892   0.31679
  41   36919.4    270.9   0.057203536   0.51009   0.34057   0.47307   0.41268
  42   37070.0    269.8   0.007965277   0.07074  -0.00367   0.26510   0.02119
  43   37353.4    267.7   0.016483062   0.14527   0.29412  -0.24226   0.00892
  44   37715.1    265.1   0.171601239   1.49789  -0.66867  -0.40931  -0.93981
  45   38255.0    261.4   0.006924445   0.05959  -0.11388   0.19948  -0.08263
  46   38375.5    260.6   0.030463653   0.26134  -0.46870   0.19838  -0.04800
  47   38960.5    256.7   0.040929038   0.34585   0.25233  -0.34771   0.40159
  48   39384.0    253.9   0.020610337   0.17228   0.35794   0.13517   0.16089
  49   39712.8    251.8   0.010426920   0.08644  -0.01456   0.20878   0.20649
  50   39818.2    251.1   0.012203242   0.10089   0.03946  -0.17674  -0.26096
  51   39895.1    250.7   0.038310517   0.31614  -0.00285   0.41570   0.37858
  52   39988.0    250.1   0.006062260   0.04991   0.10613   0.02842   0.19452
  53   40089.6    249.4   0.017524791   0.14391  -0.05270  -0.33505  -0.16993
  54   40260.7    248.4   0.017727501   0.14496   0.29884   0.00246   0.23590

FINAL SINGLE POINT ENERGY     -5261.523087067792

DIPOLE MOMENT
-------------
                                X             Y             Z
Electronic contribution:     14.10608      10.35275     -26.37547
Nuclear contribution   :    -12.43020      -9.67030      29.10563
                        -----------------------------------------
Total Dipole Moment    :      1.67589       0.68245       2.73017
                        -----------------------------------------
Magnitude (a.u.)       :      3.27539
Magnitude (Debye)      :      8.32537

Rotational constants in cm-1:     0.001465     0.000134     0.000131
Rotational constants in MHz :    43.905610     4.023664     3.915654

                             ****ORCA TERMINATED NORMALLY****
TOTAL RUN TIME: 0 days 0 hours 13 minutes 4 seconds 597 msec
