                         Program Version 4.2.0 -  RELEASE  -
|  1> # ORCA input file
|  2> # SCF done       -206.377313061668          0.000946067877
|  3> ! CAM-B3LYP def2-SVP def2/J RIJCOSX Grid4 TightSCF
|  4> %maxcore 5000
|  5> %tddft
|  6>     Mode sTDDFT
|  7>     Ethresh 5.0
|  8>     maxcore 5000
|  9> end
| 10>
| 11> %pal
| 12>   nprocs 6
| 13>   end
| 14> * xyz 0 1
| 15>    C       -3.09087         0.03570         5.77825
| 16>    C       -3.06544        -1.11194         6.52537
| 17>    C       -3.39597        -1.16117         7.89554
| 18>    N       -3.67706        -1.25217         9.00426
| 19>    C       -2.60296        -2.35232         6.03266
| 20>    N       -2.15613        -3.35852         5.70938
| 21>    C       -3.24291         1.39236         6.29824
| 22>    C       -2.74098         2.30031         5.34654
| 23>    C       -2.71522         3.65886         5.58799
| 24>    C       -3.21087         4.12361         6.80034
| 25>    C       -3.72350         3.22674         7.74578
| 26>    C       -3.73910         1.85708         7.50411
| 27>   Cl       -4.34486         3.81774         9.23212
| 28>   Cl       -3.19431         5.80652         7.13732
| 29>    C       -2.29928         1.56336         4.14111
| 30>    O       -1.77132         2.00546         3.14946
| 31>    C       -2.70399         0.15181         4.38854
| 32>    C       -2.74765        -0.74463         3.36405
| 33>    C       -3.45958        -1.96751         3.30236
| 34>    C       -3.19902        -3.00390         2.43430
| 35>    C       -4.13382        -4.05724         2.67259
| 36>    C       -5.02188        -3.54978         3.71740
| 37>    C       -4.63707        -2.32289         4.10253
| 38>    F       -6.07649        -4.22817         4.18055
| 39>    C       -4.20465        -5.28761         2.06274
| 40>    C       -5.11721        -6.34656         2.31656
| 41>    C       -4.85314        -7.39343         1.45508
| 42>    C       -3.71601        -7.01148         0.60633
| 43>    C       -3.34282        -5.77934         0.97701
| 44>    F       -2.34753        -5.06259         0.45075
| 45>    C       -5.57682        -8.60417         1.40813
| 46>    C       -5.37938        -9.58203         0.47792
| 47>    C       -6.08499       -10.79752         0.34164
| 48>    S       -5.91014       -11.65165        -1.16192
| 49>    C       -7.01912       -12.89515        -0.66717
| 50>    C       -7.48496       -12.64420         0.62922
| 51>    C       -6.95255       -11.48556         1.19729
| 52>    C       -7.24427       -11.07083         2.60568
| 53>    C       -7.83242       -12.23903         3.41134
| 54>    C       -6.81170       -13.23408         3.65559
| 55>    N       -6.00189       -14.02090         3.82752
| 56>    C       -8.99545       -12.87875         2.62408
| 57>    C       -9.97377       -11.86209         2.30659
| 58>    N      -10.73076       -11.04623         2.04923
| 59>    C       -8.46840       -13.52412         1.33345
| 60>    C       -7.31265       -13.94528        -1.56424
| 61>    C       -8.06533       -15.08951        -1.38416
| 62>    C       -8.07843       -15.83404        -2.59532
| 63>    C       -7.26419       -15.05891        -3.53775
| 64>    C       -6.80583       -13.94925        -2.94303
| 65>    F       -7.04053       -15.43404        -4.79765
| 66>    C       -8.72406       -17.02395        -2.85084
| 67>    C       -8.74388       -17.77506        -4.06045
| 68>    C       -9.53101       -18.89718        -3.87987
| 69>    C      -10.04254       -18.88028        -2.50514
| 70>    C       -9.55994       -17.77906        -1.91266
| 71>    F       -9.79048       -17.38590        -0.65272
| 72>    C       -9.84088       -19.92116        -4.80100
| 73>    C       -9.37940       -19.99355        -6.08522
| 74>    C       -9.74383       -21.05651        -6.93398
| 75>    C       -9.31649       -21.21604        -8.22620
| 76>    C       -9.66585       -22.29479        -9.12961
| 77>    C      -10.52861       -23.33253        -8.88835
| 78>    C      -10.82655       -24.34888        -9.82167
| 79>    N      -11.11240       -25.20715       -10.52789
| 80>    C      -11.25040       -23.54426        -7.69458
| 81>    N      -11.87860       -23.78767        -6.76476
| 82>    C       -8.93650       -22.07787       -10.37775
| 83>    C       -8.18010       -20.89845       -10.26613
| 84>    C       -8.38347       -20.30037        -8.92915
| 85>    O       -7.88196       -19.27899        -8.51377
| 86>    C       -7.38707       -20.44029       -11.29815
| 87>    C       -7.34401       -21.17852       -12.47419
| 88>    C       -8.09215       -22.35575       -12.59431
| 89>    C       -8.89113       -22.81234       -11.55183
| 90>   Cl       -8.02846       -23.26124       -14.05140
| 91>   Cl       -6.36887       -20.64461       -13.78168
| 92>    H       -2.31841         4.34117         4.85299
| 93>    H       -4.14241         1.19277         8.25129
| 94>    H       -2.22626        -0.44513         2.46031
| 95>    H       -2.38741        -3.04643         1.73471
| 96>    H       -5.12698        -1.68671         4.81339
| 97>    H       -5.89163        -6.32528         3.05782
| 98>    H       -3.26828        -7.61536        -0.15749
| 99>    H       -6.36119        -8.69822         2.14285
|100>    H       -4.64128        -9.40729        -0.29350
|101>    H       -7.96819       -10.24908         2.60826
|102>    H       -6.32557       -10.72123         3.08418
|103>    H       -8.18978       -11.87194         4.38092
|104>    H       -9.48993       -13.64288         3.23567
|105>    H       -9.30841       -13.73826         0.66733
|106>    H       -7.98523       -14.47390         1.58423
|107>    H       -8.54981       -15.41506        -0.48887
|108>    H       -6.18959       -13.18315        -3.37156
|109>    H       -8.22765       -17.49879        -4.95822
|110>    H      -10.68363       -19.62701        -2.07897
|111>    H      -10.49803       -20.70627        -4.44465
|112>    H       -8.72052       -19.23200        -6.47242
|113>    H      -10.41047       -21.79951        -6.51494
|114>    H       -6.81578       -19.53184       -11.19010
|115>    H       -9.45134       -23.72342       -11.68265
|116> *
|117>
|118>                          ****END OF INPUT****

CARTESIAN COORDINATES (ANGSTROEM)
---------------------------------
  C     -3.090870    0.035700    5.778250
  C     -3.065440   -1.111940    6.525370
  C     -3.395970   -1.161170    7.895540
  N     -3.677060   -1.252170    9.004260
  C     -2.602960   -2.352320    6.032660
  N     -2.156130   -3.358520    5.709380
  C     -3.242910    1.392360    6.298240
  C     -2.740980    2.300310    5.346540
  C     -2.715220    3.658860    5.587990
  C     -3.210870    4.123610    6.800340
  C     -3.723500    3.226740    7.745780
  C     -3.739100    1.857080    7.504110
  Cl    -4.344860    3.817740    9.232120
  Cl    -3.194310    5.806520    7.137320
  C     -2.299280    1.563360    4.141110
  O     -1.771320    2.005460    3.149460
  C     -2.703990    0.151810    4.388540
  C     -2.747650   -0.744630    3.364050
  C     -3.459580   -1.967510    3.302360
  C     -3.199020   -3.003900    2.434300
  C     -4.133820   -4.057240    2.672590
  C     -5.021880   -3.549780    3.717400
  C     -4.637070   -2.322890    4.102530
  F     -6.076490   -4.228170    4.180550
  C     -4.204650   -5.287610    2.062740
  C     -5.117210   -6.346560    2.316560
  C     -4.853140   -7.393430    1.455080
  C     -3.716010   -7.011480    0.606330
  C     -3.342820   -5.779340    0.977010
  F     -2.347530   -5.062590    0.450750
  C     -5.576820   -8.604170    1.408130
  C     -5.379380   -9.582030    0.477920
  C     -6.084990  -10.797520    0.341640
  S     -5.910140  -11.651650   -1.161920
  C     -7.019120  -12.895150   -0.667170
  C     -7.484960  -12.644200    0.629220
  C     -6.952550  -11.485560    1.197290
  C     -7.244270  -11.070830    2.605680
  C     -7.832420  -12.239030    3.411340
  C     -6.811700  -13.234080    3.655590
  N     -6.001890  -14.020900    3.827520
  C     -8.995450  -12.878750    2.624080
  C     -9.973770  -11.862090    2.306590
  N    -10.730760  -11.046230    2.049230
  C     -8.468400  -13.524120    1.333450
  C     -7.312650  -13.945280   -1.564240
  C     -8.065330  -15.089510   -1.384160
  C     -8.078430  -15.834040   -2.595320
  C     -7.264190  -15.058910   -3.537750
  C     -6.805830  -13.949250   -2.943030
  F     -7.040530  -15.434040   -4.797650
  C     -8.724060  -17.023950   -2.850840
  C     -8.743880  -17.775060   -4.060450
  C     -9.531010  -18.897180   -3.879870
  C    -10.042540  -18.880280   -2.505140
  C     -9.559940  -17.779060   -1.912660
  F     -9.790480  -17.385900   -0.652720
  C     -9.840880  -19.921160   -4.801000
  C     -9.379400  -19.993550   -6.085220
  C     -9.743830  -21.056510   -6.933980
  C     -9.316490  -21.216040   -8.226200
  C     -9.665850  -22.294790   -9.129610
  C    -10.528610  -23.332530   -8.888350
  C    -10.826550  -24.348880   -9.821670
  N    -11.112400  -25.207150  -10.527890
  C    -11.250400  -23.544260   -7.694580
  N    -11.878600  -23.787670   -6.764760
  C     -8.936500  -22.077870  -10.377750
  C     -8.180100  -20.898450  -10.266130
  C     -8.383470  -20.300370   -8.929150
  O     -7.881960  -19.278990   -8.513770
  C     -7.387070  -20.440290  -11.298150
  C     -7.344010  -21.178520  -12.474190
  C     -8.092150  -22.355750  -12.594310
  C     -8.891130  -22.812340  -11.551830
  Cl    -8.028460  -23.261240  -14.051400
  Cl    -6.368870  -20.644610  -13.781680
  H     -2.318410    4.341170    4.852990
  H     -4.142410    1.192770    8.251290
  H     -2.226260   -0.445130    2.460310
  H     -2.387410   -3.046430    1.734710
  H     -5.126980   -1.686710    4.813390
  H     -5.891630   -6.325280    3.057820
  H     -3.268280   -7.615360   -0.157490
  H     -6.361190   -8.698220    2.142850
  H     -4.641280   -9.407290   -0.293500
  H     -7.968190  -10.249080    2.608260
  H     -6.325570  -10.721230    3.084180
  H     -8.189780  -11.871940    4.380920
  H     -9.489930  -13.642880    3.235670
  H     -9.308410  -13.738260    0.667330
  H     -7.985230  -14.473900    1.584230
  H     -8.549810  -15.415060   -0.488870
  H     -6.189590  -13.183150   -3.371560
  H     -8.227650  -17.498790   -4.958220
  H    -10.683630  -19.627010   -2.078970
  H    -10.498030  -20.706270   -4.444650
  H     -8.720520  -19.232000   -6.472420
  H    -10.410470  -21.799510   -6.514940
  H     -6.815780  -19.531840  -11.190100
  H     -9.451340  -23.723420  -11.682650

 Total Charge           Charge          ....    0
 Multiplicity           Mult            ....    1
 Number of Electrons    NEL             ....  562
 Basis Dimension        Dim             .... 1218

ORBITAL ENERGIES
----------------

  NO   OCC          E(Eh)            E(eV)
   0   2.0000    -101.604577     -2764.8011
   1   2.0000    -101.603982     -2764.7849
   2   2.0000    -101.602689     -2764.7497
   3   2.0000    -101.601013     -2764.7041
   4   2.0000     -88.983373     -2421.3607
   5   2.0000     -24.807502      -675.0465
   6   2.0000     -24.806885      -675.0296
   7   2.0000     -24.802162      -674.9011
   8   2.0000     -24.800206      -674.8479
   9   2.0000     -19.226812      -523.1881
  10   2.0000     -19.225425      -523.1504
  11   2.0000     -14.427182      -392.5836
  12   2.0000     -14.426152      -392.5556
  13   2.0000     -14.425258      -392.5312
  14   2.0000     -14.422862      -392.4660
  15   2.0000     -14.419806      -392.3829
  16   2.0000     -14.419802      -392.3828
  17   2.0000     -10.377993      -282.3995
  18   2.0000     -10.376030      -282.3461
  19   2.0000     -10.375814      -282.3402
  20   2.0000     -10.374801      -282.3127
  21   2.0000     -10.366468      -282.0859
  22   2.0000     -10.366125      -282.0766
  23   2.0000     -10.362180      -281.9692
  24   2.0000     -10.361201      -281.9426
  25   2.0000     -10.358791      -281.8770
  26   2.0000     -10.358368      -281.8655
  27   2.0000     -10.355756      -281.7945
  28   2.0000     -10.354554      -281.7617
  29   2.0000     -10.354321      -281.7554
  30   2.0000     -10.351655      -281.6829
  31   2.0000     -10.349849      -281.6337
  32   2.0000     -10.348095      -281.5860
  33   2.0000     -10.333036      -281.1762
  34   2.0000     -10.331591      -281.1369
  35   2.0000     -10.326807      -281.0067
  36   2.0000     -10.326025      -280.9854
  37   2.0000     -10.326016      -280.9852
  38   2.0000     -10.325386      -280.9680
  39   2.0000     -10.325321      -280.9663
  40   2.0000     -10.324369      -280.9404
  41   2.0000     -10.324315      -280.9389
  42   2.0000     -10.322904      -280.9005
  43   2.0000     -10.322269      -280.8832
  44   2.0000     -10.322046      -280.8772
  45   2.0000     -10.320569      -280.8370
  46   2.0000     -10.319724      -280.8140
  47   2.0000     -10.319188      -280.7994
  48   2.0000     -10.319187      -280.7994
  49   2.0000     -10.318891      -280.7913
  50   2.0000     -10.318593      -280.7832
  51   2.0000     -10.317128      -280.7433
  52   2.0000     -10.316931      -280.7380
  53   2.0000     -10.315499      -280.6990
  54   2.0000     -10.315270      -280.6928
  55   2.0000     -10.315071      -280.6874
  56   2.0000     -10.314270      -280.6656
  57   2.0000     -10.311909      -280.6013
  58   2.0000     -10.311500      -280.5902
  59   2.0000     -10.311284      -280.5843
  60   2.0000     -10.311260      -280.5836
  61   2.0000     -10.308363      -280.5048
  62   2.0000     -10.307820      -280.4900
  63   2.0000     -10.307245      -280.4744
  64   2.0000     -10.306790      -280.4620
  65   2.0000     -10.304053      -280.3875
  66   2.0000     -10.303755      -280.3794
  67   2.0000     -10.302107      -280.3346
  68   2.0000     -10.294190      -280.1192
  69   2.0000     -10.293802      -280.1086
  70   2.0000     -10.292816      -280.0818
  71   2.0000     -10.292191      -280.0648
  72   2.0000     -10.286663      -279.9143
  73   2.0000     -10.286402      -279.9072
  74   2.0000     -10.285480      -279.8821
  75   2.0000     -10.284088      -279.8443
  76   2.0000     -10.281832      -279.7829
  77   2.0000      -9.559652      -260.1314
  78   2.0000      -9.559072      -260.1156
  79   2.0000      -9.557753      -260.0797
  80   2.0000      -9.556009      -260.0322
  81   2.0000      -8.078885      -219.8376
  82   2.0000      -7.330053      -199.4609
  83   2.0000      -7.329453      -199.4445
  84   2.0000      -7.328142      -199.4089
  85   2.0000      -7.326425      -199.3622
  86   2.0000      -7.319895      -199.1845
  87   2.0000      -7.319334      -199.1692
  88   2.0000      -7.319164      -199.1646
  89   2.0000      -7.318590      -199.1489
  90   2.0000      -7.318011      -199.1332
  91   2.0000      -7.317273      -199.1131
  92   2.0000      -7.316255      -199.0854
  93   2.0000      -7.315524      -199.0655
  94   2.0000      -6.047971      -164.5737
  95   2.0000      -6.044019      -164.4661
  96   2.0000      -6.041187      -164.3890
  97   2.0000      -1.321482       -35.9594
  98   2.0000      -1.320549       -35.9340
  99   2.0000      -1.314135       -35.7594
 100   2.0000      -1.313184       -35.7336
 101   2.0000      -1.142280       -31.0830
 102   2.0000      -1.140459       -31.0335
 103   2.0000      -1.037377       -28.2285
 104   2.0000      -1.035517       -28.1779
 105   2.0000      -1.033887       -28.1335
 106   2.0000      -1.022788       -27.8315
 107   2.0000      -1.020363       -27.7655
 108   2.0000      -1.017097       -27.6766
 109   2.0000      -1.011649       -27.5284
 110   2.0000      -1.007000       -27.4019
 111   2.0000      -1.003408       -27.3041
 112   2.0000      -1.000864       -27.2349
 113   2.0000      -0.999815       -27.2064
 114   2.0000      -0.996993       -27.1296
 115   2.0000      -0.994446       -27.0602
 116   2.0000      -0.986844       -26.8534
 117   2.0000      -0.985619       -26.8201
 118   2.0000      -0.970221       -26.4011
 119   2.0000      -0.966864       -26.3097
 120   2.0000      -0.964134       -26.2354
 121   2.0000      -0.941336       -25.6151
 122   2.0000      -0.940626       -25.5957
 123   2.0000      -0.930271       -25.3140
 124   2.0000      -0.924237       -25.1498
 125   2.0000      -0.911795       -24.8112
 126   2.0000      -0.900174       -24.4950
 127   2.0000      -0.897187       -24.4137
 128   2.0000      -0.884024       -24.0555
 129   2.0000      -0.883555       -24.0427
 130   2.0000      -0.875218       -23.8159
 131   2.0000      -0.866825       -23.5875
 132   2.0000      -0.863802       -23.5053
 133   2.0000      -0.862451       -23.4685
 134   2.0000      -0.853474       -23.2242
 135   2.0000      -0.845540       -23.0083
 136   2.0000      -0.826631       -22.4938
 137   2.0000      -0.820667       -22.3315
 138   2.0000      -0.812468       -22.1084
 139   2.0000      -0.806446       -21.9445
 140   2.0000      -0.796790       -21.6818
 141   2.0000      -0.791326       -21.5331
 142   2.0000      -0.778178       -21.1753
 143   2.0000      -0.774236       -21.0680
 144   2.0000      -0.770461       -20.9653
 145   2.0000      -0.769203       -20.9311
 146   2.0000      -0.761378       -20.7182
 147   2.0000      -0.752392       -20.4736
 148   2.0000      -0.730672       -19.8826
 149   2.0000      -0.724689       -19.7198
 150   2.0000      -0.722730       -19.6665
 151   2.0000      -0.705149       -19.1881
 152   2.0000      -0.702783       -19.1237
 153   2.0000      -0.698968       -19.0199
 154   2.0000      -0.697533       -18.9808
 155   2.0000      -0.689395       -18.7594
 156   2.0000      -0.688398       -18.7323
 157   2.0000      -0.683432       -18.5971
 158   2.0000      -0.679267       -18.4838
 159   2.0000      -0.676616       -18.4116
 160   2.0000      -0.668325       -18.1861
 161   2.0000      -0.666362       -18.1326
 162   2.0000      -0.662492       -18.0273
 163   2.0000      -0.657719       -17.8974
 164   2.0000      -0.649268       -17.6675
 165   2.0000      -0.640830       -17.4379
 166   2.0000      -0.639529       -17.4025
 167   2.0000      -0.633240       -17.2313
 168   2.0000      -0.629271       -17.1233
 169   2.0000      -0.628122       -17.0921
 170   2.0000      -0.620678       -16.8895
 171   2.0000      -0.617400       -16.8003
 172   2.0000      -0.613182       -16.6855
 173   2.0000      -0.609836       -16.5945
 174   2.0000      -0.602984       -16.4080
 175   2.0000      -0.599322       -16.3084
 176   2.0000      -0.595826       -16.2133
 177   2.0000      -0.587832       -15.9957
 178   2.0000      -0.583236       -15.8707
 179   2.0000      -0.577457       -15.7134
 180   2.0000      -0.576650       -15.6914
 181   2.0000      -0.576201       -15.6792
 182   2.0000      -0.573705       -15.6113
 183   2.0000      -0.568340       -15.4653
 184   2.0000      -0.567746       -15.4492
 185   2.0000      -0.567093       -15.4314
 186   2.0000      -0.566920       -15.4267
 187   2.0000      -0.566275       -15.4091
 188   2.0000      -0.562150       -15.2969
 189   2.0000      -0.559443       -15.2232
 190   2.0000      -0.557600       -15.1731
 191   2.0000      -0.555289       -15.1102
 192   2.0000      -0.554543       -15.0899
 193   2.0000      -0.553486       -15.0611
 194   2.0000      -0.551166       -14.9980
 195   2.0000      -0.548723       -14.9315
 196   2.0000      -0.548653       -14.9296
 197   2.0000      -0.545108       -14.8331
 198   2.0000      -0.540788       -14.7156
 199   2.0000      -0.537566       -14.6279
 200   2.0000      -0.534133       -14.5345
 201   2.0000      -0.532669       -14.4947
 202   2.0000      -0.528329       -14.3766
 203   2.0000      -0.523647       -14.2492
 204   2.0000      -0.520367       -14.1599
 205   2.0000      -0.519715       -14.1422
 206   2.0000      -0.514694       -14.0055
 207   2.0000      -0.513537       -13.9740
 208   2.0000      -0.511326       -13.9139
 209   2.0000      -0.511223       -13.9111
 210   2.0000      -0.507280       -13.8038
 211   2.0000      -0.505453       -13.7541
 212   2.0000      -0.504873       -13.7383
 213   2.0000      -0.499943       -13.6041
 214   2.0000      -0.499490       -13.5918
 215   2.0000      -0.496250       -13.5037
 216   2.0000      -0.493197       -13.4206
 217   2.0000      -0.490357       -13.3433
 218   2.0000      -0.490009       -13.3338
 219   2.0000      -0.489148       -13.3104
 220   2.0000      -0.486677       -13.2432
 221   2.0000      -0.485209       -13.2032
 222   2.0000      -0.482616       -13.1327
 223   2.0000      -0.479699       -13.0533
 224   2.0000      -0.476331       -12.9616
 225   2.0000      -0.475635       -12.9427
 226   2.0000      -0.472121       -12.8471
 227   2.0000      -0.469290       -12.7700
 228   2.0000      -0.468679       -12.7534
 229   2.0000      -0.464006       -12.6263
 230   2.0000      -0.459796       -12.5117
 231   2.0000      -0.458630       -12.4800
 232   2.0000      -0.457959       -12.4617
 233   2.0000      -0.456723       -12.4281
 234   2.0000      -0.455087       -12.3835
 235   2.0000      -0.454425       -12.3655
 236   2.0000      -0.452911       -12.3243
 237   2.0000      -0.449785       -12.2393
 238   2.0000      -0.448979       -12.2173
 239   2.0000      -0.447927       -12.1887
 240   2.0000      -0.442636       -12.0447
 241   2.0000      -0.442256       -12.0344
 242   2.0000      -0.441381       -12.0106
 243   2.0000      -0.441206       -12.0058
 244   2.0000      -0.435729       -11.8568
 245   2.0000      -0.434308       -11.8181
 246   2.0000      -0.433662       -11.8005
 247   2.0000      -0.432164       -11.7598
 248   2.0000      -0.432120       -11.7586
 249   2.0000      -0.430815       -11.7231
 250   2.0000      -0.430575       -11.7165
 251   2.0000      -0.430166       -11.7054
 252   2.0000      -0.428321       -11.6552
 253   2.0000      -0.425634       -11.5821
 254   2.0000      -0.421162       -11.4604
 255   2.0000      -0.416599       -11.3362
 256   2.0000      -0.415379       -11.3030
 257   2.0000      -0.414113       -11.2686
 258   2.0000      -0.410369       -11.1667
 259   2.0000      -0.409996       -11.1566
 260   2.0000      -0.409355       -11.1391
 261   2.0000      -0.398838       -10.8529
 262   2.0000      -0.388015       -10.5584
 263   2.0000      -0.386203       -10.5091
 264   2.0000      -0.383748       -10.4423
 265   2.0000      -0.369030       -10.0418
 266   2.0000      -0.356847        -9.7103
 267   2.0000      -0.349128        -9.5002
 268   2.0000      -0.345686        -9.4066
 269   2.0000      -0.343977        -9.3601
 270   2.0000      -0.343102        -9.3363
 271   2.0000      -0.341078        -9.2812
 272   2.0000      -0.333405        -9.0724
 273   2.0000      -0.323078        -8.7914
 274   2.0000      -0.320751        -8.7281
 275   2.0000      -0.316132        -8.6024
 276   2.0000      -0.313111        -8.5202
 277   2.0000      -0.304078        -8.2744
 278   2.0000      -0.292732        -7.9656
 279   2.0000      -0.278662        -7.5828
 280   2.0000      -0.254790        -6.9332
 281   0.0000      -0.137699        -3.7470
 282   0.0000      -0.120123        -3.2687
 283   0.0000      -0.086774        -2.3612
 284   0.0000      -0.083410        -2.2697
 285   0.0000      -0.065980        -1.7954

MULLIKEN ATOMIC CHARGES
-----------------------
   0 C :    0.255358
   1 C :   -0.335542
   2 C :   -0.181541
   3 N :    0.165947
   4 C :   -0.195141
   5 N :    0.182008
   6 C :    0.020258
   7 C :   -0.004443
   8 C :   -0.027287
   9 C :    0.059203
  10 C :    0.049946
  11 C :   -0.014881
  12 Cl:   -0.032907
  13 Cl:   -0.040421
  14 C :    0.142951
  15 O :   -0.128773
  16 C :   -0.120395
  17 C :    0.041863
  18 C :    0.053920
  19 C :   -0.029279
  20 C :    0.010311
  21 C :    0.259470
  22 C :   -0.070951
  23 F :   -0.172878
  24 C :    0.022407
  25 C :   -0.087349
  26 C :    0.116406
  27 C :   -0.078078
  28 C :    0.263685
  29 F :   -0.168362
  30 C :   -0.016736
  31 C :    0.052017
  32 C :   -0.110534
  33 S :    0.144805
  34 C :   -0.099825
  35 C :   -0.064223
  36 C :   -0.063706
  37 C :    0.114390
  38 C :   -0.061042
  39 C :   -0.245910
  40 N :    0.151928
  41 C :   -0.046422
  42 C :   -0.251573
  43 N :    0.148271
  44 C :    0.106053
  45 C :    0.110526
  46 C :   -0.137209
  47 C :    0.036378
  48 C :    0.266854
  49 C :   -0.096447
  50 F :   -0.162953
  51 C :   -0.007871
  52 C :   -0.062742
  53 C :    0.097046
  54 C :   -0.071406
  55 C :    0.258733
  56 F :   -0.177647
  57 C :    0.027146
  58 C :    0.008867
  59 C :   -0.035339
  60 C :   -0.071560
  61 C :    0.328757
  62 C :   -0.345153
  63 C :   -0.189128
  64 N :    0.157761
  65 C :   -0.188051
  66 N :    0.149115
  67 C :    0.031348
  68 C :   -0.014343
  69 C :    0.148112
  70 O :   -0.142570
  71 C :   -0.031894
  72 C :    0.061727
  73 C :    0.048606
  74 C :   -0.013997
  75 Cl:   -0.033904
  76 Cl:   -0.042101
  77 H :    0.001386
  78 H :    0.003468
  79 H :    0.025297
  80 H :    0.001857
  81 H :    0.001199
  82 H :   -0.006936
  83 H :   -0.008529
  84 H :   -0.018868
  85 H :   -0.008737
  86 H :    0.071817
  87 H :    0.054593
  88 H :    0.056381
  89 H :    0.057589
  90 H :    0.061775
  91 H :    0.068174
  92 H :   -0.016532
  93 H :    0.001724
  94 H :    0.002557
  95 H :   -0.010448
  96 H :    0.003164
  97 H :    0.029964
  98 H :    0.011290
  99 H :   -0.000938
 100 H :   -0.000908
Sum of atomic charges:   -0.0000000

LOEWDIN ATOMIC CHARGES
----------------------
   0 C :    0.062503
   1 C :   -0.125729
   2 C :   -0.021577
   3 N :   -0.040405
   4 C :   -0.020189
   5 N :   -0.038214
   6 C :   -0.011389
   7 C :   -0.046385
   8 C :    0.002874
   9 C :   -0.134992
  10 C :   -0.129104
  11 C :   -0.014978
  12 Cl:    0.164964
  13 Cl:    0.160864
  14 C :    0.083606
  15 O :   -0.130833
  16 C :   -0.085813
  17 C :    0.075441
  18 C :   -0.024914
  19 C :    0.005596
  20 C :   -0.005064
  21 C :    0.083031
  22 C :   -0.054104
  23 F :   -0.048681
  24 C :    0.020601
  25 C :   -0.053441
  26 C :    0.011930
  27 C :   -0.054961
  28 C :    0.087199
  29 F :   -0.044317
  30 C :   -0.015251
  31 C :   -0.024222
  32 C :   -0.159337
  33 S :    0.470944
  34 C :   -0.160134
  35 C :   -0.035954
  36 C :   -0.047821
  37 C :   -0.009951
  38 C :   -0.032512
  39 C :   -0.037622
  40 N :   -0.045908
  41 C :   -0.032492
  42 C :   -0.037215
  43 N :   -0.048438
  44 C :   -0.008073
  45 C :   -0.004560
  46 C :   -0.069713
  47 C :    0.017680
  48 C :    0.086560
  49 C :   -0.062946
  50 F :   -0.040647
  51 C :   -0.007259
  52 C :   -0.018344
  53 C :   -0.019248
  54 C :   -0.051391
  55 C :    0.074844
  56 F :   -0.054628
  57 C :    0.035277
  58 C :   -0.013382
  59 C :    0.066776
  60 C :   -0.094895
  61 C :    0.073018
  62 C :   -0.133975
  63 C :   -0.020238
  64 N :   -0.045940
  65 C :   -0.019659
  66 N :   -0.048428
  67 C :   -0.013159
  68 C :   -0.043641
  69 C :    0.084365
  70 O :   -0.138661
  71 C :    0.000605
  72 C :   -0.134200
  73 C :   -0.130253
  74 C :   -0.012505
  75 Cl:    0.163208
  76 Cl:    0.159952
  77 H :    0.046867
  78 H :    0.044694
  79 H :    0.051837
  80 H :    0.030880
  81 H :    0.031718
  82 H :    0.026430
  83 H :    0.031582
  84 H :    0.034156
  85 H :    0.031601
  86 H :    0.046405
  87 H :    0.047215
  88 H :    0.063091
  89 H :    0.064206
  90 H :    0.049578
  91 H :    0.049494
  92 H :    0.020206
  93 H :    0.027786
  94 H :    0.028839
  95 H :    0.033367
  96 H :    0.038005
  97 H :    0.035187
  98 H :    0.042511
  99 H :    0.045798
 100 H :    0.044400

  Mayer bond orders larger than 0.100000
B(  0-C ,  1-C ) :   1.6618 B(  0-C ,  6-C ) :   1.0059 B(  0-C , 16-C ) :   1.0412
B(  1-C ,  2-C ) :   1.1311 B(  1-C ,  4-C ) :   1.1567 B(  2-C ,  3-N ) :   2.9923
B(  4-C ,  5-N ) :   3.0094 B(  6-C ,  7-C ) :   1.3301 B(  6-C , 11-C ) :   1.3448
B(  7-C ,  8-C ) :   1.3507 B(  7-C , 14-C ) :   0.9178 B(  8-C ,  9-C ) :   1.3444
B(  8-C , 77-H ) :   1.0161 B(  9-C , 10-C ) :   1.4060 B(  9-C , 13-Cl) :   1.0499
B( 10-C , 11-C ) :   1.3580 B( 10-C , 12-Cl) :   1.0722 B( 11-C , 78-H ) :   0.9908
B( 14-C , 15-O ) :   2.2845 B( 14-C , 16-C ) :   0.9359 B( 16-C , 17-C ) :   1.6378
B( 17-C , 18-C ) :   1.0958 B( 17-C , 79-H ) :   0.9563 B( 18-C , 19-C ) :   1.5178
B( 18-C , 22-C ) :   1.0214 B( 19-C , 20-C ) :   1.1068 B( 19-C , 80-H ) :   1.0200
B( 20-C , 21-C ) :   1.0368 B( 20-C , 24-C ) :   1.4581 B( 21-C , 22-C ) :   1.6572
B( 21-C , 23-F ) :   1.1331 B( 22-C , 81-H ) :   1.0090 B( 24-C , 25-C ) :   1.1321
B( 24-C , 28-C ) :   1.0063 B( 25-C , 26-C ) :   1.4955 B( 25-C , 82-H ) :   1.0228
B( 26-C , 27-C ) :   1.0036 B( 26-C , 30-C ) :   1.1638 B( 27-C , 28-C ) :   1.6835
B( 27-C , 83-H ) :   1.0114 B( 28-C , 29-F ) :   1.1329 B( 30-C , 31-C ) :   1.5937
B( 30-C , 84-H ) :   0.9742 B( 31-C , 32-C ) :   1.1536 B( 31-C , 85-H ) :   0.9485
B( 32-C , 33-S ) :   1.1362 B( 32-C , 34-C ) :   0.1045 B( 32-C , 36-C ) :   1.4401
B( 33-S , 34-C ) :   1.1294 B( 34-C , 35-C ) :   1.4521 B( 34-C , 45-C ) :   1.1630
B( 35-C , 36-C ) :   1.3696 B( 35-C , 44-C ) :   1.0534 B( 36-C , 37-C ) :   1.0391
B( 37-C , 38-C ) :   1.0555 B( 37-C , 86-H ) :   0.8914 B( 37-C , 87-H ) :   0.9153
B( 38-C , 39-C ) :   1.1080 B( 38-C , 41-C ) :   1.0785 B( 38-C , 88-H ) :   0.8533
B( 39-C , 40-N ) :   3.1048 B( 41-C , 42-C ) :   1.1086 B( 41-C , 44-C ) :   1.0490
B( 41-C , 89-H ) :   0.8509 B( 42-C , 43-N ) :   3.0983 B( 44-C , 90-H ) :   0.9065
B( 44-C , 91-H ) :   0.8946 B( 45-C , 46-C ) :   1.5096 B( 45-C , 49-C ) :   1.0007
B( 46-C , 47-C ) :   1.1350 B( 46-C , 92-H ) :   1.0097 B( 47-C , 48-C ) :   1.0102
B( 47-C , 51-C ) :   1.4380 B( 48-C , 49-C ) :   1.6809 B( 48-C , 50-F ) :   1.1398
B( 49-C , 93-H ) :   1.0052 B( 51-C , 52-C ) :   1.1322 B( 51-C , 55-C ) :   1.0238
B( 52-C , 53-C ) :   1.5218 B( 52-C , 94-H ) :   1.0099 B( 53-C , 54-C ) :   1.0130
B( 53-C , 57-C ) :   1.1133 B( 54-C , 55-C ) :   1.6556 B( 54-C , 95-H ) :   1.0222
B( 55-C , 56-F ) :   1.1134 B( 57-C , 58-C ) :   1.5416 B( 57-C , 96-H ) :   0.9880
B( 58-C , 59-C ) :   1.1763 B( 58-C , 97-H ) :   0.9804 B( 59-C , 60-C ) :   1.5137
B( 59-C , 98-H ) :   0.9626 B( 60-C , 61-C ) :   1.0723 B( 60-C , 69-C ) :   0.9488
B( 61-C , 62-C ) :   1.6332 B( 61-C , 67-C ) :   0.9893 B( 62-C , 63-C ) :   1.1387
B( 62-C , 65-C ) :   1.1478 B( 63-C , 64-N ) :   2.9707 B( 65-C , 66-N ) :   2.9603
B( 67-C , 68-C ) :   1.3321 B( 67-C , 74-C ) :   1.3394 B( 68-C , 69-C ) :   0.9418
B( 68-C , 71-C ) :   1.3452 B( 69-C , 70-O ) :   2.2074 B( 71-C , 72-C ) :   1.3398
B( 71-C , 99-H ) :   1.0172 B( 72-C , 73-C ) :   1.4062 B( 72-C , 76-Cl) :   1.0477
B( 73-C , 74-C ) :   1.3601 B( 73-C , 75-Cl) :   1.0781 B( 74-C ,100-H ) :   0.9864

-----------------------------------------------------------------------------
         ABSORPTION SPECTRUM VIA TRANSITION ELECTRIC DIPOLE MOMENTS
-----------------------------------------------------------------------------
State   Energy  Wavelength   fosc         T2         TX        TY        TZ
        (cm-1)    (nm)                  (au**2)     (au)      (au)      (au)
-----------------------------------------------------------------------------
   0   11574.4    864.0   2.045773950  58.18795  -1.88708  -6.32524  -3.82337
   1   14955.0    668.7   0.033389987   0.73503   0.10817   0.83461  -0.16360
   2   16079.3    621.9   0.007263809   0.14872   0.02447  -0.23623  -0.30384
   3   17327.2    577.1   0.025127777   0.47742   0.02432  -0.34996  -0.59528
   4   20399.1    490.2   0.015624956   0.25216   0.10201  -0.10571  -0.48019
   5   21541.6    464.2   1.221039370  18.66064  -1.06765  -3.51140  -2.27835
   6   23594.6    423.8   0.159687854   2.22810   0.01815  -0.47444  -1.41516
   7   23757.0    420.9   0.036719417   0.50884  -0.02302   0.08159   0.70827
   8   24510.7    408.0   0.004806907   0.06456  -0.04947   0.24873   0.01573
   9   25271.9    395.7   0.088224257   1.14928   0.26147   0.61108   0.84113
  10   26079.4    383.4   0.138184219   1.74436   0.10177   1.29590   0.23374
  11   26463.9    377.9   0.001647719   0.02050  -0.00701  -0.06585  -0.12693
  12   26740.0    374.0   0.062037878   0.76378   0.04543  -0.23542  -0.84042
  13   27009.6    370.2   0.026551657   0.32363   0.06153   0.55081  -0.12827
  14   27260.2    366.8   0.105419008   1.27311   0.57751   0.73594  -0.63085
  15   28136.0    355.4   0.111345853   1.30283  -0.01927  -1.06014  -0.42256
  16   28357.4    352.6   0.237913033   2.76202   0.25761  -0.97624  -1.32008
  17   28839.8    346.7   0.002176263   0.02484   0.11300   0.07137   0.08355
  18   29282.6    341.5   0.235612395   2.64889  -0.07709   1.00215   1.28010
  19   29593.2    337.9   0.068717755   0.76446  -0.49610  -0.09861   0.71317
  20   30059.6    332.7   0.015550655   0.17031   0.23163   0.27786  -0.19863
  21   30237.4    330.7   0.042772729   0.46569  -0.03719  -0.32308  -0.59994
  22   31645.7    316.0   0.209213020   2.17645   0.61809   1.23049   0.52943
  23   31775.6    314.7   0.001650655   0.01710   0.08049   0.09964   0.02635
  24   32258.5    310.0   0.003301888   0.03370  -0.12283  -0.12478  -0.05514
  25   32453.3    308.1   0.057589866   0.58420  -0.28668  -0.70715   0.04414
  26   32656.5    306.2   0.057069589   0.57532   0.09727  -0.74698   0.08877
  27   32885.1    304.1   0.055790566   0.55852   0.37761   0.62236  -0.16911
  28   33268.5    300.6   0.011994776   0.11870   0.27985   0.06377  -0.19056
  29   33831.0    295.6   0.006398822   0.06227   0.03498   0.14754  -0.19818
  30   34011.7    294.0   0.387078859   3.74668  -0.29204  -1.87397   0.38683
  31   34053.7    293.7   0.008066227   0.07798   0.09468   0.07597  -0.25149
  32   34203.5    292.4   0.057303385   0.55155   0.37196   0.20514  -0.60919
  33   34479.9    290.0   0.105493845   1.00725  -0.49987  -0.77614   0.39368
  34   34670.8    288.4   0.097596161   0.92671  -0.24612   0.85830   0.35981
  35   35022.9    285.5   0.048307230   0.45408  -0.53416   0.14134   0.38572
  36   35252.8    283.7   0.144559314   1.34998   0.06456   1.15939   0.04030
  37   35471.7    281.9   0.442291066   4.10489  -1.30934  -1.17330   1.00692
  38   35701.9    280.1   0.233153391   2.14994  -0.23538  -1.37325   0.45685
  39   36506.1    273.9   0.022616200   0.20395  -0.29961   0.13863  -0.30817
  40   36714.8    272.4   0.007896088   0.07080  -0.19571   0.13776   0.11630
  41   36777.3    271.9   0.126853792   1.13553   0.26213   1.01462   0.19330
  42   36807.7    271.7   0.035112615   0.31405   0.26233   0.49521  -0.00065
  43   37368.4    267.6   0.000518043   0.00456  -0.02819  -0.06078   0.00865
  44   37658.8    265.5   0.001956130   0.01710   0.07554   0.03621   0.10041
  45   37750.9    264.9   0.020436495   0.17822   0.07657   0.26630  -0.31850
  46   38345.1    260.8   0.005532458   0.04750  -0.15807   0.14874  -0.01970
  47   38758.3    258.0   0.013327172   0.11320  -0.09279   0.29947   0.12210
  48   39202.7    255.1   0.025835124   0.21696   0.09800   0.45526  -0.00935
  49   39563.4    252.8   0.050859877   0.42321   0.11991   0.04452  -0.63785
  50   39721.8    251.8   0.073085416   0.60573   0.29343   0.63273   0.34536
  51   40035.1    249.8   0.079916212   0.65716   0.35702   0.72699  -0.03435

FINAL SINGLE POINT ENERGY     -5413.262019985805

DIPOLE MOMENT
-------------
                                X             Y             Z
Electronic contribution:     16.46750      31.19450     -20.79163
Nuclear contribution   :    -16.23094     -29.36533      20.73244
                        -----------------------------------------
Total Dipole Moment    :      0.23656       1.82916      -0.05918
                        -----------------------------------------
Magnitude (a.u.)       :      1.84535
Magnitude (Debye)      :      4.69050

Rotational constants in cm-1:     0.001914     0.000117     0.000111
Rotational constants in MHz :    57.376570     3.497920     3.338613

                             ****ORCA TERMINATED NORMALLY****
TOTAL RUN TIME: 0 days 0 hours 11 minutes 28 seconds 32 msec
