                         Program Version 4.2.0 -  RELEASE  -
|  1> # ORCA input file
|  2> # SCF done       -164.608743523850          0.000924166877
|  3> ! CAM-B3LYP def2-SVP def2/J RIJCOSX Grid4 TightSCF
|  4> %maxcore 5000
|  5> %tddft
|  6>     Mode sTDDFT
|  7>     Ethresh 5.0
|  8>     maxcore 5000
|  9> end
| 10>
| 11> %pal
| 12>   nprocs 6
| 13>   end
| 14> * xyz 0 1
| 15>    C        0.55945        -1.48830         1.16112
| 16>    C        0.03906        -2.07753         2.28486
| 17>    C        0.58636        -1.93340         3.57539
| 18>    N        1.00794        -1.86499         4.64081
| 19>    C       -1.16363        -2.81155         2.27680
| 20>    N       -2.16391        -3.37319         2.30937
| 21>    C        1.60833        -0.46928         1.15045
| 22>    C        1.53828         0.23893        -0.06339
| 23>    C        2.38538         1.29339        -0.33510
| 24>    C        3.33262         1.64176         0.62065
| 25>    C        3.41590         0.93380         1.82463
| 26>    C        2.55256        -0.12164         2.10055
| 27>   Cl        4.60104         1.36677         2.98909
| 28>   Cl        4.40624         2.94749         0.31767
| 29>    C        0.47645        -0.34510        -0.91301
| 30>    O        0.10151         0.03118        -2.00016
| 31>    C       -0.00181        -1.53695        -0.16803
| 32>    C       -0.76470        -2.46363        -0.82021
| 33>    C       -0.99351        -3.82002        -0.51815
| 34>    N       -1.94076        -4.54503        -1.19272
| 35>    C       -1.90537        -5.84213        -0.79782
| 36>    C       -0.87121        -5.97535         0.13654
| 37>    C       -0.31462        -4.72305         0.31540
| 38>    C       -2.75833        -6.82170        -1.28628
| 39>    C       -3.48669        -7.69852        -1.70583
| 40>    C       -4.28722        -8.72097        -2.18339
| 41>    S       -4.00631       -10.37144        -1.71628
| 42>    C       -5.32536       -10.91460        -2.71147
| 43>    C       -5.93168        -9.85725        -3.37382
| 44>    C       -5.34915        -8.61728        -3.06333
| 45>    C       -5.81166        -7.31092        -3.62793
| 46>    C       -7.20844        -7.45287        -4.24954
| 47>    C       -8.20669        -7.59001        -3.21229
| 48>    N       -8.99150        -7.71751        -2.39200
| 49>    C       -7.25090        -8.69894        -5.16275
| 50>    C       -6.20214        -8.59913        -6.15341
| 51>    N       -5.36195        -8.51995        -6.92349
| 52>    C       -7.07290        -9.98455        -4.33706
| 53>    C       -5.62594       -12.30722        -2.73285
| 54>    N       -6.73168       -12.85645        -3.28453
| 55>    C       -6.70284       -14.21905        -3.12506
| 56>    C       -5.52566       -14.54470        -2.44441
| 57>    C       -4.85986       -13.35710        -2.19865
| 58>    C       -7.76137       -14.93084        -3.64112
| 59>    C       -8.80975       -15.20955        -4.20431
| 60>    C       -9.98766       -15.48623        -4.84504
| 61>    C      -10.73550       -14.46267        -5.38088
| 62>    C      -11.99280       -14.55661        -6.08866
| 63>    C      -12.69894       -15.69452        -6.38066
| 64>    C      -13.92302       -15.71015        -7.08206
| 65>    N      -14.91872       -15.79174        -7.64733
| 66>    C      -12.30667       -17.00268        -6.02722
| 67>    N      -12.04534       -18.09093        -5.77105
| 68>    C      -12.39051       -13.19549        -6.45002
| 69>    C      -11.41471       -12.29737        -5.98271
| 70>    C      -10.33767       -13.04634        -5.30477
| 71>    O       -9.33451       -12.56440        -4.80318
| 72>    C      -11.52988       -10.93628        -6.17541
| 73>    C      -12.64109       -10.45578        -6.85624
| 74>    C      -13.61487       -11.34198        -7.32785
| 75>    C      -13.49795       -12.71419        -7.12702
| 76>   Cl      -14.98380       -10.73699        -8.16924
| 77>   Cl      -12.81408        -8.76680        -7.11734
| 78>    H        2.31278         1.83297        -1.26610
| 79>    H        2.64388        -0.64801         3.03687
| 80>    H       -1.17390        -2.11630        -1.76542
| 81>    H       -2.60764        -4.15485        -1.83908
| 82>    H       -0.58313        -6.88898         0.61619
| 83>    H        0.52246        -4.48869         0.94250
| 84>    H       -5.11020        -6.97916        -4.40132
| 85>    H       -5.82018        -6.55031        -2.84206
| 86>    H       -7.44578        -6.55428        -4.83208
| 87>    H       -8.21005        -8.74062        -5.69330
| 88>    H       -6.90225       -10.82084        -5.02103
| 89>    H       -8.00246       -10.17823        -3.79049
| 90>    H       -7.51710       -12.40016        -3.72573
| 91>    H       -5.21150       -15.53275        -2.17363
| 92>    H       -3.91934       -13.23866        -1.69725
| 93>    H      -10.31019       -16.51515        -4.91632
| 94>    H      -10.77832       -10.26014        -5.80064
| 95>    H      -14.26961       -13.36583        -7.50262
| 96> *
| 97>
| 98>                          ****END OF INPUT****

CARTESIAN COORDINATES (ANGSTROEM)
---------------------------------
  C      0.559450   -1.488300    1.161120
  C      0.039060   -2.077530    2.284860
  C      0.586360   -1.933400    3.575390
  N      1.007940   -1.864990    4.640810
  C     -1.163630   -2.811550    2.276800
  N     -2.163910   -3.373190    2.309370
  C      1.608330   -0.469280    1.150450
  C      1.538280    0.238930   -0.063390
  C      2.385380    1.293390   -0.335100
  C      3.332620    1.641760    0.620650
  C      3.415900    0.933800    1.824630
  C      2.552560   -0.121640    2.100550
  Cl     4.601040    1.366770    2.989090
  Cl     4.406240    2.947490    0.317670
  C      0.476450   -0.345100   -0.913010
  O      0.101510    0.031180   -2.000160
  C     -0.001810   -1.536950   -0.168030
  C     -0.764700   -2.463630   -0.820210
  C     -0.993510   -3.820020   -0.518150
  N     -1.940760   -4.545030   -1.192720
  C     -1.905370   -5.842130   -0.797820
  C     -0.871210   -5.975350    0.136540
  C     -0.314620   -4.723050    0.315400
  C     -2.758330   -6.821700   -1.286280
  C     -3.486690   -7.698520   -1.705830
  C     -4.287220   -8.720970   -2.183390
  S     -4.006310  -10.371440   -1.716280
  C     -5.325360  -10.914600   -2.711470
  C     -5.931680   -9.857250   -3.373820
  C     -5.349150   -8.617280   -3.063330
  C     -5.811660   -7.310920   -3.627930
  C     -7.208440   -7.452870   -4.249540
  C     -8.206690   -7.590010   -3.212290
  N     -8.991500   -7.717510   -2.392000
  C     -7.250900   -8.698940   -5.162750
  C     -6.202140   -8.599130   -6.153410
  N     -5.361950   -8.519950   -6.923490
  C     -7.072900   -9.984550   -4.337060
  C     -5.625940  -12.307220   -2.732850
  N     -6.731680  -12.856450   -3.284530
  C     -6.702840  -14.219050   -3.125060
  C     -5.525660  -14.544700   -2.444410
  C     -4.859860  -13.357100   -2.198650
  C     -7.761370  -14.930840   -3.641120
  C     -8.809750  -15.209550   -4.204310
  C     -9.987660  -15.486230   -4.845040
  C    -10.735500  -14.462670   -5.380880
  C    -11.992800  -14.556610   -6.088660
  C    -12.698940  -15.694520   -6.380660
  C    -13.923020  -15.710150   -7.082060
  N    -14.918720  -15.791740   -7.647330
  C    -12.306670  -17.002680   -6.027220
  N    -12.045340  -18.090930   -5.771050
  C    -12.390510  -13.195490   -6.450020
  C    -11.414710  -12.297370   -5.982710
  C    -10.337670  -13.046340   -5.304770
  O     -9.334510  -12.564400   -4.803180
  C    -11.529880  -10.936280   -6.175410
  C    -12.641090  -10.455780   -6.856240
  C    -13.614870  -11.341980   -7.327850
  C    -13.497950  -12.714190   -7.127020
  Cl   -14.983800  -10.736990   -8.169240
  Cl   -12.814080   -8.766800   -7.117340
  H      2.312780    1.832970   -1.266100
  H      2.643880   -0.648010    3.036870
  H     -1.173900   -2.116300   -1.765420
  H     -2.607640   -4.154850   -1.839080
  H     -0.583130   -6.888980    0.616190
  H      0.522460   -4.488690    0.942500
  H     -5.110200   -6.979160   -4.401320
  H     -5.820180   -6.550310   -2.842060
  H     -7.445780   -6.554280   -4.832080
  H     -8.210050   -8.740620   -5.693300
  H     -6.902250  -10.820840   -5.021030
  H     -8.002460  -10.178230   -3.790490
  H     -7.517100  -12.400160   -3.725730
  H     -5.211500  -15.532750   -2.173630
  H     -3.919340  -13.238660   -1.697250
  H    -10.310190  -16.515150   -4.916320
  H    -10.778320  -10.260140   -5.800640
  H    -14.269610  -13.365830   -7.502620

 Total Charge           Charge          ....    0
 Multiplicity           Mult            ....    1
 Number of Electrons    NEL             ....  462
 Basis Dimension        Dim             ....  992

ORBITAL ENERGIES
----------------

  NO   OCC          E(Eh)            E(eV)
   0   2.0000    -101.610847     -2764.9717
   1   2.0000    -101.607389     -2764.8776
   2   2.0000    -101.602059     -2764.7326
   3   2.0000    -101.601347     -2764.7132
   4   2.0000     -88.982471     -2421.3361
   5   2.0000     -19.241239      -523.5807
   6   2.0000     -19.222095      -523.0598
   7   2.0000     -14.493070      -394.3765
   8   2.0000     -14.483615      -394.1192
   9   2.0000     -14.427746      -392.5989
  10   2.0000     -14.427682      -392.5972
  11   2.0000     -14.427334      -392.5877
  12   2.0000     -14.425026      -392.5249
  13   2.0000     -14.420584      -392.4040
  14   2.0000     -14.419560      -392.3762
  15   2.0000     -10.389995      -282.7261
  16   2.0000     -10.373716      -282.2832
  17   2.0000     -10.366636      -282.0905
  18   2.0000     -10.365935      -282.0714
  19   2.0000     -10.358598      -281.8718
  20   2.0000     -10.357928      -281.8535
  21   2.0000     -10.356525      -281.8154
  22   2.0000     -10.355891      -281.7981
  23   2.0000     -10.355455      -281.7863
  24   2.0000     -10.354429      -281.7583
  25   2.0000     -10.349052      -281.6120
  26   2.0000     -10.348438      -281.5953
  27   2.0000     -10.347982      -281.5829
  28   2.0000     -10.342191      -281.4253
  29   2.0000     -10.342171      -281.4248
  30   2.0000     -10.335817      -281.2519
  31   2.0000     -10.333388      -281.1858
  32   2.0000     -10.332065      -281.1498
  33   2.0000     -10.330235      -281.1000
  34   2.0000     -10.329357      -281.0761
  35   2.0000     -10.327937      -281.0374
  36   2.0000     -10.327242      -281.0186
  37   2.0000     -10.326403      -280.9957
  38   2.0000     -10.326010      -280.9850
  39   2.0000     -10.325561      -280.9728
  40   2.0000     -10.322877      -280.8998
  41   2.0000     -10.322078      -280.8780
  42   2.0000     -10.320448      -280.8337
  43   2.0000     -10.319256      -280.8012
  44   2.0000     -10.318906      -280.7917
  45   2.0000     -10.318517      -280.7811
  46   2.0000     -10.317048      -280.7411
  47   2.0000     -10.313297      -280.6391
  48   2.0000     -10.312995      -280.6309
  49   2.0000     -10.312076      -280.6058
  50   2.0000     -10.311782      -280.5978
  51   2.0000     -10.311639      -280.5940
  52   2.0000     -10.311379      -280.5869
  53   2.0000     -10.309531      -280.5366
  54   2.0000     -10.308296      -280.5030
  55   2.0000     -10.304518      -280.4002
  56   2.0000     -10.304295      -280.3941
  57   2.0000     -10.301638      -280.3218
  58   2.0000     -10.300640      -280.2947
  59   2.0000     -10.293366      -280.0967
  60   2.0000     -10.292270      -280.0669
  61   2.0000     -10.287059      -279.9251
  62   2.0000     -10.285668      -279.8873
  63   2.0000      -9.565860      -260.3003
  64   2.0000      -9.562432      -260.2070
  65   2.0000      -9.557084      -260.0615
  66   2.0000      -9.556306      -260.0403
  67   2.0000      -8.077629      -219.8035
  68   2.0000      -7.336249      -199.6295
  69   2.0000      -7.332858      -199.5372
  70   2.0000      -7.327469      -199.3906
  71   2.0000      -7.326724      -199.3703
  72   2.0000      -7.326102      -199.3534
  73   2.0000      -7.325405      -199.3344
  74   2.0000      -7.322663      -199.2598
  75   2.0000      -7.321927      -199.2398
  76   2.0000      -7.317343      -199.1150
  77   2.0000      -7.316619      -199.0953
  78   2.0000      -7.316560      -199.0937
  79   2.0000      -7.315831      -199.0739
  80   2.0000      -6.047029      -164.5480
  81   2.0000      -6.042884      -164.4352
  82   2.0000      -6.039501      -164.3432
  83   2.0000      -1.151237       -31.3268
  84   2.0000      -1.137218       -30.9453
  85   2.0000      -1.111425       -30.2434
  86   2.0000      -1.107766       -30.1438
  87   2.0000      -1.041571       -28.3426
  88   2.0000      -1.034174       -28.1413
  89   2.0000      -1.033765       -28.1302
  90   2.0000      -1.025829       -27.9142
  91   2.0000      -1.018888       -27.7253
  92   2.0000      -1.012492       -27.5513
  93   2.0000      -1.012043       -27.5391
  94   2.0000      -1.004677       -27.3386
  95   2.0000      -1.002196       -27.2711
  96   2.0000      -0.998478       -27.1700
  97   2.0000      -0.994020       -27.0487
  98   2.0000      -0.971387       -26.4328
  99   2.0000      -0.970624       -26.4120
 100   2.0000      -0.963829       -26.2271
 101   2.0000      -0.948354       -25.8060
 102   2.0000      -0.939442       -25.5635
 103   2.0000      -0.928928       -25.2774
 104   2.0000      -0.923151       -25.1202
 105   2.0000      -0.916140       -24.9294
 106   2.0000      -0.902908       -24.5694
 107   2.0000      -0.901660       -24.5354
 108   2.0000      -0.897628       -24.4257
 109   2.0000      -0.894936       -24.3524
 110   2.0000      -0.884147       -24.0589
 111   2.0000      -0.878980       -23.9183
 112   2.0000      -0.872007       -23.7285
 113   2.0000      -0.870779       -23.6951
 114   2.0000      -0.863398       -23.4943
 115   2.0000      -0.852755       -23.2046
 116   2.0000      -0.829702       -22.5773
 117   2.0000      -0.812867       -22.1192
 118   2.0000      -0.792800       -21.5732
 119   2.0000      -0.785961       -21.3871
 120   2.0000      -0.779096       -21.2003
 121   2.0000      -0.772684       -21.0258
 122   2.0000      -0.770267       -20.9600
 123   2.0000      -0.765314       -20.8253
 124   2.0000      -0.742073       -20.1928
 125   2.0000      -0.729963       -19.8633
 126   2.0000      -0.722798       -19.6683
 127   2.0000      -0.711986       -19.3741
 128   2.0000      -0.707657       -19.2563
 129   2.0000      -0.706916       -19.2362
 130   2.0000      -0.704905       -19.1814
 131   2.0000      -0.703246       -19.1363
 132   2.0000      -0.696480       -18.9522
 133   2.0000      -0.689154       -18.7528
 134   2.0000      -0.685282       -18.6475
 135   2.0000      -0.672760       -18.3067
 136   2.0000      -0.663388       -18.0517
 137   2.0000      -0.656157       -17.8549
 138   2.0000      -0.651132       -17.7182
 139   2.0000      -0.633390       -17.2354
 140   2.0000      -0.630015       -17.1436
 141   2.0000      -0.625914       -17.0320
 142   2.0000      -0.617494       -16.8029
 143   2.0000      -0.616705       -16.7814
 144   2.0000      -0.612085       -16.6557
 145   2.0000      -0.601808       -16.3760
 146   2.0000      -0.598141       -16.2762
 147   2.0000      -0.597634       -16.2625
 148   2.0000      -0.586163       -15.9503
 149   2.0000      -0.571464       -15.5503
 150   2.0000      -0.570802       -15.5323
 151   2.0000      -0.564942       -15.3728
 152   2.0000      -0.559984       -15.2379
 153   2.0000      -0.559477       -15.2241
 154   2.0000      -0.557806       -15.1787
 155   2.0000      -0.556260       -15.1366
 156   2.0000      -0.555460       -15.1148
 157   2.0000      -0.552329       -15.0296
 158   2.0000      -0.548715       -14.9313
 159   2.0000      -0.546911       -14.8822
 160   2.0000      -0.545683       -14.8488
 161   2.0000      -0.543523       -14.7900
 162   2.0000      -0.541340       -14.7306
 163   2.0000      -0.538480       -14.6528
 164   2.0000      -0.534005       -14.5310
 165   2.0000      -0.532442       -14.4885
 166   2.0000      -0.525861       -14.3094
 167   2.0000      -0.524586       -14.2747
 168   2.0000      -0.524077       -14.2609
 169   2.0000      -0.518567       -14.1109
 170   2.0000      -0.517252       -14.0751
 171   2.0000      -0.515787       -14.0353
 172   2.0000      -0.514842       -14.0096
 173   2.0000      -0.509764       -13.8714
 174   2.0000      -0.508454       -13.8357
 175   2.0000      -0.503886       -13.7114
 176   2.0000      -0.499810       -13.6005
 177   2.0000      -0.496488       -13.5101
 178   2.0000      -0.495854       -13.4929
 179   2.0000      -0.493033       -13.4161
 180   2.0000      -0.487034       -13.2529
 181   2.0000      -0.480403       -13.0724
 182   2.0000      -0.475482       -12.9385
 183   2.0000      -0.470994       -12.8164
 184   2.0000      -0.468102       -12.7377
 185   2.0000      -0.464524       -12.6404
 186   2.0000      -0.458762       -12.4835
 187   2.0000      -0.457787       -12.4570
 188   2.0000      -0.453985       -12.3535
 189   2.0000      -0.453561       -12.3420
 190   2.0000      -0.453238       -12.3332
 191   2.0000      -0.451796       -12.2940
 192   2.0000      -0.448828       -12.2132
 193   2.0000      -0.447712       -12.1829
 194   2.0000      -0.446088       -12.1387
 195   2.0000      -0.443770       -12.0756
 196   2.0000      -0.441544       -12.0150
 197   2.0000      -0.438521       -11.9328
 198   2.0000      -0.438391       -11.9292
 199   2.0000      -0.437680       -11.9099
 200   2.0000      -0.436269       -11.8715
 201   2.0000      -0.432271       -11.7627
 202   2.0000      -0.430330       -11.7099
 203   2.0000      -0.428134       -11.6501
 204   2.0000      -0.427074       -11.6213
 205   2.0000      -0.422577       -11.4989
 206   2.0000      -0.419218       -11.4075
 207   2.0000      -0.418228       -11.3806
 208   2.0000      -0.417722       -11.3668
 209   2.0000      -0.412559       -11.2263
 210   2.0000      -0.411400       -11.1948
 211   2.0000      -0.405795       -11.0422
 212   2.0000      -0.398084       -10.8324
 213   2.0000      -0.393321       -10.7028
 214   2.0000      -0.387199       -10.5362
 215   2.0000      -0.383699       -10.4410
 216   2.0000      -0.377944       -10.2844
 217   2.0000      -0.373487       -10.1631
 218   2.0000      -0.360175        -9.8009
 219   2.0000      -0.355626        -9.6771
 220   2.0000      -0.353555        -9.6207
 221   2.0000      -0.349488        -9.5101
 222   2.0000      -0.346690        -9.4339
 223   2.0000      -0.346204        -9.4207
 224   2.0000      -0.340084        -9.2542
 225   2.0000      -0.339007        -9.2248
 226   2.0000      -0.326272        -8.8783
 227   2.0000      -0.319051        -8.6818
 228   2.0000      -0.313110        -8.5202
 229   2.0000      -0.282409        -7.6847
 230   2.0000      -0.252854        -6.8805
 231   0.0000      -0.108637        -2.9562
 232   0.0000      -0.095282        -2.5927
 233   0.0000      -0.081805        -2.2260
 234   0.0000      -0.068786        -1.8717
 235   0.0000      -0.046206        -1.2573

MULLIKEN ATOMIC CHARGES
-----------------------
   0 C :    0.264718
   1 C :   -0.330074
   2 C :   -0.176260
   3 N :    0.157767
   4 C :   -0.208276
   5 N :    0.174942
   6 C :    0.015260
   7 C :    0.003173
   8 C :   -0.030081
   9 C :    0.054246
  10 C :    0.051577
  11 C :   -0.013509
  12 Cl:   -0.036539
  13 Cl:   -0.043007
  14 C :    0.135986
  15 O :   -0.142825
  16 C :   -0.147139
  17 C :    0.036728
  18 C :    0.078906
  19 N :   -0.036316
  20 C :    0.006194
  21 C :    0.002795
  22 C :    0.011381
  23 C :    0.065811
  24 C :   -0.062787
  25 C :   -0.167217
  26 S :    0.190613
  27 C :   -0.095225
  28 C :   -0.074728
  29 C :   -0.051737
  30 C :    0.168144
  31 C :   -0.083244
  32 C :   -0.244310
  33 N :    0.150216
  34 C :   -0.072523
  35 C :   -0.255190
  36 N :    0.152695
  37 C :    0.105513
  38 C :    0.072462
  39 N :   -0.049215
  40 C :   -0.009426
  41 C :    0.036414
  42 C :   -0.056054
  43 C :    0.071835
  44 C :    0.038563
  45 C :   -0.062731
  46 C :   -0.140005
  47 C :    0.315901
  48 C :   -0.343425
  49 C :   -0.187587
  50 N :    0.162306
  51 C :   -0.190873
  52 N :    0.164984
  53 C :    0.032178
  54 C :   -0.010912
  55 C :    0.182078
  56 O :   -0.187325
  57 C :   -0.027972
  58 C :    0.063449
  59 C :    0.046188
  60 C :   -0.010450
  61 Cl:   -0.028985
  62 Cl:   -0.042536
  63 H :    0.000203
  64 H :    0.002167
  65 H :    0.009676
  66 H :    0.130429
  67 H :   -0.012940
  68 H :    0.001329
  69 H :    0.055609
  70 H :    0.044025
  71 H :    0.055657
  72 H :    0.057119
  73 H :    0.052424
  74 H :    0.068032
  75 H :    0.133932
  76 H :   -0.011995
  77 H :   -0.008074
  78 H :    0.051413
  79 H :   -0.026041
  80 H :    0.002495
Sum of atomic charges:    0.0000000

LOEWDIN ATOMIC CHARGES
----------------------
   0 C :    0.064330
   1 C :   -0.139278
   2 C :   -0.023311
   3 N :   -0.046790
   4 C :   -0.018732
   5 N :   -0.040659
   6 C :   -0.010933
   7 C :   -0.045669
   8 C :    0.001143
   9 C :   -0.136057
  10 C :   -0.130023
  11 C :   -0.015321
  12 Cl:    0.162159
  13 Cl:    0.158076
  14 C :    0.082609
  15 O :   -0.143943
  16 C :   -0.102461
  17 C :    0.054112
  18 C :   -0.024213
  19 N :    0.117778
  20 C :   -0.002271
  21 C :   -0.031346
  22 C :   -0.011252
  23 C :   -0.038282
  24 C :   -0.037396
  25 C :   -0.190623
  26 S :    0.480346
  27 C :   -0.168857
  28 C :   -0.058007
  29 C :   -0.041218
  30 C :   -0.004216
  31 C :   -0.034105
  32 C :   -0.037939
  33 N :   -0.046916
  34 C :   -0.032024
  35 C :   -0.037395
  36 N :   -0.047413
  37 C :   -0.012937
  38 C :   -0.003173
  39 N :    0.120580
  40 C :   -0.038057
  41 C :   -0.009722
  42 C :   -0.064363
  43 C :    0.009679
  44 C :   -0.029609
  45 C :    0.059984
  46 C :   -0.097231
  47 C :    0.071046
  48 C :   -0.131556
  49 C :   -0.020747
  50 N :   -0.042736
  51 C :   -0.020073
  52 N :   -0.041699
  53 C :   -0.009934
  54 C :   -0.044547
  55 C :    0.099632
  56 O :   -0.169963
  57 C :   -0.004560
  58 C :   -0.134318
  59 C :   -0.128535
  60 C :   -0.010236
  61 Cl:    0.166756
  62 Cl:    0.158753
  63 H :    0.046078
  64 H :    0.044191
  65 H :    0.044905
  66 H :    0.098755
  67 H :    0.035608
  68 H :    0.033134
  69 H :    0.048664
  70 H :    0.046652
  71 H :    0.062614
  72 H :    0.061165
  73 H :    0.043698
  74 H :    0.044079
  75 H :    0.085531
  76 H :    0.036754
  77 H :    0.026675
  78 H :    0.061387
  79 H :    0.038123
  80 H :    0.045651

  Mayer bond orders larger than 0.100000
B(  0-C ,  1-C ) :   1.6462 B(  0-C ,  6-C ) :   1.0009 B(  0-C , 16-C ) :   1.0545
B(  1-C ,  2-C ) :   1.1255 B(  1-C ,  4-C ) :   1.1664 B(  2-C ,  3-N ) :   2.9897
B(  4-C ,  5-N ) :   2.9984 B(  6-C ,  7-C ) :   1.3288 B(  6-C , 11-C ) :   1.3528
B(  7-C ,  8-C ) :   1.3499 B(  7-C , 14-C ) :   0.9206 B(  8-C ,  9-C ) :   1.3439
B(  8-C , 63-H ) :   1.0164 B(  9-C , 10-C ) :   1.4120 B(  9-C , 13-Cl) :   1.0470
B( 10-C , 11-C ) :   1.3530 B( 10-C , 12-Cl) :   1.0692 B( 11-C , 64-H ) :   0.9901
B( 14-C , 15-O ) :   2.2634 B( 14-C , 16-C ) :   0.9567 B( 16-C , 17-C ) :   1.6302
B( 17-C , 18-C ) :   1.1164 B( 17-C , 65-H ) :   0.9336 B( 18-C , 19-N ) :   1.1810
B( 18-C , 20-C ) :   0.1157 B( 18-C , 22-C ) :   1.3432 B( 19-N , 20-C ) :   1.2822
B( 19-N , 66-H ) :   0.9367 B( 20-C , 21-C ) :   1.3799 B( 20-C , 23-C ) :   0.8160
B( 21-C , 22-C ) :   1.3908 B( 21-C , 67-H ) :   1.0148 B( 22-C , 68-H ) :   0.9991
B( 23-C , 24-C ) :   2.2535 B( 24-C , 25-C ) :   0.9564 B( 25-C , 26-S ) :   1.1093
B( 25-C , 27-C ) :   0.1211 B( 25-C , 29-C ) :   1.5146 B( 26-S , 27-C ) :   1.1448
B( 27-C , 28-C ) :   1.5143 B( 27-C , 38-C ) :   1.0763 B( 28-C , 29-C ) :   1.3162
B( 28-C , 37-C ) :   1.0306 B( 29-C , 30-C ) :   1.0453 B( 30-C , 31-C ) :   1.0641
B( 30-C , 69-H ) :   0.8979 B( 30-C , 70-H ) :   0.9087 B( 31-C , 32-C ) :   1.1038
B( 31-C , 34-C ) :   1.0791 B( 31-C , 71-H ) :   0.8567 B( 32-C , 33-N ) :   3.1049
B( 34-C , 35-C ) :   1.1076 B( 34-C , 37-C ) :   1.0597 B( 34-C , 72-H ) :   0.8558
B( 35-C , 36-N ) :   3.1064 B( 37-C , 73-H ) :   0.9141 B( 37-C , 74-H ) :   0.8973
B( 38-C , 39-N ) :   1.2993 B( 38-C , 40-C ) :   0.1159 B( 38-C , 42-C ) :   1.3614
B( 39-N , 40-C ) :   1.2284 B( 39-N , 75-H ) :   0.8946 B( 40-C , 41-C ) :   1.3235
B( 40-C , 43-C ) :   1.0018 B( 41-C , 42-C ) :   1.3807 B( 41-C , 76-H ) :   1.0144
B( 42-C , 77-H ) :   0.9974 B( 43-C , 44-C ) :   2.0089 B( 44-C , 45-C ) :   1.1135
B( 45-C , 46-C ) :   1.5496 B( 45-C , 78-H ) :   0.9353 B( 46-C , 47-C ) :   1.0762
B( 46-C , 55-C ) :   0.9855 B( 47-C , 48-C ) :   1.6464 B( 47-C , 53-C ) :   0.9913
B( 48-C , 49-C ) :   1.1388 B( 48-C , 51-C ) :   1.1501 B( 49-C , 50-N ) :   2.9705
B( 51-C , 52-N ) :   2.9699 B( 53-C , 54-C ) :   1.3297 B( 53-C , 60-C ) :   1.3502
B( 54-C , 55-C ) :   0.9557 B( 54-C , 57-C ) :   1.3477 B( 55-C , 56-O ) :   2.1009
B( 57-C , 58-C ) :   1.3428 B( 57-C , 79-H ) :   1.0163 B( 58-C , 59-C ) :   1.4136
B( 58-C , 62-Cl) :   1.0458 B( 59-C , 60-C ) :   1.3508 B( 59-C , 61-Cl) :   1.0809
B( 60-C , 80-H ) :   0.9859

-----------------------------------------------------------------------------
         ABSORPTION SPECTRUM VIA TRANSITION ELECTRIC DIPOLE MOMENTS
-----------------------------------------------------------------------------
State   Energy  Wavelength   fosc         T2         TX        TY        TZ
        (cm-1)    (nm)                  (au**2)     (au)      (au)      (au)
-----------------------------------------------------------------------------
   0   16756.4    596.8   1.946503560  38.24278   4.38001   3.57004   2.51258
   1   19940.2    501.5   0.266989488   4.40799   0.16116  -2.03830  -0.47682
   2   22261.1    449.2   0.012704166   0.18788   0.23805  -0.35713   0.06055
   3   25389.5    393.9   0.377807938   4.89883   0.54916   2.14105  -0.11474
   4   25860.1    386.7   0.047912855   0.60995   0.69437  -0.28145   0.22042
   5   27568.0    362.7   0.000484393   0.00578   0.07023  -0.00737  -0.02826
   6   28566.6    350.1   0.060709489   0.69964   0.26010  -0.20520   0.76804
   7   29425.9    339.8   0.118935409   1.33063  -0.19555   1.09436  -0.30785
   8   29796.7    335.6   0.312307124   3.45055  -1.20437  -1.40955   0.11503
   9   30448.0    328.4   0.153366807   1.65824  -0.43013  -1.16223  -0.34992
  10   31377.6    318.7   0.051991684   0.54549  -0.55396  -0.34192   0.34888
  11   31494.0    317.5   0.079718173   0.83331  -0.04888   0.85014  -0.32891
  12   31958.2    312.9   0.000102289   0.00105   0.00475   0.02449   0.02077
  13   32503.4    307.7   0.048005085   0.48622   0.36760   0.44356  -0.39287
  14   33789.9    295.9   0.021128409   0.20585   0.36812   0.16641   0.20652
  15   34424.8    290.5   0.821803288   7.85910   0.90397   2.65069  -0.12558
  16   34727.6    288.0   0.073673403   0.69841  -0.79810  -0.24538   0.03516
  17   34832.9    287.1   0.138855772   1.31235   0.63558   0.27115  -0.91371
  18   35578.3    281.1   0.075749099   0.70092  -0.27638  -0.52535   0.59037
  19   35699.1    280.1   0.102363675   0.94398  -0.84119  -0.42159   0.24217
  20   36062.5    277.3   0.012380313   0.11302   0.03830   0.02992  -0.33265
  21   36255.4    275.8   0.138870466   1.26099  -0.72275   0.37284  -0.77435
  22   36886.4    271.1   0.025625157   0.22870  -0.44812  -0.11062  -0.12513
  23   37397.9    267.4   0.206800775   1.82046   0.00505   1.26235  -0.47636
  24   37742.7    265.0   0.137591115   1.20014  -0.26955   0.92189  -0.52689
  25   38154.0    262.1   0.085299910   0.73601   0.67337  -0.47826   0.23203
  26   38579.3    259.2   0.022929779   0.19567  -0.16637  -0.21873  -0.34663
  27   38987.5    256.5   0.034503607   0.29135  -0.18199   0.48852  -0.13992
  28   40224.0    248.6   0.137143198   1.12244  -0.77735  -0.22338  -0.68430

FINAL SINGLE POINT ENERGY     -4663.453975787479

DIPOLE MOMENT
-------------
                                X             Y             Z
Electronic contribution:      2.16211      30.91699       1.19431
Nuclear contribution   :     -0.78364     -30.15356      -2.19934
                        -----------------------------------------
Total Dipole Moment    :      1.37848       0.76343      -1.00503
                        -----------------------------------------
Magnitude (a.u.)       :      1.86899
Magnitude (Debye)      :      4.75059

Rotational constants in cm-1:     0.002732     0.000248     0.000234
Rotational constants in MHz :    81.906662     7.433303     7.014196

                             ****ORCA TERMINATED NORMALLY****
TOTAL RUN TIME: 0 days 0 hours 7 minutes 13 seconds 474 msec
