                         Program Version 4.2.0 -  RELEASE  -
|  1> # ORCA input file
|  2> # SCF done       -183.188125704447          0.000556916385
|  3> ! CAM-B3LYP def2-SVP def2/J RIJCOSX Grid4 TightSCF
|  4> %maxcore 5000
|  5> %tddft
|  6>     Mode sTDDFT
|  7>     Ethresh 5.0
|  8>     maxcore 5000
|  9> end
| 10>
| 11> %pal
| 12>   nprocs 6
| 13>   end
| 14> * xyz 0 1
| 15>    C       -3.37310        -5.98141        -2.55886
| 16>    C       -2.25546        -5.61925        -3.26525
| 17>    C       -2.30739        -4.92759        -4.48731
| 18>    N       -2.33930        -4.31253        -5.45705
| 19>    C       -0.95554        -5.99076        -2.86009
| 20>    N        0.08560        -6.38557        -2.58619
| 21>    C       -4.74392        -6.00002        -3.05793
| 22>    C       -5.54185        -6.76834        -2.18813
| 23>    C       -6.88221        -6.98358        -2.43306
| 24>    C       -7.45091        -6.40971        -3.56501
| 25>    C       -6.66354        -5.64240        -4.43367
| 26>    C       -5.30995        -5.44180        -4.19493
| 27>   Cl       -7.38626        -4.91185        -5.81399
| 28>   Cl       -9.11248        -6.63077        -3.89246
| 29>    C       -4.71992        -7.24653        -1.05501
| 30>    O       -5.04780        -7.96721        -0.14664
| 31>    C       -3.38860        -6.59212        -1.24300
| 32>    C       -2.51445        -6.56169        -0.20968
| 33>    C       -1.33530        -5.76706        -0.00881
| 34>    C       -0.27434        -6.25807         0.71088
| 35>    F       -0.20842        -7.47151         1.24213
| 36>    S        1.08078        -5.20700         0.81756
| 37>    C        0.17640        -4.02557        -0.06924
| 38>    F        0.72875        -2.83006        -0.25132
| 39>    C       -1.07402        -4.41701        -0.45717
| 40>    C       -2.04563        -3.59223        -1.13902
| 41>    C       -1.72018        -2.52123        -1.88721
| 42>    C       -2.58275        -1.67959        -2.65565
| 43>    S       -1.78927        -0.48344        -3.64165
| 44>    C       -3.29398         0.00805        -4.34860
| 45>    C       -4.34942        -0.69233        -3.81434
| 46>    C       -3.95132        -1.64157        -2.84589
| 47>    C       -4.93537        -2.51221        -2.12740
| 48>    C       -6.39090        -2.11979        -2.42840
| 49>    C       -7.24839        -3.21024        -2.02726
| 50>    N       -7.88076        -4.11016        -1.71843
| 51>    C       -6.55358        -1.81762        -3.93165
| 52>    C       -7.94914        -1.65382        -4.27059
| 53>    N       -9.05022        -1.50548        -4.53391
| 54>    C       -5.77219        -0.53838        -4.25450
| 55>    C       -3.33319         1.07108        -5.33762
| 56>    C       -4.16166         2.14924        -5.24996
| 57>    F       -5.06646         2.36816        -4.29642
| 58>    S       -3.94060         3.35110        -6.47903
| 59>    C       -2.65608         2.38550        -7.11646
| 60>    F       -2.01810         2.80017        -8.20180
| 61>    C       -2.43859         1.20294        -6.46379
| 62>    C       -1.43022         0.25240        -6.86189
| 63>    C       -1.55306        -1.07644        -6.65385
| 64>    C       -0.53255        -2.06073        -6.76315
| 65>    C        0.69313        -2.04225        -7.35658
| 66>    C        1.67218        -3.10397        -7.17175
| 67>    C        1.76480        -3.90501        -6.06577
| 68>    C        2.74587        -4.90727        -5.90503
| 69>    N        3.52126        -5.73698        -5.74438
| 70>    C        0.95026        -3.76135        -4.92269
| 71>    N        0.35672        -3.65737        -3.94490
| 72>    C        2.61736        -3.03389        -8.27688
| 73>    C        2.34610        -1.87101        -9.02034
| 74>    C        1.19067        -1.15189        -8.43640
| 75>    O        0.75121        -0.08680        -8.80432
| 76>    C        3.09855        -1.52556       -10.12445
| 77>    C        4.14132        -2.36380       -10.49987
| 78>    C        4.41312        -3.52704        -9.76783
| 79>    C        3.65788        -3.86806        -8.65133
| 80>   Cl        5.69853        -4.55610       -10.25077
| 81>   Cl        5.09887        -1.97030       -11.86813
| 82>    H       -7.47656        -7.57462        -1.75502
| 83>    H       -4.72975        -4.85676        -4.89063
| 84>    H       -2.75762        -7.23405         0.60884
| 85>    H       -3.06854        -3.91002        -1.01288
| 86>    H       -0.67385        -2.27903        -2.00509
| 87>    H       -4.76490        -2.45349        -1.04897
| 88>    H       -4.78741        -3.55293        -2.43375
| 89>    H       -6.67194        -1.22728        -1.85634
| 90>    H       -6.15673        -2.65683        -4.51563
| 91>    H       -6.23757         0.30795        -3.73921
| 92>    H       -5.81296        -0.32983        -5.32663
| 93>    H       -0.55453         0.65865        -7.34736
| 94>    H       -2.48337        -1.45668        -6.25271
| 95>    H       -0.79441        -2.98105        -6.25026
| 96>    H        2.88052        -0.62715       -10.68011
| 97>    H        3.88934        -4.77135        -8.11043
| 98> *
| 99>
|100>                          ****END OF INPUT****

CARTESIAN COORDINATES (ANGSTROEM)
---------------------------------
  C     -3.373100   -5.981410   -2.558860
  C     -2.255460   -5.619250   -3.265250
  C     -2.307390   -4.927590   -4.487310
  N     -2.339300   -4.312530   -5.457050
  C     -0.955540   -5.990760   -2.860090
  N      0.085600   -6.385570   -2.586190
  C     -4.743920   -6.000020   -3.057930
  C     -5.541850   -6.768340   -2.188130
  C     -6.882210   -6.983580   -2.433060
  C     -7.450910   -6.409710   -3.565010
  C     -6.663540   -5.642400   -4.433670
  C     -5.309950   -5.441800   -4.194930
  Cl    -7.386260   -4.911850   -5.813990
  Cl    -9.112480   -6.630770   -3.892460
  C     -4.719920   -7.246530   -1.055010
  O     -5.047800   -7.967210   -0.146640
  C     -3.388600   -6.592120   -1.243000
  C     -2.514450   -6.561690   -0.209680
  C     -1.335300   -5.767060   -0.008810
  C     -0.274340   -6.258070    0.710880
  F     -0.208420   -7.471510    1.242130
  S      1.080780   -5.207000    0.817560
  C      0.176400   -4.025570   -0.069240
  F      0.728750   -2.830060   -0.251320
  C     -1.074020   -4.417010   -0.457170
  C     -2.045630   -3.592230   -1.139020
  C     -1.720180   -2.521230   -1.887210
  C     -2.582750   -1.679590   -2.655650
  S     -1.789270   -0.483440   -3.641650
  C     -3.293980    0.008050   -4.348600
  C     -4.349420   -0.692330   -3.814340
  C     -3.951320   -1.641570   -2.845890
  C     -4.935370   -2.512210   -2.127400
  C     -6.390900   -2.119790   -2.428400
  C     -7.248390   -3.210240   -2.027260
  N     -7.880760   -4.110160   -1.718430
  C     -6.553580   -1.817620   -3.931650
  C     -7.949140   -1.653820   -4.270590
  N     -9.050220   -1.505480   -4.533910
  C     -5.772190   -0.538380   -4.254500
  C     -3.333190    1.071080   -5.337620
  C     -4.161660    2.149240   -5.249960
  F     -5.066460    2.368160   -4.296420
  S     -3.940600    3.351100   -6.479030
  C     -2.656080    2.385500   -7.116460
  F     -2.018100    2.800170   -8.201800
  C     -2.438590    1.202940   -6.463790
  C     -1.430220    0.252400   -6.861890
  C     -1.553060   -1.076440   -6.653850
  C     -0.532550   -2.060730   -6.763150
  C      0.693130   -2.042250   -7.356580
  C      1.672180   -3.103970   -7.171750
  C      1.764800   -3.905010   -6.065770
  C      2.745870   -4.907270   -5.905030
  N      3.521260   -5.736980   -5.744380
  C      0.950260   -3.761350   -4.922690
  N      0.356720   -3.657370   -3.944900
  C      2.617360   -3.033890   -8.276880
  C      2.346100   -1.871010   -9.020340
  C      1.190670   -1.151890   -8.436400
  O      0.751210   -0.086800   -8.804320
  C      3.098550   -1.525560  -10.124450
  C      4.141320   -2.363800  -10.499870
  C      4.413120   -3.527040   -9.767830
  C      3.657880   -3.868060   -8.651330
  Cl     5.698530   -4.556100  -10.250770
  Cl     5.098870   -1.970300  -11.868130
  H     -7.476560   -7.574620   -1.755020
  H     -4.729750   -4.856760   -4.890630
  H     -2.757620   -7.234050    0.608840
  H     -3.068540   -3.910020   -1.012880
  H     -0.673850   -2.279030   -2.005090
  H     -4.764900   -2.453490   -1.048970
  H     -4.787410   -3.552930   -2.433750
  H     -6.671940   -1.227280   -1.856340
  H     -6.156730   -2.656830   -4.515630
  H     -6.237570    0.307950   -3.739210
  H     -5.812960   -0.329830   -5.326630
  H     -0.554530    0.658650   -7.347360
  H     -2.483370   -1.456680   -6.252710
  H     -0.794410   -2.981050   -6.250260
  H      2.880520   -0.627150  -10.680110
  H      3.889340   -4.771350   -8.110430

 Total Charge           Charge          ....    0
 Multiplicity           Mult            ....    1
 Number of Electrons    NEL             ....  514
 Basis Dimension        Dim             .... 1046

ORBITAL ENERGIES
----------------

  NO   OCC          E(Eh)            E(eV)
   0   2.0000    -101.610366     -2764.9586
   1   2.0000    -101.603692     -2764.7770
   2   2.0000    -101.602158     -2764.7353
   3   2.0000    -101.599785     -2764.6707
   4   2.0000     -88.996454     -2421.7166
   5   2.0000     -88.991829     -2421.5908
   6   2.0000     -88.966931     -2420.9133
   7   2.0000     -24.825551      -675.5376
   8   2.0000     -24.822902      -675.4655
   9   2.0000     -24.822436      -675.4528
  10   2.0000     -24.815475      -675.2634
  11   2.0000     -19.228441      -523.2325
  12   2.0000     -19.227901      -523.2178
  13   2.0000     -14.436600      -392.8399
  14   2.0000     -14.424550      -392.5120
  15   2.0000     -14.419968      -392.3873
  16   2.0000     -14.419569      -392.3764
  17   2.0000     -14.417536      -392.3211
  18   2.0000     -14.411589      -392.1593
  19   2.0000     -10.404262      -283.1144
  20   2.0000     -10.403816      -283.1022
  21   2.0000     -10.402350      -283.0623
  22   2.0000     -10.391923      -282.7786
  23   2.0000     -10.379566      -282.4423
  24   2.0000     -10.378489      -282.4131
  25   2.0000     -10.362892      -281.9886
  26   2.0000     -10.360131      -281.9135
  27   2.0000     -10.359708      -281.9020
  28   2.0000     -10.359689      -281.9015
  29   2.0000     -10.356897      -281.8255
  30   2.0000     -10.353772      -281.7405
  31   2.0000     -10.350660      -281.6558
  32   2.0000     -10.347869      -281.5798
  33   2.0000     -10.344819      -281.4968
  34   2.0000     -10.341642      -281.4104
  35   2.0000     -10.341268      -281.4002
  36   2.0000     -10.330864      -281.1171
  37   2.0000     -10.329407      -281.0774
  38   2.0000     -10.325348      -280.9670
  39   2.0000     -10.321964      -280.8749
  40   2.0000     -10.320227      -280.8277
  41   2.0000     -10.319562      -280.8096
  42   2.0000     -10.318577      -280.7828
  43   2.0000     -10.318489      -280.7804
  44   2.0000     -10.318375      -280.7773
  45   2.0000     -10.317289      -280.7477
  46   2.0000     -10.316275      -280.7201
  47   2.0000     -10.313965      -280.6572
  48   2.0000     -10.313323      -280.6398
  49   2.0000     -10.313186      -280.6361
  50   2.0000     -10.312912      -280.6286
  51   2.0000     -10.311405      -280.5876
  52   2.0000     -10.310701      -280.5684
  53   2.0000     -10.310427      -280.5610
  54   2.0000     -10.309703      -280.5413
  55   2.0000     -10.309559      -280.5374
  56   2.0000     -10.308577      -280.5106
  57   2.0000     -10.306765      -280.4613
  58   2.0000     -10.306309      -280.4489
  59   2.0000     -10.306074      -280.4425
  60   2.0000     -10.305791      -280.4348
  61   2.0000     -10.302132      -280.3353
  62   2.0000     -10.298839      -280.2457
  63   2.0000     -10.296853      -280.1916
  64   2.0000     -10.294766      -280.1348
  65   2.0000     -10.292699      -280.0786
  66   2.0000     -10.291355      -280.0420
  67   2.0000      -9.564923      -260.2748
  68   2.0000      -9.558753      -260.1069
  69   2.0000      -9.557150      -260.0633
  70   2.0000      -9.554888      -260.0017
  71   2.0000      -8.093639      -220.2391
  72   2.0000      -8.088953      -220.1116
  73   2.0000      -8.062064      -219.3799
  74   2.0000      -7.335259      -199.6025
  75   2.0000      -7.329144      -199.4362
  76   2.0000      -7.327574      -199.3934
  77   2.0000      -7.325299      -199.3315
  78   2.0000      -7.325250      -199.3302
  79   2.0000      -7.324494      -199.3096
  80   2.0000      -7.319014      -199.1605
  81   2.0000      -7.318267      -199.1402
  82   2.0000      -7.317398      -199.1165
  83   2.0000      -7.316657      -199.0964
  84   2.0000      -7.315120      -199.0545
  85   2.0000      -7.314370      -199.0341
  86   2.0000      -6.062801      -164.9772
  87   2.0000      -6.059229      -164.8800
  88   2.0000      -6.058053      -164.8480
  89   2.0000      -6.054973      -164.7642
  90   2.0000      -6.054394      -164.7484
  91   2.0000      -6.050519      -164.6430
  92   2.0000      -6.031263      -164.1190
  93   2.0000      -6.027189      -164.0081
  94   2.0000      -6.024297      -163.9295
  95   2.0000      -1.340669       -36.4815
  96   2.0000      -1.340067       -36.4651
  97   2.0000      -1.339905       -36.4607
  98   2.0000      -1.331535       -36.2329
  99   2.0000      -1.144343       -31.1391
 100   2.0000      -1.144090       -31.1323
 101   2.0000      -1.039360       -28.2824
 102   2.0000      -1.035313       -28.1723
 103   2.0000      -1.028541       -27.9880
 104   2.0000      -1.024024       -27.8651
 105   2.0000      -1.021113       -27.7859
 106   2.0000      -1.017127       -27.6774
 107   2.0000      -1.015602       -27.6359
 108   2.0000      -1.004097       -27.3229
 109   2.0000      -1.001524       -27.2529
 110   2.0000      -1.001383       -27.2490
 111   2.0000      -0.997076       -27.1318
 112   2.0000      -0.996240       -27.1091
 113   2.0000      -0.995334       -27.0844
 114   2.0000      -0.967262       -26.3205
 115   2.0000      -0.965380       -26.2693
 116   2.0000      -0.959975       -26.1223
 117   2.0000      -0.943021       -25.6609
 118   2.0000      -0.941988       -25.6328
 119   2.0000      -0.927718       -25.2445
 120   2.0000      -0.921056       -25.0632
 121   2.0000      -0.917987       -24.9797
 122   2.0000      -0.901977       -24.5440
 123   2.0000      -0.896507       -24.3952
 124   2.0000      -0.885586       -24.0980
 125   2.0000      -0.879638       -23.9362
 126   2.0000      -0.867444       -23.6043
 127   2.0000      -0.866922       -23.5901
 128   2.0000      -0.865437       -23.5497
 129   2.0000      -0.863254       -23.4903
 130   2.0000      -0.844021       -22.9670
 131   2.0000      -0.831343       -22.6220
 132   2.0000      -0.824016       -22.4226
 133   2.0000      -0.797567       -21.7029
 134   2.0000      -0.783248       -21.3133
 135   2.0000      -0.779269       -21.2050
 136   2.0000      -0.770129       -20.9563
 137   2.0000      -0.769234       -20.9319
 138   2.0000      -0.763127       -20.7657
 139   2.0000      -0.758401       -20.6371
 140   2.0000      -0.736039       -20.0286
 141   2.0000      -0.729293       -19.8451
 142   2.0000      -0.723243       -19.6805
 143   2.0000      -0.712258       -19.3815
 144   2.0000      -0.709715       -19.3123
 145   2.0000      -0.703400       -19.1405
 146   2.0000      -0.698874       -19.0173
 147   2.0000      -0.698259       -19.0006
 148   2.0000      -0.692463       -18.8429
 149   2.0000      -0.685714       -18.6592
 150   2.0000      -0.673534       -18.3278
 151   2.0000      -0.671155       -18.2631
 152   2.0000      -0.663756       -18.0617
 153   2.0000      -0.657447       -17.8901
 154   2.0000      -0.645332       -17.5604
 155   2.0000      -0.636270       -17.3138
 156   2.0000      -0.633728       -17.2446
 157   2.0000      -0.625849       -17.0302
 158   2.0000      -0.623553       -16.9677
 159   2.0000      -0.621415       -16.9096
 160   2.0000      -0.618874       -16.8404
 161   2.0000      -0.614797       -16.7295
 162   2.0000      -0.612017       -16.6538
 163   2.0000      -0.603510       -16.4223
 164   2.0000      -0.600249       -16.3336
 165   2.0000      -0.597469       -16.2579
 166   2.0000      -0.594543       -16.1783
 167   2.0000      -0.590571       -16.0703
 168   2.0000      -0.585080       -15.9208
 169   2.0000      -0.583167       -15.8688
 170   2.0000      -0.582509       -15.8509
 171   2.0000      -0.579898       -15.7798
 172   2.0000      -0.577979       -15.7276
 173   2.0000      -0.573924       -15.6173
 174   2.0000      -0.569976       -15.5098
 175   2.0000      -0.566435       -15.4135
 176   2.0000      -0.561186       -15.2706
 177   2.0000      -0.555768       -15.1232
 178   2.0000      -0.555166       -15.1068
 179   2.0000      -0.552753       -15.0412
 180   2.0000      -0.551337       -15.0027
 181   2.0000      -0.548536       -14.9264
 182   2.0000      -0.543488       -14.7890
 183   2.0000      -0.540977       -14.7207
 184   2.0000      -0.540054       -14.6956
 185   2.0000      -0.534640       -14.5483
 186   2.0000      -0.532984       -14.5032
 187   2.0000      -0.529366       -14.4048
 188   2.0000      -0.524360       -14.2686
 189   2.0000      -0.518870       -14.1192
 190   2.0000      -0.515548       -14.0288
 191   2.0000      -0.514555       -14.0017
 192   2.0000      -0.513582       -13.9753
 193   2.0000      -0.511853       -13.9282
 194   2.0000      -0.508591       -13.8395
 195   2.0000      -0.506205       -13.7745
 196   2.0000      -0.503233       -13.6937
 197   2.0000      -0.498123       -13.5546
 198   2.0000      -0.496833       -13.5195
 199   2.0000      -0.489753       -13.3269
 200   2.0000      -0.487688       -13.2707
 201   2.0000      -0.484526       -13.1846
 202   2.0000      -0.480286       -13.0692
 203   2.0000      -0.478674       -13.0254
 204   2.0000      -0.475837       -12.9482
 205   2.0000      -0.474754       -12.9187
 206   2.0000      -0.473832       -12.8936
 207   2.0000      -0.469015       -12.7625
 208   2.0000      -0.468487       -12.7482
 209   2.0000      -0.466017       -12.6810
 210   2.0000      -0.462855       -12.5949
 211   2.0000      -0.460550       -12.5322
 212   2.0000      -0.459241       -12.4966
 213   2.0000      -0.455763       -12.4019
 214   2.0000      -0.455266       -12.3884
 215   2.0000      -0.452758       -12.3202
 216   2.0000      -0.450981       -12.2718
 217   2.0000      -0.448666       -12.2088
 218   2.0000      -0.447116       -12.1667
 219   2.0000      -0.443769       -12.0756
 220   2.0000      -0.439893       -11.9701
 221   2.0000      -0.439415       -11.9571
 222   2.0000      -0.436732       -11.8841
 223   2.0000      -0.432616       -11.7721
 224   2.0000      -0.432072       -11.7573
 225   2.0000      -0.431535       -11.7427
 226   2.0000      -0.429866       -11.6972
 227   2.0000      -0.428399       -11.6573
 228   2.0000      -0.426272       -11.5995
 229   2.0000      -0.425696       -11.5838
 230   2.0000      -0.423036       -11.5114
 231   2.0000      -0.421531       -11.4704
 232   2.0000      -0.415266       -11.3000
 233   2.0000      -0.414906       -11.2902
 234   2.0000      -0.412502       -11.2248
 235   2.0000      -0.411549       -11.1988
 236   2.0000      -0.408178       -11.1071
 237   2.0000      -0.403079       -10.9683
 238   2.0000      -0.401040       -10.9129
 239   2.0000      -0.399544       -10.8721
 240   2.0000      -0.390118       -10.6157
 241   2.0000      -0.385240       -10.4829
 242   2.0000      -0.384839       -10.4720
 243   2.0000      -0.371086       -10.0978
 244   2.0000      -0.361238        -9.8298
 245   2.0000      -0.351580        -9.5670
 246   2.0000      -0.348995        -9.4966
 247   2.0000      -0.346414        -9.4264
 248   2.0000      -0.344793        -9.3823
 249   2.0000      -0.337133        -9.1738
 250   2.0000      -0.328238        -8.9318
 251   2.0000      -0.321616        -8.7516
 252   2.0000      -0.315399        -8.5825
 253   2.0000      -0.314249        -8.5512
 254   2.0000      -0.302892        -8.2421
 255   2.0000      -0.288387        -7.8474
 256   2.0000      -0.266718        -7.2578
 257   0.0000      -0.097092        -2.6420
 258   0.0000      -0.095037        -2.5861
 259   0.0000      -0.071277        -1.9395
 260   0.0000      -0.068402        -1.8613
 261   0.0000      -0.045974        -1.2510

MULLIKEN ATOMIC CHARGES
-----------------------
   0 C :    0.207639
   1 C :   -0.282284
   2 C :   -0.129490
   3 N :    0.121689
   4 C :   -0.191214
   5 N :    0.187322
   6 C :    0.032022
   7 C :   -0.001438
   8 C :   -0.009341
   9 C :    0.088485
  10 C :    0.043133
  11 C :   -0.058138
  12 Cl:   -0.023566
  13 Cl:   -0.027284
  14 C :    0.144944
  15 O :   -0.122228
  16 C :   -0.126429
  17 C :    0.023068
  18 C :   -0.002045
  19 C :    0.106627
  20 F :   -0.141079
  21 S :    0.143083
  22 C :    0.047349
  23 F :   -0.151608
  24 C :    0.101968
  25 C :   -0.032575
  26 C :    0.092369
  27 C :   -0.151361
  28 S :    0.170185
  29 C :   -0.217507
  30 C :   -0.025639
  31 C :   -0.104389
  32 C :    0.183580
  33 C :   -0.066335
  34 C :   -0.246411
  35 N :    0.142391
  36 C :   -0.114812
  37 C :   -0.260254
  38 N :    0.170559
  39 C :    0.219967
  40 C :    0.032923
  41 C :    0.064852
  42 F :   -0.154832
  43 S :    0.121500
  44 C :    0.078181
  45 F :   -0.141808
  46 C :    0.059755
  47 C :    0.014231
  48 C :    0.018091
  49 C :   -0.011395
  50 C :   -0.072313
  51 C :    0.262637
  52 C :   -0.334583
  53 C :   -0.183928
  54 N :    0.162205
  55 C :   -0.156118
  56 N :    0.134036
  57 C :    0.034911
  58 C :   -0.009877
  59 C :    0.156371
  60 O :   -0.143277
  61 C :   -0.029337
  62 C :    0.058936
  63 C :    0.050315
  64 C :   -0.011210
  65 Cl:   -0.034279
  66 Cl:   -0.040388
  67 H :    0.003913
  68 H :   -0.001149
  69 H :    0.036966
  70 H :   -0.011900
  71 H :    0.003139
  72 H :    0.051207
  73 H :    0.030865
  74 H :    0.045443
  75 H :    0.031917
  76 H :    0.027605
  77 H :    0.035249
  78 H :    0.036820
  79 H :    0.014943
  80 H :    0.025048
  81 H :    0.000542
  82 H :    0.002840
Sum of atomic charges:   -0.0000000

LOEWDIN ATOMIC CHARGES
----------------------
   0 C :    0.059061
   1 C :   -0.119374
   2 C :    0.013560
   3 N :   -0.065130
   4 C :   -0.016657
   5 N :   -0.038163
   6 C :   -0.020724
   7 C :   -0.043591
   8 C :    0.018676
   9 C :   -0.123869
  10 C :   -0.133019
  11 C :   -0.033396
  12 Cl:    0.172788
  13 Cl:    0.180374
  14 C :    0.086056
  15 O :   -0.124424
  16 C :   -0.092227
  17 C :    0.080917
  18 C :   -0.107090
  19 C :   -0.054434
  20 F :   -0.034039
  21 S :    0.459528
  22 C :   -0.070167
  23 F :   -0.039279
  24 C :   -0.082001
  25 C :   -0.034717
  26 C :   -0.023836
  27 C :   -0.164360
  28 S :    0.479709
  29 C :   -0.182863
  30 C :   -0.058491
  31 C :   -0.068340
  32 C :   -0.010657
  33 C :   -0.029981
  34 C :   -0.025929
  35 N :   -0.053703
  36 C :   -0.035735
  37 C :   -0.041098
  38 N :   -0.045507
  39 C :   -0.006545
  40 C :   -0.105165
  41 C :   -0.078731
  42 F :   -0.043287
  43 S :    0.435030
  44 C :   -0.065305
  45 F :   -0.034645
  46 C :   -0.099665
  47 C :    0.041970
  48 C :   -0.044896
  49 C :    0.078785
  50 C :   -0.094828
  51 C :    0.078952
  52 C :   -0.134397
  53 C :   -0.021010
  54 N :   -0.041767
  55 C :    0.000204
  56 N :   -0.053388
  57 C :   -0.014421
  58 C :   -0.042191
  59 C :    0.086337
  60 O :   -0.131791
  61 C :    0.000654
  62 C :   -0.134163
  63 C :   -0.130637
  64 C :   -0.010975
  65 Cl:    0.163937
  66 Cl:    0.160874
  67 H :    0.049079
  68 H :    0.037789
  69 H :    0.052620
  70 H :    0.024720
  71 H :    0.027585
  72 H :    0.045048
  73 H :    0.036223
  74 H :    0.059344
  75 H :    0.047044
  76 H :    0.038388
  77 H :    0.043290
  78 H :    0.036540
  79 H :    0.033087
  80 H :    0.041440
  81 H :    0.045984
  82 H :    0.045018

  Mayer bond orders larger than 0.100000
B(  0-C ,  1-C ) :   1.6511 B(  0-C ,  6-C ) :   1.0197 B(  0-C , 16-C ) :   1.0304
B(  1-C ,  2-C ) :   1.1673 B(  1-C ,  4-C ) :   1.1600 B(  2-C ,  3-N ) :   2.8440
B(  4-C ,  5-N ) :   3.0026 B(  6-C ,  7-C ) :   1.3316 B(  6-C , 11-C ) :   1.3169
B(  7-C ,  8-C ) :   1.3508 B(  7-C , 14-C ) :   0.9205 B(  8-C ,  9-C ) :   1.3378
B(  8-C , 67-H ) :   1.0150 B(  9-C , 10-C ) :   1.4139 B(  9-C , 13-Cl) :   1.0621
B( 10-C , 11-C ) :   1.3594 B( 10-C , 12-Cl) :   1.0683 B( 11-C , 68-H ) :   0.9870
B( 14-C , 15-O ) :   2.2878 B( 14-C , 16-C ) :   0.9261 B( 16-C , 17-C ) :   1.7149
B( 17-C , 18-C ) :   1.0512 B( 17-C , 69-H ) :   0.9393 B( 18-C , 19-C ) :   1.4350
B( 18-C , 24-C ) :   1.1435 B( 19-C , 20-F ) :   1.1601 B( 19-C , 21-S ) :   1.1560
B( 21-S , 22-C ) :   1.1120 B( 22-C , 23-F ) :   1.1209 B( 22-C , 24-C ) :   1.4705
B( 24-C , 25-C ) :   1.1073 B( 25-C , 26-C ) :   1.7234 B( 25-C , 70-H ) :   0.9398
B( 26-C , 27-C ) :   1.1195 B( 26-C , 71-H ) :   0.9326 B( 27-C , 28-S ) :   1.1377
B( 27-C , 29-C ) :   0.1134 B( 27-C , 31-C ) :   1.5308 B( 28-S , 29-C ) :   1.1565
B( 29-C , 30-C ) :   1.5687 B( 29-C , 40-C ) :   0.9648 B( 30-C , 31-C ) :   1.2911
B( 30-C , 39-C ) :   1.0658 B( 31-C , 32-C ) :   1.0506 B( 32-C , 33-C ) :   1.0757
B( 32-C , 72-H ) :   0.9000 B( 32-C , 73-H ) :   0.8815 B( 33-C , 34-C ) :   1.0815
B( 33-C , 36-C ) :   1.0644 B( 33-C , 74-H ) :   0.8420 B( 34-C , 35-N ) :   3.0699
B( 36-C , 37-C ) :   1.0977 B( 36-C , 39-C ) :   1.0997 B( 36-C , 75-H ) :   0.8469
B( 37-C , 38-N ) :   3.1240 B( 39-C , 76-H ) :   0.8701 B( 39-C , 77-H ) :   0.9089
B( 40-C , 41-C ) :   1.5239 B( 40-C , 46-C ) :   1.1687 B( 41-C , 42-F ) :   1.1207
B( 41-C , 43-S ) :   1.1036 B( 43-S , 44-C ) :   1.1289 B( 44-C , 45-F ) :   1.1545
B( 44-C , 46-C ) :   1.4423 B( 46-C , 47-C ) :   1.0780 B( 47-C , 48-C ) :   1.6785
B( 47-C , 78-H ) :   0.9417 B( 48-C , 49-C ) :   1.2123 B( 48-C , 79-H ) :   0.9549
B( 49-C , 50-C ) :   1.5933 B( 49-C , 80-H ) :   0.9296 B( 50-C , 51-C ) :   1.0623
B( 50-C , 59-C ) :   0.9413 B( 51-C , 52-C ) :   1.6564 B( 51-C , 57-C ) :   0.9990
B( 52-C , 53-C ) :   1.1272 B( 52-C , 55-C ) :   1.1606 B( 53-C , 54-N ) :   2.9899
B( 55-C , 56-N ) :   2.9056 B( 57-C , 58-C ) :   1.3270 B( 57-C , 64-C ) :   1.3451
B( 58-C , 59-C ) :   0.9483 B( 58-C , 61-C ) :   1.3463 B( 59-C , 60-O ) :   2.1932
B( 61-C , 62-C ) :   1.3436 B( 61-C , 81-H ) :   1.0166 B( 62-C , 63-C ) :   1.4047
B( 62-C , 66-Cl) :   1.0493 B( 63-C , 64-C ) :   1.3570 B( 63-C , 65-Cl) :   1.0735
B( 64-C , 82-H ) :   0.9903

-----------------------------------------------------------------------------
         ABSORPTION SPECTRUM VIA TRANSITION ELECTRIC DIPOLE MOMENTS
-----------------------------------------------------------------------------
State   Energy  Wavelength   fosc         T2         TX        TY        TZ
        (cm-1)    (nm)                  (au**2)     (au)      (au)      (au)
-----------------------------------------------------------------------------
   0   18221.5    548.8   0.040149569   0.72539   0.17163   0.73187  -0.40038
   1   21564.7    463.7   0.011819906   0.18045   0.30736  -0.18836  -0.22472
   2   24435.2    409.2   0.486193457   6.55041   1.77245  -1.84262  -0.11662
   3   25422.7    393.3   0.171453017   2.22024   0.61373   0.68603   1.17172
   4   26275.7    380.6   0.021164938   0.26518   0.31558  -0.00442   0.40690
   5   27659.2    361.5   0.051703682   0.61540   0.67839  -0.13732  -0.36922
   6   27798.4    359.7   0.020232820   0.23961   0.03170  -0.35643  -0.33401
   7   28627.8    349.3   0.012673613   0.14574   0.00144   0.21633  -0.31455
   8   29758.0    336.0   0.071024600   0.78574  -0.51629   0.32037   0.64541
   9   29904.0    334.4   0.282422744   3.10918  -1.61043  -0.25429   0.67160
  10   30597.6    326.8   0.166198454   1.78820  -0.80580   0.10575   1.06193
  11   31014.4    322.4   0.132582182   1.40733  -0.07831   0.92321  -0.74087
  12   31238.1    320.1   0.450919867   4.75216   0.58617  -1.88197   0.93099
  13   31439.2    318.1   0.100547683   1.05287   0.49760  -0.62364   0.64524
  14   31860.6    313.9   0.010969545   0.11335   0.01563   0.23842  -0.23719
  15   32169.1    310.9   0.106446860   1.08935   0.08210  -0.48955   0.91813
  16   32338.8    309.2   0.010106695   0.10289   0.17443  -0.26918   0.00081
  17   32580.8    306.9   0.035291179   0.35660   0.40004  -0.23552  -0.37563
  18   33071.8    302.4   0.218830890   2.17835   1.39703  -0.06208   0.47201
  19   33287.5    300.4   0.257997453   2.55158   1.17907  -0.34162   1.02210
  20   34144.6    292.9   0.479715282   4.62527  -1.95684  -0.62890   0.63287
  21   34477.3    290.0   0.238493212   2.27729   1.38101  -0.30101   0.52866
  22   34852.1    286.9   0.230015827   2.17272   0.45221  -0.43718   1.33308
  23   35083.8    285.0   0.029889708   0.28047  -0.51764  -0.10777  -0.03013
  24   35353.7    282.9   0.298584478   2.78041   0.65258   0.47647  -1.45860
  25   35530.8    281.4   0.037003981   0.34286   0.36551   0.15867  -0.42906
  26   36147.1    276.6   0.216580970   1.97253  -0.73707   1.07443  -0.52426
  27   36197.2    276.3   0.066848621   0.60799  -0.31776  -0.53021   0.47528
  28   36492.5    274.0   0.064498117   0.58186  -0.61231  -0.32686   0.31639
  29   37400.9    267.4   0.197729394   1.74046   0.46664  -0.94462   0.79398
  30   38091.8    262.5   0.017361615   0.15005   0.15999  -0.31019   0.16803
  31   38550.3    259.4   0.036861663   0.31479  -0.50501   0.22100   0.10449
  32   38636.8    258.8   0.049104927   0.41841  -0.13067   0.30678  -0.55427
  33   39233.7    254.9   0.076036607   0.63803   0.29361   0.59929  -0.43895
  34   39914.7    250.5   0.220796947   1.82111  -1.10437   0.50467   0.58888
  35   40191.6    248.8   0.086540829   0.70886   0.63861  -0.26231   0.48191
  36   40316.2    248.0   0.023112145   0.18873  -0.12854  -0.32379  -0.25955

FINAL SINGLE POINT ENERGY     -5747.990073908357

DIPOLE MOMENT
-------------
                                X             Y             Z
Electronic contribution:     22.15633      -3.31383     -18.36749
Nuclear contribution   :    -21.59831       5.11245      18.25528
                        -----------------------------------------
Total Dipole Moment    :      0.55802       1.79862      -0.11221
                        -----------------------------------------
Magnitude (a.u.)       :      1.88654
Magnitude (Debye)      :      4.79519

Rotational constants in cm-1:     0.001136     0.000671     0.000534
Rotational constants in MHz :    34.051510    20.108321    16.014028

                             ****ORCA TERMINATED NORMALLY****
TOTAL RUN TIME: 0 days 0 hours 9 minutes 57 seconds 194 msec
