                         Program Version 4.2.0 -  RELEASE  -
|  1> # ORCA input file
|  2> # SCF done       -206.700502012977          0.000764171497
|  3> ! CAM-B3LYP def2-SVP def2/J RIJCOSX Grid4 TightSCF
|  4> %maxcore 5000
|  5> %tddft
|  6>     Mode sTDDFT
|  7>     Ethresh 5.0
|  8>     maxcore 5000
|  9> end
| 10>
| 11> %pal
| 12>   nprocs 6
| 13>   end
| 14> * xyz 0 1
| 15>    C        0.35054        -1.78273        -0.00357
| 16>    C        1.17471        -2.55097        -0.77836
| 17>    C        1.55068        -2.21691        -2.09731
| 18>    N        1.87153        -1.99538        -3.17596
| 19>    C        1.81645        -3.71914        -0.31501
| 20>    N        2.40389        -4.64245         0.03084
| 21>    C       -0.12689        -0.44296        -0.33013
| 22>    C       -0.54177         0.19704         0.85380
| 23>    C       -1.00680         1.49674         0.84820
| 24>    C       -1.06903         2.17083        -0.36518
| 25>    C       -0.66882         1.53606        -1.54885
| 26>    C       -0.19296         0.22985        -1.53921
| 27>   Cl       -0.76432         2.37760        -3.04058
| 28>   Cl       -1.64033         3.78746        -0.41260
| 29>    C       -0.40253        -0.73112         1.99610
| 30>    O       -0.59986        -0.51450         3.16639
| 31>    C       -0.00446        -2.03113         1.38357
| 32>    C       -0.10565        -3.18014         2.09103
| 33>    C       -0.11902        -4.51427         1.57462
| 34>    C       -0.78813        -4.93894         0.46651
| 35>    C       -0.69106        -6.38166         0.39330
| 36>    C       -1.25114        -7.17591        -0.61354
| 37>    N       -1.73579        -7.84878        -1.40769
| 38>    C        0.00389        -6.83942         1.47880
| 39>    C        0.39169        -5.70822         2.27569
| 40>    C        1.14836        -5.69463         3.41783
| 41>    C        1.39381        -6.81582         4.36571
| 42>    C        2.30576        -6.37629         5.28757
| 43>    C        2.65209        -5.01128         4.97520
| 44>    C        1.91758        -4.58728         3.89387
| 45>    C        3.59629        -4.25354         5.68467
| 46>    N        4.36904        -3.64025         6.26998
| 47>    C        0.64399        -8.01558         4.37284
| 48>    C        0.68394        -8.99023         5.31964
| 49>    C       -0.17774       -10.10857         5.25729
| 50>    S       -1.02768       -10.54926         3.80796
| 51>    C       -1.96501       -11.76018         4.65142
| 52>    C       -1.56441       -11.85197         5.98655
| 53>    C       -0.56223       -10.93307         6.29929
| 54>    S        0.10014       -10.69259         7.94398
| 55>    O       -0.51975        -9.51406         8.48293
| 56>    O        1.53455       -10.71644         7.87161
| 57>    C       -0.52734       -12.15484         8.81287
| 58>    C       -1.98987       -12.27079         8.43585
| 59>    C       -2.17083       -12.76898         7.00133
| 60>    C       -2.93697       -12.53132         3.95512
| 61>    C       -3.33003       -13.81190         4.23540
| 62>    C       -4.17455       -14.27890         3.16718
| 63>    C       -4.80429       -15.53180         3.15995
| 64>    N       -5.31578       -16.55859         3.17761
| 65>    C       -4.26243       -13.31062         2.19444
| 66>    C       -3.56568       -12.15627         2.65594
| 67>    C       -3.61232       -10.91195         2.07112
| 68>    C       -3.82667       -10.62403         0.63621
| 69>    C       -3.81667        -9.26115         0.48632
| 70>    C       -3.63365        -8.65490         1.78077
| 71>    C       -3.50614        -9.64136         2.72892
| 72>    C       -3.51036        -7.27703         1.99657
| 73>    N       -3.33978        -6.15248         2.15635
| 74>    C       -3.82367       -11.58494        -0.41047
| 75>    C       -4.19174       -11.31948        -1.69366
| 76>    C       -4.12668       -12.31223        -2.69506
| 77>    C       -4.49651       -12.13389        -3.99934
| 78>    C       -4.41264       -13.11110        -5.06902
| 79>    C       -4.03563       -14.42411        -4.96266
| 80>    C       -3.98514       -15.32471        -6.04878
| 81>    N       -3.92468       -16.10895        -6.88417
| 82>    C       -3.65908       -15.07599        -3.76910
| 83>    N       -3.34497       -15.67746        -2.84280
| 84>    C       -4.82737       -12.44824        -6.30342
| 85>    C       -5.19592       -11.12372        -6.01019
| 86>    C       -5.03297       -10.86829        -4.56324
| 87>    O       -5.29907        -9.84211        -3.97843
| 88>    C       -5.63447       -10.25527        -6.98871
| 89>    C       -5.70532       -10.71717        -8.29687
| 90>    C       -5.33780       -12.03410        -8.59945
| 91>    C       -4.89871       -12.90612        -7.60948
| 92>   Cl       -5.42652       -12.59228       -10.22033
| 93>   Cl       -6.24380        -9.66899        -9.54402
| 94>    H       -1.31291         1.97525         1.76504
| 95>    H        0.10331        -0.23162        -2.46734
| 96>    H       -0.28781        -3.06651         3.15525
| 97>    H       -1.34838        -4.33584        -0.22376
| 98>    H        0.31756        -7.85456         1.62618
| 99>    H        2.69551        -6.91992         6.12681
|100>    H        2.00245        -3.63369         3.40922
|101>    H       -0.09032        -8.12985         3.58697
|102>    H        1.31455        -8.92502         6.19360
|103>    H       -0.38407       -11.97436         9.87468
|104>    H        0.07164       -13.00237         8.49149
|105>    H       -2.44407       -11.28317         8.54690
|106>    H       -2.50116       -12.95777         9.11348
|107>    H       -3.23678       -12.88103         6.78821
|108>    H       -1.70961       -13.75840         6.90944
|109>    H       -3.02758       -14.42951         5.05703
|110>    H       -4.88337       -13.36023         1.32135
|111>    H       -3.87569        -8.71245        -0.43370
|112>    H       -3.47374        -9.48880         3.79059
|113>    H       -3.48678       -12.58439        -0.16645
|114>    H       -4.55334       -10.34168        -1.97010
|115>    H       -3.73913       -13.27685        -2.39232
|116>    H       -5.91276        -9.24340        -6.73999
|117>    H       -4.62392       -13.91161        -7.88231
|118> *
|119>
|120>                          ****END OF INPUT****

CARTESIAN COORDINATES (ANGSTROEM)
---------------------------------
  C      0.350540   -1.782730   -0.003570
  C      1.174710   -2.550970   -0.778360
  C      1.550680   -2.216910   -2.097310
  N      1.871530   -1.995380   -3.175960
  C      1.816450   -3.719140   -0.315010
  N      2.403890   -4.642450    0.030840
  C     -0.126890   -0.442960   -0.330130
  C     -0.541770    0.197040    0.853800
  C     -1.006800    1.496740    0.848200
  C     -1.069030    2.170830   -0.365180
  C     -0.668820    1.536060   -1.548850
  C     -0.192960    0.229850   -1.539210
  Cl    -0.764320    2.377600   -3.040580
  Cl    -1.640330    3.787460   -0.412600
  C     -0.402530   -0.731120    1.996100
  O     -0.599860   -0.514500    3.166390
  C     -0.004460   -2.031130    1.383570
  C     -0.105650   -3.180140    2.091030
  C     -0.119020   -4.514270    1.574620
  C     -0.788130   -4.938940    0.466510
  C     -0.691060   -6.381660    0.393300
  C     -1.251140   -7.175910   -0.613540
  N     -1.735790   -7.848780   -1.407690
  C      0.003890   -6.839420    1.478800
  C      0.391690   -5.708220    2.275690
  C      1.148360   -5.694630    3.417830
  C      1.393810   -6.815820    4.365710
  C      2.305760   -6.376290    5.287570
  C      2.652090   -5.011280    4.975200
  C      1.917580   -4.587280    3.893870
  C      3.596290   -4.253540    5.684670
  N      4.369040   -3.640250    6.269980
  C      0.643990   -8.015580    4.372840
  C      0.683940   -8.990230    5.319640
  C     -0.177740  -10.108570    5.257290
  S     -1.027680  -10.549260    3.807960
  C     -1.965010  -11.760180    4.651420
  C     -1.564410  -11.851970    5.986550
  C     -0.562230  -10.933070    6.299290
  S      0.100140  -10.692590    7.943980
  O     -0.519750   -9.514060    8.482930
  O      1.534550  -10.716440    7.871610
  C     -0.527340  -12.154840    8.812870
  C     -1.989870  -12.270790    8.435850
  C     -2.170830  -12.768980    7.001330
  C     -2.936970  -12.531320    3.955120
  C     -3.330030  -13.811900    4.235400
  C     -4.174550  -14.278900    3.167180
  C     -4.804290  -15.531800    3.159950
  N     -5.315780  -16.558590    3.177610
  C     -4.262430  -13.310620    2.194440
  C     -3.565680  -12.156270    2.655940
  C     -3.612320  -10.911950    2.071120
  C     -3.826670  -10.624030    0.636210
  C     -3.816670   -9.261150    0.486320
  C     -3.633650   -8.654900    1.780770
  C     -3.506140   -9.641360    2.728920
  C     -3.510360   -7.277030    1.996570
  N     -3.339780   -6.152480    2.156350
  C     -3.823670  -11.584940   -0.410470
  C     -4.191740  -11.319480   -1.693660
  C     -4.126680  -12.312230   -2.695060
  C     -4.496510  -12.133890   -3.999340
  C     -4.412640  -13.111100   -5.069020
  C     -4.035630  -14.424110   -4.962660
  C     -3.985140  -15.324710   -6.048780
  N     -3.924680  -16.108950   -6.884170
  C     -3.659080  -15.075990   -3.769100
  N     -3.344970  -15.677460   -2.842800
  C     -4.827370  -12.448240   -6.303420
  C     -5.195920  -11.123720   -6.010190
  C     -5.032970  -10.868290   -4.563240
  O     -5.299070   -9.842110   -3.978430
  C     -5.634470  -10.255270   -6.988710
  C     -5.705320  -10.717170   -8.296870
  C     -5.337800  -12.034100   -8.599450
  C     -4.898710  -12.906120   -7.609480
  Cl    -5.426520  -12.592280  -10.220330
  Cl    -6.243800   -9.668990   -9.544020
  H     -1.312910    1.975250    1.765040
  H      0.103310   -0.231620   -2.467340
  H     -0.287810   -3.066510    3.155250
  H     -1.348380   -4.335840   -0.223760
  H      0.317560   -7.854560    1.626180
  H      2.695510   -6.919920    6.126810
  H      2.002450   -3.633690    3.409220
  H     -0.090320   -8.129850    3.586970
  H      1.314550   -8.925020    6.193600
  H     -0.384070  -11.974360    9.874680
  H      0.071640  -13.002370    8.491490
  H     -2.444070  -11.283170    8.546900
  H     -2.501160  -12.957770    9.113480
  H     -3.236780  -12.881030    6.788210
  H     -1.709610  -13.758400    6.909440
  H     -3.027580  -14.429510    5.057030
  H     -4.883370  -13.360230    1.321350
  H     -3.875690   -8.712450   -0.433700
  H     -3.473740   -9.488800    3.790590
  H     -3.486780  -12.584390   -0.166450
  H     -4.553340  -10.341680   -1.970100
  H     -3.739130  -13.276850   -2.392320
  H     -5.912760   -9.243400   -6.739990
  H     -4.623920  -13.911610   -7.882310

 Total Charge           Charge          ....    0
 Multiplicity           Mult            ....    1
 Number of Electrons    NEL             ....  578
 Basis Dimension        Dim             .... 1250

ORBITAL ENERGIES
----------------

  NO   OCC          E(Eh)            E(eV)
   0   2.0000    -101.609971     -2764.9479
   1   2.0000    -101.609240     -2764.9280
   2   2.0000    -101.603749     -2764.7786
   3   2.0000    -101.601986     -2764.7306
   4   2.0000     -89.158189     -2426.1177
   5   2.0000     -88.997109     -2421.7344
   6   2.0000     -19.234415      -523.3950
   7   2.0000     -19.227518      -523.2074
   8   2.0000     -19.209383      -522.7139
   9   2.0000     -19.207499      -522.6626
  10   2.0000     -14.434135      -392.7728
  11   2.0000     -14.433914      -392.7668
  12   2.0000     -14.432678      -392.7331
  13   2.0000     -14.431524      -392.7017
  14   2.0000     -14.430272      -392.6677
  15   2.0000     -14.425430      -392.5359
  16   2.0000     -14.421743      -392.4356
  17   2.0000     -14.421661      -392.4333
  18   2.0000     -10.385553      -282.6053
  19   2.0000     -10.378185      -282.4048
  20   2.0000     -10.368260      -282.1347
  21   2.0000     -10.367636      -282.1177
  22   2.0000     -10.363402      -282.0025
  23   2.0000     -10.361182      -281.9421
  24   2.0000     -10.360083      -281.9122
  25   2.0000     -10.359667      -281.9009
  26   2.0000     -10.352253      -281.6991
  27   2.0000     -10.351769      -281.6860
  28   2.0000     -10.350515      -281.6518
  29   2.0000     -10.348968      -281.6097
  30   2.0000     -10.346892      -281.5532
  31   2.0000     -10.345104      -281.5046
  32   2.0000     -10.343811      -281.4694
  33   2.0000     -10.341717      -281.4124
  34   2.0000     -10.340548      -281.3806
  35   2.0000     -10.340101      -281.3684
  36   2.0000     -10.339684      -281.3571
  37   2.0000     -10.338803      -281.3331
  38   2.0000     -10.335953      -281.2556
  39   2.0000     -10.334678      -281.2209
  40   2.0000     -10.333341      -281.1845
  41   2.0000     -10.333182      -281.1802
  42   2.0000     -10.332964      -281.1743
  43   2.0000     -10.332669      -281.1662
  44   2.0000     -10.330130      -281.0971
  45   2.0000     -10.327819      -281.0342
  46   2.0000     -10.327311      -281.0204
  47   2.0000     -10.327202      -281.0175
  48   2.0000     -10.326342      -280.9941
  49   2.0000     -10.324934      -280.9557
  50   2.0000     -10.323959      -280.9292
  51   2.0000     -10.323100      -280.9058
  52   2.0000     -10.322194      -280.8812
  53   2.0000     -10.321807      -280.8706
  54   2.0000     -10.321599      -280.8650
  55   2.0000     -10.321496      -280.8622
  56   2.0000     -10.321446      -280.8608
  57   2.0000     -10.320230      -280.8277
  58   2.0000     -10.319415      -280.8056
  59   2.0000     -10.319207      -280.7999
  60   2.0000     -10.318905      -280.7917
  61   2.0000     -10.318107      -280.7700
  62   2.0000     -10.317575      -280.7555
  63   2.0000     -10.317527      -280.7542
  64   2.0000     -10.316257      -280.7196
  65   2.0000     -10.315591      -280.7015
  66   2.0000     -10.315133      -280.6890
  67   2.0000     -10.313669      -280.6492
  68   2.0000     -10.313258      -280.6380
  69   2.0000     -10.312840      -280.6266
  70   2.0000     -10.312710      -280.6231
  71   2.0000     -10.311635      -280.5939
  72   2.0000     -10.310827      -280.5719
  73   2.0000     -10.310103      -280.5522
  74   2.0000     -10.309706      -280.5414
  75   2.0000     -10.308658      -280.5129
  76   2.0000     -10.306433      -280.4523
  77   2.0000     -10.305704      -280.4325
  78   2.0000     -10.295810      -280.1632
  79   2.0000      -9.564985      -260.2765
  80   2.0000      -9.564219      -260.2556
  81   2.0000      -9.558758      -260.1070
  82   2.0000      -9.556984      -260.0587
  83   2.0000      -8.223452      -223.7715
  84   2.0000      -8.091556      -220.1824
  85   2.0000      -7.335412      -199.6067
  86   2.0000      -7.334663      -199.5863
  87   2.0000      -7.329159      -199.4366
  88   2.0000      -7.327410      -199.3890
  89   2.0000      -7.325247      -199.3301
  90   2.0000      -7.324467      -199.3089
  91   2.0000      -7.324465      -199.3088
  92   2.0000      -7.323704      -199.2881
  93   2.0000      -7.319020      -199.1606
  94   2.0000      -7.318278      -199.1405
  95   2.0000      -7.317223      -199.1118
  96   2.0000      -7.316492      -199.0919
  97   2.0000      -6.192548      -168.5078
  98   2.0000      -6.192215      -168.4987
  99   2.0000      -6.191420      -168.4771
 100   2.0000      -6.060731      -164.9209
 101   2.0000      -6.056776      -164.8133
 102   2.0000      -6.053779      -164.7317
 103   2.0000      -1.216833       -33.1117
 104   2.0000      -1.150190       -31.2983
 105   2.0000      -1.142673       -31.0937
 106   2.0000      -1.094331       -29.7783
 107   2.0000      -1.044528       -28.4230
 108   2.0000      -1.042734       -28.3742
 109   2.0000      -1.035438       -28.1757
 110   2.0000      -1.034775       -28.1577
 111   2.0000      -1.028758       -27.9939
 112   2.0000      -1.028185       -27.9783
 113   2.0000      -1.022384       -27.8205
 114   2.0000      -1.021466       -27.7955
 115   2.0000      -1.018573       -27.7168
 116   2.0000      -1.010978       -27.5101
 117   2.0000      -1.010094       -27.4860
 118   2.0000      -1.006939       -27.4002
 119   2.0000      -1.004178       -27.3251
 120   2.0000      -1.002046       -27.2670
 121   2.0000      -0.999503       -27.1978
 122   2.0000      -0.996303       -27.1108
 123   2.0000      -0.993104       -27.0237
 124   2.0000      -0.972409       -26.4606
 125   2.0000      -0.965237       -26.2654
 126   2.0000      -0.956289       -26.0219
 127   2.0000      -0.948742       -25.8166
 128   2.0000      -0.945171       -25.7194
 129   2.0000      -0.932453       -25.3733
 130   2.0000      -0.929933       -25.3048
 131   2.0000      -0.923071       -25.1180
 132   2.0000      -0.906124       -24.6569
 133   2.0000      -0.902727       -24.5644
 134   2.0000      -0.898986       -24.4626
 135   2.0000      -0.896658       -24.3993
 136   2.0000      -0.888338       -24.1729
 137   2.0000      -0.879256       -23.9258
 138   2.0000      -0.873476       -23.7685
 139   2.0000      -0.871539       -23.7158
 140   2.0000      -0.864943       -23.5363
 141   2.0000      -0.854376       -23.2488
 142   2.0000      -0.848885       -23.0993
 143   2.0000      -0.840327       -22.8665
 144   2.0000      -0.829695       -22.5772
 145   2.0000      -0.822815       -22.3899
 146   2.0000      -0.816306       -22.2128
 147   2.0000      -0.803511       -21.8646
 148   2.0000      -0.793132       -21.5822
 149   2.0000      -0.784781       -21.3550
 150   2.0000      -0.778279       -21.1781
 151   2.0000      -0.771288       -20.9878
 152   2.0000      -0.760430       -20.6924
 153   2.0000      -0.750515       -20.4225
 154   2.0000      -0.747252       -20.3338
 155   2.0000      -0.743962       -20.2442
 156   2.0000      -0.742428       -20.2025
 157   2.0000      -0.736024       -20.0282
 158   2.0000      -0.734273       -19.9806
 159   2.0000      -0.713734       -19.4217
 160   2.0000      -0.709342       -19.3022
 161   2.0000      -0.706677       -19.2297
 162   2.0000      -0.700887       -19.0721
 163   2.0000      -0.695081       -18.9141
 164   2.0000      -0.689643       -18.7661
 165   2.0000      -0.679821       -18.4989
 166   2.0000      -0.674231       -18.3468
 167   2.0000      -0.666775       -18.1439
 168   2.0000      -0.661913       -18.0116
 169   2.0000      -0.655005       -17.8236
 170   2.0000      -0.654269       -17.8036
 171   2.0000      -0.651521       -17.7288
 172   2.0000      -0.638179       -17.3657
 173   2.0000      -0.636631       -17.3236
 174   2.0000      -0.630739       -17.1633
 175   2.0000      -0.626561       -17.0496
 176   2.0000      -0.622823       -16.9479
 177   2.0000      -0.619118       -16.8471
 178   2.0000      -0.618943       -16.8423
 179   2.0000      -0.611795       -16.6478
 180   2.0000      -0.609489       -16.5850
 181   2.0000      -0.602996       -16.4083
 182   2.0000      -0.595509       -16.2046
 183   2.0000      -0.587165       -15.9776
 184   2.0000      -0.584980       -15.9181
 185   2.0000      -0.583653       -15.8820
 186   2.0000      -0.581294       -15.8178
 187   2.0000      -0.568042       -15.4572
 188   2.0000      -0.567537       -15.4435
 189   2.0000      -0.566618       -15.4185
 190   2.0000      -0.561631       -15.2828
 191   2.0000      -0.561377       -15.2759
 192   2.0000      -0.558151       -15.1881
 193   2.0000      -0.555551       -15.1173
 194   2.0000      -0.554098       -15.0778
 195   2.0000      -0.550690       -14.9850
 196   2.0000      -0.549444       -14.9511
 197   2.0000      -0.548063       -14.9136
 198   2.0000      -0.545259       -14.8373
 199   2.0000      -0.544289       -14.8109
 200   2.0000      -0.541452       -14.7336
 201   2.0000      -0.539008       -14.6671
 202   2.0000      -0.536523       -14.5995
 203   2.0000      -0.535388       -14.5686
 204   2.0000      -0.532093       -14.4790
 205   2.0000      -0.531632       -14.4664
 206   2.0000      -0.528083       -14.3699
 207   2.0000      -0.524907       -14.2834
 208   2.0000      -0.522738       -14.2244
 209   2.0000      -0.520994       -14.1770
 210   2.0000      -0.519737       -14.1428
 211   2.0000      -0.517476       -14.0812
 212   2.0000      -0.515737       -14.0339
 213   2.0000      -0.515262       -14.0210
 214   2.0000      -0.513222       -13.9655
 215   2.0000      -0.512752       -13.9527
 216   2.0000      -0.511595       -13.9212
 217   2.0000      -0.510665       -13.8959
 218   2.0000      -0.507261       -13.8033
 219   2.0000      -0.506271       -13.7763
 220   2.0000      -0.504182       -13.7195
 221   2.0000      -0.501523       -13.6471
 222   2.0000      -0.496878       -13.5207
 223   2.0000      -0.491615       -13.3775
 224   2.0000      -0.490389       -13.3442
 225   2.0000      -0.487408       -13.2631
 226   2.0000      -0.483959       -13.1692
 227   2.0000      -0.481230       -13.0949
 228   2.0000      -0.479537       -13.0489
 229   2.0000      -0.473000       -12.8710
 230   2.0000      -0.470916       -12.8143
 231   2.0000      -0.469826       -12.7846
 232   2.0000      -0.466246       -12.6872
 233   2.0000      -0.465861       -12.6767
 234   2.0000      -0.464450       -12.6383
 235   2.0000      -0.463190       -12.6040
 236   2.0000      -0.461962       -12.5706
 237   2.0000      -0.461462       -12.5570
 238   2.0000      -0.458115       -12.4659
 239   2.0000      -0.456758       -12.4290
 240   2.0000      -0.456249       -12.4152
 241   2.0000      -0.455915       -12.4061
 242   2.0000      -0.450529       -12.2595
 243   2.0000      -0.450021       -12.2457
 244   2.0000      -0.448576       -12.2064
 245   2.0000      -0.448445       -12.2028
 246   2.0000      -0.446514       -12.1503
 247   2.0000      -0.444362       -12.0917
 248   2.0000      -0.443488       -12.0679
 249   2.0000      -0.442557       -12.0426
 250   2.0000      -0.439190       -11.9510
 251   2.0000      -0.436393       -11.8749
 252   2.0000      -0.435071       -11.8389
 253   2.0000      -0.434199       -11.8152
 254   2.0000      -0.433337       -11.7917
 255   2.0000      -0.432425       -11.7669
 256   2.0000      -0.431955       -11.7541
 257   2.0000      -0.429036       -11.6747
 258   2.0000      -0.427867       -11.6429
 259   2.0000      -0.425288       -11.5727
 260   2.0000      -0.420107       -11.4317
 261   2.0000      -0.419241       -11.4081
 262   2.0000      -0.417427       -11.3588
 263   2.0000      -0.417147       -11.3511
 264   2.0000      -0.414102       -11.2683
 265   2.0000      -0.411880       -11.2078
 266   2.0000      -0.411312       -11.1924
 267   2.0000      -0.403490       -10.9795
 268   2.0000      -0.393452       -10.7064
 269   2.0000      -0.391272       -10.6471
 270   2.0000      -0.388100       -10.5607
 271   2.0000      -0.384647       -10.4668
 272   2.0000      -0.373852       -10.1730
 273   2.0000      -0.372250       -10.1294
 274   2.0000      -0.368035       -10.0147
 275   2.0000      -0.360351        -9.8056
 276   2.0000      -0.355987        -9.6869
 277   2.0000      -0.348892        -9.4938
 278   2.0000      -0.348006        -9.4697
 279   2.0000      -0.346736        -9.4352
 280   2.0000      -0.345700        -9.4070
 281   2.0000      -0.341634        -9.2963
 282   2.0000      -0.339056        -9.2262
 283   2.0000      -0.324518        -8.8306
 284   2.0000      -0.319367        -8.6904
 285   2.0000      -0.315909        -8.5963
 286   2.0000      -0.309481        -8.4214
 287   2.0000      -0.286230        -7.7887
 288   2.0000      -0.271645        -7.3918
 289   0.0000      -0.150518        -4.0958
 290   0.0000      -0.143834        -3.9139
 291   0.0000      -0.099907        -2.7186
 292   0.0000      -0.097878        -2.6634
 293   0.0000      -0.074962        -2.0398

MULLIKEN ATOMIC CHARGES
-----------------------
   0 C :    0.265403
   1 C :   -0.331974
   2 C :   -0.185418
   3 N :    0.173099
   4 C :   -0.180707
   5 N :    0.172944
   6 C :    0.020240
   7 C :   -0.001231
   8 C :   -0.027381
   9 C :    0.060194
  10 C :    0.054237
  11 C :   -0.015950
  12 Cl:   -0.029037
  13 Cl:   -0.034612
  14 C :    0.141121
  15 O :   -0.123218
  16 C :   -0.122660
  17 C :    0.010153
  18 C :    0.021652
  19 C :    0.047884
  20 C :   -0.127609
  21 C :   -0.108409
  22 N :    0.138961
  23 C :    0.000228
  24 C :    0.088368
  25 C :    0.052993
  26 C :    0.103382
  27 C :   -0.022820
  28 C :   -0.081790
  29 C :   -0.034011
  30 C :   -0.127589
  31 N :    0.156309
  32 C :   -0.033541
  33 C :    0.037714
  34 C :   -0.107125
  35 S :    0.141386
  36 C :   -0.167607
  37 C :   -0.020371
  38 C :   -0.039747
  39 S :    0.726622
  40 O :   -0.453333
  41 O :   -0.450086
  42 C :   -0.008252
  43 C :   -0.018537
  44 C :    0.086274
  45 C :    0.090575
  46 C :   -0.048407
  47 C :   -0.084254
  48 C :   -0.129525
  49 N :    0.161673
  50 C :   -0.032063
  51 C :    0.032204
  52 C :    0.033606
  53 C :    0.077192
  54 C :    0.016977
  55 C :   -0.127015
  56 C :   -0.003516
  57 C :   -0.114130
  58 N :    0.133055
  59 C :   -0.005269
  60 C :    0.008583
  61 C :   -0.038016
  62 C :   -0.064978
  63 C :    0.327058
  64 C :   -0.344578
  65 C :   -0.189516
  66 N :    0.162013
  67 C :   -0.188224
  68 N :    0.148819
  69 C :    0.028352
  70 C :   -0.014489
  71 C :    0.151597
  72 O :   -0.141611
  73 C :   -0.027481
  74 C :    0.063393
  75 C :    0.048120
  76 C :   -0.012648
  77 Cl:   -0.033309
  78 Cl:   -0.040851
  79 H :    0.004787
  80 H :    0.005580
  81 H :    0.045330
  82 H :    0.006952
  83 H :    0.010689
  84 H :    0.010537
  85 H :    0.015661
  86 H :   -0.013598
  87 H :    0.022286
  88 H :    0.076595
  89 H :    0.056696
  90 H :    0.051527
  91 H :    0.033420
  92 H :    0.033961
  93 H :    0.037357
  94 H :   -0.005628
  95 H :    0.012601
  96 H :    0.023748
  97 H :    0.025560
  98 H :    0.015972
  99 H :    0.032436
 100 H :    0.007887
 101 H :   -0.001025
 102 H :    0.001184
Sum of atomic charges:   -0.0000000

LOEWDIN ATOMIC CHARGES
----------------------
   0 C :    0.066511
   1 C :   -0.127543
   2 C :   -0.022974
   3 N :   -0.035447
   4 C :   -0.015016
   5 N :   -0.041914
   6 C :   -0.012919
   7 C :   -0.045435
   8 C :    0.004567
   9 C :   -0.132138
  10 C :   -0.127795
  11 C :   -0.012522
  12 Cl:    0.168651
  13 Cl:    0.165868
  14 C :    0.084320
  15 O :   -0.125421
  16 C :   -0.083647
  17 C :    0.072097
  18 C :   -0.036280
  19 C :    0.053312
  20 C :   -0.052850
  21 C :   -0.017588
  22 N :   -0.046743
  23 C :    0.022776
  24 C :    0.042319
  25 C :    0.055603
  26 C :   -0.027508
  27 C :    0.022106
  28 C :   -0.032825
  29 C :   -0.002555
  30 C :   -0.028989
  31 N :   -0.027015
  32 C :   -0.017762
  33 C :   -0.019498
  34 C :   -0.150782
  35 S :    0.500461
  36 C :   -0.168797
  37 C :   -0.050377
  38 C :   -0.214411
  39 S :    1.168781
  40 O :   -0.506092
  41 O :   -0.504523
  42 C :   -0.131633
  43 C :   -0.044727
  44 C :   -0.029042
  45 C :   -0.037691
  46 C :   -0.007520
  47 C :   -0.034182
  48 C :   -0.030710
  49 N :   -0.024028
  50 C :   -0.012185
  51 C :    0.040198
  52 C :    0.028714
  53 C :   -0.048940
  54 C :    0.057484
  55 C :   -0.069438
  56 C :   -0.001056
  57 C :   -0.024022
  58 N :   -0.050652
  59 C :    0.026664
  60 C :   -0.017242
  61 C :    0.068325
  62 C :   -0.093085
  63 C :    0.074124
  64 C :   -0.132894
  65 C :   -0.020425
  66 N :   -0.043791
  67 C :   -0.018757
  68 N :   -0.048565
  69 C :   -0.013673
  70 C :   -0.043154
  71 C :    0.086061
  72 O :   -0.135739
  73 C :    0.001850
  74 C :   -0.133300
  75 C :   -0.129717
  76 C :   -0.011756
  77 Cl:    0.164097
  78 Cl:    0.161350
  79 H :    0.048184
  80 H :    0.045324
  81 H :    0.052683
  82 H :    0.037914
  83 H :    0.036484
  84 H :    0.039638
  85 H :    0.038341
  86 H :    0.019388
  87 H :    0.036955
  88 H :    0.047163
  89 H :    0.034815
  90 H :    0.033883
  91 H :    0.039217
  92 H :    0.041088
  93 H :    0.037279
  94 H :    0.033137
  95 H :    0.039054
  96 H :    0.039867
  97 H :    0.033687
  98 H :    0.036440
  99 H :    0.036076
 100 H :    0.041807
 101 H :    0.045986
 102 H :    0.044643

  Mayer bond orders larger than 0.100000
B(  0-C ,  1-C ) :   1.6819 B(  0-C ,  6-C ) :   1.0083 B(  0-C , 16-C ) :   1.0162
B(  1-C ,  2-C ) :   1.1251 B(  1-C ,  4-C ) :   1.1663 B(  2-C ,  3-N ) :   2.9951
B(  4-C ,  5-N ) :   2.9847 B(  6-C ,  7-C ) :   1.3269 B(  6-C , 11-C ) :   1.3415
B(  7-C ,  8-C ) :   1.3427 B(  7-C , 14-C ) :   0.9184 B(  8-C ,  9-C ) :   1.3487
B(  8-C , 79-H ) :   1.0171 B(  9-C , 10-C ) :   1.3986 B(  9-C , 13-Cl) :   1.0559
B( 10-C , 11-C ) :   1.3613 B( 10-C , 12-Cl) :   1.0760 B( 11-C , 80-H ) :   0.9901
B( 14-C , 15-O ) :   2.2927 B( 14-C , 16-C ) :   0.9258 B( 16-C , 17-C ) :   1.7447
B( 17-C , 18-C ) :   0.9973 B( 17-C , 81-H ) :   0.9340 B( 18-C , 19-C ) :   1.6083
B( 18-C , 24-C ) :   1.0745 B( 19-C , 20-C ) :   1.1028 B( 19-C , 82-H ) :   1.0156
B( 20-C , 21-C ) :   1.0724 B( 20-C , 23-C ) :   1.6449 B( 21-C , 22-N ) :   2.9758
B( 23-C , 24-C ) :   1.0820 B( 23-C , 83-H ) :   1.0016 B( 24-C , 25-C ) :   1.4776
B( 25-C , 26-C ) :   1.0248 B( 25-C , 29-C ) :   1.1034 B( 26-C , 27-C ) :   1.5842
B( 26-C , 32-C ) :   1.1247 B( 27-C , 28-C ) :   1.1061 B( 27-C , 84-H ) :   1.0119
B( 28-C , 29-C ) :   1.6032 B( 28-C , 30-C ) :   1.0573 B( 29-C , 85-H ) :   1.0109
B( 30-C , 31-N ) :   3.0403 B( 32-C , 33-C ) :   1.6386 B( 32-C , 86-H ) :   0.9561
B( 33-C , 34-C ) :   1.1648 B( 33-C , 87-H ) :   0.9482 B( 34-C , 35-S ) :   1.1434
B( 34-C , 36-C ) :   0.1089 B( 34-C , 38-C ) :   1.5202 B( 35-S , 36-C ) :   1.1077
B( 36-C , 37-C ) :   1.5063 B( 36-C , 45-C ) :   1.0996 B( 37-C , 38-C ) :   1.3261
B( 37-C , 44-C ) :   1.0655 B( 38-C , 39-S ) :   0.8050 B( 39-S , 40-O ) :   1.7034
B( 39-S , 41-O ) :   1.7051 B( 39-S , 42-C ) :   0.8758 B( 42-C , 43-C ) :   1.0210
B( 42-C , 88-H ) :   0.9317 B( 42-C , 89-H ) :   0.9363 B( 43-C , 44-C ) :   1.0787
B( 43-C , 90-H ) :   0.9456 B( 43-C , 91-H ) :   0.9302 B( 44-C , 92-H ) :   0.9083
B( 44-C , 93-H ) :   0.9070 B( 45-C , 46-C ) :   1.5888 B( 45-C , 51-C ) :   1.0312
B( 46-C , 47-C ) :   1.1099 B( 46-C , 94-H ) :   1.0154 B( 47-C , 48-C ) :   1.0594
B( 47-C , 50-C ) :   1.5934 B( 48-C , 49-N ) :   3.0383 B( 50-C , 51-C ) :   1.1186
B( 50-C , 95-H ) :   1.0164 B( 51-C , 52-C ) :   1.4611 B( 52-C , 53-C ) :   1.0592
B( 52-C , 56-C ) :   1.0834 B( 53-C , 54-C ) :   1.5740 B( 53-C , 59-C ) :   1.0634
B( 54-C , 55-C ) :   1.1143 B( 54-C , 96-H ) :   1.0002 B( 55-C , 56-C ) :   1.6049
B( 55-C , 57-C ) :   1.0663 B( 56-C , 97-H ) :   1.0028 B( 57-C , 58-N ) :   3.0010
B( 59-C , 60-C ) :   1.5911 B( 59-C , 98-H ) :   0.9743 B( 60-C , 61-C ) :   1.1587
B( 60-C , 99-H ) :   0.9814 B( 61-C , 62-C ) :   1.5390 B( 61-C ,100-H ) :   0.9617
B( 62-C , 63-C ) :   1.0675 B( 62-C , 71-C ) :   0.9456 B( 63-C , 64-C ) :   1.6373
B( 63-C , 69-C ) :   0.9912 B( 64-C , 65-C ) :   1.1396 B( 64-C , 67-C ) :   1.1491
B( 65-C , 66-N ) :   2.9742 B( 67-C , 68-N ) :   2.9599 B( 69-C , 70-C ) :   1.3302
B( 69-C , 76-C ) :   1.3432 B( 70-C , 71-C ) :   0.9424 B( 70-C , 73-C ) :   1.3461
B( 71-C , 72-O ) :   2.2072 B( 73-C , 74-C ) :   1.3436 B( 73-C ,101-H ) :   1.0159
B( 74-C , 75-C ) :   1.4030 B( 74-C , 78-Cl) :   1.0489 B( 75-C , 76-C ) :   1.3622
B( 75-C , 77-Cl) :   1.0778 B( 76-C ,102-H ) :   0.9839

-----------------------------------------------------------------------------
         ABSORPTION SPECTRUM VIA TRANSITION ELECTRIC DIPOLE MOMENTS
-----------------------------------------------------------------------------
State   Energy  Wavelength   fosc         T2         TX        TY        TZ
        (cm-1)    (nm)                  (au**2)     (au)      (au)      (au)
-----------------------------------------------------------------------------
   0    8790.0   1137.7   0.080233933   3.00501   1.09828   0.75233   1.11031
   1   10271.5    973.6   0.079904612   2.56102  -0.26322  -1.37535   0.77469
   2   11334.0    882.3   0.036503350   1.06029  -0.00559  -0.00876  -1.02965
   3   16163.9    618.7   0.035609561   0.72526   0.08398  -0.64368   0.55126
   4   17535.8    570.3   0.003206785   0.06020   0.02171  -0.07343  -0.23311
   5   19650.6    508.9   0.067777290   1.13549  -0.15875  -0.92835   0.49845
   6   20954.8    477.2   0.003136546   0.04928   0.03958   0.20182  -0.08355
   7   21954.7    455.5   0.178451974   2.67590  -1.00151  -0.89591  -0.93286
   8   23012.6    434.5   0.039651600   0.56724   0.49726   0.38380   0.41554
   9   23440.0    426.6   0.122835181   1.72521  -0.19940   1.09454   0.69816
  10   23603.5    423.7   0.560263755   7.81433  -0.37155  -0.65880  -2.69115
  11   24234.8    412.6   0.086320803   1.17260   0.29520   0.34123  -0.98439
  12   24685.3    405.1   0.293737123   3.91739  -0.09723  -0.85468   1.78254
  13   24909.4    401.5   0.036138109   0.47761  -0.22169  -0.39381   0.52286
  14   25485.1    392.4   0.193297769   2.49699   0.35038  -0.56142   1.43493
  15   25873.6    386.5   0.004006696   0.05098  -0.02792  -0.21180  -0.07309
  16   26243.1    381.1   0.181804301   2.28068  -0.42080  -1.27206  -0.69677
  17   27172.2    368.0   0.051153386   0.61976  -0.08657  -0.78106   0.04699
  18   27558.1    362.9   0.004631364   0.05533  -0.02567   0.13057  -0.19396
  19   27667.3    361.4   0.030416064   0.36192   0.05226  -0.59637  -0.05946
  20   27977.2    357.4   0.065702623   0.77313   0.42487  -0.48674   0.59640
  21   28299.1    353.4   0.308189675   3.58526  -0.45992   1.42188  -1.16275
  22   28701.4    348.4   0.068063040   0.78070  -0.08579  -0.14900  -0.86668
  23   28849.7    346.6   0.026132769   0.29821  -0.44223   0.27356  -0.16675
  24   29248.7    341.9   0.640408128   7.20819   1.57046   1.99570   0.87121
  25   29541.2    338.5   0.198477262   2.21186  -1.23441  -0.48451  -0.67330
  26   29679.5    336.9   0.127670254   1.41615  -0.26200  -1.15796   0.08146
  27   30005.5    333.3   0.013180433   0.14461  -0.38003   0.00340  -0.01336
  28   30188.5    331.3   0.108401924   1.18215   0.70809  -0.65947   0.49584
  29   30470.0    328.2   0.350870884   3.79097  -0.85115  -1.75102  -0.02112
  30   30789.6    324.8   0.201265591   2.15200  -0.83428  -1.19638  -0.15702
  31   31037.6    322.2   0.088370545   0.93733  -0.65053  -0.49031  -0.52321
  32   31322.2    319.3   0.205231552   2.15709   0.41601  -0.78978   1.16631
  33   31474.7    317.7   0.102587146   1.07302   0.36827  -0.48875   0.83578
  34   31590.8    316.5   0.078818855   0.82138   0.89005   0.09867  -0.13949
  35   32195.7    310.6   0.003455320   0.03533  -0.00361   0.17112  -0.07771
  36   32250.4    310.1   0.008507176   0.08684   0.11000  -0.05587  -0.26762
  37   32446.8    308.2   0.168467126   1.70930  -0.22470  -1.28779  -0.02025
  38   32511.0    307.6   0.044537636   0.45100  -0.24959   0.60982   0.12971
  39   32975.6    303.3   0.017675385   0.17646   0.05919  -0.39141   0.14056
  40   33062.0    302.5   0.075654882   0.75333  -0.33890   0.77861  -0.17953
  41   33142.2    301.7   0.002000953   0.01988   0.07268  -0.11494   0.03719
  42   33433.3    299.1   0.010863320   0.10697   0.03699   0.29658   0.13282
  43   33469.7    298.8   0.021981127   0.21621   0.05586  -0.39771  -0.23434
  44   33523.4    298.3   0.070945016   0.69671  -0.15273   0.81225  -0.11672
  45   33845.7    295.5   0.165817242   1.61288   0.12179   1.04720   0.70811
  46   33905.8    294.9   0.000846658   0.00822   0.07640  -0.02355  -0.04276
  47   34228.5    292.2   0.210719589   2.02672  -0.52051   1.31628  -0.15226
  48   34459.0    290.2   0.023013295   0.21986   0.05314   0.46142   0.06426
  49   34574.0    289.2   0.253897974   2.41760   0.45381   1.23786   0.82424
  50   35079.2    285.1   0.110640324   1.03834  -0.55751   0.58577  -0.61999
  51   35318.9    283.1   0.243097527   2.26594  -0.31712   1.18746  -0.86909
  52   35546.5    281.3   0.427441281   3.95872  -0.83276   1.70215   0.60657
  53   35801.1    279.3   0.028279931   0.26005  -0.29304   0.37771   0.17752
  54   35913.6    278.4   0.048514862   0.44473  -0.19801   0.61743  -0.15590
  55   36465.2    274.2   0.261172209   2.35789  -0.32007   1.49560   0.13648
  56   36584.1    273.3   0.007049608   0.06344  -0.22022  -0.03245  -0.11785
  57   36663.8    272.7   0.007427554   0.06669   0.10082  -0.23679  -0.02146
  58   36815.7    271.6   0.006942998   0.06209   0.09508   0.14735   0.17701
  59   36837.6    271.5   0.077516908   0.69276   0.43253   0.16459   0.69180
  60   37481.4    266.8   0.012618142   0.11083  -0.17314   0.27632   0.06709
  61   37806.7    264.5   0.025633672   0.22321   0.10757  -0.27475   0.36899
  62   37869.4    264.1   0.108237977   0.94095  -0.13657  -0.05725   0.95866
  63   38076.9    262.6   0.018345161   0.15861   0.15840   0.20352   0.30348
  64   38338.0    260.8   0.002008746   0.01725  -0.04115   0.02027  -0.12306
  65   38942.3    256.8   0.070353690   0.59476   0.19389   0.74643  -0.00356
  66   39222.6    255.0   0.013427246   0.11270   0.05738   0.31240   0.10870
  67   39329.4    254.3   0.009144415   0.07654   0.03748   0.27005   0.04702
  68   39674.0    252.1   0.022709698   0.18844  -0.04880   0.19998   0.38219
  69   39921.5    250.5   0.029368185   0.24218   0.05511   0.41528  -0.25824

FINAL SINGLE POINT ENERGY     -5709.954103177129

DIPOLE MOMENT
-------------
                                X             Y             Z
Electronic contribution:    -10.85102      51.69139     -83.79459
Nuclear contribution   :      8.95978     -51.20139      85.63810
                        -----------------------------------------
Total Dipole Moment    :     -1.89124       0.49000       1.84351
                        -----------------------------------------
Magnitude (a.u.)       :      2.68615
Magnitude (Debye)      :      6.82765

Rotational constants in cm-1:     0.000563     0.000422     0.000257
Rotational constants in MHz :    16.886968    12.646568     7.713777

                             ****ORCA TERMINATED NORMALLY****
TOTAL RUN TIME: 0 days 0 hours 14 minutes 52 seconds 613 msec
