                         Program Version 4.2.0 -  RELEASE  -
|  1> # ORCA input file
|  2> # SCF done       -200.072456841611          0.000737051776
|  3> ! CAM-B3LYP def2-SVP def2/J RIJCOSX Grid4 TightSCF
|  4> %maxcore 5000
|  5> %tddft
|  6>     Mode sTDDFT
|  7>     Ethresh 5.0
|  8>     maxcore 5000
|  9> end
| 10>
| 11> %pal
| 12>   nprocs 6
| 13>   end
| 14> * xyz 0 1
| 15>    C        4.20221        -6.12313         8.58568
| 16>    C        3.49920        -7.30627         8.61828
| 17>    C        3.41556        -8.14574         9.74908
| 18>    N        3.31637        -8.88162        10.62434
| 19>    C        2.70208        -7.80393         7.58065
| 20>    N        1.99089        -8.27508         6.80745
| 21>    C        4.81539        -5.50201         9.76066
| 22>    C        5.01924        -4.13583         9.49661
| 23>    C        5.55589        -3.28697        10.44110
| 24>    C        5.90915        -3.81597        11.67774
| 25>    C        5.72419        -5.17723        11.94235
| 26>    C        5.17333        -6.02834        10.98950
| 27>   Cl        6.18276        -5.82069        13.46680
| 28>   Cl        6.57784        -2.79127        12.88153
| 29>    C        4.59436        -3.83965         8.10950
| 30>    O        4.56817        -2.76595         7.55394
| 31>    C        4.24071        -5.15641         7.52084
| 32>    C        4.06522        -5.23696         6.16440
| 33>    C        4.11809        -6.35909         5.31691
| 34>    C        4.62814        -7.62853         5.59709
| 35>    C        4.43780        -8.45979         4.46765
| 36>    C        4.79602        -9.80936         4.37649
| 37>    N        5.04232       -10.92899         4.30976
| 38>    C        3.76042        -7.73406         3.49386
| 39>    C        3.56038        -6.40968         3.98046
| 40>    C        2.85958        -5.42706         3.26225
| 41>    C        1.75862        -5.80228         2.32761
| 42>    C        1.46789        -4.67385         1.56032
| 43>    C        2.25542        -3.61820         2.04297
| 44>    C        3.08133        -4.07173         3.10017
| 45>    C        2.23437        -2.30702         1.54738
| 46>    N        2.21398        -1.23557         1.13608
| 47>    C        1.07437        -7.00638         2.40690
| 48>    C        1.13231        -7.83499         3.52260
| 49>    C        0.73688        -9.16923         3.58871
| 50>    N        0.83024        -9.85465         4.78107
| 51>    C        0.50033       -11.14335         4.55978
| 52>    C        0.37261       -12.38101         5.16010
| 53>    C       -0.05486       -13.26816         4.14820
| 54>    N       -0.19275       -12.57720         2.96159
| 55>    C        0.15106       -11.27896         3.17079
| 56>    C        0.30088       -10.05585         2.56374
| 57>    C       -0.30680       -14.65194         4.20684
| 58>    C       -0.20668       -15.41185         5.33845
| 59>    C       -0.39976       -16.80517         5.43197
| 60>    C       -0.75227       -17.46236         6.59065
| 61>    C       -1.07530       -18.81674         6.26958
| 62>    C       -1.51502       -19.78395         7.18324
| 63>    N       -1.89716       -20.57328         7.92360
| 64>    C       -0.92613       -19.01151         4.90953
| 65>    C       -0.46592       -17.80028         4.32963
| 66>    C       -0.01198       -17.64325         3.03259
| 67>    C       -0.38863       -18.43615         1.84594
| 68>    C        0.47916       -18.09414         0.83435
| 69>    C        1.38547       -17.09564         1.32158
| 70>    C        1.06571       -16.79850         2.63058
| 71>    C        2.40949       -16.50853         0.56665
| 72>    N        3.22748       -16.00954        -0.06539
| 73>    C       -1.53069       -19.26019         1.68062
| 74>    C       -2.62357       -19.26659         2.49331
| 75>    C       -3.68516       -20.18045         2.33309
| 76>    C       -4.68948       -20.35073         3.24782
| 77>    C       -5.78942       -21.29252         3.16524
| 78>    C       -6.15870       -22.03351         2.07360
| 79>    C       -7.25525       -22.92214         2.05319
| 80>    N       -8.13020       -23.65979         1.96862
| 81>    C       -5.52461       -21.99820         0.81342
| 82>    N       -5.06919       -22.01476        -0.24051
| 83>    C       -6.47510       -21.28092         4.45502
| 84>    C       -5.86871       -20.32184         5.28546
| 85>    C       -4.75759       -19.66980         4.56468
| 86>    O       -4.05441       -18.77346         4.98486
| 87>    C       -6.30324       -20.09582         6.57559
| 88>    C       -7.37354       -20.84326         7.05052
| 89>    C       -7.98521       -21.79917         6.22998
| 90>    C       -7.54206       -22.02507         4.93133
| 91>   Cl       -9.30511       -22.71715         6.82967
| 92>   Cl       -7.94509       -20.59358         8.64832
| 93>    H        5.69598        -2.23965        10.22518
| 94>    H        5.05118        -7.07290        11.22552
| 95>    H        3.93973        -4.27426         5.68137
| 96>    H        5.14695        -7.92524         6.49004
| 97>    H        3.55397        -8.07309         2.49677
| 98>    H        0.71541        -4.59406         0.79895
| 99>    H        3.82831        -3.47072         3.58305
|100>    H        0.44063        -7.28831         1.57572
|101>    H        1.46740        -7.41057         4.45914
|102>    H        1.18398        -9.42747         5.63604
|103>    H        0.56047       -12.63792         6.18198
|104>    H       -0.45440       -12.99592         2.08529
|105>    H        0.13585        -9.79124         1.53905
|106>    H       -0.60944       -15.12130         3.28028
|107>    H       -0.02893       -14.90782         6.27947
|108>    H       -0.83291       -17.03052         7.57048
|109>    H       -1.02456       -19.95047         4.39988
|110>    H        0.46788       -18.46829        -0.17244
|111>    H        1.62324       -16.15068         3.28017
|112>    H       -1.52587       -19.90157         0.80615
|113>    H       -2.69029       -18.57135         3.31542
|114>    H       -3.65834       -20.81672         1.45749
|115>    H       -5.81805       -19.36096         7.19820
|116>    H       -8.03413       -22.77326         4.33185
|117> *
|118>
|119>                          ****END OF INPUT****

CARTESIAN COORDINATES (ANGSTROEM)
---------------------------------
  C      4.202210   -6.123130    8.585680
  C      3.499200   -7.306270    8.618280
  C      3.415560   -8.145740    9.749080
  N      3.316370   -8.881620   10.624340
  C      2.702080   -7.803930    7.580650
  N      1.990890   -8.275080    6.807450
  C      4.815390   -5.502010    9.760660
  C      5.019240   -4.135830    9.496610
  C      5.555890   -3.286970   10.441100
  C      5.909150   -3.815970   11.677740
  C      5.724190   -5.177230   11.942350
  C      5.173330   -6.028340   10.989500
  Cl     6.182760   -5.820690   13.466800
  Cl     6.577840   -2.791270   12.881530
  C      4.594360   -3.839650    8.109500
  O      4.568170   -2.765950    7.553940
  C      4.240710   -5.156410    7.520840
  C      4.065220   -5.236960    6.164400
  C      4.118090   -6.359090    5.316910
  C      4.628140   -7.628530    5.597090
  C      4.437800   -8.459790    4.467650
  C      4.796020   -9.809360    4.376490
  N      5.042320  -10.928990    4.309760
  C      3.760420   -7.734060    3.493860
  C      3.560380   -6.409680    3.980460
  C      2.859580   -5.427060    3.262250
  C      1.758620   -5.802280    2.327610
  C      1.467890   -4.673850    1.560320
  C      2.255420   -3.618200    2.042970
  C      3.081330   -4.071730    3.100170
  C      2.234370   -2.307020    1.547380
  N      2.213980   -1.235570    1.136080
  C      1.074370   -7.006380    2.406900
  C      1.132310   -7.834990    3.522600
  C      0.736880   -9.169230    3.588710
  N      0.830240   -9.854650    4.781070
  C      0.500330  -11.143350    4.559780
  C      0.372610  -12.381010    5.160100
  C     -0.054860  -13.268160    4.148200
  N     -0.192750  -12.577200    2.961590
  C      0.151060  -11.278960    3.170790
  C      0.300880  -10.055850    2.563740
  C     -0.306800  -14.651940    4.206840
  C     -0.206680  -15.411850    5.338450
  C     -0.399760  -16.805170    5.431970
  C     -0.752270  -17.462360    6.590650
  C     -1.075300  -18.816740    6.269580
  C     -1.515020  -19.783950    7.183240
  N     -1.897160  -20.573280    7.923600
  C     -0.926130  -19.011510    4.909530
  C     -0.465920  -17.800280    4.329630
  C     -0.011980  -17.643250    3.032590
  C     -0.388630  -18.436150    1.845940
  C      0.479160  -18.094140    0.834350
  C      1.385470  -17.095640    1.321580
  C      1.065710  -16.798500    2.630580
  C      2.409490  -16.508530    0.566650
  N      3.227480  -16.009540   -0.065390
  C     -1.530690  -19.260190    1.680620
  C     -2.623570  -19.266590    2.493310
  C     -3.685160  -20.180450    2.333090
  C     -4.689480  -20.350730    3.247820
  C     -5.789420  -21.292520    3.165240
  C     -6.158700  -22.033510    2.073600
  C     -7.255250  -22.922140    2.053190
  N     -8.130200  -23.659790    1.968620
  C     -5.524610  -21.998200    0.813420
  N     -5.069190  -22.014760   -0.240510
  C     -6.475100  -21.280920    4.455020
  C     -5.868710  -20.321840    5.285460
  C     -4.757590  -19.669800    4.564680
  O     -4.054410  -18.773460    4.984860
  C     -6.303240  -20.095820    6.575590
  C     -7.373540  -20.843260    7.050520
  C     -7.985210  -21.799170    6.229980
  C     -7.542060  -22.025070    4.931330
  Cl    -9.305110  -22.717150    6.829670
  Cl    -7.945090  -20.593580    8.648320
  H      5.695980   -2.239650   10.225180
  H      5.051180   -7.072900   11.225520
  H      3.939730   -4.274260    5.681370
  H      5.146950   -7.925240    6.490040
  H      3.553970   -8.073090    2.496770
  H      0.715410   -4.594060    0.798950
  H      3.828310   -3.470720    3.583050
  H      0.440630   -7.288310    1.575720
  H      1.467400   -7.410570    4.459140
  H      1.183980   -9.427470    5.636040
  H      0.560470  -12.637920    6.181980
  H     -0.454400  -12.995920    2.085290
  H      0.135850   -9.791240    1.539050
  H     -0.609440  -15.121300    3.280280
  H     -0.028930  -14.907820    6.279470
  H     -0.832910  -17.030520    7.570480
  H     -1.024560  -19.950470    4.399880
  H      0.467880  -18.468290   -0.172440
  H      1.623240  -16.150680    3.280170
  H     -1.525870  -19.901570    0.806150
  H     -2.690290  -18.571350    3.315420
  H     -3.658340  -20.816720    1.457490
  H     -5.818050  -19.360960    7.198200
  H     -8.034130  -22.773260    4.331850

 Total Charge           Charge          ....    0
 Multiplicity           Mult            ....    1
 Number of Electrons    NEL             ....  550
 Basis Dimension        Dim             .... 1228

ORBITAL ENERGIES
----------------

  NO   OCC          E(Eh)            E(eV)
   0   2.0000    -101.608045     -2764.8955
   1   2.0000    -101.607080     -2764.8692
   2   2.0000    -101.601199     -2764.7092
   3   2.0000    -101.600101     -2764.6793
   4   2.0000     -19.238602      -523.5090
   5   2.0000     -19.217324      -522.9300
   6   2.0000     -14.494342      -394.4111
   7   2.0000     -14.473660      -393.8483
   8   2.0000     -14.442495      -393.0003
   9   2.0000     -14.432097      -392.7173
  10   2.0000     -14.428564      -392.6212
  11   2.0000     -14.428481      -392.6189
  12   2.0000     -14.428188      -392.6110
  13   2.0000     -14.420671      -392.4064
  14   2.0000     -14.410549      -392.1310
  15   2.0000     -14.394754      -391.7012
  16   2.0000     -10.389121      -282.7023
  17   2.0000     -10.368591      -282.1437
  18   2.0000     -10.365927      -282.0712
  19   2.0000     -10.365452      -282.0583
  20   2.0000     -10.360054      -281.9114
  21   2.0000     -10.357762      -281.8490
  22   2.0000     -10.357379      -281.8386
  23   2.0000     -10.356981      -281.8278
  24   2.0000     -10.355266      -281.7811
  25   2.0000     -10.353338      -281.7287
  26   2.0000     -10.352596      -281.7084
  27   2.0000     -10.352118      -281.6954
  28   2.0000     -10.348144      -281.5873
  29   2.0000     -10.347659      -281.5741
  30   2.0000     -10.342883      -281.4442
  31   2.0000     -10.341989      -281.4198
  32   2.0000     -10.340312      -281.3742
  33   2.0000     -10.337827      -281.3066
  34   2.0000     -10.336046      -281.2581
  35   2.0000     -10.334199      -281.2078
  36   2.0000     -10.333264      -281.1824
  37   2.0000     -10.330459      -281.1061
  38   2.0000     -10.330049      -281.0949
  39   2.0000     -10.330016      -281.0940
  40   2.0000     -10.327095      -281.0145
  41   2.0000     -10.326511      -280.9986
  42   2.0000     -10.326130      -280.9883
  43   2.0000     -10.325300      -280.9657
  44   2.0000     -10.324771      -280.9513
  45   2.0000     -10.324618      -280.9471
  46   2.0000     -10.324334      -280.9394
  47   2.0000     -10.324313      -280.9388
  48   2.0000     -10.323175      -280.9079
  49   2.0000     -10.322454      -280.8882
  50   2.0000     -10.322334      -280.8850
  51   2.0000     -10.320175      -280.8262
  52   2.0000     -10.319476      -280.8072
  53   2.0000     -10.319282      -280.8019
  54   2.0000     -10.318887      -280.7912
  55   2.0000     -10.317425      -280.7514
  56   2.0000     -10.316727      -280.7324
  57   2.0000     -10.314351      -280.6678
  58   2.0000     -10.314165      -280.6627
  59   2.0000     -10.313134      -280.6346
  60   2.0000     -10.312774      -280.6248
  61   2.0000     -10.311491      -280.5899
  62   2.0000     -10.310216      -280.5552
  63   2.0000     -10.309734      -280.5421
  64   2.0000     -10.307852      -280.4909
  65   2.0000     -10.306362      -280.4504
  66   2.0000     -10.305101      -280.4160
  67   2.0000     -10.303615      -280.3756
  68   2.0000     -10.302794      -280.3533
  69   2.0000     -10.298773      -280.2439
  70   2.0000     -10.297779      -280.2168
  71   2.0000     -10.297349      -280.2051
  72   2.0000     -10.296289      -280.1763
  73   2.0000     -10.295594      -280.1574
  74   2.0000     -10.292246      -280.0662
  75   2.0000     -10.285277      -279.8766
  76   2.0000     -10.283522      -279.8289
  77   2.0000     -10.279669      -279.7240
  78   2.0000      -9.563087      -260.2248
  79   2.0000      -9.562135      -260.1989
  80   2.0000      -9.556250      -260.0388
  81   2.0000      -9.555119      -260.0080
  82   2.0000      -7.333488      -199.5544
  83   2.0000      -7.332558      -199.5290
  84   2.0000      -7.326633      -199.3678
  85   2.0000      -7.325497      -199.3369
  86   2.0000      -7.323352      -199.2785
  87   2.0000      -7.322586      -199.2577
  88   2.0000      -7.322377      -199.2520
  89   2.0000      -7.321623      -199.2315
  90   2.0000      -7.316506      -199.0922
  91   2.0000      -7.315783      -199.0726
  92   2.0000      -7.315378      -199.0616
  93   2.0000      -7.314667      -199.0422
  94   2.0000      -1.152439       -31.3595
  95   2.0000      -1.132839       -30.8261
  96   2.0000      -1.125353       -30.6224
  97   2.0000      -1.086453       -29.5639
  98   2.0000      -1.041801       -28.3489
  99   2.0000      -1.037849       -28.2413
 100   2.0000      -1.037347       -28.2277
 101   2.0000      -1.029396       -28.0113
 102   2.0000      -1.028732       -27.9932
 103   2.0000      -1.021401       -27.7937
 104   2.0000      -1.009741       -27.4764
 105   2.0000      -1.008497       -27.4426
 106   2.0000      -1.008089       -27.4315
 107   2.0000      -1.007126       -27.4053
 108   2.0000      -1.003773       -27.3141
 109   2.0000      -0.998785       -27.1783
 110   2.0000      -0.996411       -27.1137
 111   2.0000      -0.992833       -27.0163
 112   2.0000      -0.983298       -26.7569
 113   2.0000      -0.970323       -26.4038
 114   2.0000      -0.970320       -26.4037
 115   2.0000      -0.962906       -26.2020
 116   2.0000      -0.953506       -25.9462
 117   2.0000      -0.941272       -25.6133
 118   2.0000      -0.937680       -25.5156
 119   2.0000      -0.937201       -25.5025
 120   2.0000      -0.935181       -25.4476
 121   2.0000      -0.910344       -24.7717
 122   2.0000      -0.908077       -24.7100
 123   2.0000      -0.903784       -24.5932
 124   2.0000      -0.898740       -24.4560
 125   2.0000      -0.897427       -24.4202
 126   2.0000      -0.880666       -23.9641
 127   2.0000      -0.877246       -23.8711
 128   2.0000      -0.871268       -23.7084
 129   2.0000      -0.870157       -23.6782
 130   2.0000      -0.863382       -23.4938
 131   2.0000      -0.861824       -23.4514
 132   2.0000      -0.842787       -22.9334
 133   2.0000      -0.836541       -22.7634
 134   2.0000      -0.823526       -22.4093
 135   2.0000      -0.817729       -22.2515
 136   2.0000      -0.800298       -21.7772
 137   2.0000      -0.795412       -21.6443
 138   2.0000      -0.791163       -21.5287
 139   2.0000      -0.780554       -21.2400
 140   2.0000      -0.778648       -21.1881
 141   2.0000      -0.773075       -21.0364
 142   2.0000      -0.764350       -20.7990
 143   2.0000      -0.744932       -20.2706
 144   2.0000      -0.740278       -20.1440
 145   2.0000      -0.728514       -19.8239
 146   2.0000      -0.724137       -19.7048
 147   2.0000      -0.718435       -19.5496
 148   2.0000      -0.717722       -19.5302
 149   2.0000      -0.713637       -19.4191
 150   2.0000      -0.710664       -19.3382
 151   2.0000      -0.708419       -19.2771
 152   2.0000      -0.705559       -19.1992
 153   2.0000      -0.697577       -18.9820
 154   2.0000      -0.692575       -18.8459
 155   2.0000      -0.684375       -18.6228
 156   2.0000      -0.681123       -18.5343
 157   2.0000      -0.676559       -18.4101
 158   2.0000      -0.667213       -18.1558
 159   2.0000      -0.658255       -17.9120
 160   2.0000      -0.655619       -17.8403
 161   2.0000      -0.650221       -17.6934
 162   2.0000      -0.641777       -17.4636
 163   2.0000      -0.636638       -17.3238
 164   2.0000      -0.634556       -17.2671
 165   2.0000      -0.627790       -17.0830
 166   2.0000      -0.625160       -17.0115
 167   2.0000      -0.618580       -16.8324
 168   2.0000      -0.618083       -16.8189
 169   2.0000      -0.605430       -16.4746
 170   2.0000      -0.602551       -16.3963
 171   2.0000      -0.599840       -16.3225
 172   2.0000      -0.595048       -16.1921
 173   2.0000      -0.592319       -16.1178
 174   2.0000      -0.590861       -16.0782
 175   2.0000      -0.586962       -15.9720
 176   2.0000      -0.570850       -15.5336
 177   2.0000      -0.569974       -15.5098
 178   2.0000      -0.567675       -15.4472
 179   2.0000      -0.565010       -15.3747
 180   2.0000      -0.561671       -15.2838
 181   2.0000      -0.558608       -15.2005
 182   2.0000      -0.558374       -15.1941
 183   2.0000      -0.555487       -15.1156
 184   2.0000      -0.552599       -15.0370
 185   2.0000      -0.551659       -15.0114
 186   2.0000      -0.549673       -14.9574
 187   2.0000      -0.545927       -14.8554
 188   2.0000      -0.544912       -14.8278
 189   2.0000      -0.542813       -14.7707
 190   2.0000      -0.535301       -14.5663
 191   2.0000      -0.534290       -14.5388
 192   2.0000      -0.532176       -14.4812
 193   2.0000      -0.529790       -14.4163
 194   2.0000      -0.527739       -14.3605
 195   2.0000      -0.524381       -14.2691
 196   2.0000      -0.520368       -14.1599
 197   2.0000      -0.518902       -14.1200
 198   2.0000      -0.518398       -14.1063
 199   2.0000      -0.517255       -14.0752
 200   2.0000      -0.516087       -14.0434
 201   2.0000      -0.514013       -13.9870
 202   2.0000      -0.512164       -13.9367
 203   2.0000      -0.510886       -13.9019
 204   2.0000      -0.509147       -13.8546
 205   2.0000      -0.508022       -13.8240
 206   2.0000      -0.506649       -13.7866
 207   2.0000      -0.503345       -13.6967
 208   2.0000      -0.501577       -13.6486
 209   2.0000      -0.498884       -13.5753
 210   2.0000      -0.495900       -13.4941
 211   2.0000      -0.494293       -13.4504
 212   2.0000      -0.493233       -13.4216
 213   2.0000      -0.491769       -13.3817
 214   2.0000      -0.488542       -13.2939
 215   2.0000      -0.487743       -13.2722
 216   2.0000      -0.483848       -13.1662
 217   2.0000      -0.478820       -13.0294
 218   2.0000      -0.477840       -13.0027
 219   2.0000      -0.474788       -12.9196
 220   2.0000      -0.470028       -12.7901
 221   2.0000      -0.467155       -12.7119
 222   2.0000      -0.465259       -12.6603
 223   2.0000      -0.463202       -12.6044
 224   2.0000      -0.461907       -12.5691
 225   2.0000      -0.456626       -12.4254
 226   2.0000      -0.456079       -12.4105
 227   2.0000      -0.455539       -12.3958
 228   2.0000      -0.454586       -12.3699
 229   2.0000      -0.454136       -12.3577
 230   2.0000      -0.450096       -12.2477
 231   2.0000      -0.448516       -12.2047
 232   2.0000      -0.445904       -12.1337
 233   2.0000      -0.445535       -12.1236
 234   2.0000      -0.441988       -12.0271
 235   2.0000      -0.440693       -11.9919
 236   2.0000      -0.438101       -11.9213
 237   2.0000      -0.437484       -11.9046
 238   2.0000      -0.435884       -11.8610
 239   2.0000      -0.435704       -11.8561
 240   2.0000      -0.434212       -11.8155
 241   2.0000      -0.429066       -11.6755
 242   2.0000      -0.428900       -11.6710
 243   2.0000      -0.427852       -11.6424
 244   2.0000      -0.426428       -11.6037
 245   2.0000      -0.425944       -11.5905
 246   2.0000      -0.424084       -11.5399
 247   2.0000      -0.420308       -11.4372
 248   2.0000      -0.416459       -11.3324
 249   2.0000      -0.414866       -11.2891
 250   2.0000      -0.410673       -11.1750
 251   2.0000      -0.409443       -11.1415
 252   2.0000      -0.407361       -11.0849
 253   2.0000      -0.398314       -10.8387
 254   2.0000      -0.396902       -10.8003
 255   2.0000      -0.389986       -10.6121
 256   2.0000      -0.389325       -10.5941
 257   2.0000      -0.382620       -10.4116
 258   2.0000      -0.372034       -10.1236
 259   2.0000      -0.360512        -9.8100
 260   2.0000      -0.357273        -9.7219
 261   2.0000      -0.355254        -9.6670
 262   2.0000      -0.349332        -9.5058
 263   2.0000      -0.345271        -9.3953
 264   2.0000      -0.343293        -9.3415
 265   2.0000      -0.336328        -9.1519
 266   2.0000      -0.332693        -9.0530
 267   2.0000      -0.322184        -8.7671
 268   2.0000      -0.321015        -8.7353
 269   2.0000      -0.317258        -8.6330
 270   2.0000      -0.315237        -8.5780
 271   2.0000      -0.298370        -8.1191
 272   2.0000      -0.288112        -7.8399
 273   2.0000      -0.271998        -7.4014
 274   2.0000      -0.244371        -6.6497
 275   0.0000      -0.155145        -4.2217
 276   0.0000      -0.129483        -3.5234
 277   0.0000      -0.105981        -2.8839
 278   0.0000      -0.092809        -2.5255
 279   0.0000      -0.081525        -2.2184

MULLIKEN ATOMIC CHARGES
-----------------------
   0 C :    0.298435
   1 C :   -0.365307
   2 C :   -0.195172
   3 N :    0.160553
   4 C :   -0.125120
   5 N :    0.117167
   6 C :    0.004769
   7 C :    0.009703
   8 C :   -0.033685
   9 C :    0.062844
  10 C :    0.047401
  11 C :   -0.016568
  12 Cl:   -0.037483
  13 Cl:   -0.042035
  14 C :    0.137224
  15 O :   -0.143082
  16 C :   -0.143413
  17 C :    0.030390
  18 C :    0.056793
  19 C :   -0.036790
  20 C :   -0.137722
  21 C :   -0.140579
  22 N :    0.125645
  23 C :   -0.012299
  24 C :   -0.012579
  25 C :    0.060049
  26 C :    0.089282
  27 C :   -0.045188
  28 C :   -0.090724
  29 C :   -0.049274
  30 C :   -0.131241
  31 N :    0.143627
  32 C :   -0.026323
  33 C :    0.052905
  34 C :    0.077675
  35 N :   -0.009341
  36 C :    0.160961
  37 C :   -0.156757
  38 C :    0.114875
  39 N :   -0.036597
  40 C :    0.136076
  41 C :   -0.144655
  42 C :   -0.023498
  43 C :   -0.007562
  44 C :    0.094575
  45 C :   -0.007581
  46 C :   -0.077808
  47 C :   -0.126367
  48 N :    0.151559
  49 C :   -0.016316
  50 C :    0.045327
  51 C :    0.030395
  52 C :    0.078165
  53 C :    0.009378
  54 C :   -0.114460
  55 C :   -0.034482
  56 C :   -0.126459
  57 N :    0.153500
  58 C :    0.015025
  59 C :   -0.037182
  60 C :   -0.032493
  61 C :   -0.076376
  62 C :    0.315266
  63 C :   -0.334515
  64 C :   -0.187832
  65 N :    0.164992
  66 C :   -0.196745
  67 N :    0.155154
  68 C :    0.032266
  69 C :   -0.010548
  70 C :    0.155073
  71 O :   -0.155990
  72 C :   -0.020353
  73 C :    0.061428
  74 C :    0.050675
  75 C :   -0.014469
  76 Cl:   -0.029048
  77 Cl:   -0.035627
  78 H :    0.000681
  79 H :    0.004359
  80 H :    0.002128
  81 H :   -0.000371
  82 H :   -0.000834
  83 H :   -0.016866
  84 H :    0.002771
  85 H :    0.006432
  86 H :    0.042493
  87 H :    0.122300
  88 H :   -0.011377
  89 H :    0.132656
  90 H :   -0.017546
  91 H :    0.002868
  92 H :    0.002610
  93 H :   -0.002176
  94 H :    0.008445
  95 H :    0.003820
  96 H :    0.026637
  97 H :    0.012827
  98 H :    0.054896
  99 H :    0.018272
 100 H :    0.000693
 101 H :    0.002776
Sum of atomic charges:   -0.0000000

LOEWDIN ATOMIC CHARGES
----------------------
   0 C :    0.084316
   1 C :   -0.166649
   2 C :   -0.025832
   3 N :   -0.055135
   4 C :    0.052089
   5 N :   -0.072193
   6 C :   -0.014800
   7 C :   -0.041168
   8 C :    0.000557
   9 C :   -0.133704
  10 C :   -0.132244
  11 C :   -0.013840
  12 Cl:    0.160859
  13 Cl:    0.159748
  14 C :    0.082812
  15 O :   -0.141791
  16 C :   -0.125090
  17 C :    0.091539
  18 C :   -0.093571
  19 C :    0.045436
  20 C :   -0.120839
  21 C :   -0.037909
  22 N :   -0.077918
  23 C :    0.020913
  24 C :   -0.006486
  25 C :    0.010750
  26 C :    0.017167
  27 C :   -0.050028
  28 C :   -0.026851
  29 C :   -0.054453
  30 C :   -0.027028
  31 N :   -0.039037
  32 C :    0.017498
  33 C :    0.039598
  34 C :    0.002377
  35 N :    0.090884
  36 C :    0.031474
  37 C :   -0.083144
  38 C :    0.039237
  39 N :    0.069373
  40 C :   -0.001368
  41 C :   -0.051565
  42 C :   -0.036754
  43 C :    0.014184
  44 C :   -0.028419
  45 C :    0.012041
  46 C :   -0.035132
  47 C :   -0.026792
  48 N :   -0.034637
  49 C :    0.000317
  50 C :    0.057872
  51 C :    0.027329
  52 C :   -0.044751
  53 C :    0.033982
  54 C :   -0.067450
  55 C :    0.010324
  56 C :   -0.035725
  57 N :   -0.033307
  58 C :    0.034334
  59 C :   -0.037649
  60 C :    0.067476
  61 C :   -0.091044
  62 C :    0.072506
  63 C :   -0.129962
  64 C :   -0.020908
  65 N :   -0.040098
  66 C :   -0.020388
  67 N :   -0.045648
  68 C :   -0.012862
  69 C :   -0.044345
  70 C :    0.090011
  71 O :   -0.145405
  72 C :    0.005902
  73 C :   -0.132072
  74 C :   -0.127687
  75 C :   -0.011734
  76 Cl:    0.167634
  77 Cl:    0.165310
  78 H :    0.046544
  79 H :    0.044218
  80 H :    0.044341
  81 H :    0.031553
  82 H :    0.032052
  83 H :    0.029703
  84 H :    0.031714
  85 H :    0.041772
  86 H :    0.051028
  87 H :    0.064193
  88 H :    0.032960
  89 H :    0.095547
  90 H :    0.031614
  91 H :    0.032771
  92 H :    0.041953
  93 H :    0.036579
  94 H :    0.037007
  95 H :    0.039067
  96 H :    0.042036
  97 H :    0.043099
  98 H :    0.034286
  99 H :    0.043509
 100 H :    0.046876
 101 H :    0.045142

  Mayer bond orders larger than 0.100000
B(  0-C ,  1-C ) :   1.5830 B(  0-C ,  6-C ) :   0.9978 B(  0-C , 16-C ) :   1.0867
B(  1-C ,  2-C ) :   1.1247 B(  1-C ,  4-C ) :   1.2062 B(  2-C ,  3-N ) :   2.9963
B(  4-C ,  5-N ) :   2.8523 B(  5-N , 87-H ) :   0.1496 B(  6-C ,  7-C ) :   1.3310
B(  6-C , 11-C ) :   1.3484 B(  7-C ,  8-C ) :   1.3576 B(  7-C , 14-C ) :   0.9161
B(  8-C ,  9-C ) :   1.3336 B(  8-C , 78-H ) :   1.0173 B(  9-C , 10-C ) :   1.4148
B(  9-C , 13-Cl) :   1.0482 B( 10-C , 11-C ) :   1.3539 B( 10-C , 12-Cl) :   1.0690
B( 11-C , 79-H ) :   0.9890 B( 14-C , 15-O ) :   2.2503 B( 14-C , 16-C ) :   0.9595
B( 16-C , 17-C ) :   1.5439 B( 17-C , 18-C ) :   1.1610 B( 17-C , 80-H ) :   0.9384
B( 18-C , 19-C ) :   1.2876 B( 18-C , 24-C ) :   1.1970 B( 19-C , 20-C ) :   1.3259
B( 19-C , 81-H ) :   1.0090 B( 20-C , 21-C ) :   1.0573 B( 20-C , 23-C ) :   1.3992
B( 21-C , 22-N ) :   3.0486 B( 23-C , 24-C ) :   1.2205 B( 23-C , 33-C ) :   0.1328
B( 23-C , 82-H ) :   0.9990 B( 24-C , 25-C ) :   1.1259 B( 25-C , 26-C ) :   1.0166
B( 25-C , 29-C ) :   1.4699 B( 26-C , 27-C ) :   1.2476 B( 26-C , 32-C ) :   1.4115
B( 27-C , 28-C ) :   1.4088 B( 27-C , 83-H ) :   1.0258 B( 28-C , 29-C ) :   1.2500
B( 28-C , 30-C ) :   1.0612 B( 29-C , 84-H ) :   1.0145 B( 30-C , 31-N ) :   3.0376
B( 32-C , 33-C ) :   1.2917 B( 32-C , 85-H ) :   0.9700 B( 33-C , 34-C ) :   1.3099
B( 33-C , 86-H ) :   0.9250 B( 34-C , 35-N ) :   1.1791 B( 34-C , 41-C ) :   1.2420
B( 35-N , 36-C ) :   1.2381 B( 35-N , 87-H ) :   0.8720 B( 36-C , 37-C ) :   1.2862
B( 36-C , 40-C ) :   1.2060 B( 37-C , 38-C ) :   1.3644 B( 37-C , 88-H ) :   1.0303
B( 38-C , 39-N ) :   1.1820 B( 38-C , 42-C ) :   1.1444 B( 39-N , 40-C ) :   1.1450
B( 39-N , 89-H ) :   0.9336 B( 40-C , 41-C ) :   1.3839 B( 41-C , 90-H ) :   1.0293
B( 42-C , 43-C ) :   1.5912 B( 42-C , 91-H ) :   0.9534 B( 43-C , 44-C ) :   1.1677
B( 43-C , 92-H ) :   0.9678 B( 44-C , 45-C ) :   1.5242 B( 44-C , 50-C ) :   1.0169
B( 45-C , 46-C ) :   1.1282 B( 45-C , 93-H ) :   1.0219 B( 46-C , 47-C ) :   1.0678
B( 46-C , 49-C ) :   1.5552 B( 47-C , 48-N ) :   3.0383 B( 49-C , 50-C ) :   1.1621
B( 49-C , 94-H ) :   1.0134 B( 50-C , 51-C ) :   1.4272 B( 51-C , 52-C ) :   1.0520
B( 51-C , 55-C ) :   1.1310 B( 52-C , 53-C ) :   1.5260 B( 52-C , 58-C ) :   1.1129
B( 53-C , 54-C ) :   1.1334 B( 53-C , 95-H ) :   1.0215 B( 54-C , 55-C ) :   1.5619
B( 54-C , 56-C ) :   1.0603 B( 55-C , 96-H ) :   1.0158 B( 56-C , 57-N ) :   3.0424
B( 58-C , 59-C ) :   1.5590 B( 58-C , 97-H ) :   0.9768 B( 59-C , 60-C ) :   1.1717
B( 59-C , 98-H ) :   0.9664 B( 60-C , 61-C ) :   1.5516 B( 60-C , 99-H ) :   0.9668
B( 61-C , 62-C ) :   1.0563 B( 61-C , 70-C ) :   0.9490 B( 62-C , 63-C ) :   1.6495
B( 62-C , 68-C ) :   0.9943 B( 63-C , 64-C ) :   1.1362 B( 63-C , 66-C ) :   1.1466
B( 64-C , 65-N ) :   2.9761 B( 66-C , 67-N ) :   2.9723 B( 68-C , 69-C ) :   1.3270
B( 68-C , 75-C ) :   1.3421 B( 69-C , 70-C ) :   0.9545 B( 69-C , 72-C ) :   1.3414
B( 70-C , 71-O ) :   2.1662 B( 72-C , 73-C ) :   1.3438 B( 72-C ,100-H ) :   1.0164
B( 73-C , 74-C ) :   1.4013 B( 73-C , 77-Cl) :   1.0537 B( 74-C , 75-C ) :   1.3587
B( 74-C , 76-Cl) :   1.0821 B( 75-C ,101-H ) :   0.9869

-----------------------------------------------------------------------------
         ABSORPTION SPECTRUM VIA TRANSITION ELECTRIC DIPOLE MOMENTS
-----------------------------------------------------------------------------
State   Energy  Wavelength   fosc         T2         TX        TY        TZ
        (cm-1)    (nm)                  (au**2)     (au)      (au)      (au)
-----------------------------------------------------------------------------
   0    5223.5   1914.4   0.276595697  17.43250   1.65399   3.75650   0.76523
   1    7852.1   1273.6   0.027453276   1.15103  -0.93783  -0.22417  -0.47037
   2   11918.8    839.0   0.045718331   1.26280   0.96436   0.41826   0.39733
   3   12586.2    794.5   0.146207219   3.82429  -0.84708  -1.76016   0.09265
   4   15005.5    666.4   0.052752154   1.15735   0.72475   0.72785  -0.31986
   5   17080.6    585.5   0.056888080   1.09646  -0.14311  -0.40413  -0.95533
   6   17820.1    561.2   0.129619383   2.39462  -0.06718  -1.33640   0.77727
   7   18842.8    530.7   0.299870892   5.23919  -0.23902   2.23066  -0.45413
   8   19240.9    519.7   0.204475270   3.49857   0.94817   1.56450  -0.38973
   9   19954.5    501.1   0.272027469   4.48795   0.32679   0.52688   2.02572
  10   20992.6    476.4   0.198245184   3.10893   0.36260   1.48613  -0.87685
  11   22147.7    451.5   0.085332931   1.26842  -1.00881  -0.28035  -0.41487
  12   22753.4    439.5   0.462627253   6.69360   0.93950   2.32837  -0.62420
  13   23063.2    433.6   0.102849421   1.46811   0.69781   0.98888   0.05741
  14   23317.9    428.9   0.045569289   0.64337   0.60827   0.22915   0.46997
  15   23864.9    419.0   0.081471508   1.12388   1.03524  -0.03210  -0.22614
  16   24153.3    414.0   0.288656964   3.93443  -1.06331   1.37961  -0.94893
  17   24328.3    411.0   0.077223865   1.04500  -0.07714  -0.82676   0.59625
  18   24926.9    401.2   0.006297136   0.08317  -0.23514  -0.12285  -0.11307
  19   25037.1    399.4   0.042136887   0.55406   0.49537   0.31667   0.45650
  20   25619.6    390.3   0.127044014   1.63252   0.20914   0.31493  -1.22049
  21   25760.1    388.2   0.203272892   2.59781  -0.62576   1.48502  -0.03059
  22   26083.3    383.4   0.281276032   3.55015  -1.31479  -1.05923   0.83636
  23   26882.1    372.0   0.111927522   1.37072   0.02192  -0.52503   1.04623
  24   27679.8    361.3   0.291232048   3.46379   0.81098   1.52792  -0.68670
  25   27825.1    359.4   0.005588817   0.06612  -0.19416   0.09181   0.14141
  26   27991.0    357.3   0.023941182   0.28158   0.44940   0.25573   0.11925
  27   28217.0    354.4   0.073151548   0.85347   0.25391   0.27775  -0.84372
  28   28373.1    352.4   0.013295009   0.15426  -0.00680   0.27986   0.27549
  29   28857.5    346.5   0.249626188   2.84779  -0.84808  -1.14057   0.90975
  30   28930.1    345.7   0.058922691   0.67052   0.51080  -0.26630  -0.58197
  31   29409.9    340.0   0.101498495   1.13617   0.91463   0.52620  -0.15081
  32   29558.8    338.3   0.013659808   0.15214  -0.00423  -0.19308   0.33888
  33   29721.3    336.5   0.006765961   0.07494   0.19929  -0.17030  -0.07889
  34   30360.2    329.4   0.120683077   1.30863   0.20400   0.00569  -1.12560
  35   30492.4    328.0   0.249277773   2.69134  -0.93370  -0.38627   1.29242
  36   30614.2    326.6   0.051346409   0.55216  -0.02109   0.45881   0.58413
  37   30878.5    323.8   0.035952336   0.38331   0.11782   0.08853   0.60132
  38   31053.2    322.0   0.259523948   2.75135   1.42971   0.61401  -0.57471
  39   31623.4    316.2   0.284813995   2.96503  -0.69963  -1.26850  -0.93083
  40   32085.0    311.7   0.111849982   1.14765  -0.29032  -0.97424  -0.33796
  41   32392.8    308.7   0.017563835   0.17850   0.06459   0.12889  -0.39714
  42   32485.0    307.8   0.070418459   0.71364  -0.14799  -0.74364   0.37248
  43   32594.8    306.8   0.005954849   0.06014  -0.06027  -0.13496   0.19570
  44   32706.2    305.8   0.015850856   0.15955   0.00326   0.02309   0.39876
  45   32871.9    304.2   0.074156123   0.74267   0.69148  -0.15453  -0.49055
  46   33556.3    298.0   0.069767665   0.68447   0.64972   0.51190  -0.01696
  47   33691.8    296.8   0.019191717   0.18753  -0.23400  -0.21768  -0.29221
  48   33957.7    294.5   0.027593301   0.26751   0.08096   0.50935   0.03891
  49   33972.7    294.4   0.018174719   0.17612  -0.05528   0.17251   0.37856
  50   34293.3    291.6   0.456192636   4.37940   0.46130  -0.60221  -1.95037
  51   34534.9    289.6   0.037157045   0.35421  -0.46524  -0.36333   0.07582
  52   34650.4    288.6   0.402359268   3.82280   0.44715   1.28119   1.40763
  53   34776.5    287.6   0.156149494   1.47819  -0.06928   0.01773   1.21370
  54   35288.3    283.4   0.114605839   1.06918   0.64947   0.80400   0.03095
  55   35413.6    282.4   0.046256070   0.43001   0.37588   0.26075   0.46982
  56   35625.7    280.7   0.056277515   0.52005  -0.04643  -0.25301  -0.67371
  57   35973.0    278.0   0.029072917   0.26607   0.10633   0.33650   0.37620
  58   36269.8    275.7   0.061994503   0.56271  -0.31922  -0.33702   0.58926
  59   36495.9    274.0   0.051483375   0.46441  -0.56262  -0.05324   0.38082
  60   36622.1    273.1   0.017848430   0.16045  -0.14571  -0.31154  -0.20532
  61   36698.9    272.5   0.015806326   0.14179   0.01255   0.08901   0.36567
  62   36837.6    271.5   0.007096456   0.06342  -0.03127  -0.00182  -0.24988
  63   37068.6    269.8   0.060343765   0.53592   0.28078   0.36508  -0.56903
  64   37267.6    268.3   0.014850930   0.13119  -0.13980  -0.00720  -0.33406
  65   37367.0    267.6   0.033149456   0.29205  -0.34743   0.29467   0.29072
  66   37773.9    264.7   0.009567602   0.08338  -0.28313  -0.00611   0.05646
  67   37930.3    263.6   0.121212706   1.05205  -0.14844  -0.88342   0.49958
  68   38093.5    262.5   0.010432515   0.09016   0.09259  -0.28173   0.04710
  69   38492.0    259.8   0.072224577   0.61772  -0.00038  -0.60312   0.50395
  70   38790.7    257.8   0.066459181   0.56403  -0.10372  -0.49689   0.55351
  71   38996.4    256.4   0.009162829   0.07735   0.23443  -0.13425  -0.06613
  72   39019.3    256.3   0.043812470   0.36965   0.32938   0.41289  -0.30115
  73   39382.7    253.9   0.116661920   0.97521   0.24340   0.78529  -0.54707
  74   39474.9    253.3   0.021792362   0.18174  -0.08993   0.21680  -0.35589
  75   39542.7    252.9   0.006379950   0.05312   0.06803  -0.05417   0.21343
  76   39609.2    252.5   0.019279186   0.16024   0.38357  -0.10832  -0.03713
  77   39742.4    251.6   0.026824808   0.22221  -0.09582  -0.29101   0.35824
  78   39799.5    251.3   0.008222759   0.06802   0.13356   0.11280  -0.19353
  79   40148.7    249.1   0.035788333   0.29346  -0.02483   0.35458  -0.40880
  80   40262.9    248.4   0.046373111   0.37917  -0.27719  -0.51354   0.19651

FINAL SINGLE POINT ENERGY     -4911.012627219114

DIPOLE MOMENT
-------------
                                X             Y             Z
Electronic contribution:    -14.63643      -7.18287      53.57531
Nuclear contribution   :     13.16333       6.21493     -53.62127
                        -----------------------------------------
Total Dipole Moment    :     -1.47310      -0.96794      -0.04596
                        -----------------------------------------
Magnitude (a.u.)       :      1.76325
Magnitude (Debye)      :      4.48182

Rotational constants in cm-1:     0.001150     0.000216     0.000198
Rotational constants in MHz :    34.479319     6.481934     5.927734

                             ****ORCA TERMINATED NORMALLY****
TOTAL RUN TIME: 0 days 0 hours 13 minutes 27 seconds 542 msec
