                         Program Version 4.2.0 -  RELEASE  -
|  1> # ORCA input file
|  2> # SCF done       -214.113224558233          0.000408916499
|  3> ! CAM-B3LYP def2-SVP def2/J RIJCOSX Grid4 TightSCF
|  4> %maxcore 5000
|  5> %tddft
|  6>     Mode sTDDFT
|  7>     Ethresh 5.0
|  8>     maxcore 5000
|  9> end
| 10>
| 11> %pal
| 12>   nprocs 6
| 13>   end
| 14> * xyz 0 1
| 15>    C       -6.80484        -2.84878         8.81737
| 16>    C       -6.91808        -2.65790         7.46569
| 17>    C       -6.27206        -1.62145         6.76072
| 18>    N       -5.75112        -0.81157         6.13694
| 19>    C       -7.77016        -3.42573         6.64439
| 20>    N       -8.48358        -4.00315         5.95521
| 21>    C       -6.20049        -1.90480         9.75396
| 22>    C       -6.72438        -2.14312        11.03849
| 23>    C       -6.36929        -1.36233        12.11967
| 24>    C       -5.46294        -0.32823        11.91770
| 25>    C       -4.92734        -0.09501        10.64463
| 26>    C       -5.29503        -0.87696         9.55486
| 27>   Cl       -3.79779         1.17596        10.41505
| 28>   Cl       -4.99856         0.66591        13.23700
| 29>    C       -7.64004        -3.30409        10.99333
| 30>    O       -8.30575        -3.76533        11.88827
| 31>    C       -7.51736        -3.83303         9.60536
| 32>    C       -7.97105        -5.08501         9.32425
| 33>    C       -7.63232        -5.94870         8.25788
| 34>    C       -8.36637        -7.05332         7.84896
| 35>    C       -7.76494        -7.72687         6.79312
| 36>    C       -6.52671        -7.15940         6.41980
| 37>    S       -6.12627        -5.79330         7.35355
| 38>    C       -5.99170        -7.90398         5.34808
| 39>    C       -6.89628        -8.93790         5.02194
| 40>    C       -8.01969        -8.88122         5.94792
| 41>    C       -9.05258        -9.76445         6.04385
| 42>    C       -9.13659       -10.93035         5.24973
| 43>    N       -9.19612       -11.90776         4.65497
| 44>    C      -10.07965        -9.60927         7.00069
| 45>    N      -10.91073        -9.48756         7.78046
| 46>    C       -6.49130        -9.69446         3.93240
| 47>    C       -5.26407        -9.26261         3.43647
| 48>    S       -4.61699        -7.89668         4.33483
| 49>    C       -4.57842        -9.81225         2.33804
| 50>    C       -5.08395       -10.74809         1.42172
| 51>    C       -4.12733       -11.12658         0.41913
| 52>    N       -4.41408       -12.06971        -0.48121
| 53>    C       -5.62457       -12.57898        -0.45228
| 54>    C       -5.91443       -13.69479        -1.39331
| 55>    O       -5.05144       -14.22759        -2.05360
| 56>    C       -7.32414       -14.12513        -1.42546
| 57>    C       -8.27123       -13.62564        -0.62490
| 58>    C       -8.02736       -12.56990         0.37527
| 59>    O       -8.91040       -12.09293         1.05150
| 60>    C       -6.61579       -12.10686         0.46306
| 61>    N       -6.32927       -11.22871         1.39737
| 62>    C       -2.90032       -10.45695         0.54823
| 63>    S       -2.94542        -9.39799         1.92197
| 64>    C       -1.77686       -10.60846        -0.28493
| 65>    C       -1.75042       -11.28732        -1.49980
| 66>    C       -0.48656       -11.26484        -2.07070
| 67>    C        0.46864       -10.59028        -1.27922
| 68>    S       -0.20896        -9.94199         0.14950
| 69>    C        1.72479       -10.67843        -1.91388
| 70>    C        1.57061       -11.40106        -3.12262
| 71>    C        0.17199       -11.77070        -3.26753
| 72>    C       -0.41725       -12.41132        -4.31527
| 73>    C        0.31156       -12.91118        -5.41795
| 74>    N        0.87771       -13.34827        -6.31310
| 75>    C       -1.81684       -12.59129        -4.40100
| 76>    N       -2.95189       -12.69681        -4.51612
| 77>    C        2.75501       -11.53799        -3.83036
| 78>    C        3.82901       -10.94033        -3.17892
| 79>    S        3.33239       -10.19472        -1.65065
| 80>    C        5.20471       -10.87161        -3.47195
| 81>    C        5.90139       -11.21096        -4.60034
| 82>    C        7.35222       -11.16657        -4.69981
| 83>    C        8.24753       -11.04103        -3.67038
| 84>    C        9.64935       -11.02366        -3.84080
| 85>    N       10.79461       -10.99577        -3.90540
| 86>    C        7.92498       -10.94689        -2.29919
| 87>    N        7.75217       -10.88547        -1.16549
| 88>    C        7.70716       -11.36687        -6.10166
| 89>    C        6.53272       -11.60060        -6.83606
| 90>    C        5.35864       -11.53819        -5.94182
| 91>    O        4.20415       -11.68351        -6.27656
| 92>    C        6.55489       -11.83822        -8.19521
| 93>    C        7.78412       -11.83992        -8.84239
| 94>    C        8.96037       -11.60129        -8.12041
| 95>    C        8.93173       -11.36514        -6.75034
| 96>   Cl       10.47199       -11.59683        -8.93316
| 97>   Cl        7.85906       -12.13331       -10.53097
| 98>    H       -6.78811        -1.55011        13.09565
| 99>    H       -4.86311        -0.67418         8.58820
|100>    H       -8.63746        -5.51030        10.06946
|101>    H       -9.31163        -7.31179         8.29109
|102>    H       -7.03093       -10.50895         3.48335
|103>    H       -7.54745       -14.89989        -2.14643
|104>    H       -9.29323       -13.97618        -0.67584
|105>    H       -2.62424       -11.76846        -1.90084
|106>    H        2.85897       -12.03808        -4.77617
|107>    H        5.79097       -10.47052        -2.65318
|108>    H        5.63907       -12.01917        -8.73553
|109>    H        9.85797       -11.18274        -6.23095
|110> *
|111>
|112>                          ****END OF INPUT****

CARTESIAN COORDINATES (ANGSTROEM)
---------------------------------
  C     -6.804840   -2.848780    8.817370
  C     -6.918080   -2.657900    7.465690
  C     -6.272060   -1.621450    6.760720
  N     -5.751120   -0.811570    6.136940
  C     -7.770160   -3.425730    6.644390
  N     -8.483580   -4.003150    5.955210
  C     -6.200490   -1.904800    9.753960
  C     -6.724380   -2.143120   11.038490
  C     -6.369290   -1.362330   12.119670
  C     -5.462940   -0.328230   11.917700
  C     -4.927340   -0.095010   10.644630
  C     -5.295030   -0.876960    9.554860
  Cl    -3.797790    1.175960   10.415050
  Cl    -4.998560    0.665910   13.237000
  C     -7.640040   -3.304090   10.993330
  O     -8.305750   -3.765330   11.888270
  C     -7.517360   -3.833030    9.605360
  C     -7.971050   -5.085010    9.324250
  C     -7.632320   -5.948700    8.257880
  C     -8.366370   -7.053320    7.848960
  C     -7.764940   -7.726870    6.793120
  C     -6.526710   -7.159400    6.419800
  S     -6.126270   -5.793300    7.353550
  C     -5.991700   -7.903980    5.348080
  C     -6.896280   -8.937900    5.021940
  C     -8.019690   -8.881220    5.947920
  C     -9.052580   -9.764450    6.043850
  C     -9.136590  -10.930350    5.249730
  N     -9.196120  -11.907760    4.654970
  C    -10.079650   -9.609270    7.000690
  N    -10.910730   -9.487560    7.780460
  C     -6.491300   -9.694460    3.932400
  C     -5.264070   -9.262610    3.436470
  S     -4.616990   -7.896680    4.334830
  C     -4.578420   -9.812250    2.338040
  C     -5.083950  -10.748090    1.421720
  C     -4.127330  -11.126580    0.419130
  N     -4.414080  -12.069710   -0.481210
  C     -5.624570  -12.578980   -0.452280
  C     -5.914430  -13.694790   -1.393310
  O     -5.051440  -14.227590   -2.053600
  C     -7.324140  -14.125130   -1.425460
  C     -8.271230  -13.625640   -0.624900
  C     -8.027360  -12.569900    0.375270
  O     -8.910400  -12.092930    1.051500
  C     -6.615790  -12.106860    0.463060
  N     -6.329270  -11.228710    1.397370
  C     -2.900320  -10.456950    0.548230
  S     -2.945420   -9.397990    1.921970
  C     -1.776860  -10.608460   -0.284930
  C     -1.750420  -11.287320   -1.499800
  C     -0.486560  -11.264840   -2.070700
  C      0.468640  -10.590280   -1.279220
  S     -0.208960   -9.941990    0.149500
  C      1.724790  -10.678430   -1.913880
  C      1.570610  -11.401060   -3.122620
  C      0.171990  -11.770700   -3.267530
  C     -0.417250  -12.411320   -4.315270
  C      0.311560  -12.911180   -5.417950
  N      0.877710  -13.348270   -6.313100
  C     -1.816840  -12.591290   -4.401000
  N     -2.951890  -12.696810   -4.516120
  C      2.755010  -11.537990   -3.830360
  C      3.829010  -10.940330   -3.178920
  S      3.332390  -10.194720   -1.650650
  C      5.204710  -10.871610   -3.471950
  C      5.901390  -11.210960   -4.600340
  C      7.352220  -11.166570   -4.699810
  C      8.247530  -11.041030   -3.670380
  C      9.649350  -11.023660   -3.840800
  N     10.794610  -10.995770   -3.905400
  C      7.924980  -10.946890   -2.299190
  N      7.752170  -10.885470   -1.165490
  C      7.707160  -11.366870   -6.101660
  C      6.532720  -11.600600   -6.836060
  C      5.358640  -11.538190   -5.941820
  O      4.204150  -11.683510   -6.276560
  C      6.554890  -11.838220   -8.195210
  C      7.784120  -11.839920   -8.842390
  C      8.960370  -11.601290   -8.120410
  C      8.931730  -11.365140   -6.750340
  Cl    10.471990  -11.596830   -8.933160
  Cl     7.859060  -12.133310  -10.530970
  H     -6.788110   -1.550110   13.095650
  H     -4.863110   -0.674180    8.588200
  H     -8.637460   -5.510300   10.069460
  H     -9.311630   -7.311790    8.291090
  H     -7.030930  -10.508950    3.483350
  H     -7.547450  -14.899890   -2.146430
  H     -9.293230  -13.976180   -0.675840
  H     -2.624240  -11.768460   -1.900840
  H      2.858970  -12.038080   -4.776170
  H      5.790970  -10.470520   -2.653180
  H      5.639070  -12.019170   -8.735530
  H      9.857970  -11.182740   -6.230950

 Total Charge           Charge          ....    0
 Multiplicity           Mult            ....    1
 Number of Electrons    NEL             ....  622
 Basis Dimension        Dim             .... 1258

ORBITAL ENERGIES
----------------

  NO   OCC          E(Eh)            E(eV)
   0   2.0000    -101.607357     -2764.8768
   1   2.0000    -101.606990     -2764.8668
   2   2.0000    -101.603441     -2764.7702
   3   2.0000    -101.602262     -2764.7381
   4   2.0000     -89.017800     -2422.2975
   5   2.0000     -89.008288     -2422.0387
   6   2.0000     -89.008083     -2422.0331
   7   2.0000     -89.005375     -2421.9594
   8   2.0000     -89.003812     -2421.9168
   9   2.0000     -19.235509      -523.4248
  10   2.0000     -19.235325      -523.4198
  11   2.0000     -19.229750      -523.2681
  12   2.0000     -19.229013      -523.2481
  13   2.0000     -14.462562      -393.5463
  14   2.0000     -14.462309      -393.5394
  15   2.0000     -14.439369      -392.9152
  16   2.0000     -14.435809      -392.8183
  17   2.0000     -14.435093      -392.7988
  18   2.0000     -14.434741      -392.7893
  19   2.0000     -14.428503      -392.6195
  20   2.0000     -14.427387      -392.5892
  21   2.0000     -14.426477      -392.5644
  22   2.0000     -14.422277      -392.4501
  23   2.0000     -10.384188      -282.5681
  24   2.0000     -10.384073      -282.5650
  25   2.0000     -10.381222      -282.4874
  26   2.0000     -10.380988      -282.4811
  27   2.0000     -10.376742      -282.3655
  28   2.0000     -10.375708      -282.3374
  29   2.0000     -10.365111      -282.0490
  30   2.0000     -10.364141      -282.0226
  31   2.0000     -10.362234      -281.9707
  32   2.0000     -10.360370      -281.9200
  33   2.0000     -10.360228      -281.9161
  34   2.0000     -10.359833      -281.9054
  35   2.0000     -10.358748      -281.8759
  36   2.0000     -10.357317      -281.8369
  37   2.0000     -10.355161      -281.7783
  38   2.0000     -10.354816      -281.7689
  39   2.0000     -10.354479      -281.7597
  40   2.0000     -10.354445      -281.7588
  41   2.0000     -10.354157      -281.7509
  42   2.0000     -10.353926      -281.7447
  43   2.0000     -10.352990      -281.7192
  44   2.0000     -10.351894      -281.6894
  45   2.0000     -10.351127      -281.6685
  46   2.0000     -10.350847      -281.6609
  47   2.0000     -10.349984      -281.6374
  48   2.0000     -10.349568      -281.6261
  49   2.0000     -10.348153      -281.5876
  50   2.0000     -10.347685      -281.5748
  51   2.0000     -10.338842      -281.3342
  52   2.0000     -10.338644      -281.3288
  53   2.0000     -10.337200      -281.2895
  54   2.0000     -10.336575      -281.2725
  55   2.0000     -10.336026      -281.2576
  56   2.0000     -10.334489      -281.2157
  57   2.0000     -10.333746      -281.1955
  58   2.0000     -10.333424      -281.1868
  59   2.0000     -10.330404      -281.1046
  60   2.0000     -10.329121      -281.0697
  61   2.0000     -10.329027      -281.0671
  62   2.0000     -10.326116      -280.9879
  63   2.0000     -10.324808      -280.9523
  64   2.0000     -10.323315      -280.9117
  65   2.0000     -10.321999      -280.8759
  66   2.0000     -10.321730      -280.8686
  67   2.0000     -10.320591      -280.8375
  68   2.0000     -10.318466      -280.7797
  69   2.0000     -10.318338      -280.7762
  70   2.0000     -10.318131      -280.7706
  71   2.0000     -10.317348      -280.7493
  72   2.0000     -10.316015      -280.7130
  73   2.0000     -10.315303      -280.6937
  74   2.0000     -10.314822      -280.6806
  75   2.0000     -10.313330      -280.6400
  76   2.0000     -10.313275      -280.6385
  77   2.0000     -10.313104      -280.6338
  78   2.0000     -10.312682      -280.6223
  79   2.0000     -10.311575      -280.5922
  80   2.0000     -10.311167      -280.5811
  81   2.0000     -10.310877      -280.5732
  82   2.0000     -10.306143      -280.4444
  83   2.0000      -9.562373      -260.2054
  84   2.0000      -9.561987      -260.1949
  85   2.0000      -9.558475      -260.0993
  86   2.0000      -9.557247      -260.0659
  87   2.0000      -8.112486      -220.7520
  88   2.0000      -8.103012      -220.4942
  89   2.0000      -8.102766      -220.4875
  90   2.0000      -8.099597      -220.4013
  91   2.0000      -8.098568      -220.3732
  92   2.0000      -7.332787      -199.5353
  93   2.0000      -7.332390      -199.5245
  94   2.0000      -7.328873      -199.4288
  95   2.0000      -7.327671      -199.3961
  96   2.0000      -7.322621      -199.2587
  97   2.0000      -7.322255      -199.2487
  98   2.0000      -7.321884      -199.2386
  99   2.0000      -7.321497      -199.2281
 100   2.0000      -7.318737      -199.1530
 101   2.0000      -7.317984      -199.1325
 102   2.0000      -7.317493      -199.1191
 103   2.0000      -7.316757      -199.0991
 104   2.0000      -6.081534      -165.4870
 105   2.0000      -6.077429      -165.3752
 106   2.0000      -6.075195      -165.3145
 107   2.0000      -6.072331      -165.2365
 108   2.0000      -6.072075      -165.2296
 109   2.0000      -6.068884      -165.1427
 110   2.0000      -6.068148      -165.1227
 111   2.0000      -6.067934      -165.1169
 112   2.0000      -6.067667      -165.1096
 113   2.0000      -6.065225      -165.0432
 114   2.0000      -6.064980      -165.0365
 115   2.0000      -6.064657      -165.0277
 116   2.0000      -6.063576      -164.9983
 117   2.0000      -6.061936      -164.9537
 118   2.0000      -6.061084      -164.9305
 119   2.0000      -1.153612       -31.3914
 120   2.0000      -1.148677       -31.2571
 121   2.0000      -1.145899       -31.1815
 122   2.0000      -1.145183       -31.1620
 123   2.0000      -1.114945       -30.3392
 124   2.0000      -1.060491       -28.8574
 125   2.0000      -1.059368       -28.8269
 126   2.0000      -1.041784       -28.3484
 127   2.0000      -1.040810       -28.3219
 128   2.0000      -1.036161       -28.1954
 129   2.0000      -1.032505       -28.0959
 130   2.0000      -1.030049       -28.0291
 131   2.0000      -1.027612       -27.9627
 132   2.0000      -1.026171       -27.9235
 133   2.0000      -1.023437       -27.8491
 134   2.0000      -1.015270       -27.6269
 135   2.0000      -1.013700       -27.5842
 136   2.0000      -1.011352       -27.5203
 137   2.0000      -1.007322       -27.4106
 138   2.0000      -1.004264       -27.3274
 139   2.0000      -1.002986       -27.2926
 140   2.0000      -1.001123       -27.2419
 141   2.0000      -0.997181       -27.1347
 142   2.0000      -0.973601       -26.4930
 143   2.0000      -0.969757       -26.3884
 144   2.0000      -0.969091       -26.3703
 145   2.0000      -0.965318       -26.2676
 146   2.0000      -0.948086       -25.7987
 147   2.0000      -0.945211       -25.7205
 148   2.0000      -0.942029       -25.6339
 149   2.0000      -0.933479       -25.4013
 150   2.0000      -0.927813       -25.2471
 151   2.0000      -0.913592       -24.8601
 152   2.0000      -0.907612       -24.6974
 153   2.0000      -0.894758       -24.3476
 154   2.0000      -0.890884       -24.2422
 155   2.0000      -0.886508       -24.1231
 156   2.0000      -0.883827       -24.0502
 157   2.0000      -0.875833       -23.8326
 158   2.0000      -0.871796       -23.7228
 159   2.0000      -0.869999       -23.6739
 160   2.0000      -0.869095       -23.6493
 161   2.0000      -0.865459       -23.5503
 162   2.0000      -0.861599       -23.4453
 163   2.0000      -0.827902       -22.5284
 164   2.0000      -0.815638       -22.1946
 165   2.0000      -0.806102       -21.9352
 166   2.0000      -0.805238       -21.9116
 167   2.0000      -0.797002       -21.6875
 168   2.0000      -0.790409       -21.5081
 169   2.0000      -0.786862       -21.4116
 170   2.0000      -0.779389       -21.2083
 171   2.0000      -0.774441       -21.0736
 172   2.0000      -0.769549       -20.9405
 173   2.0000      -0.754863       -20.5409
 174   2.0000      -0.748982       -20.3808
 175   2.0000      -0.728958       -19.8359
 176   2.0000      -0.721732       -19.6393
 177   2.0000      -0.714490       -19.4423
 178   2.0000      -0.706814       -19.2334
 179   2.0000      -0.704203       -19.1624
 180   2.0000      -0.703105       -19.1325
 181   2.0000      -0.699943       -19.0464
 182   2.0000      -0.696131       -18.9427
 183   2.0000      -0.694857       -18.9080
 184   2.0000      -0.690250       -18.7826
 185   2.0000      -0.687094       -18.6968
 186   2.0000      -0.680322       -18.5125
 187   2.0000      -0.678003       -18.4494
 188   2.0000      -0.665722       -18.1152
 189   2.0000      -0.663410       -18.0523
 190   2.0000      -0.647535       -17.6203
 191   2.0000      -0.644222       -17.5302
 192   2.0000      -0.637232       -17.3400
 193   2.0000      -0.635383       -17.2897
 194   2.0000      -0.633305       -17.2331
 195   2.0000      -0.629348       -17.1254
 196   2.0000      -0.628259       -17.0958
 197   2.0000      -0.623320       -16.9614
 198   2.0000      -0.618840       -16.8395
 199   2.0000      -0.617853       -16.8126
 200   2.0000      -0.608850       -16.5677
 201   2.0000      -0.604839       -16.4585
 202   2.0000      -0.597242       -16.2518
 203   2.0000      -0.592642       -16.1266
 204   2.0000      -0.588068       -16.0022
 205   2.0000      -0.581603       -15.8262
 206   2.0000      -0.578585       -15.7441
 207   2.0000      -0.576276       -15.6813
 208   2.0000      -0.569179       -15.4882
 209   2.0000      -0.567518       -15.4429
 210   2.0000      -0.561908       -15.2903
 211   2.0000      -0.561815       -15.2878
 212   2.0000      -0.560779       -15.2596
 213   2.0000      -0.557260       -15.1638
 214   2.0000      -0.555426       -15.1139
 215   2.0000      -0.554316       -15.0837
 216   2.0000      -0.552844       -15.0437
 217   2.0000      -0.551641       -15.0109
 218   2.0000      -0.546266       -14.8646
 219   2.0000      -0.543689       -14.7945
 220   2.0000      -0.539976       -14.6935
 221   2.0000      -0.536549       -14.6002
 222   2.0000      -0.534606       -14.5474
 223   2.0000      -0.534290       -14.5388
 224   2.0000      -0.531121       -14.4525
 225   2.0000      -0.523861       -14.2550
 226   2.0000      -0.520876       -14.1737
 227   2.0000      -0.519292       -14.1307
 228   2.0000      -0.517276       -14.0758
 229   2.0000      -0.515503       -14.0275
 230   2.0000      -0.514894       -14.0110
 231   2.0000      -0.514483       -13.9998
 232   2.0000      -0.513659       -13.9774
 233   2.0000      -0.511067       -13.9068
 234   2.0000      -0.509686       -13.8693
 235   2.0000      -0.508400       -13.8343
 236   2.0000      -0.506437       -13.7809
 237   2.0000      -0.505269       -13.7491
 238   2.0000      -0.502101       -13.6629
 239   2.0000      -0.500396       -13.6165
 240   2.0000      -0.499509       -13.5923
 241   2.0000      -0.497667       -13.5422
 242   2.0000      -0.496581       -13.5127
 243   2.0000      -0.493188       -13.4203
 244   2.0000      -0.490327       -13.3425
 245   2.0000      -0.489077       -13.3085
 246   2.0000      -0.483241       -13.1497
 247   2.0000      -0.480150       -13.0655
 248   2.0000      -0.476838       -12.9754
 249   2.0000      -0.471909       -12.8413
 250   2.0000      -0.469386       -12.7727
 251   2.0000      -0.468564       -12.7503
 252   2.0000      -0.466055       -12.6820
 253   2.0000      -0.463833       -12.6215
 254   2.0000      -0.463750       -12.6193
 255   2.0000      -0.462111       -12.5747
 256   2.0000      -0.461060       -12.5461
 257   2.0000      -0.459278       -12.4976
 258   2.0000      -0.457946       -12.4613
 259   2.0000      -0.457684       -12.4542
 260   2.0000      -0.455081       -12.3834
 261   2.0000      -0.453454       -12.3391
 262   2.0000      -0.451258       -12.2793
 263   2.0000      -0.450476       -12.2581
 264   2.0000      -0.447216       -12.1694
 265   2.0000      -0.446138       -12.1400
 266   2.0000      -0.445308       -12.1174
 267   2.0000      -0.444534       -12.0964
 268   2.0000      -0.443712       -12.0740
 269   2.0000      -0.442673       -12.0457
 270   2.0000      -0.441626       -12.0173
 271   2.0000      -0.439848       -11.9689
 272   2.0000      -0.437106       -11.8943
 273   2.0000      -0.436316       -11.8728
 274   2.0000      -0.434319       -11.8184
 275   2.0000      -0.433622       -11.7995
 276   2.0000      -0.432832       -11.7779
 277   2.0000      -0.432393       -11.7660
 278   2.0000      -0.430503       -11.7146
 279   2.0000      -0.430169       -11.7055
 280   2.0000      -0.419872       -11.4253
 281   2.0000      -0.419422       -11.4130
 282   2.0000      -0.418437       -11.3863
 283   2.0000      -0.416403       -11.3309
 284   2.0000      -0.412618       -11.2279
 285   2.0000      -0.411147       -11.1879
 286   2.0000      -0.409083       -11.1317
 287   2.0000      -0.398023       -10.8308
 288   2.0000      -0.389376       -10.5955
 289   2.0000      -0.388234       -10.5644
 290   2.0000      -0.384733       -10.4691
 291   2.0000      -0.379721       -10.3327
 292   2.0000      -0.374933       -10.2025
 293   2.0000      -0.371040       -10.0965
 294   2.0000      -0.367429        -9.9983
 295   2.0000      -0.363712        -9.8971
 296   2.0000      -0.360806        -9.8180
 297   2.0000      -0.356302        -9.6955
 298   2.0000      -0.354567        -9.6483
 299   2.0000      -0.352162        -9.5828
 300   2.0000      -0.350235        -9.5304
 301   2.0000      -0.347708        -9.4616
 302   2.0000      -0.346110        -9.4181
 303   2.0000      -0.341012        -9.2794
 304   2.0000      -0.334052        -9.0900
 305   2.0000      -0.332354        -9.0438
 306   2.0000      -0.321611        -8.7515
 307   2.0000      -0.317958        -8.6521
 308   2.0000      -0.312016        -8.4904
 309   2.0000      -0.287256        -7.8166
 310   2.0000      -0.252129        -6.8608
 311   0.0000      -0.136049        -3.7021
 312   0.0000      -0.118754        -3.2315
 313   0.0000      -0.102277        -2.7831
 314   0.0000      -0.098060        -2.6683
 315   0.0000      -0.095494        -2.5985

MULLIKEN ATOMIC CHARGES
-----------------------
   0 C :    0.246858
   1 C :   -0.322659
   2 C :   -0.176452
   3 N :    0.163708
   4 C :   -0.207517
   5 N :    0.179367
   6 C :    0.016870
   7 C :    0.000049
   8 C :   -0.027146
   9 C :    0.059547
  10 C :    0.050203
  11 C :   -0.014064
  12 Cl:   -0.033026
  13 Cl:   -0.039219
  14 C :    0.144652
  15 O :   -0.131873
  16 C :   -0.139967
  17 C :    0.041157
  18 C :   -0.092144
  19 C :    0.009086
  20 C :    0.028406
  21 C :   -0.079142
  22 S :    0.205580
  23 C :   -0.099993
  24 C :    0.033696
  25 C :    0.300189
  26 C :   -0.280816
  27 C :   -0.191877
  28 N :    0.194336
  29 C :   -0.191037
  30 N :    0.180125
  31 C :   -0.053087
  32 C :   -0.086395
  33 S :    0.193450
  34 C :   -0.120773
  35 C :    0.032684
  36 C :    0.029896
  37 N :    0.059842
  38 C :   -0.114386
  39 C :    0.144147
  40 O :   -0.094259
  41 C :   -0.012194
  42 C :   -0.009526
  43 C :    0.143664
  44 O :   -0.093207
  45 C :   -0.114326
  46 N :    0.058498
  47 C :   -0.122863
  48 S :    0.213014
  49 C :   -0.084737
  50 C :   -0.055138
  51 C :    0.033899
  52 C :   -0.101654
  53 S :    0.192504
  54 C :   -0.078785
  55 C :   -0.007185
  56 C :    0.310284
  57 C :   -0.288013
  58 C :   -0.193522
  59 N :    0.196071
  60 C :   -0.194244
  61 N :    0.193160
  62 C :    0.000932
  63 C :   -0.113019
  64 S :    0.206224
  65 C :    0.036195
  66 C :   -0.088397
  67 C :    0.300741
  68 C :   -0.340969
  69 C :   -0.188893
  70 N :    0.158494
  71 C :   -0.195837
  72 N :    0.156524
  73 C :    0.031648
  74 C :   -0.016739
  75 C :    0.155728
  76 O :   -0.141357
  77 C :   -0.027185
  78 C :    0.060244
  79 C :    0.047959
  80 C :   -0.010973
  81 Cl:   -0.033024
  82 Cl:   -0.038540
  83 H :    0.003190
  84 H :    0.004408
  85 H :    0.037504
  86 H :    0.020277
  87 H :    0.033088
  88 H :    0.024400
  89 H :    0.023913
  90 H :    0.032521
  91 H :    0.038682
  92 H :    0.013039
  93 H :    0.004103
  94 H :    0.001403
Sum of atomic charges:   -0.0000000

LOEWDIN ATOMIC CHARGES
----------------------
   0 C :    0.059082
   1 C :   -0.139406
   2 C :   -0.022804
   3 N :   -0.042109
   4 C :   -0.036869
   5 N :   -0.042991
   6 C :   -0.011797
   7 C :   -0.045455
   8 C :    0.003140
   9 C :   -0.134486
  10 C :   -0.129294
  11 C :   -0.014846
  12 Cl:    0.165407
  13 Cl:    0.162222
  14 C :    0.083822
  15 O :   -0.132651
  16 C :   -0.102906
  17 C :    0.052586
  18 C :   -0.178440
  19 C :    0.016701
  20 C :   -0.068246
  21 C :   -0.151856
  22 S :    0.505837
  23 C :   -0.184534
  24 C :   -0.049954
  25 C :    0.074709
  26 C :   -0.086028
  27 C :   -0.021879
  28 N :   -0.011455
  29 C :   -0.016157
  30 N :   -0.023830
  31 C :   -0.006073
  32 C :   -0.175764
  33 S :    0.469748
  34 C :   -0.191114
  35 C :   -0.039430
  36 C :   -0.038864
  37 N :    0.008497
  38 C :   -0.033159
  39 C :    0.056098
  40 O :   -0.087595
  41 C :   -0.010342
  42 C :   -0.010502
  43 C :    0.055859
  44 O :   -0.087412
  45 C :   -0.033891
  46 N :    0.008715
  47 C :   -0.193322
  48 S :    0.496868
  49 C :   -0.174169
  50 C :   -0.008144
  51 C :   -0.048600
  52 C :   -0.188229
  53 S :    0.467397
  54 C :   -0.159180
  55 C :   -0.070946
  56 C :    0.070040
  57 C :   -0.082872
  58 C :   -0.021758
  59 N :   -0.011954
  60 C :   -0.020778
  61 N :   -0.012980
  62 C :    0.019558
  63 C :   -0.176227
  64 S :    0.494225
  65 C :    0.042630
  66 C :   -0.098121
  67 C :    0.074917
  68 C :   -0.136536
  69 C :   -0.020467
  70 N :   -0.044711
  71 C :   -0.024000
  72 N :   -0.048711
  73 C :   -0.014767
  74 C :   -0.043305
  75 C :    0.086245
  76 O :   -0.129310
  77 C :    0.002991
  78 C :   -0.133613
  79 C :   -0.130040
  80 C :   -0.012239
  81 Cl:    0.164208
  82 Cl:    0.162578
  83 H :    0.047390
  84 H :    0.044520
  85 H :    0.056595
  86 H :    0.048195
  87 H :    0.045491
  88 H :    0.048108
  89 H :    0.048061
  90 H :    0.044939
  91 H :    0.044182
  92 H :    0.043178
  93 H :    0.047823
  94 H :    0.044556

  Mayer bond orders larger than 0.100000
B(  0-C ,  1-C ) :   1.6590 B(  0-C ,  6-C ) :   1.0066 B(  0-C , 16-C ) :   1.0389
B(  1-C ,  2-C ) :   1.1293 B(  1-C ,  4-C ) :   1.1560 B(  2-C ,  3-N ) :   2.9949
B(  4-C ,  5-N ) :   3.0221 B(  6-C ,  7-C ) :   1.3306 B(  6-C , 11-C ) :   1.3473
B(  7-C ,  8-C ) :   1.3484 B(  7-C , 14-C ) :   0.9195 B(  8-C ,  9-C ) :   1.3457
B(  8-C , 83-H ) :   1.0167 B(  9-C , 10-C ) :   1.4054 B(  9-C , 13-Cl) :   1.0498
B( 10-C , 11-C ) :   1.3584 B( 10-C , 12-Cl) :   1.0715 B( 11-C , 84-H ) :   0.9906
B( 14-C , 15-O ) :   2.2776 B( 14-C , 16-C ) :   0.9422 B( 16-C , 17-C ) :   1.6329
B( 17-C , 18-C ) :   1.1477 B( 17-C , 85-H ) :   0.9466 B( 18-C , 19-C ) :   1.3926
B( 18-C , 22-S ) :   1.0820 B( 19-C , 20-C ) :   1.3112 B( 19-C , 86-H ) :   1.0002
B( 20-C , 21-C ) :   1.3875 B( 20-C , 25-C ) :   0.9948 B( 21-C , 22-S ) :   1.1514
B( 21-C , 23-C ) :   1.2310 B( 23-C , 24-C ) :   1.4102 B( 23-C , 33-S ) :   1.1136
B( 24-C , 25-C ) :   0.9887 B( 24-C , 31-C ) :   1.2889 B( 25-C , 26-C ) :   1.7238
B( 26-C , 27-C ) :   1.1325 B( 26-C , 29-C ) :   1.1340 B( 27-C , 28-N ) :   2.9972
B( 29-C , 30-N ) :   2.9935 B( 31-C , 32-C ) :   1.4401 B( 31-C , 87-H ) :   0.9860
B( 32-C , 33-S ) :   1.0920 B( 32-C , 34-C ) :   1.1922 B( 34-C , 35-C ) :   1.3587
B( 34-C , 47-C ) :   0.1507 B( 34-C , 48-S ) :   1.1555 B( 35-C , 36-C ) :   1.1946
B( 35-C , 46-N ) :   1.4338 B( 36-C , 37-N ) :   1.4341 B( 36-C , 47-C ) :   1.3608
B( 37-N , 38-C ) :   1.7178 B( 38-C , 39-C ) :   0.8842 B( 38-C , 45-C ) :   1.0940
B( 39-C , 40-O ) :   2.2439 B( 39-C , 41-C ) :   1.0226 B( 41-C , 42-C ) :   1.6881
B( 41-C , 88-H ) :   0.9957 B( 42-C , 43-C ) :   1.0234 B( 42-C , 89-H ) :   0.9952
B( 43-C , 44-O ) :   2.2441 B( 43-C , 45-C ) :   0.8863 B( 45-C , 46-N ) :   1.7158
B( 47-C , 48-S ) :   1.1530 B( 47-C , 49-C ) :   1.1912 B( 49-C , 50-C ) :   1.4409
B( 49-C , 53-S ) :   1.0934 B( 50-C , 51-C ) :   1.2872 B( 50-C , 90-H ) :   0.9850
B( 51-C , 52-C ) :   1.4106 B( 51-C , 56-C ) :   0.9867 B( 52-C , 53-S ) :   1.1104
B( 52-C , 54-C ) :   1.2229 B( 54-C , 55-C ) :   1.3694 B( 54-C , 64-S ) :   1.1623
B( 55-C , 56-C ) :   0.9969 B( 55-C , 62-C ) :   1.3283 B( 56-C , 57-C ) :   1.7228
B( 57-C , 58-C ) :   1.1369 B( 57-C , 60-C ) :   1.1336 B( 58-C , 59-N ) :   2.9964
B( 60-C , 61-N ) :   2.9952 B( 62-C , 63-C ) :   1.3905 B( 62-C , 91-H ) :   0.9713
B( 63-C , 64-S ) :   1.0735 B( 63-C , 65-C ) :   1.2216 B( 65-C , 66-C ) :   1.5884
B( 65-C , 92-H ) :   0.9137 B( 66-C , 67-C ) :   1.0834 B( 66-C , 75-C ) :   0.9417
B( 67-C , 68-C ) :   1.6333 B( 67-C , 73-C ) :   0.9895 B( 68-C , 69-C ) :   1.1409
B( 68-C , 71-C ) :   1.1388 B( 69-C , 70-N ) :   2.9742 B( 71-C , 72-N ) :   2.9802
B( 73-C , 74-C ) :   1.3302 B( 73-C , 80-C ) :   1.3416 B( 74-C , 75-C ) :   0.9508
B( 74-C , 77-C ) :   1.3449 B( 75-C , 76-O ) :   2.1845 B( 77-C , 78-C ) :   1.3397
B( 77-C , 93-H ) :   1.0179 B( 78-C , 79-C ) :   1.4047 B( 78-C , 82-Cl) :   1.0514
B( 79-C , 80-C ) :   1.3595 B( 79-C , 81-Cl) :   1.0783 B( 80-C , 94-H ) :   0.9863

-----------------------------------------------------------------------------
         ABSORPTION SPECTRUM VIA TRANSITION ELECTRIC DIPOLE MOMENTS
-----------------------------------------------------------------------------
State   Energy  Wavelength   fosc         T2         TX        TY        TZ
        (cm-1)    (nm)                  (au**2)     (au)      (au)      (au)
-----------------------------------------------------------------------------
   0   10367.7    964.5   1.073676196  34.09307   3.75981  -2.06625  -3.96075
   1   13181.3    758.6   0.122153767   3.05087  -1.53344  -0.83589   0.02681
   2   15500.1    645.2   0.170775470   3.62716  -1.18486   0.64096   1.34627
   3   18784.1    532.4   0.319685740   5.60284  -1.55611  -1.67295  -0.61856
   4   19339.4    517.1   0.148908552   2.53486  -1.00110  -1.21005  -0.26159
   5   19869.1    503.3   0.324572537   5.37786  -1.42758   1.47891   1.07363
   6   21117.0    473.6   0.541538886   8.44255  -2.65698  -0.29156   1.13929
   7   22560.7    443.2   0.074154311   1.08208  -0.99363   0.20322  -0.23128
   8   24384.9    410.1   0.003391770   0.04579   0.00394   0.12705  -0.17214
   9   25543.0    391.5   0.213634365   2.75344   0.94852  -0.62477  -1.20971
  10   25772.2    388.0   0.067732888   0.86521  -0.43104  -0.71630  -0.40784
  11   25897.5    386.1   0.000059712   0.00076   0.02135   0.01531  -0.00828
  12   26098.0    383.2   0.010132600   0.12782  -0.03310   0.03067  -0.35466
  13   26572.9    376.3   0.013650028   0.16911   0.03313   0.27444   0.30446
  14   26635.4    375.4   0.092345857   1.14139   0.07924   0.39937   0.98773
  15   27310.2    366.2   0.079119989   0.95375   0.21395   0.60295   0.73786
  16   27845.2    359.1   0.025287730   0.29898   0.45484  -0.29796   0.05757
  17   27989.7    357.3   0.271077704   3.18839  -0.47900   0.47021   1.65465
  18   28344.7    352.8   0.088583103   1.02886  -0.41953  -0.54132  -0.74821
  19   28600.5    349.6   0.161017424   1.85342   0.30117   0.86649   1.00594
  20   28888.0    346.2   0.251886959   2.87054  -0.94369  -1.39568   0.17911
  21   29358.3    340.6   0.144604856   1.62154   1.17548   0.48925  -0.02049
  22   29779.2    335.8   0.001513898   0.01674  -0.03801  -0.04060  -0.11680
  23   30065.8    332.6   0.079799807   0.87379   0.02569   0.03406  -0.93379
  24   30280.0    330.3   0.013090436   0.14232  -0.35222  -0.03771   0.12977
  25   30330.8    329.7   0.000570797   0.00620  -0.07342  -0.02435   0.01454
  26   30913.5    323.5   0.344042198   3.66387  -1.39385   0.08942   1.30883
  27   31538.5    317.1   0.210489057   2.19717  -0.26286  -1.05478  -1.00772
  28   31811.9    314.3   0.125949426   1.30341  -0.96051  -0.57464   0.22502
  29   32265.0    309.9   0.170053389   1.73512   0.38299   0.84249   0.93736
  30   32418.9    308.5   0.069627656   0.70706  -0.64677  -0.35842   0.40037
  31   32434.2    308.3   0.030801120   0.31264   0.19498   0.45198   0.26520
  32   32845.1    304.5   0.132658248   1.32965   1.03664   0.08814   0.49725
  33   32966.5    303.3   0.022417340   0.22387   0.16291   0.33838   0.28779
  34   33181.5    301.4   0.015941234   0.15816  -0.34427   0.14556  -0.13584
  35   33441.1    299.0   0.017594061   0.17321  -0.00502  -0.31574  -0.27108
  36   33490.1    298.6   0.048812997   0.47984   0.57706   0.34186  -0.17314
  37   33649.7    297.2   0.002498764   0.02445  -0.11867  -0.02385   0.09897
  38   33683.7    296.9   0.053071673   0.51870   0.36158   0.10313   0.61427
  39   33761.3    296.2   0.015237483   0.14858  -0.05653   0.22431   0.30834
  40   33822.6    295.7   0.007817189   0.07609  -0.01770   0.11375   0.25067
  41   34268.0    291.8   0.224854273   2.16017   0.14264   0.60567   1.33154
  42   34393.7    290.8   0.133131151   1.27431  -0.31256  -0.73047  -0.80189
  43   34519.4    289.7   0.063972077   0.61010  -0.27176  -0.01272  -0.73218
  44   34599.8    289.0   0.147799985   1.40629  -0.92167  -0.65757   0.35274
  45   34690.8    288.3   0.202765032   1.92422  -0.43979  -0.63221  -1.15374
  46   34746.2    287.8   0.062161054   0.58896  -0.37633  -0.10885   0.65991
  47   34853.9    286.9   0.005430213   0.05129   0.18333   0.02502  -0.13060
  48   35224.6    283.9   0.191869294   1.79322  -0.50477   0.17347   1.22815
  49   35300.6    283.3   0.424985495   3.96339  -0.95060  -0.47842  -1.68252
  50   35371.9    282.7   0.018004644   0.16757  -0.16384   0.37305  -0.03954
  51   35411.5    282.4   0.018870516   0.17543  -0.08977  -0.38904  -0.12658
  52   35649.0    280.5   0.281969740   2.60394  -0.22773  -0.15288  -1.59019
  53   35669.5    280.4   0.039737525   0.36676  -0.56093  -0.13658  -0.18292
  54   36053.9    277.4   0.085153489   0.77754  -0.32260  -0.20827  -0.79378
  55   36459.1    274.3   0.196823592   1.77724  -0.39300  -0.57426  -1.13711
  56   36783.7    271.9   0.245140733   2.19399  -1.08243  -0.87718  -0.50288
  57   36864.6    271.3   0.182693150   1.63151  -0.76316  -0.72784  -0.72065
  58   37065.6    269.8   0.029000484   0.25758  -0.18128  -0.45696  -0.12610
  59   37296.9    268.1   0.065717641   0.58008  -0.60241  -0.35255  -0.30477
  60   37393.3    267.4   0.000801746   0.00706  -0.03227   0.07685  -0.01056
  61   37646.2    265.6   0.008586036   0.07508  -0.27258  -0.02085   0.01866
  62   37658.8    265.5   0.025975988   0.22708   0.47516   0.02172   0.02880
  63   37747.0    264.9   0.019685983   0.17169   0.21509   0.29618  -0.19418
  64   37928.6    263.7   0.015528599   0.13478  -0.32638   0.00522   0.16803
  65   38072.6    262.7   0.029745788   0.25721   0.39311   0.28307   0.15016
  66   38243.0    261.5   0.010500243   0.09039   0.24700   0.14948   0.08388
  67   38546.5    259.4   0.071788200   0.61312   0.21315  -0.35384  -0.66519
  68   38691.0    258.5   0.028147058   0.23950   0.43696  -0.17435  -0.13476
  69   38795.5    257.8   0.049017982   0.41596   0.45070  -0.20692  -0.41232
  70   38973.8    256.6   0.023412226   0.19776   0.35801   0.16389  -0.20672
  71   39041.6    256.1   0.064384940   0.54292  -0.46540  -0.40091   0.40693
  72   39230.2    254.9   0.024498408   0.20559  -0.44088  -0.08463  -0.06365
  73   39479.0    253.3   0.042269914   0.35249  -0.44764  -0.31233  -0.23356
  74   39603.9    252.5   0.022117402   0.18385   0.07975  -0.19784  -0.37196
  75   39772.1    251.4   0.044876271   0.37146   0.07010   0.43070   0.42549
  76   39975.9    250.2   0.016727334   0.13775   0.02083   0.13235   0.34613
  77   40060.8    249.6   0.152639605   1.25436   0.89070   0.65403  -0.18238
  78   40195.4    248.8   0.045354663   0.37147   0.55823   0.07069   0.23420

FINAL SINGLE POINT ENERGY     -6968.451746016817

DIPOLE MOMENT
-------------
                                X             Y             Z
Electronic contribution:     31.93553      25.04360       0.21035
Nuclear contribution   :    -31.81260     -24.55362       0.85394
                        -----------------------------------------
Total Dipole Moment    :      0.12293       0.48998       1.06429
                        -----------------------------------------
Magnitude (a.u.)       :      1.17810
Magnitude (Debye)      :      2.99448

Rotational constants in cm-1:     0.000812     0.000168     0.000143
Rotational constants in MHz :    24.343673     5.035514     4.285055

                             ****ORCA TERMINATED NORMALLY****
TOTAL RUN TIME: 0 days 0 hours 11 minutes 1 seconds 403 msec
