                         Program Version 4.2.0 -  RELEASE  -
|  1> # ORCA input file
|  2> # SCF done       -196.374851466971          0.000316696073
|  3> ! CAM-B3LYP def2-SVP def2/J RIJCOSX Grid4 TightSCF
|  4> %maxcore 5000
|  5> %tddft
|  6>     Mode sTDDFT
|  7>     Ethresh 5.0
|  8>     maxcore 5000
|  9> end
| 10>
| 11> %pal
| 12>   nprocs 6
| 13>   end
| 14> * xyz 0 1
| 15>    C       -0.02527        -4.33824        -2.95068
| 16>    C        0.52053        -5.57397        -3.16753
| 17>    C        0.55244        -6.20540        -4.43014
| 18>    N        0.58337        -6.75886        -5.43392
| 19>    C        1.21859        -6.30308        -2.17982
| 20>    N        1.86198        -6.88863        -1.43178
| 21>    C       -0.46920        -3.40196        -3.97848
| 22>    C       -0.52106        -2.10720        -3.42560
| 23>    C       -0.86260        -1.00857        -4.18885
| 24>    C       -1.16847        -1.20462        -5.53002
| 25>    C       -1.13178        -2.49238        -6.08341
| 26>    C       -0.77969        -3.59611        -5.31433
| 27>   Cl       -1.52409        -2.71963        -7.73688
| 28>   Cl       -1.59276         0.13583        -6.51130
| 29>    C       -0.17303        -2.16160        -1.99029
| 30>    O       -0.06628        -1.24983        -1.20948
| 31>    C       -0.03548        -3.61891        -1.68894
| 32>    C       -0.03893        -4.06377        -0.40971
| 33>    C       -0.25239        -5.40273         0.02648
| 34>    C       -1.15821        -6.39013        -0.58128
| 35>    N       -1.17708        -7.54025         0.02133
| 36>    C       -0.28148        -7.44050         1.04254
| 37>    C        0.27305        -6.07178         1.10395
| 38>    C        1.26659        -5.98085         2.14034
| 39>    S        2.13844        -4.66125         2.58295
| 40>    C        1.32795        -7.31249         2.68254
| 41>    C        0.34865        -8.19140         1.99771
| 42>    N        0.43980        -9.45924         2.47557
| 43>    C        1.41095        -9.44698         3.34261
| 44>    C        2.03845        -8.13237         3.51887
| 45>    C        3.17229        -7.77997         4.34259
| 46>    C        4.34778        -8.48899         4.38241
| 47>    C        4.65965        -9.77072         3.69691
| 48>    F        4.24416        -9.79040         2.42028
| 49>    F        5.97204       -10.03022         3.68398
| 50>    F        4.07268       -10.83036         4.29281
| 51>    S        5.59516        -7.68196         5.26927
| 52>    C        4.52310        -6.35827         5.60169
| 53>    O        4.87786        -5.30518         6.32555
| 54>    C        6.20967        -5.25147         6.79257
| 55>    C        3.25957        -6.55091         5.07367
| 56>    C        2.17766        -5.62940         5.29367
| 57>    C        0.88738        -6.03125         5.39715
| 58>    C       -0.22907        -5.18253         5.56739
| 59>    C       -0.28468        -3.71174         5.57040
| 60>    N       -1.47340        -3.21941         5.74672
| 61>    C       -2.30748        -4.29625         5.88019
| 62>    C       -1.54553        -5.54954         5.75231
| 63>    C       -2.41263        -6.67667         5.90026
| 64>    S       -2.03935        -8.27032         5.69923
| 65>    C       -3.70326        -6.09281         6.18848
| 66>    C       -3.61570        -4.62033         6.12053
| 67>    N       -4.84209        -4.06275         6.33087
| 68>    C       -5.65793        -5.05699         6.51204
| 69>    C       -5.01524        -6.37836         6.46736
| 70>    C       -5.67327        -7.63832         6.61197
| 71>    C       -5.11974        -8.71315         7.22144
| 72>    C       -5.59365       -10.09081         7.21261
| 73>    C       -6.79868       -10.54200         6.75173
| 74>    C       -7.20003       -11.89648         6.77611
| 75>    N       -7.58852       -12.97566         6.77288
| 76>    C       -7.82142        -9.72175         6.22694
| 77>    N       -8.69494        -9.11273         5.79907
| 78>    C       -4.53584       -10.91170         7.79233
| 79>    C       -3.51183       -10.07705         8.27621
| 80>    C       -3.87207        -8.66491         8.04698
| 81>    O       -3.35115        -7.68817         8.53178
| 82>    C       -2.38219       -10.58743         8.88338
| 83>    C       -2.26186       -11.96577         8.99832
| 84>    C       -3.27465       -12.80621         8.51585
| 85>    C       -4.41504       -12.28766         7.91442
| 86>   Cl       -3.11345       -14.50700         8.66941
| 87>   Cl       -0.86859       -12.64143         9.73470
| 88>    H       -0.88779        -0.02251        -3.75241
| 89>    H       -0.76365        -4.57343        -5.76904
| 90>    H        0.09086        -3.31183         0.36265
| 91>    H       -1.80808        -6.19717        -1.41778
| 92>    H        1.67281       -10.33903         3.88356
| 93>    H        6.30252        -4.31207         7.33292
| 94>    H        6.91723        -5.27300         5.95837
| 95>    H        6.42126        -6.08959         7.46341
| 96>    H        2.45878        -4.60329         5.47813
| 97>    H        0.65139        -7.08649         5.34608
| 98>    H        0.55812        -3.05755         5.43092
| 99>    H       -6.70382        -4.88944         6.70086
|100>    H       -6.65784        -7.70732         6.16617
|101>    H       -1.61172        -9.92855         9.25124
|102>    H       -5.17323       -12.96434         7.55561
|103> *
|104>
|105>                          ****END OF INPUT****

CARTESIAN COORDINATES (ANGSTROEM)
---------------------------------
  C     -0.025270   -4.338240   -2.950680
  C      0.520530   -5.573970   -3.167530
  C      0.552440   -6.205400   -4.430140
  N      0.583370   -6.758860   -5.433920
  C      1.218590   -6.303080   -2.179820
  N      1.861980   -6.888630   -1.431780
  C     -0.469200   -3.401960   -3.978480
  C     -0.521060   -2.107200   -3.425600
  C     -0.862600   -1.008570   -4.188850
  C     -1.168470   -1.204620   -5.530020
  C     -1.131780   -2.492380   -6.083410
  C     -0.779690   -3.596110   -5.314330
  Cl    -1.524090   -2.719630   -7.736880
  Cl    -1.592760    0.135830   -6.511300
  C     -0.173030   -2.161600   -1.990290
  O     -0.066280   -1.249830   -1.209480
  C     -0.035480   -3.618910   -1.688940
  C     -0.038930   -4.063770   -0.409710
  C     -0.252390   -5.402730    0.026480
  C     -1.158210   -6.390130   -0.581280
  N     -1.177080   -7.540250    0.021330
  C     -0.281480   -7.440500    1.042540
  C      0.273050   -6.071780    1.103950
  C      1.266590   -5.980850    2.140340
  S      2.138440   -4.661250    2.582950
  C      1.327950   -7.312490    2.682540
  C      0.348650   -8.191400    1.997710
  N      0.439800   -9.459240    2.475570
  C      1.410950   -9.446980    3.342610
  C      2.038450   -8.132370    3.518870
  C      3.172290   -7.779970    4.342590
  C      4.347780   -8.488990    4.382410
  C      4.659650   -9.770720    3.696910
  F      4.244160   -9.790400    2.420280
  F      5.972040  -10.030220    3.683980
  F      4.072680  -10.830360    4.292810
  S      5.595160   -7.681960    5.269270
  C      4.523100   -6.358270    5.601690
  O      4.877860   -5.305180    6.325550
  C      6.209670   -5.251470    6.792570
  C      3.259570   -6.550910    5.073670
  C      2.177660   -5.629400    5.293670
  C      0.887380   -6.031250    5.397150
  C     -0.229070   -5.182530    5.567390
  C     -0.284680   -3.711740    5.570400
  N     -1.473400   -3.219410    5.746720
  C     -2.307480   -4.296250    5.880190
  C     -1.545530   -5.549540    5.752310
  C     -2.412630   -6.676670    5.900260
  S     -2.039350   -8.270320    5.699230
  C     -3.703260   -6.092810    6.188480
  C     -3.615700   -4.620330    6.120530
  N     -4.842090   -4.062750    6.330870
  C     -5.657930   -5.056990    6.512040
  C     -5.015240   -6.378360    6.467360
  C     -5.673270   -7.638320    6.611970
  C     -5.119740   -8.713150    7.221440
  C     -5.593650  -10.090810    7.212610
  C     -6.798680  -10.542000    6.751730
  C     -7.200030  -11.896480    6.776110
  N     -7.588520  -12.975660    6.772880
  C     -7.821420   -9.721750    6.226940
  N     -8.694940   -9.112730    5.799070
  C     -4.535840  -10.911700    7.792330
  C     -3.511830  -10.077050    8.276210
  C     -3.872070   -8.664910    8.046980
  O     -3.351150   -7.688170    8.531780
  C     -2.382190  -10.587430    8.883380
  C     -2.261860  -11.965770    8.998320
  C     -3.274650  -12.806210    8.515850
  C     -4.415040  -12.287660    7.914420
  Cl    -3.113450  -14.507000    8.669410
  Cl    -0.868590  -12.641430    9.734700
  H     -0.887790   -0.022510   -3.752410
  H     -0.763650   -4.573430   -5.769040
  H      0.090860   -3.311830    0.362650
  H     -1.808080   -6.197170   -1.417780
  H      1.672810  -10.339030    3.883560
  H      6.302520   -4.312070    7.332920
  H      6.917230   -5.273000    5.958370
  H      6.421260   -6.089590    7.463410
  H      2.458780   -4.603290    5.478130
  H      0.651390   -7.086490    5.346080
  H      0.558120   -3.057550    5.430920
  H     -6.703820   -4.889440    6.700860
  H     -6.657840   -7.707320    6.166170
  H     -1.611720   -9.928550    9.251240
  H     -5.173230  -12.964340    7.555610

 Total Charge           Charge          ....    0
 Multiplicity           Mult            ....    1
 Number of Electrons    NEL             ....  550
 Basis Dimension        Dim             .... 1125

ORBITAL ENERGIES
----------------

  NO   OCC          E(Eh)            E(eV)
   0   2.0000    -101.610371     -2764.9588
   1   2.0000    -101.609525     -2764.9357
   2   2.0000    -101.604197     -2764.7908
   3   2.0000    -101.602100     -2764.7337
   4   2.0000     -88.996076     -2421.7064
   5   2.0000     -88.920209     -2419.6419
   6   2.0000     -88.911640     -2419.4087
   7   2.0000     -24.816426      -675.2893
   8   2.0000     -24.811387      -675.1522
   9   2.0000     -24.809303      -675.0955
  10   2.0000     -19.295628      -525.0607
  11   2.0000     -19.235708      -523.4302
  12   2.0000     -19.223120      -523.0877
  13   2.0000     -14.432914      -392.7395
  14   2.0000     -14.431966      -392.7138
  15   2.0000     -14.429583      -392.6489
  16   2.0000     -14.426549      -392.5663
  17   2.0000     -14.425774      -392.5453
  18   2.0000     -14.425568      -392.5397
  19   2.0000     -14.423152      -392.4739
  20   2.0000     -14.419377      -392.3712
  21   2.0000     -10.537270      -286.7337
  22   2.0000     -10.389507      -282.7128
  23   2.0000     -10.386493      -282.6309
  24   2.0000     -10.377679      -282.3910
  25   2.0000     -10.368866      -282.1512
  26   2.0000     -10.368077      -282.1297
  27   2.0000     -10.366819      -282.0955
  28   2.0000     -10.362219      -281.9703
  29   2.0000     -10.360571      -281.9255
  30   2.0000     -10.360035      -281.9109
  31   2.0000     -10.357708      -281.8476
  32   2.0000     -10.357337      -281.8375
  33   2.0000     -10.354597      -281.7629
  34   2.0000     -10.352077      -281.6943
  35   2.0000     -10.350980      -281.6645
  36   2.0000     -10.349366      -281.6206
  37   2.0000     -10.348327      -281.5923
  38   2.0000     -10.347821      -281.5785
  39   2.0000     -10.346674      -281.5473
  40   2.0000     -10.345276      -281.5093
  41   2.0000     -10.340842      -281.3886
  42   2.0000     -10.338466      -281.3240
  43   2.0000     -10.334840      -281.2253
  44   2.0000     -10.334734      -281.2224
  45   2.0000     -10.333939      -281.2008
  46   2.0000     -10.333321      -281.1840
  47   2.0000     -10.330962      -281.1198
  48   2.0000     -10.330208      -281.0993
  49   2.0000     -10.327574      -281.0276
  50   2.0000     -10.325729      -280.9774
  51   2.0000     -10.324958      -280.9564
  52   2.0000     -10.324647      -280.9479
  53   2.0000     -10.324641      -280.9478
  54   2.0000     -10.322256      -280.8829
  55   2.0000     -10.322147      -280.8799
  56   2.0000     -10.321987      -280.8755
  57   2.0000     -10.320936      -280.8469
  58   2.0000     -10.319962      -280.8204
  59   2.0000     -10.319475      -280.8072
  60   2.0000     -10.316179      -280.7175
  61   2.0000     -10.313807      -280.6529
  62   2.0000     -10.312923      -280.6289
  63   2.0000     -10.312794      -280.6254
  64   2.0000     -10.312503      -280.6175
  65   2.0000     -10.311858      -280.5999
  66   2.0000     -10.311567      -280.5920
  67   2.0000     -10.308778      -280.5161
  68   2.0000     -10.307422      -280.4792
  69   2.0000     -10.306435      -280.4524
  70   2.0000     -10.301806      -280.3264
  71   2.0000     -10.296108      -280.1713
  72   2.0000     -10.286991      -279.9233
  73   2.0000      -9.565405      -260.2879
  74   2.0000      -9.564585      -260.2656
  75   2.0000      -9.559309      -260.1220
  76   2.0000      -9.557158      -260.0635
  77   2.0000      -8.091778      -220.1885
  78   2.0000      -8.015602      -218.1156
  79   2.0000      -8.006650      -217.8720
  80   2.0000      -7.335826      -199.6180
  81   2.0000      -7.335010      -199.5958
  82   2.0000      -7.329676      -199.4506
  83   2.0000      -7.327565      -199.3932
  84   2.0000      -7.325659      -199.3413
  85   2.0000      -7.324891      -199.3204
  86   2.0000      -7.324832      -199.3188
  87   2.0000      -7.324060      -199.2978
  88   2.0000      -7.319584      -199.1760
  89   2.0000      -7.318820      -199.1552
  90   2.0000      -7.317407      -199.1168
  91   2.0000      -7.316665      -199.0966
  92   2.0000      -6.061172      -164.9329
  93   2.0000      -6.056989      -164.8190
  94   2.0000      -6.053584      -164.7264
  95   2.0000      -5.984287      -162.8407
  96   2.0000      -5.984197      -162.8383
  97   2.0000      -5.975413      -162.5992
  98   2.0000      -5.974963      -162.5870
  99   2.0000      -5.974918      -162.5858
 100   2.0000      -5.966372      -162.3532
 101   2.0000      -1.403013       -38.1779
 102   2.0000      -1.307962       -35.5915
 103   2.0000      -1.300740       -35.3949
 104   2.0000      -1.206236       -32.8233
 105   2.0000      -1.151683       -31.3389
 106   2.0000      -1.140368       -31.0310
 107   2.0000      -1.099131       -29.9089
 108   2.0000      -1.090381       -29.6708
 109   2.0000      -1.079634       -29.3783
 110   2.0000      -1.071052       -29.1448
 111   2.0000      -1.044673       -28.4270
 112   2.0000      -1.035853       -28.1870
 113   2.0000      -1.030930       -28.0530
 114   2.0000      -1.022898       -27.8345
 115   2.0000      -1.017332       -27.6830
 116   2.0000      -1.010737       -27.5036
 117   2.0000      -1.006334       -27.3837
 118   2.0000      -1.002753       -27.2863
 119   2.0000      -0.996984       -27.1293
 120   2.0000      -0.980090       -26.6696
 121   2.0000      -0.972986       -26.4763
 122   2.0000      -0.971133       -26.4259
 123   2.0000      -0.965832       -26.2816
 124   2.0000      -0.951681       -25.8966
 125   2.0000      -0.942088       -25.6355
 126   2.0000      -0.932774       -25.3821
 127   2.0000      -0.929223       -25.2854
 128   2.0000      -0.921545       -25.0765
 129   2.0000      -0.912015       -24.8172
 130   2.0000      -0.901583       -24.5333
 131   2.0000      -0.894799       -24.3487
 132   2.0000      -0.891009       -24.2456
 133   2.0000      -0.874144       -23.7867
 134   2.0000      -0.872566       -23.7437
 135   2.0000      -0.865329       -23.5468
 136   2.0000      -0.864263       -23.5178
 137   2.0000      -0.856319       -23.3016
 138   2.0000      -0.850244       -23.1363
 139   2.0000      -0.841494       -22.8982
 140   2.0000      -0.839155       -22.8346
 141   2.0000      -0.826274       -22.4841
 142   2.0000      -0.799919       -21.7669
 143   2.0000      -0.793648       -21.5962
 144   2.0000      -0.788885       -21.4667
 145   2.0000      -0.780731       -21.2448
 146   2.0000      -0.776622       -21.1330
 147   2.0000      -0.771385       -20.9904
 148   2.0000      -0.766464       -20.8565
 149   2.0000      -0.755357       -20.5543
 150   2.0000      -0.749249       -20.3881
 151   2.0000      -0.729607       -19.8536
 152   2.0000      -0.727368       -19.7927
 153   2.0000      -0.720399       -19.6031
 154   2.0000      -0.720146       -19.5962
 155   2.0000      -0.710430       -19.3318
 156   2.0000      -0.707049       -19.2398
 157   2.0000      -0.700841       -19.0709
 158   2.0000      -0.698830       -19.0161
 159   2.0000      -0.694518       -18.8988
 160   2.0000      -0.690297       -18.7839
 161   2.0000      -0.685056       -18.6413
 162   2.0000      -0.684812       -18.6347
 163   2.0000      -0.681848       -18.5540
 164   2.0000      -0.665504       -18.1093
 165   2.0000      -0.661143       -17.9906
 166   2.0000      -0.659413       -17.9435
 167   2.0000      -0.649995       -17.6873
 168   2.0000      -0.642213       -17.4755
 169   2.0000      -0.636825       -17.3289
 170   2.0000      -0.625598       -17.0234
 171   2.0000      -0.623439       -16.9646
 172   2.0000      -0.619278       -16.8514
 173   2.0000      -0.613263       -16.6877
 174   2.0000      -0.611078       -16.6283
 175   2.0000      -0.609657       -16.5896
 176   2.0000      -0.596577       -16.2337
 177   2.0000      -0.595645       -16.2083
 178   2.0000      -0.593897       -16.1607
 179   2.0000      -0.590381       -16.0651
 180   2.0000      -0.583186       -15.8693
 181   2.0000      -0.582105       -15.8399
 182   2.0000      -0.578625       -15.7452
 183   2.0000      -0.575700       -15.6656
 184   2.0000      -0.565951       -15.4003
 185   2.0000      -0.563425       -15.3316
 186   2.0000      -0.562791       -15.3143
 187   2.0000      -0.561085       -15.2679
 188   2.0000      -0.559704       -15.2303
 189   2.0000      -0.559317       -15.2198
 190   2.0000      -0.557210       -15.1625
 191   2.0000      -0.553245       -15.0546
 192   2.0000      -0.550627       -14.9833
 193   2.0000      -0.548775       -14.9329
 194   2.0000      -0.546700       -14.8765
 195   2.0000      -0.544371       -14.8131
 196   2.0000      -0.541287       -14.7292
 197   2.0000      -0.539881       -14.6909
 198   2.0000      -0.533380       -14.5140
 199   2.0000      -0.527998       -14.3676
 200   2.0000      -0.525434       -14.2978
 201   2.0000      -0.523170       -14.2362
 202   2.0000      -0.521315       -14.1857
 203   2.0000      -0.521108       -14.1801
 204   2.0000      -0.518044       -14.0967
 205   2.0000      -0.514804       -14.0085
 206   2.0000      -0.512488       -13.9455
 207   2.0000      -0.511872       -13.9287
 208   2.0000      -0.511016       -13.9054
 209   2.0000      -0.507076       -13.7982
 210   2.0000      -0.505494       -13.7552
 211   2.0000      -0.503214       -13.6931
 212   2.0000      -0.501528       -13.6473
 213   2.0000      -0.500784       -13.6270
 214   2.0000      -0.498438       -13.5632
 215   2.0000      -0.497827       -13.5466
 216   2.0000      -0.496570       -13.5124
 217   2.0000      -0.492797       -13.4097
 218   2.0000      -0.492218       -13.3939
 219   2.0000      -0.488472       -13.2920
 220   2.0000      -0.487835       -13.2747
 221   2.0000      -0.481189       -13.0938
 222   2.0000      -0.479190       -13.0394
 223   2.0000      -0.473415       -12.8823
 224   2.0000      -0.470720       -12.8090
 225   2.0000      -0.465561       -12.6686
 226   2.0000      -0.464183       -12.6311
 227   2.0000      -0.459067       -12.4919
 228   2.0000      -0.456941       -12.4340
 229   2.0000      -0.456501       -12.4220
 230   2.0000      -0.451291       -12.2803
 231   2.0000      -0.450400       -12.2560
 232   2.0000      -0.449256       -12.2249
 233   2.0000      -0.448345       -12.2001
 234   2.0000      -0.445680       -12.1276
 235   2.0000      -0.443890       -12.0789
 236   2.0000      -0.442666       -12.0456
 237   2.0000      -0.440104       -11.9758
 238   2.0000      -0.439025       -11.9465
 239   2.0000      -0.436403       -11.8751
 240   2.0000      -0.434824       -11.8322
 241   2.0000      -0.434258       -11.8168
 242   2.0000      -0.433854       -11.8058
 243   2.0000      -0.431969       -11.7545
 244   2.0000      -0.425774       -11.5859
 245   2.0000      -0.419834       -11.4243
 246   2.0000      -0.419082       -11.4038
 247   2.0000      -0.415312       -11.3012
 248   2.0000      -0.412514       -11.2251
 249   2.0000      -0.410489       -11.1700
 250   2.0000      -0.409677       -11.1479
 251   2.0000      -0.391737       -10.6597
 252   2.0000      -0.385067       -10.4782
 253   2.0000      -0.381916       -10.3925
 254   2.0000      -0.378731       -10.3058
 255   2.0000      -0.374238       -10.1835
 256   2.0000      -0.367510       -10.0004
 257   2.0000      -0.363376        -9.8880
 258   2.0000      -0.360377        -9.8063
 259   2.0000      -0.358317        -9.7503
 260   2.0000      -0.356337        -9.6964
 261   2.0000      -0.350346        -9.5334
 262   2.0000      -0.348717        -9.4891
 263   2.0000      -0.346897        -9.4396
 264   2.0000      -0.338998        -9.2246
 265   2.0000      -0.331753        -9.0275
 266   2.0000      -0.324225        -8.8226
 267   2.0000      -0.323318        -8.7979
 268   2.0000      -0.317987        -8.6529
 269   2.0000      -0.317247        -8.6327
 270   2.0000      -0.311278        -8.4703
 271   2.0000      -0.307475        -8.3668
 272   2.0000      -0.299467        -8.1489
 273   2.0000      -0.295760        -8.0480
 274   2.0000      -0.271753        -7.3948
 275   0.0000      -0.128027        -3.4838
 276   0.0000      -0.121075        -3.2946
 277   0.0000      -0.111076        -3.0225
 278   0.0000      -0.099144        -2.6979
 279   0.0000      -0.087797        -2.3891

MULLIKEN ATOMIC CHARGES
-----------------------
   0 C :    0.260768
   1 C :   -0.329192
   2 C :   -0.179454
   3 N :    0.171877
   4 C :   -0.180885
   5 N :    0.177909
   6 C :    0.024664
   7 C :   -0.003230
   8 C :   -0.029833
   9 C :    0.061532
  10 C :    0.052659
  11 C :   -0.018214
  12 Cl:   -0.027241
  13 Cl:   -0.034613
  14 C :    0.143617
  15 O :   -0.118973
  16 C :   -0.126106
  17 C :    0.037668
  18 C :   -0.083104
  19 C :    0.067854
  20 N :   -0.006847
  21 C :    0.033717
  22 C :    0.050348
  23 C :    0.015578
  24 S :   -0.110838
  25 C :    0.019648
  26 C :    0.018963
  27 N :   -0.017503
  28 C :    0.082459
  29 C :   -0.121320
  30 C :    0.144374
  31 C :   -0.313572
  32 C :    0.543957
  33 F :   -0.151608
  34 F :   -0.153210
  35 F :   -0.164626
  36 S :    0.135109
  37 C :   -0.004682
  38 O :   -0.261045
  39 C :    0.162359
  40 C :    0.080147
  41 C :    0.013122
  42 C :   -0.034056
  43 C :    0.003999
  44 C :    0.064726
  45 N :   -0.020443
  46 C :    0.029849
  47 C :   -0.010630
  48 C :    0.009647
  49 S :   -0.135377
  50 C :    0.038775
  51 C :   -0.009104
  52 N :   -0.026306
  53 C :    0.067042
  54 C :   -0.014133
  55 C :   -0.040492
  56 C :   -0.041733
  57 C :    0.301789
  58 C :   -0.338282
  59 C :   -0.186110
  60 N :    0.162113
  61 C :   -0.182902
  62 N :    0.160390
  63 C :    0.040000
  64 C :    0.003151
  65 C :    0.124725
  66 O :   -0.131844
  67 C :   -0.025310
  68 C :    0.061715
  69 C :    0.047303
  70 C :   -0.013047
  71 Cl:   -0.032002
  72 Cl:   -0.040701
  73 H :    0.005916
  74 H :    0.007030
  75 H :    0.038820
  76 H :    0.021622
  77 H :    0.018385
  78 H :    0.059688
  79 H :    0.043876
  80 H :    0.042962
  81 H :    0.002958
  82 H :    0.006718
  83 H :    0.014561
  84 H :    0.013315
  85 H :    0.027957
  86 H :   -0.001046
  87 H :    0.002253
Sum of atomic charges:   -0.0000000

LOEWDIN ATOMIC CHARGES
----------------------
   0 C :    0.063598
   1 C :   -0.122504
   2 C :   -0.021357
   3 N :   -0.031347
   4 C :   -0.018913
   5 N :   -0.033841
   6 C :   -0.012865
   7 C :   -0.046615
   8 C :    0.004554
   9 C :   -0.132848
  10 C :   -0.127733
  11 C :   -0.012923
  12 Cl:    0.169993
  13 Cl:    0.166387
  14 C :    0.084430
  15 O :   -0.120175
  16 C :   -0.075160
  17 C :    0.076090
  18 C :   -0.063232
  19 C :    0.089994
  20 N :   -0.067492
  21 C :    0.045192
  22 C :    0.006901
  23 C :   -0.139013
  24 S :    0.103369
  25 C :   -0.013845
  26 C :    0.057087
  27 N :   -0.070610
  28 C :    0.100759
  29 C :   -0.034664
  30 C :   -0.019904
  31 C :   -0.256330
  32 C :    0.150257
  33 F :   -0.051781
  34 F :   -0.054173
  35 F :   -0.066923
  36 S :    0.457738
  37 C :   -0.078561
  38 O :   -0.075224
  39 C :    0.074715
  40 C :   -0.099891
  41 C :    0.012233
  42 C :   -0.043450
  43 C :   -0.027623
  44 C :    0.098076
  45 N :   -0.074880
  46 C :    0.053197
  47 C :   -0.049917
  48 C :   -0.129996
  49 S :    0.061188
  50 C :    0.003158
  51 C :    0.030023
  52 N :   -0.078590
  53 C :    0.088021
  54 C :   -0.050690
  55 C :    0.057943
  56 C :   -0.061459
  57 C :    0.075573
  58 C :   -0.126086
  59 C :   -0.020156
  60 N :   -0.039504
  61 C :   -0.018236
  62 N :   -0.041925
  63 C :   -0.011259
  64 C :   -0.038827
  65 C :    0.073826
  66 O :   -0.130749
  67 C :    0.001285
  68 C :   -0.132621
  69 C :   -0.129675
  70 C :   -0.011150
  71 Cl:    0.165588
  72 Cl:    0.161713
  73 H :    0.048367
  74 H :    0.045701
  75 H :    0.054093
  76 H :    0.027662
  77 H :    0.027761
  78 H :    0.038519
  79 H :    0.021035
  80 H :    0.020637
  81 H :    0.028220
  82 H :    0.026842
  83 H :    0.025939
  84 H :    0.028602
  85 H :    0.047658
  86 H :    0.045827
  87 H :    0.044963

  Mayer bond orders larger than 0.100000
B(  0-C ,  1-C ) :   1.6682 B(  0-C ,  6-C ) :   1.0137 B(  0-C , 16-C ) :   1.0206
B(  1-C ,  2-C ) :   1.1282 B(  1-C ,  4-C ) :   1.1545 B(  2-C ,  3-N ) :   2.9921
B(  4-C ,  5-N ) :   3.0025 B(  6-C ,  7-C ) :   1.3285 B(  6-C , 11-C ) :   1.3387
B(  7-C ,  8-C ) :   1.3441 B(  7-C , 14-C ) :   0.9193 B(  8-C ,  9-C ) :   1.3469
B(  8-C , 73-H ) :   1.0173 B(  9-C , 10-C ) :   1.3987 B(  9-C , 13-Cl) :   1.0548
B( 10-C , 11-C ) :   1.3612 B( 10-C , 12-Cl) :   1.0781 B( 11-C , 74-H ) :   0.9907
B( 14-C , 15-O ) :   2.2947 B( 14-C , 16-C ) :   0.9247 B( 16-C , 17-C ) :   1.7170
B( 17-C , 18-C ) :   1.0240 B( 17-C , 75-H ) :   0.9520 B( 18-C , 19-C ) :   1.0123
B( 18-C , 22-C ) :   1.5607 B( 19-C , 20-N ) :   1.7344 B( 19-C , 76-H ) :   0.9905
B( 20-N , 21-C ) :   1.2696 B( 21-C , 22-C ) :   1.0573 B( 21-C , 26-C ) :   1.5050
B( 22-C , 23-C ) :   1.0154 B( 23-C , 24-S ) :   1.6752 B( 23-C , 25-C ) :   1.0316
B( 25-C , 26-C ) :   1.0471 B( 25-C , 29-C ) :   1.6153 B( 26-C , 27-N ) :   1.2922
B( 27-N , 28-C ) :   1.6982 B( 28-C , 29-C ) :   1.0343 B( 28-C , 77-H ) :   0.9888
B( 29-C , 30-C ) :   0.9697 B( 30-C , 31-C ) :   1.5721 B( 30-C , 40-C ) :   1.2550
B( 31-C , 32-C ) :   0.9684 B( 31-C , 36-S ) :   1.0850 B( 32-C , 33-F ) :   1.1645
B( 32-C , 34-F ) :   1.1702 B( 32-C , 35-F ) :   1.1489 B( 36-S , 37-C ) :   1.1272
B( 37-C , 38-O ) :   1.2209 B( 37-C , 40-C ) :   1.4318 B( 38-O , 39-C ) :   0.9288
B( 39-C , 78-H ) :   0.9815 B( 39-C , 79-H ) :   0.9668 B( 39-C , 80-H ) :   0.9666
B( 40-C , 41-C ) :   1.0743 B( 41-C , 42-C ) :   1.6272 B( 41-C , 81-H ) :   0.9589
B( 42-C , 43-C ) :   1.1552 B( 42-C , 82-H ) :   0.9622 B( 43-C , 44-C ) :   0.9999
B( 43-C , 47-C ) :   1.4890 B( 44-C , 45-N ) :   1.7364 B( 44-C , 83-H ) :   0.9881
B( 45-N , 46-C ) :   1.2548 B( 46-C , 47-C ) :   1.0577 B( 46-C , 51-C ) :   1.5204
B( 47-C , 48-C ) :   1.0606 B( 48-C , 49-S ) :   1.6574 B( 48-C , 50-C ) :   1.0202
B( 50-C , 51-C ) :   1.0816 B( 50-C , 54-C ) :   1.5558 B( 51-C , 52-N ) :   1.2684
B( 52-N , 53-C ) :   1.7168 B( 53-C , 54-C ) :   1.0261 B( 53-C , 84-H ) :   0.9947
B( 54-C , 55-C ) :   1.0522 B( 55-C , 56-C ) :   1.7183 B( 55-C , 85-H ) :   0.9313
B( 56-C , 57-C ) :   1.0531 B( 56-C , 65-C ) :   0.9029 B( 57-C , 58-C ) :   1.6595
B( 57-C , 63-C ) :   1.0068 B( 58-C , 59-C ) :   1.1325 B( 58-C , 61-C ) :   1.1445
B( 59-C , 60-N ) :   2.9785 B( 61-C , 62-N ) :   2.9721 B( 63-C , 64-C ) :   1.3279
B( 63-C , 70-C ) :   1.3298 B( 64-C , 65-C ) :   0.9324 B( 64-C , 67-C ) :   1.3406
B( 65-C , 66-O ) :   2.2518 B( 67-C , 68-C ) :   1.3491 B( 67-C , 86-H ) :   1.0159
B( 68-C , 69-C ) :   1.3954 B( 68-C , 72-Cl) :   1.0488 B( 69-C , 70-C ) :   1.3719
B( 69-C , 71-Cl) :   1.0792 B( 70-C , 87-H ) :   0.9858

-----------------------------------------------------------------------------
         ABSORPTION SPECTRUM VIA TRANSITION ELECTRIC DIPOLE MOMENTS
-----------------------------------------------------------------------------
State   Energy  Wavelength   fosc         T2         TX        TY        TZ
        (cm-1)    (nm)                  (au**2)     (au)      (au)      (au)
-----------------------------------------------------------------------------
   0   12713.7    786.6   0.002077950   0.05381  -0.08350   0.03959  -0.21276
   1   14421.1    693.4   0.070595165   1.61158  -1.19031  -0.14321   0.41741
   2   15312.5    653.1   0.041177301   0.88530   0.57467   0.03060  -0.74439
   3   16049.1    623.1   0.005864618   0.12030  -0.28378  -0.00024   0.19942
   4   17102.4    584.7   0.014722383   0.28340  -0.02285   0.19826  -0.49353
   5   18650.2    536.2   0.004072848   0.07189  -0.18138  -0.11165   0.16288
   6   19239.0    519.8   0.088648918   1.51693  -0.93665  -0.06859   0.79682
   7   19672.0    508.3   0.069943197   1.17050  -0.28058  -0.42606   0.95407
   8   19835.4    504.2   0.015353908   0.25483  -0.04541  -0.19133   0.46493
   9   20549.4    486.6   0.145065127   2.32402  -1.41151  -0.52472   0.23731
  10   20935.8    477.7   0.110385260   1.73579  -1.26512   0.14328   0.33870
  11   21819.2    458.3   0.013588917   0.20503  -0.14723  -0.18647   0.38546
  12   23069.7    433.5   0.034215689   0.48827  -0.04921  -0.26068   0.64645
  13   23816.0    419.9   0.111137382   1.53627  -0.83721  -0.78077   0.47513
  14   23980.1    417.0   0.160111134   2.19810  -1.25434  -0.68914   0.38705
  15   24180.0    413.6   0.065605004   0.89322  -0.66821   0.16373  -0.64800
  16   24666.2    405.4   0.005593398   0.07465  -0.25080   0.10006   0.04170
  17   24964.2    400.6   0.102511119   1.35185  -0.13372   0.50255  -1.03991
  18   25109.9    398.2   0.119016818   1.56041   0.19174  -0.38441   1.17298
  19   25450.0    392.9   0.037862178   0.48977  -0.56551  -0.13457   0.38970
  20   25496.8    392.2   0.009589702   0.12382   0.33971  -0.06498  -0.06479
  21   25634.6    390.1   0.012354914   0.15867  -0.21628  -0.07234   0.32659
  22   25776.5    387.9   0.023303184   0.29762   0.54541   0.01100  -0.00569
  23   26148.3    382.4   0.077200876   0.97197   0.01538  -0.24957   0.95365
  24   26374.7    379.2   0.034659327   0.43262   0.62984  -0.15193   0.11333
  25   26525.2    377.0   0.073500034   0.91223   0.30640   0.60501  -0.67254
  26   26628.4    375.5   0.089794561   1.11015   0.66510   0.76016  -0.29991
  27   26760.4    373.7   0.068940910   0.84812   0.19092  -0.29434   0.85149
  28   26856.7    372.3   0.073501101   0.90098  -0.78813   0.29087  -0.44186
  29   27223.8    367.3   0.046251079   0.55931   0.04528   0.38946  -0.63685
  30   27553.1    362.9   0.253489227   3.02875   0.86415  -0.71273   1.33192
  31   28051.2    356.5   0.115447061   1.35490   0.97576   0.30036   0.55909
  32   28243.8    354.1   0.226023951   2.63455  -0.15703  -1.35479   0.88003
  33   28982.3    345.0   0.009191304   0.10440   0.08749   0.15304   0.27079
  34   29064.0    344.1   0.004619875   0.05233   0.11295  -0.19832  -0.01555
  35   29121.1    343.4   0.003015871   0.03409  -0.04251   0.13269  -0.12116
  36   29355.4    340.7   0.000868416   0.00974  -0.03789  -0.07571  -0.05071
  37   29730.4    336.4   0.040462282   0.44805   0.14776   0.65283   0.00546
  38   29953.7    333.8   0.069561388   0.76453   0.56988  -0.18919   0.63558
  39   30015.0    333.2   0.009112214   0.09995  -0.27282   0.15580  -0.03523
  40   30094.6    332.3   0.007843147   0.08580   0.27276   0.02326  -0.10421
  41   30165.9    331.5   0.015794419   0.17237   0.23925   0.25916  -0.21901
  42   30616.6    326.6   0.012892261   0.13863   0.13167  -0.33030   0.11042
  43   30796.8    324.7   0.009322567   0.09966  -0.21223  -0.16454  -0.16595
  44   30893.4    323.7   0.352664710   3.75813  -0.50257   1.64334  -0.89722
  45   31120.7    321.3   0.064567821   0.68303  -0.28273  -0.23698  -0.73956
  46   31313.8    319.3   0.011741875   0.12345  -0.26142   0.21544  -0.09323
  47   31584.1    316.6   0.019811648   0.20650  -0.25014   0.37710  -0.04155
  48   31682.6    315.6   0.038905975   0.40427   0.14381   0.46741  -0.40635
  49   31919.4    313.3   0.045588084   0.47019   0.52652   0.41757  -0.13638
  50   32130.2    311.2   0.052407486   0.53698   0.66622   0.30372  -0.02977
  51   32228.1    310.3   0.075231720   0.76850  -0.60149   0.47284  -0.42794
  52   32452.9    308.1   0.023732657   0.24075   0.01799   0.13169  -0.47232
  53   32589.9    306.8   0.124133836   1.25396   0.87523   0.65702   0.23719
  54   32866.7    304.3   0.005217577   0.05226  -0.17120   0.10386   0.11031
  55   33126.5    301.9   0.027630599   0.27459   0.40186   0.33585   0.01740
  56   33336.3    300.0   0.003237499   0.03197  -0.07390   0.15871  -0.03635
  57   33454.5    298.9   0.008686820   0.08548   0.25563  -0.09472   0.10566
  58   33471.2    298.8   0.014813249   0.14570  -0.06583   0.35254   0.13070
  59   33735.2    296.4   0.151203292   1.47555  -1.01537  -0.18511  -0.64055
  60   33795.1    295.9   0.178653233   1.74034   0.42901  -0.96711   0.78802
  61   33909.8    294.9   0.010232819   0.09934  -0.22156   0.22417   0.00213
  62   33991.7    294.2   0.161187139   1.56111  -1.07545  -0.56048  -0.30063
  63   34107.2    293.2   0.053326480   0.51472   0.01642   0.53007  -0.48320
  64   34158.4    292.8   0.004305409   0.04149   0.10178  -0.10257   0.14358
  65   34303.4    291.5   0.081497788   0.78214  -0.53654   0.02398  -0.70263
  66   34357.6    291.1   0.033028530   0.31648   0.27313   0.38773   0.30256
  67   34497.8    289.9   0.003740449   0.03570   0.03592  -0.16123   0.09171
  68   34802.9    287.3   0.030589357   0.28935  -0.28829   0.42579   0.15794
  69   35008.4    285.6   0.023287844   0.21899   0.24886  -0.35650  -0.17313
  70   35079.9    285.1   0.013427772   0.12601   0.30054  -0.13861  -0.12836
  71   35103.2    284.9   0.049128488   0.46075  -0.64762  -0.14882  -0.13854
  72   35235.5    283.8   0.179559052   1.67765   0.56171  -1.12308   0.31753
  73   35492.0    281.8   0.179643325   1.66631  -1.20100   0.00873  -0.47311
  74   35576.9    281.1   0.007715804   0.07140  -0.26353  -0.04226   0.01277
  75   35696.0    280.1   0.420679293   3.87978   0.78562  -1.57774   0.87939
  76   35992.3    277.8   0.016015643   0.14649   0.14243   0.24456   0.25767
  77   36179.7    276.4   0.000840261   0.00765   0.00839  -0.07485  -0.04443
  78   36301.9    275.5   0.026895537   0.24391   0.14319   0.46338   0.09319
  79   36406.7    274.7   0.005595485   0.05060  -0.01704  -0.21071  -0.07688
  80   36662.7    272.8   0.258115837   2.31774  -1.09815   0.87428  -0.58945
  81   36843.4    271.4   0.037250319   0.33285   0.16584   0.43148   0.34521
  82   37161.3    269.1   0.026604331   0.23569   0.16268  -0.17813   0.42130
  83   37265.0    268.3   0.036654696   0.32382   0.11519   0.42667   0.35848
  84   37291.2    268.2   0.002268108   0.02002   0.02926  -0.11703   0.07396
  85   37417.5    267.3   0.063203297   0.55608   0.24923  -0.66857   0.21677
  86   37437.4    267.1   0.021548927   0.18949   0.31845  -0.28885  -0.06817
  87   37473.5    266.9   0.010694118   0.09395   0.26697  -0.15058  -0.00022
  88   38108.5    262.4   0.145164455   1.25405  -0.62730  -0.89010   0.26128
  89   38225.5    261.6   0.016060648   0.13832  -0.09406  -0.27022  -0.23760
  90   38421.0    260.3   0.006758542   0.05791   0.04143   0.15855  -0.17623
  91   38516.8    259.6   0.021810999   0.18642   0.31029  -0.09788   0.28384
  92   38619.5    258.9   0.059111583   0.50390  -0.00230   0.68863  -0.17228
  93   38795.5    257.8   0.052438727   0.44499   0.24919   0.46854   0.40418
  94   38841.2    257.5   0.040224698   0.34094  -0.11946   0.57151  -0.00699
  95   39088.3    255.8   0.032667646   0.27514  -0.15199  -0.45103  -0.22047
  96   39153.3    255.4   0.121062196   1.01793  -0.95888  -0.14088  -0.28042
  97   39325.0    254.3   0.022428582   0.18776  -0.37680  -0.15833  -0.14392
  98   39596.0    252.6   0.031560501   0.26240  -0.06675  -0.34164   0.37580
  99   39615.5    252.4   0.051168830   0.42522   0.28858  -0.40803   0.41887
 100   39942.7    250.4   0.005940525   0.04896   0.16302  -0.13639   0.06151
 101   40014.4    249.9   0.019896794   0.16370   0.04304  -0.32903   0.23148
 102   40267.8    248.3   0.038781139   0.31706   0.07364   0.34153  -0.44158

FINAL SINGLE POINT ENERGY     -5984.311641289803

DIPOLE MOMENT
-------------
                                X             Y             Z
Electronic contribution:      1.77652     -22.82355     -21.99425
Nuclear contribution   :      1.39777      25.04510      23.08296
                        -----------------------------------------
Total Dipole Moment    :      3.17429       2.22155       1.08871
                        -----------------------------------------
Magnitude (a.u.)       :      4.02452
Magnitude (Debye)      :     10.22951

Rotational constants in cm-1:     0.000999     0.000419     0.000357
Rotational constants in MHz :    29.949853    12.570292    10.691137

                             ****ORCA TERMINATED NORMALLY****
TOTAL RUN TIME: 0 days 0 hours 9 minutes 50 seconds 871 msec
