                         Program Version 4.2.0 -  RELEASE  -
|  1> # ORCA input file
|  2> # SCF done       -220.154216883052          0.003215322419
|  3> ! CAM-B3LYP def2-SVP def2/J RIJCOSX Grid4 TightSCF
|  4> %maxcore 5000
|  5> %tddft
|  6>     Mode sTDDFT
|  7>     Ethresh 5.0
|  8>     maxcore 5000
|  9> end
| 10>
| 11> %pal
| 12>   nprocs 6
| 13>   end
| 14> * xyz 0 1
| 15>    C       -0.21066        -7.27045         3.60193
| 16>    C        0.82405        -7.49097         2.74211
| 17>    C        1.65525        -8.63613         2.79546
| 18>    N        2.34577        -9.55149         2.78969
| 19>    C        1.22897        -6.61648         1.70759
| 20>    N        1.62926        -5.96716         0.85065
| 21>    C       -0.60265        -8.11543         4.72315
| 22>    C       -1.58296        -7.45327         5.48882
| 23>    C       -2.13280        -8.02658         6.61959
| 24>    C       -1.70269        -9.29224         6.99469
| 25>    C       -0.73131        -9.96152         6.23486
| 26>    C       -0.17652        -9.37994         5.10081
| 27>   Cl       -0.21489       -11.52601         6.70608
| 28>   Cl       -2.36218       -10.04000         8.38843
| 29>    C       -1.88666        -6.14549         4.88922
| 30>    O       -2.61141        -5.27746         5.31758
| 31>    C       -1.09480        -6.10701         3.62021
| 32>    C       -1.26788        -5.18055         2.66519
| 33>    C       -2.17568        -4.04538         2.79609
| 34>    C       -1.65728        -2.75531         2.76617
| 35>    C       -0.23821        -2.36373         2.62891
| 36>    O        0.70820        -3.10142         2.51311
| 37>    N       -0.23020        -0.97016         2.66190
| 38>    C       -1.51917        -0.43567         2.82922
| 39>    O       -1.77397         0.73474         2.88924
| 40>    C       -2.43577        -1.60690         2.90283
| 41>    C       -3.80360        -1.68500         3.08183
| 42>    C       -4.34271        -2.97090         3.10164
| 43>    C       -3.56682        -4.11855         2.95472
| 44>    C       -4.33237        -5.38294         2.98205
| 45>    O       -3.92122        -6.49381         2.82037
| 46>    S       -6.05776        -5.00973         3.28027
| 47>    C       -5.78611        -3.23059         3.29567
| 48>    O       -6.65672        -2.43030         3.43936
| 49>    C        0.88863        -0.14744         2.53906
| 50>    C        2.12488        -0.63231         2.34017
| 51>    C        3.31981         0.11640         2.19089
| 52>    O        3.34414         1.47833         2.29625
| 53>    C        4.63465         1.80371         2.11880
| 54>    C        5.73184         2.82417         2.00768
| 55>    C        6.67297         1.59569         1.76348
| 56>    C        5.43813         0.72869         1.90655
| 57>    C        4.60838        -0.41730         1.94075
| 58>    C        4.91672        -1.79489         1.75040
| 59>    C        6.17034        -2.24174         1.53712
| 60>    C        6.51176        -3.60516         1.24386
| 61>    C        7.56529        -3.87379         0.35085
| 62>    C        8.46219        -2.91379        -0.32999
| 63>    O        8.50876        -1.71706        -0.23965
| 64>    N        9.29873        -3.69613        -1.15073
| 65>    C        9.01305        -5.07162        -1.03614
| 66>    O        9.59284        -5.93869        -1.62596
| 67>    C        7.89056        -5.16107        -0.07546
| 68>    C        7.19659        -6.27460         0.35967
| 69>    C        6.19259        -6.03597         1.29189
| 70>    C        5.86311        -4.76036         1.75059
| 71>    C        4.90231        -4.77813         2.87279
| 72>    O        4.55009        -3.88809         3.58444
| 73>    S        4.33974        -6.47402         3.14883
| 74>    C        5.41257        -7.14593         1.88347
| 75>    O        5.46906        -8.30072         1.59861
| 76>    C       10.27464        -3.25076        -2.01504
| 77>    C       10.62227        -1.96710        -2.23622
| 78>    C       11.62476        -1.66301        -3.19618
| 79>    C       12.03810        -0.40738        -3.52598
| 80>    C       13.04010        -0.05416        -4.52081
| 81>    C       13.73116        -0.90699        -5.33794
| 82>    C       14.68999        -0.49005        -6.28835
| 83>    N       15.48002        -0.21946        -7.07594
| 84>    C       13.60111        -2.31318        -5.36727
| 85>    N       13.56503        -3.45703        -5.46485
| 86>    C       13.17447         1.40062        -4.51180
| 87>    C       12.28831         1.93763        -3.56202
| 88>    C       11.53291         0.84733        -2.90791
| 89>    O       10.68761         0.97357        -2.05125
| 90>    C       12.19892         3.29639        -3.33419
| 91>    C       13.01422         4.14464        -4.07235
| 92>    C       13.89945         3.61940        -5.02249
| 93>    C       13.98591         2.25033        -5.24835
| 94>   Cl       14.90192         4.67781        -5.92970
| 95>   Cl       12.93622         5.84002        -3.81829
| 96>    H       -2.88066        -7.50169         7.19301
| 97>    H        0.56447        -9.92530         4.53941
| 98>    H       -0.67392        -5.19797         1.76030
| 99>    H       -4.42838        -0.81442         3.20372
|100>    H        0.65749         0.90563         2.60967
|101>    H        2.26293        -1.69992         2.28827
|102>    H        5.93419         3.38707         2.91667
|103>    H        5.64121         3.50865         1.16685
|104>    H        7.42537         1.44353         2.53329
|105>    H        7.13869         1.56352         0.78180
|106>    H        4.08523        -2.48213         1.73565
|107>    H        6.97623        -1.52578         1.45923
|108>    H        7.42249        -7.27234         0.01992
|109>    H       10.75598        -4.06874        -2.54149
|110>    H       10.14584        -1.15477        -1.70968
|111>    H       12.07468        -2.51004        -3.69868
|112>    H       11.51202         3.68562        -2.59889
|113>    H       14.68026         1.88516        -5.98693
|114> *
|115>
|116>                          ****END OF INPUT****

CARTESIAN COORDINATES (ANGSTROEM)
---------------------------------
  C     -0.210660   -7.270450    3.601930
  C      0.824050   -7.490970    2.742110
  C      1.655250   -8.636130    2.795460
  N      2.345770   -9.551490    2.789690
  C      1.228970   -6.616480    1.707590
  N      1.629260   -5.967160    0.850650
  C     -0.602650   -8.115430    4.723150
  C     -1.582960   -7.453270    5.488820
  C     -2.132800   -8.026580    6.619590
  C     -1.702690   -9.292240    6.994690
  C     -0.731310   -9.961520    6.234860
  C     -0.176520   -9.379940    5.100810
  Cl    -0.214890  -11.526010    6.706080
  Cl    -2.362180  -10.040000    8.388430
  C     -1.886660   -6.145490    4.889220
  O     -2.611410   -5.277460    5.317580
  C     -1.094800   -6.107010    3.620210
  C     -1.267880   -5.180550    2.665190
  C     -2.175680   -4.045380    2.796090
  C     -1.657280   -2.755310    2.766170
  C     -0.238210   -2.363730    2.628910
  O      0.708200   -3.101420    2.513110
  N     -0.230200   -0.970160    2.661900
  C     -1.519170   -0.435670    2.829220
  O     -1.773970    0.734740    2.889240
  C     -2.435770   -1.606900    2.902830
  C     -3.803600   -1.685000    3.081830
  C     -4.342710   -2.970900    3.101640
  C     -3.566820   -4.118550    2.954720
  C     -4.332370   -5.382940    2.982050
  O     -3.921220   -6.493810    2.820370
  S     -6.057760   -5.009730    3.280270
  C     -5.786110   -3.230590    3.295670
  O     -6.656720   -2.430300    3.439360
  C      0.888630   -0.147440    2.539060
  C      2.124880   -0.632310    2.340170
  C      3.319810    0.116400    2.190890
  O      3.344140    1.478330    2.296250
  C      4.634650    1.803710    2.118800
  C      5.731840    2.824170    2.007680
  C      6.672970    1.595690    1.763480
  C      5.438130    0.728690    1.906550
  C      4.608380   -0.417300    1.940750
  C      4.916720   -1.794890    1.750400
  C      6.170340   -2.241740    1.537120
  C      6.511760   -3.605160    1.243860
  C      7.565290   -3.873790    0.350850
  C      8.462190   -2.913790   -0.329990
  O      8.508760   -1.717060   -0.239650
  N      9.298730   -3.696130   -1.150730
  C      9.013050   -5.071620   -1.036140
  O      9.592840   -5.938690   -1.625960
  C      7.890560   -5.161070   -0.075460
  C      7.196590   -6.274600    0.359670
  C      6.192590   -6.035970    1.291890
  C      5.863110   -4.760360    1.750590
  C      4.902310   -4.778130    2.872790
  O      4.550090   -3.888090    3.584440
  S      4.339740   -6.474020    3.148830
  C      5.412570   -7.145930    1.883470
  O      5.469060   -8.300720    1.598610
  C     10.274640   -3.250760   -2.015040
  C     10.622270   -1.967100   -2.236220
  C     11.624760   -1.663010   -3.196180
  C     12.038100   -0.407380   -3.525980
  C     13.040100   -0.054160   -4.520810
  C     13.731160   -0.906990   -5.337940
  C     14.689990   -0.490050   -6.288350
  N     15.480020   -0.219460   -7.075940
  C     13.601110   -2.313180   -5.367270
  N     13.565030   -3.457030   -5.464850
  C     13.174470    1.400620   -4.511800
  C     12.288310    1.937630   -3.562020
  C     11.532910    0.847330   -2.907910
  O     10.687610    0.973570   -2.051250
  C     12.198920    3.296390   -3.334190
  C     13.014220    4.144640   -4.072350
  C     13.899450    3.619400   -5.022490
  C     13.985910    2.250330   -5.248350
  Cl    14.901920    4.677810   -5.929700
  Cl    12.936220    5.840020   -3.818290
  H     -2.880660   -7.501690    7.193010
  H      0.564470   -9.925300    4.539410
  H     -0.673920   -5.197970    1.760300
  H     -4.428380   -0.814420    3.203720
  H      0.657490    0.905630    2.609670
  H      2.262930   -1.699920    2.288270
  H      5.934190    3.387070    2.916670
  H      5.641210    3.508650    1.166850
  H      7.425370    1.443530    2.533290
  H      7.138690    1.563520    0.781800
  H      4.085230   -2.482130    1.735650
  H      6.976230   -1.525780    1.459230
  H      7.422490   -7.272340    0.019920
  H     10.755980   -4.068740   -2.541490
  H     10.145840   -1.154770   -1.709680
  H     12.074680   -2.510040   -3.698680
  H     11.512020    3.685620   -2.598890
  H     14.680260    1.885160   -5.986930

 Total Charge           Charge          ....    0
 Multiplicity           Mult            ....    1
 Number of Electrons    NEL             ....  596
 Basis Dimension        Dim             .... 1248

ORBITAL ENERGIES
----------------

  NO   OCC          E(Eh)            E(eV)
   0   2.0000    -101.611650     -2764.9936
   1   2.0000    -101.610368     -2764.9587
   2   2.0000    -101.603197     -2764.7635
   3   2.0000    -101.600982     -2764.7033
   4   2.0000     -88.962736     -2420.7991
   5   2.0000     -88.953659     -2420.5521
   6   2.0000     -19.301419      -525.2183
   7   2.0000     -19.255512      -523.9691
   8   2.0000     -19.255195      -523.9605
   9   2.0000     -19.248514      -523.7787
  10   2.0000     -19.248121      -523.7680
  11   2.0000     -19.246910      -523.7351
  12   2.0000     -19.245975      -523.7096
  13   2.0000     -19.244899      -523.6803
  14   2.0000     -19.244342      -523.6652
  15   2.0000     -19.242165      -523.6059
  16   2.0000     -19.224437      -523.1235
  17   2.0000     -14.500663      -394.5831
  18   2.0000     -14.497359      -394.4932
  19   2.0000     -14.432772      -392.7357
  20   2.0000     -14.431620      -392.7043
  21   2.0000     -14.422367      -392.4526
  22   2.0000     -14.419742      -392.3811
  23   2.0000     -10.426713      -283.7253
  24   2.0000     -10.426211      -283.7116
  25   2.0000     -10.426004      -283.7060
  26   2.0000     -10.425594      -283.6948
  27   2.0000     -10.418747      -283.5085
  28   2.0000     -10.416466      -283.4464
  29   2.0000     -10.409462      -283.2559
  30   2.0000     -10.405408      -283.1455
  31   2.0000     -10.393127      -282.8114
  32   2.0000     -10.375322      -282.3269
  33   2.0000     -10.370269      -282.1894
  34   2.0000     -10.369535      -282.1694
  35   2.0000     -10.366055      -282.0747
  36   2.0000     -10.361071      -281.9391
  37   2.0000     -10.359124      -281.8861
  38   2.0000     -10.358618      -281.8723
  39   2.0000     -10.352086      -281.6946
  40   2.0000     -10.351081      -281.6672
  41   2.0000     -10.349721      -281.6302
  42   2.0000     -10.348087      -281.5858
  43   2.0000     -10.342035      -281.4211
  44   2.0000     -10.341700      -281.4120
  45   2.0000     -10.339815      -281.3607
  46   2.0000     -10.339504      -281.3522
  47   2.0000     -10.338226      -281.3174
  48   2.0000     -10.336719      -281.2764
  49   2.0000     -10.336241      -281.2634
  50   2.0000     -10.334933      -281.2278
  51   2.0000     -10.334555      -281.2175
  52   2.0000     -10.332540      -281.1627
  53   2.0000     -10.332182      -281.1530
  54   2.0000     -10.330611      -281.1102
  55   2.0000     -10.330541      -281.1083
  56   2.0000     -10.329980      -281.0931
  57   2.0000     -10.327936      -281.0374
  58   2.0000     -10.325990      -280.9845
  59   2.0000     -10.324612      -280.9470
  60   2.0000     -10.323865      -280.9266
  61   2.0000     -10.323817      -280.9254
  62   2.0000     -10.323765      -280.9239
  63   2.0000     -10.322331      -280.8849
  64   2.0000     -10.322220      -280.8819
  65   2.0000     -10.322092      -280.8784
  66   2.0000     -10.319029      -280.7951
  67   2.0000     -10.318572      -280.7826
  68   2.0000     -10.317619      -280.7567
  69   2.0000     -10.312017      -280.6042
  70   2.0000     -10.311323      -280.5854
  71   2.0000     -10.304079      -280.3882
  72   2.0000     -10.302042      -280.3328
  73   2.0000     -10.297898      -280.2201
  74   2.0000     -10.295997      -280.1683
  75   2.0000     -10.290859      -280.0285
  76   2.0000     -10.289033      -279.9788
  77   2.0000     -10.288678      -279.9691
  78   2.0000     -10.288494      -279.9642
  79   2.0000     -10.282780      -279.8087
  80   2.0000     -10.263013      -279.2708
  81   2.0000      -9.566731      -260.3240
  82   2.0000      -9.565449      -260.2891
  83   2.0000      -9.558238      -260.0929
  84   2.0000      -9.556014      -260.0324
  85   2.0000      -8.061907      -219.3757
  86   2.0000      -8.052085      -219.1084
  87   2.0000      -7.337131      -199.6535
  88   2.0000      -7.335833      -199.6182
  89   2.0000      -7.328618      -199.4218
  90   2.0000      -7.326995      -199.3777
  91   2.0000      -7.326385      -199.3611
  92   2.0000      -7.326213      -199.3564
  93   2.0000      -7.325736      -199.3434
  94   2.0000      -7.324931      -199.3215
  95   2.0000      -7.318506      -199.1467
  96   2.0000      -7.317761      -199.1264
  97   2.0000      -7.316281      -199.0861
  98   2.0000      -7.315553      -199.0663
  99   2.0000      -6.030764      -164.1054
 100   2.0000      -6.027468      -164.0158
 101   2.0000      -6.022996      -163.8941
 102   2.0000      -6.020957      -163.8386
 103   2.0000      -6.017752      -163.7514
 104   2.0000      -6.013213      -163.6278
 105   2.0000      -1.212076       -32.9823
 106   2.0000      -1.195027       -32.5183
 107   2.0000      -1.193070       -32.4651
 108   2.0000      -1.180828       -32.1320
 109   2.0000      -1.176820       -32.0229
 110   2.0000      -1.171702       -31.8836
 111   2.0000      -1.170830       -31.8599
 112   2.0000      -1.170118       -31.8405
 113   2.0000      -1.166507       -31.7423
 114   2.0000      -1.158055       -31.5123
 115   2.0000      -1.139827       -31.0163
 116   2.0000      -1.088159       -29.6103
 117   2.0000      -1.086444       -29.5636
 118   2.0000      -1.045471       -28.4487
 119   2.0000      -1.033745       -28.1296
 120   2.0000      -1.031276       -28.0625
 121   2.0000      -1.027138       -27.9499
 122   2.0000      -1.019923       -27.7535
 123   2.0000      -1.016907       -27.6714
 124   2.0000      -1.009978       -27.4829
 125   2.0000      -1.006849       -27.3978
 126   2.0000      -0.999246       -27.1909
 127   2.0000      -0.993881       -27.0449
 128   2.0000      -0.974299       -26.5120
 129   2.0000      -0.967733       -26.3334
 130   2.0000      -0.965585       -26.2749
 131   2.0000      -0.964325       -26.2406
 132   2.0000      -0.962453       -26.1897
 133   2.0000      -0.953323       -25.9412
 134   2.0000      -0.940133       -25.5823
 135   2.0000      -0.937163       -25.5015
 136   2.0000      -0.934229       -25.4217
 137   2.0000      -0.921710       -25.0810
 138   2.0000      -0.915703       -24.9175
 139   2.0000      -0.906608       -24.6701
 140   2.0000      -0.900316       -24.4988
 141   2.0000      -0.899292       -24.4710
 142   2.0000      -0.881011       -23.9735
 143   2.0000      -0.875319       -23.8187
 144   2.0000      -0.870098       -23.6766
 145   2.0000      -0.864072       -23.5126
 146   2.0000      -0.863405       -23.4944
 147   2.0000      -0.842021       -22.9126
 148   2.0000      -0.836998       -22.7759
 149   2.0000      -0.814055       -22.1516
 150   2.0000      -0.806489       -21.9457
 151   2.0000      -0.801771       -21.8173
 152   2.0000      -0.800381       -21.7795
 153   2.0000      -0.795596       -21.6493
 154   2.0000      -0.782436       -21.2912
 155   2.0000      -0.773681       -21.0529
 156   2.0000      -0.766134       -20.8476
 157   2.0000      -0.764750       -20.8099
 158   2.0000      -0.758721       -20.6458
 159   2.0000      -0.756057       -20.5733
 160   2.0000      -0.746537       -20.3143
 161   2.0000      -0.737099       -20.0575
 162   2.0000      -0.729842       -19.8600
 163   2.0000      -0.715744       -19.4764
 164   2.0000      -0.711577       -19.3630
 165   2.0000      -0.707363       -19.2483
 166   2.0000      -0.703095       -19.1322
 167   2.0000      -0.701656       -19.0930
 168   2.0000      -0.697148       -18.9704
 169   2.0000      -0.692411       -18.8415
 170   2.0000      -0.689444       -18.7607
 171   2.0000      -0.679631       -18.4937
 172   2.0000      -0.674713       -18.3599
 173   2.0000      -0.669563       -18.2197
 174   2.0000      -0.654175       -17.8010
 175   2.0000      -0.650799       -17.7092
 176   2.0000      -0.645731       -17.5712
 177   2.0000      -0.642549       -17.4846
 178   2.0000      -0.636713       -17.3259
 179   2.0000      -0.635615       -17.2960
 180   2.0000      -0.627386       -17.0721
 181   2.0000      -0.624007       -16.9801
 182   2.0000      -0.623235       -16.9591
 183   2.0000      -0.620674       -16.8894
 184   2.0000      -0.617553       -16.8045
 185   2.0000      -0.610210       -16.6047
 186   2.0000      -0.606596       -16.5063
 187   2.0000      -0.602386       -16.3918
 188   2.0000      -0.601351       -16.3636
 189   2.0000      -0.596601       -16.2343
 190   2.0000      -0.593931       -16.1617
 191   2.0000      -0.591330       -16.0909
 192   2.0000      -0.581444       -15.8219
 193   2.0000      -0.579171       -15.7600
 194   2.0000      -0.578134       -15.7318
 195   2.0000      -0.577609       -15.7175
 196   2.0000      -0.577396       -15.7117
 197   2.0000      -0.574262       -15.6265
 198   2.0000      -0.572461       -15.5774
 199   2.0000      -0.567695       -15.4478
 200   2.0000      -0.563722       -15.3396
 201   2.0000      -0.561916       -15.2905
 202   2.0000      -0.558710       -15.2033
 203   2.0000      -0.556795       -15.1512
 204   2.0000      -0.554832       -15.0977
 205   2.0000      -0.554126       -15.0785
 206   2.0000      -0.553355       -15.0576
 207   2.0000      -0.550482       -14.9794
 208   2.0000      -0.548886       -14.9359
 209   2.0000      -0.548208       -14.9175
 210   2.0000      -0.547884       -14.9087
 211   2.0000      -0.546951       -14.8833
 212   2.0000      -0.545960       -14.8563
 213   2.0000      -0.539724       -14.6866
 214   2.0000      -0.538392       -14.6504
 215   2.0000      -0.536046       -14.5866
 216   2.0000      -0.534584       -14.5468
 217   2.0000      -0.532791       -14.4980
 218   2.0000      -0.531216       -14.4551
 219   2.0000      -0.529389       -14.4054
 220   2.0000      -0.525469       -14.2987
 221   2.0000      -0.524768       -14.2797
 222   2.0000      -0.520888       -14.1741
 223   2.0000      -0.520729       -14.1698
 224   2.0000      -0.514575       -14.0023
 225   2.0000      -0.512858       -13.9556
 226   2.0000      -0.511176       -13.9098
 227   2.0000      -0.510573       -13.8934
 228   2.0000      -0.510397       -13.8886
 229   2.0000      -0.507345       -13.8056
 230   2.0000      -0.505964       -13.7680
 231   2.0000      -0.502791       -13.6816
 232   2.0000      -0.501277       -13.6404
 233   2.0000      -0.499378       -13.5888
 234   2.0000      -0.496701       -13.5159
 235   2.0000      -0.489321       -13.3151
 236   2.0000      -0.487836       -13.2747
 237   2.0000      -0.487089       -13.2544
 238   2.0000      -0.486257       -13.2317
 239   2.0000      -0.484283       -13.1780
 240   2.0000      -0.480011       -13.0618
 241   2.0000      -0.479697       -13.0532
 242   2.0000      -0.477368       -12.9899
 243   2.0000      -0.470164       -12.7938
 244   2.0000      -0.464139       -12.6299
 245   2.0000      -0.460274       -12.5247
 246   2.0000      -0.458215       -12.4687
 247   2.0000      -0.456959       -12.4345
 248   2.0000      -0.455431       -12.3929
 249   2.0000      -0.453654       -12.3446
 250   2.0000      -0.451780       -12.2936
 251   2.0000      -0.450689       -12.2639
 252   2.0000      -0.447859       -12.1869
 253   2.0000      -0.443560       -12.0699
 254   2.0000      -0.442778       -12.0486
 255   2.0000      -0.441600       -12.0165
 256   2.0000      -0.440877       -11.9969
 257   2.0000      -0.440814       -11.9952
 258   2.0000      -0.438502       -11.9322
 259   2.0000      -0.431927       -11.7533
 260   2.0000      -0.431727       -11.7479
 261   2.0000      -0.430745       -11.7212
 262   2.0000      -0.428383       -11.6569
 263   2.0000      -0.423468       -11.5231
 264   2.0000      -0.421857       -11.4793
 265   2.0000      -0.418881       -11.3983
 266   2.0000      -0.415332       -11.3018
 267   2.0000      -0.412738       -11.2312
 268   2.0000      -0.410186       -11.1617
 269   2.0000      -0.398214       -10.8360
 270   2.0000      -0.395000       -10.7485
 271   2.0000      -0.394597       -10.7375
 272   2.0000      -0.393666       -10.7122
 273   2.0000      -0.390331       -10.6214
 274   2.0000      -0.386279       -10.5112
 275   2.0000      -0.384010       -10.4494
 276   2.0000      -0.380473       -10.3532
 277   2.0000      -0.380334       -10.3494
 278   2.0000      -0.379981       -10.3398
 279   2.0000      -0.377908       -10.2834
 280   2.0000      -0.372248       -10.1294
 281   2.0000      -0.371003       -10.0955
 282   2.0000      -0.369820       -10.0633
 283   2.0000      -0.366018        -9.9599
 284   2.0000      -0.361513        -9.8373
 285   2.0000      -0.356126        -9.6907
 286   2.0000      -0.353784        -9.6269
 287   2.0000      -0.350167        -9.5285
 288   2.0000      -0.348116        -9.4727
 289   2.0000      -0.347377        -9.4526
 290   2.0000      -0.343118        -9.3367
 291   2.0000      -0.342341        -9.3156
 292   2.0000      -0.336999        -9.1702
 293   2.0000      -0.323019        -8.7898
 294   2.0000      -0.316259        -8.6058
 295   2.0000      -0.308107        -8.3840
 296   2.0000      -0.296254        -8.0615
 297   2.0000      -0.256370        -6.9762
 298   0.0000      -0.106038        -2.8855
 299   0.0000      -0.103112        -2.8058
 300   0.0000      -0.098609        -2.6833
 301   0.0000      -0.095498        -2.5986
 302   0.0000      -0.083195        -2.2639

MULLIKEN ATOMIC CHARGES
-----------------------
   0 C :    0.301618
   1 C :   -0.329476
   2 C :   -0.204295
   3 N :    0.185642
   4 C :   -0.188349
   5 N :    0.174439
   6 C :    0.039333
   7 C :   -0.015559
   8 C :   -0.021810
   9 C :    0.063481
  10 C :    0.051250
  11 C :   -0.014188
  12 Cl:   -0.023933
  13 Cl:   -0.032908
  14 C :    0.158201
  15 O :   -0.146432
  16 C :   -0.017299
  17 C :   -0.055297
  18 C :   -0.005868
  19 C :   -0.011639
  20 C :    0.216095
  21 O :   -0.153961
  22 N :   -0.233564
  23 C :    0.198841
  24 O :   -0.123669
  25 C :    0.021783
  26 C :   -0.061499
  27 C :    0.040918
  28 C :    0.086460
  29 C :    0.045430
  30 O :   -0.136363
  31 S :    0.021844
  32 C :    0.048519
  33 O :   -0.111327
  34 C :    0.066695
  35 C :   -0.051093
  36 C :    0.149783
  37 O :   -0.188774
  38 C :   -0.037207
  39 C :    0.151791
  40 C :    0.135815
  41 C :   -0.142178
  42 C :   -0.046423
  43 C :    0.080156
  44 C :   -0.073274
  45 C :    0.073147
  46 C :   -0.037429
  47 C :    0.218916
  48 O :   -0.130615
  49 N :   -0.237512
  50 C :    0.202154
  51 O :   -0.117334
  52 C :    0.009254
  53 C :   -0.069271
  54 C :    0.046311
  55 C :    0.021779
  56 C :    0.043337
  57 O :   -0.118733
  58 S :   -0.010290
  59 C :    0.061000
  60 O :   -0.106180
  61 C :    0.117700
  62 C :   -0.018720
  63 C :   -0.037787
  64 C :   -0.068456
  65 C :    0.326112
  66 C :   -0.344136
  67 C :   -0.189419
  68 N :    0.156814
  69 C :   -0.190733
  70 N :    0.154829
  71 C :    0.029032
  72 C :   -0.014588
  73 C :    0.142987
  74 O :   -0.136865
  75 C :   -0.029310
  76 C :    0.061665
  77 C :    0.044690
  78 C :   -0.012765
  79 Cl:   -0.033407
  80 Cl:   -0.042159
  81 H :    0.003903
  82 H :    0.005895
  83 H :    0.054557
  84 H :    0.022305
  85 H :    0.036122
  86 H :    0.042028
  87 H :    0.022791
  88 H :    0.025740
  89 H :    0.019659
  90 H :    0.033151
  91 H :   -0.004214
  92 H :    0.019508
  93 H :    0.020515
  94 H :    0.051661
  95 H :    0.056368
  96 H :    0.013536
  97 H :   -0.001041
  98 H :    0.001793
Sum of atomic charges:   -0.0000000

LOEWDIN ATOMIC CHARGES
----------------------
   0 C :    0.073628
   1 C :   -0.113831
   2 C :   -0.027071
   3 N :   -0.028345
   4 C :   -0.023030
   5 N :   -0.040795
   6 C :   -0.007734
   7 C :   -0.043571
   8 C :    0.006470
   9 C :   -0.131962
  10 C :   -0.125498
  11 C :   -0.009818
  12 Cl:    0.172641
  13 Cl:    0.168100
  14 C :    0.091655
  15 O :   -0.134166
  16 C :   -0.054373
  17 C :    0.074247
  18 C :    0.026315
  19 C :   -0.025215
  20 C :    0.102138
  21 O :   -0.127470
  22 N :   -0.009211
  23 C :    0.100068
  24 O :   -0.121980
  25 C :   -0.031373
  26 C :    0.049136
  27 C :   -0.050207
  28 C :   -0.038421
  29 C :   -0.043521
  30 O :   -0.120014
  31 S :    0.311648
  32 C :   -0.041690
  33 O :   -0.103344
  34 C :    0.025923
  35 C :   -0.053932
  36 C :    0.049840
  37 O :    0.012456
  38 C :    0.007857
  39 C :   -0.000727
  40 C :    0.008302
  41 C :   -0.073590
  42 C :   -0.062286
  43 C :    0.040631
  44 C :   -0.051310
  45 C :    0.043570
  46 C :   -0.043280
  47 C :    0.109915
  48 O :   -0.113843
  49 N :   -0.016041
  50 C :    0.103400
  51 O :   -0.116371
  52 C :   -0.032940
  53 C :    0.033204
  54 C :   -0.043336
  55 C :   -0.060626
  56 C :   -0.038622
  57 O :   -0.107180
  58 S :    0.305102
  59 C :   -0.046374
  60 O :   -0.099323
  61 C :    0.083040
  62 C :   -0.055895
  63 C :    0.077500
  64 C :   -0.100553
  65 C :    0.074873
  66 C :   -0.133254
  67 C :   -0.019426
  68 N :   -0.045789
  69 C :   -0.021108
  70 N :   -0.045112
  71 C :   -0.013933
  72 C :   -0.043553
  73 C :    0.084382
  74 O :   -0.132854
  75 C :   -0.000101
  76 C :   -0.134111
  77 C :   -0.130536
  78 C :   -0.011992
  79 Cl:    0.162772
  80 Cl:    0.159660
  81 H :    0.047912
  82 H :    0.046206
  83 H :    0.053508
  84 H :    0.053636
  85 H :    0.037721
  86 H :    0.040912
  87 H :    0.031726
  88 H :    0.032477
  89 H :    0.029666
  90 H :    0.034699
  91 H :    0.031525
  92 H :    0.036480
  93 H :    0.052130
  94 H :    0.043346
  95 H :    0.037785
  96 H :    0.042245
  97 H :    0.045450
  98 H :    0.044743

  Mayer bond orders larger than 0.100000
B(  0-C ,  1-C ) :   1.6903 B(  0-C ,  6-C ) :   1.0084 B(  0-C , 16-C ) :   1.0206
B(  1-C ,  2-C ) :   1.1353 B(  1-C ,  4-C ) :   1.1537 B(  2-C ,  3-N ) :   2.9727
B(  4-C ,  5-N ) :   2.9755 B(  6-C ,  7-C ) :   1.3236 B(  6-C , 11-C ) :   1.3317
B(  7-C ,  8-C ) :   1.3385 B(  7-C , 14-C ) :   0.9507 B(  8-C ,  9-C ) :   1.3515
B(  8-C , 81-H ) :   1.0163 B(  9-C , 10-C ) :   1.3891 B(  9-C , 13-Cl) :   1.0563
B( 10-C , 11-C ) :   1.3669 B( 10-C , 12-Cl) :   1.0861 B( 11-C , 82-H ) :   0.9870
B( 14-C , 15-O ) :   2.2192 B( 14-C , 16-C ) :   0.9109 B( 16-C , 17-C ) :   1.8030
B( 17-C , 18-C ) :   1.0039 B( 17-C , 83-H ) :   0.9123 B( 18-C , 19-C ) :   1.4476
B( 18-C , 28-C ) :   1.3694 B( 19-C , 20-C ) :   0.8966 B( 19-C , 25-C ) :   1.3666
B( 20-C , 21-O ) :   2.1085 B( 20-C , 22-N ) :   1.0652 B( 22-N , 23-C ) :   1.0164
B( 22-N , 34-C ) :   0.9954 B( 23-C , 24-O ) :   2.2521 B( 23-C , 25-C ) :   0.8664
B( 25-C , 26-C ) :   1.3514 B( 26-C , 27-C ) :   1.3185 B( 26-C , 84-H ) :   1.0260
B( 27-C , 28-C ) :   1.3591 B( 27-C , 32-C ) :   0.8386 B( 28-C , 29-C ) :   0.8458
B( 29-C , 30-O ) :   2.1715 B( 29-C , 31-S ) :   1.0346 B( 30-O , 31-S ) :   0.1097
B( 31-S , 32-C ) :   1.0184 B( 31-S , 33-O ) :   0.1058 B( 32-C , 33-O ) :   2.2312
B( 34-C , 35-C ) :   1.6742 B( 34-C , 85-H ) :   0.9881 B( 35-C , 36-C ) :   1.1784
B( 35-C , 86-H ) :   0.9234 B( 36-C , 37-O ) :   1.1400 B( 36-C , 42-C ) :   1.3919
B( 37-O , 38-C ) :   1.1484 B( 38-C , 39-C ) :   1.1295 B( 38-C , 41-C ) :   1.6251
B( 39-C , 40-C ) :   1.1956 B( 39-C , 87-H ) :   0.8811 B( 39-C , 88-H ) :   0.8842
B( 40-C , 41-C ) :   1.1116 B( 40-C , 89-H ) :   0.8929 B( 40-C , 90-H ) :   0.8944
B( 41-C , 42-C ) :   1.1701 B( 42-C , 43-C ) :   1.1691 B( 43-C , 44-C ) :   1.6849
B( 43-C , 91-H ) :   0.9465 B( 44-C , 45-C ) :   1.1135 B( 44-C , 92-H ) :   0.9525
B( 45-C , 46-C ) :   1.3543 B( 45-C , 55-C ) :   1.3121 B( 46-C , 47-C ) :   0.9162
B( 46-C , 52-C ) :   1.3796 B( 47-C , 48-O ) :   2.1466 B( 47-C , 49-N ) :   1.0083
B( 49-N , 50-C ) :   0.9937 B( 49-N , 61-C ) :   1.0595 B( 50-C , 51-O ) :   2.2563
B( 50-C , 52-C ) :   0.8775 B( 52-C , 53-C ) :   1.3328 B( 53-C , 54-C ) :   1.3387
B( 53-C , 93-H ) :   1.0286 B( 54-C , 55-C ) :   1.3575 B( 54-C , 59-C ) :   0.8413
B( 55-C , 56-C ) :   0.8589 B( 56-C , 57-O ) :   2.1980 B( 56-C , 58-S ) :   1.0140
B( 57-O , 58-S ) :   0.1028 B( 58-S , 59-C ) :   1.0219 B( 58-S , 60-O ) :   0.1080
B( 59-C , 60-O ) :   2.2287 B( 61-C , 62-C ) :   1.6073 B( 61-C , 94-H ) :   0.9664
B( 62-C , 63-C ) :   1.1319 B( 62-C , 95-H ) :   0.9654 B( 63-C , 64-C ) :   1.5749
B( 63-C , 96-H ) :   0.9561 B( 64-C , 65-C ) :   1.0623 B( 64-C , 73-C ) :   0.9418
B( 65-C , 66-C ) :   1.6435 B( 65-C , 71-C ) :   0.9944 B( 66-C , 67-C ) :   1.1369
B( 66-C , 69-C ) :   1.1450 B( 67-C , 68-N ) :   2.9721 B( 69-C , 70-N ) :   2.9634
B( 71-C , 72-C ) :   1.3339 B( 71-C , 78-C ) :   1.3369 B( 72-C , 73-C ) :   0.9409
B( 72-C , 75-C ) :   1.3437 B( 73-C , 74-O ) :   2.2187 B( 75-C , 76-C ) :   1.3441
B( 75-C , 97-H ) :   1.0159 B( 76-C , 77-C ) :   1.4035 B( 76-C , 80-Cl) :   1.0473
B( 77-C , 78-C ) :   1.3648 B( 77-C , 79-Cl) :   1.0778 B( 78-C , 98-H ) :   0.9848

-----------------------------------------------------------------------------
         ABSORPTION SPECTRUM VIA TRANSITION ELECTRIC DIPOLE MOMENTS
-----------------------------------------------------------------------------
State   Energy  Wavelength   fosc         T2         TX        TY        TZ
        (cm-1)    (nm)                  (au**2)     (au)      (au)      (au)
-----------------------------------------------------------------------------
   0   17616.3    567.7   0.001145874   0.02141   0.05905   0.13096   0.02788
   1   17841.6    560.5   0.018707993   0.34520   0.06514  -0.52862   0.24803
   2   19509.3    512.6   0.157513304   2.65798   1.50212   0.40190  -0.49000
   3   22226.5    449.9   0.453103889   6.71122  -2.30773   0.63524   0.99100
   4   24830.1    402.7   0.047775170   0.63343  -0.66457  -0.43774  -0.01303
   5   25998.4    384.6   0.044660219   0.56552   0.49795   0.32476  -0.46054
   6   26540.7    376.8   0.240070796   2.97785   0.24902   1.34843  -1.04765
   7   26772.0    373.5   0.194776359   2.39514  -1.27667  -0.10024   0.86902
   8   26900.5    371.7   0.097197401   1.18951   0.96501   0.31321  -0.40021
   9   26939.3    371.2   0.426321326   5.20987   1.71644   0.73767  -1.31131
  10   28411.6    352.0   0.010871723   0.12597   0.28316  -0.17379   0.12485
  11   29431.0    339.8   0.063506099   0.71037   0.39545   0.09554  -0.73815
  12   29479.4    339.2   0.033129781   0.36998  -0.32276  -0.33510   0.39181
  13   29597.4    337.9   0.039815708   0.44287  -0.42514  -0.24286   0.45071
  14   29989.7    333.4   0.015817931   0.17364  -0.36064  -0.20173   0.05369
  15   30069.9    332.6   0.152752495   1.67237  -1.13895  -0.53418   0.29970
  16   30798.9    324.7   0.063802310   0.68199  -0.44218  -0.68916   0.10733
  17   30942.7    323.2   0.002004983   0.02133  -0.03583   0.10569  -0.09422
  18   31104.3    321.5   0.158365737   1.67616  -0.40103   1.21721   0.18369
  19   31724.4    315.2   0.070560897   0.73223  -0.33636   0.63732  -0.46143
  20   31755.3    314.9   0.001071748   0.01111   0.02466   0.06510   0.07915
  21   31818.2    314.3   0.062033271   0.64184  -0.37357   0.63388  -0.31698
  22   31886.3    313.6   0.018965232   0.19581  -0.42412  -0.12607  -0.00574
  23   31998.2    312.5   0.255364054   2.62730  -0.67817  -1.46672   0.12699
  24   32296.9    309.6   0.454819696   4.63611  -0.30200  -2.10414   0.34278
  25   32796.0    304.9   0.035863154   0.36000  -0.29468  -0.51417   0.09377
  26   33052.2    302.6   0.019140676   0.19065   0.05268   0.43127   0.04333
  27   33098.4    302.1   0.037592458   0.37391   0.37953   0.01172  -0.47930
  28   33306.2    300.2   0.014035659   0.13873  -0.16190   0.30905   0.13043
  29   33453.0    298.9   0.104810605   1.03144  -0.31543  -0.87297   0.41215
  30   33729.7    296.5   0.237964323   2.32261  -1.11852   0.01480   1.03504
  31   33823.0    295.7   0.027020129   0.26300   0.40717   0.02946  -0.31039
  32   34018.7    294.0   0.050964173   0.49320  -0.46040   0.33083   0.41447
  33   34075.5    293.5   0.028154470   0.27201   0.38142   0.33761  -0.11200
  34   34504.7    289.8   0.000590389   0.00563   0.04685  -0.03349   0.04813
  35   34735.5    287.9   0.262524504   2.48812  -0.47198  -0.83135   1.25468
  36   34842.1    287.0   0.177422246   1.67641   0.82395   0.51008  -0.85868
  37   34936.7    286.2   0.185923592   1.75198  -0.31602   1.17912   0.51165
  38   34965.5    286.0   0.291604870   2.74556  -0.48233   1.43652   0.67031
  39   35596.8    280.9   0.048232437   0.44607   0.23545   0.62470  -0.01954
  40   35611.4    280.8   0.043932916   0.40614   0.20791   0.59781  -0.07440
  41   35866.9    278.8   0.274732635   2.52169  -0.69821   1.37778   0.36868
  42   35947.4    278.2   0.070693183   0.64742  -0.52296   0.53458  -0.29691
  43   36209.5    276.2   0.103040424   0.93683  -0.67504  -0.09259   0.68744
  44   36346.6    275.1   0.102209689   0.92577   0.25878  -0.65858   0.65198
  45   36454.7    274.3   0.179844695   1.62413   0.89929  -0.09784  -0.89768
  46   36778.6    271.9   0.004207819   0.03766   0.13740   0.10761  -0.08488
  47   36984.5    270.4   0.000629779   0.00561   0.05214  -0.00098  -0.05372
  48   37353.4    267.7   0.025960433   0.22880  -0.41035   0.23196   0.08130
  49   37576.6    266.1   0.010974938   0.09615  -0.22439   0.17427  -0.12423
  50   37887.7    263.9   0.038420773   0.33384   0.44099   0.35855  -0.10399
  51   38073.9    262.6   0.023518416   0.20336   0.15383  -0.39524  -0.15322
  52   38149.8    262.1   0.025664713   0.22147   0.34535  -0.31589  -0.04916
  53   38469.8    259.9   0.012309367   0.10534  -0.06989   0.22960  -0.21849
  54   38580.3    259.2   0.011085923   0.09460  -0.05673   0.27989   0.11419
  55   38864.8    257.3   0.006414484   0.05434   0.20368  -0.11313  -0.00721
  56   38903.7    257.0   0.381891362   3.23165  -0.83413  -1.50766   0.51268
  57   39512.9    253.1   0.121793342   1.01475   0.80237  -0.59850   0.11289
  58   39553.4    252.8   0.012833526   0.10682  -0.28308   0.15587   0.04887
  59   39778.6    251.4   0.335269384   2.77472  -1.53611   0.64425  -0.00614
  60   39897.3    250.6   0.010210001   0.08425  -0.22863   0.17706   0.02501
  61   39941.1    250.4   0.007543223   0.06217   0.00669  -0.24924   0.00310
  62   40171.9    248.9   0.044840869   0.36747  -0.41978  -0.40127   0.17390
  63   40256.7    248.4   0.012523015   0.10241  -0.28412   0.11375  -0.09354
  64   40305.4    248.1   0.006779844   0.05538  -0.03349   0.21842  -0.08093

FINAL SINGLE POINT ENERGY     -6009.169702204597

DIPOLE MOMENT
-------------
                                X             Y             Z
Electronic contribution:    -11.00471     -23.77171       7.23886
Nuclear contribution   :      8.92890      25.02294      -5.05755
                        -----------------------------------------
Total Dipole Moment    :     -2.07580       1.25122       2.18131
                        -----------------------------------------
Magnitude (a.u.)       :      3.26077
Magnitude (Debye)      :      8.28822

Rotational constants in cm-1:     0.001216     0.000228     0.000202
Rotational constants in MHz :    36.452469     6.843725     6.043629

                             ****ORCA TERMINATED NORMALLY****
TOTAL RUN TIME: 0 days 0 hours 10 minutes 44 seconds 642 msec
