                         Program Version 4.2.0 -  RELEASE  -
|  1> # ORCA input file
|  2> # SCF done       -194.583740632491          0.000906624614
|  3> ! CAM-B3LYP def2-SVP def2/J RIJCOSX Grid4 TightSCF
|  4> %maxcore 5000
|  5> %tddft
|  6>     Mode sTDDFT
|  7>     Ethresh 5.0
|  8>     maxcore 5000
|  9> end
| 10>
| 11> %pal
| 12>   nprocs 6
| 13>   end
| 14> * xyz 0 1
| 15>    C       -7.26231        -4.59942        -0.19028
| 16>    C       -8.23264        -5.44597        -0.65072
| 17>    C       -9.50534        -5.59061        -0.06108
| 18>    N      -10.55300        -5.75433         0.37857
| 19>    C       -8.01498        -6.38902        -1.67541
| 20>    N       -7.86279        -7.24099        -2.42964
| 21>    C       -7.29157        -3.83940         1.05111
| 22>    C       -5.99475        -3.37274         1.33583
| 23>    C       -5.72578        -2.65798         2.48569
| 24>    C       -6.76587        -2.41552         3.37297
| 25>    C       -8.05858        -2.87132         3.09153
| 26>    C       -8.33107        -3.58058         1.92947
| 27>   Cl       -9.33388        -2.55439         4.19536
| 28>   Cl       -6.45918        -1.55104         4.82510
| 29>    C       -5.06980        -3.76176         0.25079
| 30>    O       -3.90071        -3.48009         0.12061
| 31>    C       -5.93588        -4.43924        -0.75809
| 32>    C       -5.48656        -4.64237        -2.01342
| 33>    C       -6.23464        -4.80203        -3.24839
| 34>    S       -7.31663        -3.58180        -3.57771
| 35>    C       -5.94350        -5.81516        -4.17700
| 36>    C       -5.28527        -6.96416        -3.84049
| 37>    S       -4.94109        -8.25627        -4.95934
| 38>    C       -4.25392        -9.16859        -3.65174
| 39>    C       -4.31682        -8.48597        -2.48850
| 40>    O       -4.87077        -7.24575        -2.60345
| 41>    C       -3.92244        -8.93579        -1.16538
| 42>    C       -4.50726        -8.38470        -0.05409
| 43>    C       -4.16610        -8.86491         1.23389
| 44>    C       -4.60841        -8.53211         2.50546
| 45>    C       -5.59110        -7.50639         2.97066
| 46>    C       -4.89255        -6.14944         3.18511
| 47>    N       -4.35742        -5.62364         1.94050
| 48>    C       -6.81659        -7.33819         2.06532
| 49>    N       -7.87032        -6.66199         2.80539
| 50>    C       -3.87063        -9.36245         3.43245
| 51>    C       -3.89509        -9.42937         4.77694
| 52>    C       -3.04897       -10.39834         5.52391
| 53>    C       -2.10516       -11.19278         4.67538
| 54>    C       -2.09650       -11.11752         3.33169
| 55>    C       -2.96448       -10.22308         2.66184
| 56>    C       -3.15948        -9.92169         1.33057
| 57>    C       -2.56900       -10.45066         0.15963
| 58>    C       -2.94658        -9.97870        -1.05331
| 59>    C       -3.95999       -11.38793         6.20728
| 60>    C       -3.88540       -11.70907         7.49751
| 61>    C       -4.75452       -12.68647         8.12811
| 62>    S       -6.28610       -12.93310         7.53810
| 63>    C       -4.32897       -13.42645         9.26022
| 64>    C       -3.07419       -13.54144         9.76312
| 65>    S       -1.57524       -12.82312         9.15606
| 66>    C       -0.70522       -13.63267        10.40067
| 67>    C       -1.52984       -14.38096        11.18714
| 68>    O       -2.83376       -14.31247        10.83165
| 69>    C       -1.06944       -15.15506        12.28918
| 70>    C       -1.74872       -16.00924        13.10421
| 71>    C       -1.15417       -16.71883        14.22882
| 72>    C        0.14080       -16.63332        14.67443
| 73>    C        0.64664       -17.35436        15.77827
| 74>    N        1.12928       -17.90713        16.66075
| 75>    C        1.16278       -15.83293        14.12286
| 76>    N        2.04975       -15.20913        13.74224
| 77>    C       -2.19256       -17.54932        14.82772
| 78>    C       -3.38994       -17.37239        14.11375
| 79>    C       -3.18244       -16.41840        13.00408
| 80>    O       -4.00808       -16.08304        12.19033
| 81>    C       -4.55006       -18.03726        14.45475
| 82>    C       -4.51875       -18.90367        15.54037
| 83>    C       -3.33026       -19.08761        16.25894
| 84>    C       -2.16422       -18.41573        15.91031
| 85>   Cl       -3.30232       -20.16199        17.59665
| 86>   Cl       -5.93853       -19.74974        15.99931
| 87>    H       -4.73004        -2.29939         2.69319
| 88>    H       -9.33996        -3.90486         1.73447
| 89>    H       -4.41781        -4.48685        -2.15046
| 90>    H       -6.34995        -5.73292        -5.17156
| 91>    H       -3.88963       -10.15893        -3.82083
| 92>    H       -5.23632        -7.59941        -0.17167
| 93>    H       -5.96088        -7.82419         3.95249
| 94>    H       -4.11422        -6.28287         3.95463
| 95>    H       -5.63340        -5.43600         3.55758
| 96>    H       -3.82458        -6.34056         1.45684
| 97>    H       -3.72436        -4.85513         2.13055
| 98>    H       -7.11746        -8.32577         1.67625
| 99>    H       -6.54972        -6.69825         1.22367
|100>    H       -8.15541        -7.22617         3.60031
|101>    H       -8.69056        -6.53714         2.22170
|102>    H       -4.55408        -8.81397         5.37424
|103>    H       -2.48497        -9.86278         6.29937
|104>    H       -1.45009       -11.86506         5.20785
|105>    H       -1.41406       -11.72055         2.75064
|106>    H       -1.82415       -11.22730         0.24622
|107>    H       -2.49912       -10.36385        -1.95559
|108>    H       -4.67192       -11.88715         5.56483
|109>    H       -3.16335       -11.21783         8.13840
|110>    H       -5.07729       -14.02932         9.75743
|111>    H        0.35531       -13.52215        10.49292
|112>    H       -0.01316       -15.01487        12.46916
|113>    H       -5.45614       -17.88490        13.88976
|114>    H       -1.27071       -18.58594        16.48760
|115> *
|116>
|117>                          ****END OF INPUT****

CARTESIAN COORDINATES (ANGSTROEM)
---------------------------------
  C     -7.262310   -4.599420   -0.190280
  C     -8.232640   -5.445970   -0.650720
  C     -9.505340   -5.590610   -0.061080
  N    -10.553000   -5.754330    0.378570
  C     -8.014980   -6.389020   -1.675410
  N     -7.862790   -7.240990   -2.429640
  C     -7.291570   -3.839400    1.051110
  C     -5.994750   -3.372740    1.335830
  C     -5.725780   -2.657980    2.485690
  C     -6.765870   -2.415520    3.372970
  C     -8.058580   -2.871320    3.091530
  C     -8.331070   -3.580580    1.929470
  Cl    -9.333880   -2.554390    4.195360
  Cl    -6.459180   -1.551040    4.825100
  C     -5.069800   -3.761760    0.250790
  O     -3.900710   -3.480090    0.120610
  C     -5.935880   -4.439240   -0.758090
  C     -5.486560   -4.642370   -2.013420
  C     -6.234640   -4.802030   -3.248390
  S     -7.316630   -3.581800   -3.577710
  C     -5.943500   -5.815160   -4.177000
  C     -5.285270   -6.964160   -3.840490
  S     -4.941090   -8.256270   -4.959340
  C     -4.253920   -9.168590   -3.651740
  C     -4.316820   -8.485970   -2.488500
  O     -4.870770   -7.245750   -2.603450
  C     -3.922440   -8.935790   -1.165380
  C     -4.507260   -8.384700   -0.054090
  C     -4.166100   -8.864910    1.233890
  C     -4.608410   -8.532110    2.505460
  C     -5.591100   -7.506390    2.970660
  C     -4.892550   -6.149440    3.185110
  N     -4.357420   -5.623640    1.940500
  C     -6.816590   -7.338190    2.065320
  N     -7.870320   -6.661990    2.805390
  C     -3.870630   -9.362450    3.432450
  C     -3.895090   -9.429370    4.776940
  C     -3.048970  -10.398340    5.523910
  C     -2.105160  -11.192780    4.675380
  C     -2.096500  -11.117520    3.331690
  C     -2.964480  -10.223080    2.661840
  C     -3.159480   -9.921690    1.330570
  C     -2.569000  -10.450660    0.159630
  C     -2.946580   -9.978700   -1.053310
  C     -3.959990  -11.387930    6.207280
  C     -3.885400  -11.709070    7.497510
  C     -4.754520  -12.686470    8.128110
  S     -6.286100  -12.933100    7.538100
  C     -4.328970  -13.426450    9.260220
  C     -3.074190  -13.541440    9.763120
  S     -1.575240  -12.823120    9.156060
  C     -0.705220  -13.632670   10.400670
  C     -1.529840  -14.380960   11.187140
  O     -2.833760  -14.312470   10.831650
  C     -1.069440  -15.155060   12.289180
  C     -1.748720  -16.009240   13.104210
  C     -1.154170  -16.718830   14.228820
  C      0.140800  -16.633320   14.674430
  C      0.646640  -17.354360   15.778270
  N      1.129280  -17.907130   16.660750
  C      1.162780  -15.832930   14.122860
  N      2.049750  -15.209130   13.742240
  C     -2.192560  -17.549320   14.827720
  C     -3.389940  -17.372390   14.113750
  C     -3.182440  -16.418400   13.004080
  O     -4.008080  -16.083040   12.190330
  C     -4.550060  -18.037260   14.454750
  C     -4.518750  -18.903670   15.540370
  C     -3.330260  -19.087610   16.258940
  C     -2.164220  -18.415730   15.910310
  Cl    -3.302320  -20.161990   17.596650
  Cl    -5.938530  -19.749740   15.999310
  H     -4.730040   -2.299390    2.693190
  H     -9.339960   -3.904860    1.734470
  H     -4.417810   -4.486850   -2.150460
  H     -6.349950   -5.732920   -5.171560
  H     -3.889630  -10.158930   -3.820830
  H     -5.236320   -7.599410   -0.171670
  H     -5.960880   -7.824190    3.952490
  H     -4.114220   -6.282870    3.954630
  H     -5.633400   -5.436000    3.557580
  H     -3.824580   -6.340560    1.456840
  H     -3.724360   -4.855130    2.130550
  H     -7.117460   -8.325770    1.676250
  H     -6.549720   -6.698250    1.223670
  H     -8.155410   -7.226170    3.600310
  H     -8.690560   -6.537140    2.221700
  H     -4.554080   -8.813970    5.374240
  H     -2.484970   -9.862780    6.299370
  H     -1.450090  -11.865060    5.207850
  H     -1.414060  -11.720550    2.750640
  H     -1.824150  -11.227300    0.246220
  H     -2.499120  -10.363850   -1.955590
  H     -4.671920  -11.887150    5.564830
  H     -3.163350  -11.217830    8.138400
  H     -5.077290  -14.029320    9.757430
  H      0.355310  -13.522150   10.492920
  H     -0.013160  -15.014870   12.469160
  H     -5.456140  -17.884900   13.889760
  H     -1.270710  -18.585940   16.487600

 Total Charge           Charge          ....    0
 Multiplicity           Mult            ....    1
 Number of Electrons    NEL             ....  558
 Basis Dimension        Dim             .... 1180

ORBITAL ENERGIES
----------------

  NO   OCC          E(Eh)            E(eV)
   0   2.0000    -101.611289     -2764.9837
   1   2.0000    -101.609653     -2764.9392
   2   2.0000    -101.593748     -2764.5064
   3   2.0000    -101.589613     -2764.3939
   4   2.0000     -89.003735     -2421.9148
   5   2.0000     -88.976897     -2421.1845
   6   2.0000     -88.877400     -2418.4770
   7   2.0000     -88.876782     -2418.4602
   8   2.0000     -19.318493      -525.6829
   9   2.0000     -19.315353      -525.5975
  10   2.0000     -19.234370      -523.3938
  11   2.0000     -19.205195      -522.5999
  12   2.0000     -14.440402      -392.9433
  13   2.0000     -14.433766      -392.7627
  14   2.0000     -14.416051      -392.2807
  15   2.0000     -14.410455      -392.1284
  16   2.0000     -14.388656      -391.5352
  17   2.0000     -14.380275      -391.3072
  18   2.0000     -10.401181      -283.0305
  19   2.0000     -10.391085      -282.7558
  20   2.0000     -10.389674      -282.7174
  21   2.0000     -10.388940      -282.6974
  22   2.0000     -10.369183      -282.1598
  23   2.0000     -10.368678      -282.1461
  24   2.0000     -10.366828      -282.0957
  25   2.0000     -10.364958      -282.0448
  26   2.0000     -10.364535      -282.0333
  27   2.0000     -10.362419      -281.9758
  28   2.0000     -10.354149      -281.7507
  29   2.0000     -10.347765      -281.5770
  30   2.0000     -10.347362      -281.5660
  31   2.0000     -10.343739      -281.4674
  32   2.0000     -10.342442      -281.4321
  33   2.0000     -10.338401      -281.3222
  34   2.0000     -10.336424      -281.2684
  35   2.0000     -10.335676      -281.2480
  36   2.0000     -10.330569      -281.1091
  37   2.0000     -10.329769      -281.0873
  38   2.0000     -10.328725      -281.0589
  39   2.0000     -10.326815      -281.0069
  40   2.0000     -10.322306      -280.8842
  41   2.0000     -10.321603      -280.8651
  42   2.0000     -10.318401      -280.7780
  43   2.0000     -10.317016      -280.7403
  44   2.0000     -10.315422      -280.6969
  45   2.0000     -10.313716      -280.6505
  46   2.0000     -10.313061      -280.6326
  47   2.0000     -10.311371      -280.5867
  48   2.0000     -10.307181      -280.4726
  49   2.0000     -10.302968      -280.3580
  50   2.0000     -10.301171      -280.3091
  51   2.0000     -10.299055      -280.2515
  52   2.0000     -10.299012      -280.2504
  53   2.0000     -10.298331      -280.2318
  54   2.0000     -10.292432      -280.0713
  55   2.0000     -10.289402      -279.9889
  56   2.0000     -10.288214      -279.9565
  57   2.0000     -10.285611      -279.8857
  58   2.0000     -10.285335      -279.8782
  59   2.0000     -10.284698      -279.8609
  60   2.0000     -10.284182      -279.8468
  61   2.0000     -10.284058      -279.8434
  62   2.0000     -10.283870      -279.8383
  63   2.0000     -10.283303      -279.8229
  64   2.0000     -10.283010      -279.8149
  65   2.0000     -10.281567      -279.7757
  66   2.0000     -10.280136      -279.7367
  67   2.0000     -10.275684      -279.6156
  68   2.0000     -10.274777      -279.5909
  69   2.0000     -10.274755      -279.5903
  70   2.0000     -10.273580      -279.5583
  71   2.0000     -10.271296      -279.4962
  72   2.0000      -9.566283      -260.3118
  73   2.0000      -9.564702      -260.2688
  74   2.0000      -9.548728      -259.8341
  75   2.0000      -9.544669      -259.7236
  76   2.0000      -8.099641      -220.4024
  77   2.0000      -8.073790      -219.6990
  78   2.0000      -7.973780      -216.9776
  79   2.0000      -7.972798      -216.9509
  80   2.0000      -7.336700      -199.6418
  81   2.0000      -7.335101      -199.5982
  82   2.0000      -7.326560      -199.3658
  83   2.0000      -7.325759      -199.3440
  84   2.0000      -7.324957      -199.3222
  85   2.0000      -7.324203      -199.3017
  86   2.0000      -7.319075      -199.1622
  87   2.0000      -7.315035      -199.0522
  88   2.0000      -7.309022      -198.8886
  89   2.0000      -7.308299      -198.8689
  90   2.0000      -7.304893      -198.7762
  91   2.0000      -7.304269      -198.7593
  92   2.0000      -6.069337      -165.1551
  93   2.0000      -6.064969      -165.0362
  94   2.0000      -6.060845      -164.9240
  95   2.0000      -6.043545      -164.4532
  96   2.0000      -6.039299      -164.3377
  97   2.0000      -6.034650      -164.2112
  98   2.0000      -5.942927      -161.7153
  99   2.0000      -5.942205      -161.6956
 100   2.0000      -5.941944      -161.6885
 101   2.0000      -5.940613      -161.6523
 102   2.0000      -5.933063      -161.4468
 103   2.0000      -5.932181      -161.4229
 104   2.0000      -1.248312       -33.9683
 105   2.0000      -1.237482       -33.6736
 106   2.0000      -1.151518       -31.3344
 107   2.0000      -1.122380       -30.5415
 108   2.0000      -1.045892       -28.4602
 109   2.0000      -1.034775       -28.1577
 110   2.0000      -1.022207       -27.8157
 111   2.0000      -1.014915       -27.6172
 112   2.0000      -1.011471       -27.5235
 113   2.0000      -1.008518       -27.4432
 114   2.0000      -0.997015       -27.1302
 115   2.0000      -0.992780       -27.0149
 116   2.0000      -0.982991       -26.7486
 117   2.0000      -0.974917       -26.5288
 118   2.0000      -0.973669       -26.4949
 119   2.0000      -0.973168       -26.4813
 120   2.0000      -0.966437       -26.2981
 121   2.0000      -0.961922       -26.1752
 122   2.0000      -0.954773       -25.9807
 123   2.0000      -0.953096       -25.9351
 124   2.0000      -0.949330       -25.8326
 125   2.0000      -0.948161       -25.8008
 126   2.0000      -0.944451       -25.6998
 127   2.0000      -0.933577       -25.4039
 128   2.0000      -0.925237       -25.1770
 129   2.0000      -0.918825       -25.0025
 130   2.0000      -0.906930       -24.6788
 131   2.0000      -0.895913       -24.3790
 132   2.0000      -0.884796       -24.0765
 133   2.0000      -0.880627       -23.9631
 134   2.0000      -0.874681       -23.8013
 135   2.0000      -0.869049       -23.6480
 136   2.0000      -0.851798       -23.1786
 137   2.0000      -0.850263       -23.1368
 138   2.0000      -0.849022       -23.1031
 139   2.0000      -0.840399       -22.8684
 140   2.0000      -0.832860       -22.6633
 141   2.0000      -0.819240       -22.2926
 142   2.0000      -0.804125       -21.8814
 143   2.0000      -0.788877       -21.4664
 144   2.0000      -0.782362       -21.2892
 145   2.0000      -0.776777       -21.1372
 146   2.0000      -0.771776       -21.0011
 147   2.0000      -0.768138       -20.9021
 148   2.0000      -0.760630       -20.6978
 149   2.0000      -0.754145       -20.5213
 150   2.0000      -0.743944       -20.2438
 151   2.0000      -0.737250       -20.0616
 152   2.0000      -0.730946       -19.8900
 153   2.0000      -0.730236       -19.8707
 154   2.0000      -0.711180       -19.3522
 155   2.0000      -0.710176       -19.3249
 156   2.0000      -0.702886       -19.1265
 157   2.0000      -0.696184       -18.9441
 158   2.0000      -0.690156       -18.7801
 159   2.0000      -0.686705       -18.6862
 160   2.0000      -0.685097       -18.6424
 161   2.0000      -0.680784       -18.5251
 162   2.0000      -0.676705       -18.4141
 163   2.0000      -0.670764       -18.2524
 164   2.0000      -0.663175       -18.0459
 165   2.0000      -0.660716       -17.9790
 166   2.0000      -0.649073       -17.6622
 167   2.0000      -0.640461       -17.4278
 168   2.0000      -0.634563       -17.2673
 169   2.0000      -0.633509       -17.2386
 170   2.0000      -0.623983       -16.9794
 171   2.0000      -0.614307       -16.7161
 172   2.0000      -0.611742       -16.6464
 173   2.0000      -0.606275       -16.4976
 174   2.0000      -0.604893       -16.4600
 175   2.0000      -0.597629       -16.2623
 176   2.0000      -0.597169       -16.2498
 177   2.0000      -0.591806       -16.1039
 178   2.0000      -0.590590       -16.0708
 179   2.0000      -0.586639       -15.9632
 180   2.0000      -0.582567       -15.8525
 181   2.0000      -0.578430       -15.7399
 182   2.0000      -0.574751       -15.6398
 183   2.0000      -0.573217       -15.5980
 184   2.0000      -0.569746       -15.5036
 185   2.0000      -0.564254       -15.3541
 186   2.0000      -0.560503       -15.2521
 187   2.0000      -0.558585       -15.1999
 188   2.0000      -0.554997       -15.1022
 189   2.0000      -0.552452       -15.0330
 190   2.0000      -0.550746       -14.9866
 191   2.0000      -0.545732       -14.8501
 192   2.0000      -0.544148       -14.8070
 193   2.0000      -0.542583       -14.7644
 194   2.0000      -0.539944       -14.6926
 195   2.0000      -0.538355       -14.6494
 196   2.0000      -0.533610       -14.5203
 197   2.0000      -0.528720       -14.3872
 198   2.0000      -0.527219       -14.3464
 199   2.0000      -0.526896       -14.3376
 200   2.0000      -0.523217       -14.2375
 201   2.0000      -0.521292       -14.1851
 202   2.0000      -0.519106       -14.1256
 203   2.0000      -0.518450       -14.1077
 204   2.0000      -0.511975       -13.9315
 205   2.0000      -0.511379       -13.9153
 206   2.0000      -0.510805       -13.8997
 207   2.0000      -0.503197       -13.6927
 208   2.0000      -0.502435       -13.6720
 209   2.0000      -0.500280       -13.6133
 210   2.0000      -0.498353       -13.5609
 211   2.0000      -0.496843       -13.5198
 212   2.0000      -0.494384       -13.4529
 213   2.0000      -0.492541       -13.4027
 214   2.0000      -0.488389       -13.2898
 215   2.0000      -0.486558       -13.2399
 216   2.0000      -0.482428       -13.1275
 217   2.0000      -0.477342       -12.9891
 218   2.0000      -0.474314       -12.9067
 219   2.0000      -0.472843       -12.8667
 220   2.0000      -0.472104       -12.8466
 221   2.0000      -0.470441       -12.8013
 222   2.0000      -0.464731       -12.6460
 223   2.0000      -0.462110       -12.5747
 224   2.0000      -0.461865       -12.5680
 225   2.0000      -0.459565       -12.5054
 226   2.0000      -0.455724       -12.4009
 227   2.0000      -0.455037       -12.3822
 228   2.0000      -0.452563       -12.3149
 229   2.0000      -0.449216       -12.2238
 230   2.0000      -0.448551       -12.2057
 231   2.0000      -0.447200       -12.1689
 232   2.0000      -0.446836       -12.1590
 233   2.0000      -0.444243       -12.0885
 234   2.0000      -0.443282       -12.0623
 235   2.0000      -0.440081       -11.9752
 236   2.0000      -0.439282       -11.9535
 237   2.0000      -0.437237       -11.8978
 238   2.0000      -0.431594       -11.7443
 239   2.0000      -0.430387       -11.7114
 240   2.0000      -0.429085       -11.6760
 241   2.0000      -0.428658       -11.6644
 242   2.0000      -0.425027       -11.5656
 243   2.0000      -0.423030       -11.5112
 244   2.0000      -0.420592       -11.4449
 245   2.0000      -0.420484       -11.4420
 246   2.0000      -0.419321       -11.4103
 247   2.0000      -0.416875       -11.3438
 248   2.0000      -0.414812       -11.2876
 249   2.0000      -0.413036       -11.2393
 250   2.0000      -0.412375       -11.2213
 251   2.0000      -0.404292       -11.0013
 252   2.0000      -0.401615       -10.9285
 253   2.0000      -0.399545       -10.8722
 254   2.0000      -0.393218       -10.7000
 255   2.0000      -0.392435       -10.6787
 256   2.0000      -0.392016       -10.6673
 257   2.0000      -0.382636       -10.4121
 258   2.0000      -0.379536       -10.3277
 259   2.0000      -0.373931       -10.1752
 260   2.0000      -0.360613        -9.8128
 261   2.0000      -0.358568        -9.7571
 262   2.0000      -0.352936        -9.6039
 263   2.0000      -0.349604        -9.5132
 264   2.0000      -0.341131        -9.2827
 265   2.0000      -0.337209        -9.1759
 266   2.0000      -0.331897        -9.0314
 267   2.0000      -0.326300        -8.8791
 268   2.0000      -0.322423        -8.7736
 269   2.0000      -0.319531        -8.6949
 270   2.0000      -0.316821        -8.6211
 271   2.0000      -0.306493        -8.3401
 272   2.0000      -0.303108        -8.2480
 273   2.0000      -0.294069        -8.0020
 274   2.0000      -0.274428        -7.4676
 275   2.0000      -0.268697        -7.3116
 276   2.0000      -0.267897        -7.2899
 277   2.0000      -0.256356        -6.9758
 278   2.0000      -0.236133        -6.4255
 279   0.0000      -0.114351        -3.1117
 280   0.0000      -0.082373        -2.2415
 281   0.0000      -0.080810        -2.1990
 282   0.0000      -0.079441        -2.1617
 283   0.0000      -0.060963        -1.6589

MULLIKEN ATOMIC CHARGES
-----------------------
   0 C :    0.312159
   1 C :   -0.330353
   2 C :   -0.203899
   3 N :    0.152034
   4 C :   -0.185499
   5 N :    0.155104
   6 C :    0.032099
   7 C :    0.024790
   8 C :   -0.075058
   9 C :    0.072892
  10 C :    0.053250
  11 C :   -0.010165
  12 Cl:   -0.048443
  13 Cl:   -0.054588
  14 C :    0.188003
  15 O :   -0.157238
  16 C :   -0.117758
  17 C :    0.044603
  18 C :   -0.120988
  19 S :   -0.146734
  20 C :    0.053781
  21 C :    0.113629
  22 S :    0.136542
  23 C :   -0.126762
  24 C :    0.206898
  25 O :   -0.198782
  26 C :    0.090905
  27 C :   -0.070551
  28 C :    0.025009
  29 C :   -0.031296
  30 C :   -0.081415
  31 C :    0.186587
  32 N :   -0.229933
  33 C :    0.112093
  34 N :   -0.213083
  35 C :    0.100416
  36 C :   -0.130683
  37 C :    0.112962
  38 C :   -0.026270
  39 C :    0.027186
  40 C :    0.016226
  41 C :    0.030524
  42 C :    0.002015
  43 C :   -0.016092
  44 C :    0.015402
  45 C :   -0.041074
  46 C :   -0.065345
  47 S :   -0.165863
  48 C :    0.009286
  49 C :    0.107592
  50 S :    0.115035
  51 C :   -0.075109
  52 C :    0.195263
  53 O :   -0.155034
  54 C :   -0.041838
  55 C :   -0.052699
  56 C :    0.310796
  57 C :   -0.340995
  58 C :   -0.188876
  59 N :    0.167540
  60 C :   -0.177712
  61 N :    0.149736
  62 C :    0.034596
  63 C :   -0.023824
  64 C :    0.142619
  65 O :   -0.106264
  66 C :   -0.025166
  67 C :    0.063602
  68 C :    0.045342
  69 C :   -0.008824
  70 Cl:   -0.027582
  71 Cl:   -0.032957
  72 H :   -0.011863
  73 H :   -0.007144
  74 H :    0.042835
  75 H :   -0.002941
  76 H :    0.042716
  77 H :   -0.024968
  78 H :   -0.025286
  79 H :   -0.024170
  80 H :    0.007744
  81 H :    0.098730
  82 H :    0.112278
  83 H :    0.003083
  84 H :    0.030695
  85 H :    0.093526
  86 H :    0.093610
  87 H :    0.006601
  88 H :    0.024143
  89 H :   -0.012466
  90 H :   -0.032757
  91 H :   -0.030594
  92 H :   -0.029543
  93 H :    0.026597
  94 H :    0.011116
  95 H :    0.026286
  96 H :    0.066972
  97 H :    0.005550
  98 H :    0.004878
  99 H :    0.002609
Sum of atomic charges:   -0.0000000

LOEWDIN ATOMIC CHARGES
----------------------
   0 C :    0.083786
   1 C :   -0.135840
   2 C :   -0.018307
   3 N :   -0.054242
   4 C :   -0.014046
   5 N :   -0.054718
   6 C :   -0.011016
   7 C :   -0.028453
   8 C :   -0.013893
   9 C :   -0.131607
  10 C :   -0.132604
  11 C :   -0.000383
  12 Cl:    0.154292
  13 Cl:    0.151733
  14 C :    0.090960
  15 O :   -0.158998
  16 C :   -0.078467
  17 C :    0.057173
  18 C :   -0.136816
  19 S :    0.005480
  20 C :   -0.142781
  21 C :   -0.036867
  22 S :    0.424540
  23 C :   -0.199369
  24 C :    0.043008
  25 O :    0.008229
  26 C :   -0.041705
  27 C :   -0.004530
  28 C :   -0.025526
  29 C :   -0.034517
  30 C :   -0.039093
  31 C :    0.030808
  32 N :   -0.085551
  33 C :    0.022357
  34 N :   -0.113902
  35 C :   -0.014540
  36 C :    0.068870
  37 C :   -0.030750
  38 C :   -0.025249
  39 C :   -0.013651
  40 C :   -0.029985
  41 C :   -0.030920
  42 C :   -0.000742
  43 C :   -0.029097
  44 C :    0.049322
  45 C :   -0.091106
  46 C :   -0.133724
  47 S :    0.001601
  48 C :   -0.126060
  49 C :   -0.047684
  50 S :    0.431091
  51 C :   -0.154815
  52 C :    0.013459
  53 O :    0.010820
  54 C :    0.042982
  55 C :   -0.074177
  56 C :    0.074034
  57 C :   -0.128607
  58 C :   -0.020363
  59 N :   -0.036551
  60 C :   -0.019674
  61 N :   -0.044972
  62 C :   -0.016883
  63 C :   -0.043305
  64 C :    0.075875
  65 O :   -0.113527
  66 C :    0.003819
  67 C :   -0.130515
  68 C :   -0.128888
  69 C :   -0.011044
  70 Cl:    0.168017
  71 Cl:    0.167307
  72 H :    0.039776
  73 H :    0.041202
  74 H :    0.052932
  75 H :    0.039560
  76 H :    0.035236
  77 H :    0.030706
  78 H :    0.025712
  79 H :   -0.000318
  80 H :    0.016847
  81 H :    0.056498
  82 H :    0.061141
  83 H :    0.005718
  84 H :    0.012769
  85 H :    0.054986
  86 H :    0.052978
  87 H :    0.033614
  88 H :    0.052242
  89 H :    0.024719
  90 H :    0.031080
  91 H :    0.029900
  92 H :    0.025923
  93 H :    0.031081
  94 H :    0.011952
  95 H :    0.051912
  96 H :    0.046120
  97 H :    0.053085
  98 H :    0.048118
  99 H :    0.045009

  Mayer bond orders larger than 0.100000
B(  0-C ,  1-C ) :   1.6491 B(  0-C ,  6-C ) :   1.0232 B(  0-C , 16-C ) :   1.0294
B(  1-C ,  2-C ) :   1.1516 B(  1-C ,  4-C ) :   1.1667 B(  2-C ,  3-N ) :   2.9313
B(  4-C ,  5-N ) :   2.9634 B(  6-C ,  7-C ) :   1.3434 B(  6-C , 11-C ) :   1.3248
B(  7-C ,  8-C ) :   1.3381 B(  7-C , 14-C ) :   0.9101 B(  8-C ,  9-C ) :   1.3405
B(  8-C , 11-C ) :   0.1002 B(  8-C , 72-H ) :   1.0168 B(  9-C , 10-C ) :   1.4120
B(  9-C , 13-Cl) :   1.0367 B( 10-C , 11-C ) :   1.3685 B( 10-C , 12-Cl) :   1.0603
B( 11-C , 73-H ) :   0.9890 B( 14-C , 15-O ) :   2.2496 B( 14-C , 16-C ) :   0.9312
B( 16-C , 17-C ) :   1.8015 B( 17-C , 18-C ) :   0.9810 B( 17-C , 74-H ) :   0.9115
B( 18-C , 19-S ) :   1.5874 B( 18-C , 20-C ) :   1.2241 B( 20-C , 21-C ) :   1.5317
B( 20-C , 75-H ) :   0.9460 B( 21-C , 22-S ) :   1.1031 B( 21-C , 25-O ) :   1.1270
B( 22-S , 23-C ) :   1.0351 B( 23-C , 24-C ) :   1.7088 B( 23-C , 76-H ) :   0.9564
B( 24-C , 25-O ) :   1.0693 B( 24-C , 26-C ) :   1.0169 B( 26-C , 27-C ) :   1.5453
B( 26-C , 43-C ) :   1.1326 B( 27-C , 28-C ) :   1.1045 B( 27-C , 77-H ) :   1.0010
B( 28-C , 29-C ) :   1.4744 B( 28-C , 41-C ) :   1.1225 B( 29-C , 30-C ) :   1.0191
B( 29-C , 35-C ) :   1.1143 B( 30-C , 31-C ) :   1.0420 B( 30-C , 33-C ) :   1.0338
B( 30-C , 78-H ) :   0.8853 B( 31-C , 32-N ) :   1.0613 B( 31-C , 79-H ) :   0.9302
B( 31-C , 80-H ) :   0.9259 B( 32-N , 81-H ) :   0.9519 B( 32-N , 82-H ) :   0.9383
B( 33-C , 34-N ) :   1.0993 B( 33-C , 83-H ) :   0.9525 B( 33-C , 84-H ) :   0.9096
B( 34-N , 85-H ) :   0.9627 B( 34-N , 86-H ) :   0.9509 B( 35-C , 36-C ) :   1.6585
B( 35-C , 40-C ) :   1.0465 B( 36-C , 37-C ) :   0.9673 B( 36-C , 87-H ) :   0.9721
B( 37-C , 38-C ) :   0.9901 B( 37-C , 44-C ) :   0.9464 B( 37-C , 88-H ) :   0.8790
B( 38-C , 39-C ) :   1.7137 B( 38-C , 89-H ) :   0.9697 B( 39-C , 40-C ) :   1.1330
B( 39-C , 90-H ) :   0.9887 B( 40-C , 41-C ) :   1.4445 B( 41-C , 42-C ) :   1.1432
B( 42-C , 43-C ) :   1.6096 B( 42-C , 91-H ) :   0.9918 B( 43-C , 92-H ) :   0.9841
B( 44-C , 45-C ) :   1.8378 B( 44-C , 93-H ) :   0.9576 B( 45-C , 46-C ) :   1.0450
B( 45-C , 94-H ) :   0.9392 B( 46-C , 47-S ) :   1.6321 B( 46-C , 48-C ) :   1.1549
B( 48-C , 49-C ) :   1.6069 B( 48-C , 95-H ) :   0.9595 B( 49-C , 50-S ) :   1.0225
B( 49-C , 53-O ) :   1.1219 B( 50-S , 51-C ) :   1.0871 B( 51-C , 52-C ) :   1.5816
B( 51-C , 96-H ) :   0.9591 B( 52-C , 53-O ) :   1.1064 B( 52-C , 54-C ) :   1.1685
B( 54-C , 55-C ) :   1.6060 B( 54-C , 97-H ) :   0.9241 B( 55-C , 56-C ) :   1.0660
B( 55-C , 64-C ) :   0.9008 B( 56-C , 57-C ) :   1.6382 B( 56-C , 62-C ) :   1.0006
B( 57-C , 58-C ) :   1.1414 B( 57-C , 60-C ) :   1.1444 B( 58-C , 59-N ) :   2.9716
B( 60-C , 61-N ) :   2.9490 B( 62-C , 63-C ) :   1.3253 B( 62-C , 69-C ) :   1.3336
B( 63-C , 64-C ) :   0.9405 B( 63-C , 66-C ) :   1.3452 B( 64-C , 65-O ) :   2.2929
B( 66-C , 67-C ) :   1.3440 B( 66-C , 98-H ) :   1.0165 B( 67-C , 68-C ) :   1.3969
B( 67-C , 71-Cl) :   1.0565 B( 68-C , 69-C ) :   1.3678 B( 68-C , 70-Cl) :   1.0839
B( 69-C , 99-H ) :   0.9842

-----------------------------------------------------------------------------
         ABSORPTION SPECTRUM VIA TRANSITION ELECTRIC DIPOLE MOMENTS
-----------------------------------------------------------------------------
State   Energy  Wavelength   fosc         T2         TX        TY        TZ
        (cm-1)    (nm)                  (au**2)     (au)      (au)      (au)
-----------------------------------------------------------------------------
   0   15032.0    665.2   0.038102295   0.83447  -0.68464   0.59866   0.08566
   1   17515.3    570.9   0.019177123   0.36045   0.17689  -0.15555  -0.55223
   2   17801.3    561.8   0.026775528   0.49518  -0.17381   0.38472  -0.56299
   3   18095.7    552.6   0.044918630   0.81719  -0.32015   0.82442  -0.18717
   4   18190.1    549.7   0.305600303   5.53087  -0.49286   1.25643  -1.92597
   5   18488.5    540.9   0.075612356   1.34638  -0.12310   0.65688  -0.94854
   6   20726.1    482.5   0.009972558   0.15840   0.05162  -0.39104   0.05320
   7   21654.8    461.8   0.016146325   0.24547   0.16807  -0.25018   0.39323
   8   22909.9    436.5   0.027193019   0.39076  -0.30458   0.21327  -0.50250
   9   23278.5    429.6   0.222415782   3.14547   0.59925  -1.13060   1.22806
  10   23633.5    423.1   0.162130669   2.25847   0.03488  -0.36726   1.45683
  11   24613.8    406.3   0.009939063   0.13294   0.34078   0.12832  -0.01833
  12   24984.5    400.2   0.035613587   0.46927  -0.37066   0.57209  -0.06777
  13   25052.0    399.2   0.000230106   0.00302   0.02965  -0.03660  -0.02837
  14   25885.6    386.3   0.000111553   0.00142   0.02925   0.02371  -0.00090
  15   25933.5    385.6   0.003037249   0.03856   0.03481   0.13423  -0.13902
  16   26826.2    372.8   0.034536888   0.42384   0.27885   0.23232   0.54047
  17   27297.1    366.3   0.010886366   0.13129  -0.24997   0.06877  -0.25313
  18   27707.2    360.9   0.057601521   0.68441   0.66426  -0.18910   0.45542
  19   27973.2    357.5   0.073274039   0.86235  -0.48198   0.69510  -0.38324
  20   28128.9    355.5   0.007008474   0.08202   0.04632  -0.24553  -0.13997
  21   28214.8    354.4   0.004310313   0.05029   0.04781   0.09279   0.19849
  22   28332.9    352.9   0.017948625   0.20855  -0.20547  -0.11872  -0.39018
  23   28469.6    351.3   0.277200744   3.20544  -1.67877  -0.05791  -0.61953
  24   28777.4    347.5   0.061386512   0.70226   0.77849  -0.05667   0.30496
  25   28914.2    345.9   0.226988405   2.58445   0.51453  -0.88438   1.23999
  26   29061.9    344.1   0.260371735   2.94948  -0.45783   1.38553  -0.90565
  27   29096.8    343.7   0.120705745   1.36571   0.12679  -0.49654  -1.05028
  28   30070.3    332.6   0.012801993   0.14016   0.30063   0.17688   0.13599
  29   30268.1    330.4   0.037530557   0.40820  -0.39799   0.44061  -0.23593
  30   30414.9    328.8   0.012404961   0.13427   0.33631   0.13846  -0.04466
  31   30742.8    325.3   0.004007656   0.04292   0.00125  -0.08167   0.19038
  32   30780.7    324.9   0.022352537   0.23907  -0.22068   0.19350  -0.39106
  33   31483.0    317.6   0.047095112   0.49247   0.31870  -0.57556  -0.24417
  34   31613.6    316.3   0.088869152   0.92545   0.76276   0.45061  -0.37496
  35   32467.8    308.0   0.111051211   1.12602   0.57563  -0.80623  -0.38035
  36   32510.2    307.6   0.001297215   0.01314  -0.09069   0.04634  -0.05257
  37   32534.3    307.4   0.010690953   0.10818   0.18081  -0.25568  -0.10058
  38   32639.0    306.4   0.000142186   0.00143   0.02388   0.00094  -0.02938
  39   32736.5    305.5   0.018919359   0.19026   0.30879   0.30493  -0.04384
  40   33071.4    302.4   0.117047329   1.16516   0.87917   0.50896  -0.36492
  41   33315.5    300.2   0.025204951   0.24907   0.00561   0.28801  -0.40754
  42   33543.4    298.1   0.289797429   2.84422  -0.34707  -1.55970   0.53953
  43   33926.3    294.8   0.030597811   0.29691  -0.49345   0.18344  -0.14059
  44   34013.9    294.0   0.008141976   0.07880   0.26744  -0.01240   0.08441
  45   34131.9    293.0   0.379323924   3.65869  -0.78949  -0.04058  -1.74177
  46   34300.9    291.5   0.026723338   0.25648  -0.16055  -0.25036   0.40991
  47   34659.7    288.5   0.057159712   0.54293  -0.51229  -0.45298   0.27441
  48   35105.4    284.9   0.184103153   1.72649  -1.17138  -0.49054  -0.33723
  49   35165.4    284.4   0.092728988   0.86811   0.26451   0.50354  -0.73796
  50   35190.5    284.2   0.193878291   1.81376  -1.22691   0.11749   0.54281
  51   35492.7    281.7   0.288898485   2.67967  -1.46799  -0.28869  -0.66433
  52   35761.6    279.6   0.007323526   0.06742  -0.19920   0.08392   0.14386
  53   35774.4    279.5   0.076307811   0.70222   0.71801  -0.31508  -0.29563
  54   35864.8    278.8   0.202817041   1.86171   0.11930   0.50211   1.26307
  55   36475.8    274.2   0.155057274   1.39947  -0.42564   0.94699   0.56701
  56   36856.5    271.3   0.172993151   1.54522  -0.72479  -0.95265   0.33520
  57   37114.5    269.4   1.277782417  11.33415  -0.05989   0.45956  -3.33457
  58   37294.6    268.1   0.048320574   0.42654   0.30089   0.57896  -0.02848
  59   37347.4    267.8   0.020707616   0.18253   0.03254   0.04037  -0.42408
  60   37416.8    267.3   0.171013160   1.50466  -0.42574  -0.99424  -0.57871
  61   37949.9    263.5   0.195924282   1.69963  -0.09611   0.24620  -1.27663
  62   38468.8    260.0   0.062885868   0.53817  -0.28035   0.13031  -0.66528
  63   38736.9    258.2   0.002978646   0.02531   0.11320   0.05679   0.09631
  64   38779.5    257.9   0.000406894   0.00345  -0.02463   0.03954   0.03583
  65   38825.8    257.6   0.061023801   0.51743  -0.64316  -0.26756  -0.17942
  66   39154.2    255.4   0.062225552   0.52320  -0.18044   0.33912   0.61289
  67   39270.4    254.6   0.036648914   0.30724   0.07117   0.41338  -0.36233
  68   39384.9    253.9   0.019134565   0.15994   0.22904  -0.13429   0.29908
  69   39503.8    253.1   0.082717968   0.68934   0.12327  -0.46677   0.67548
  70   39620.5    252.4   0.081992203   0.68128   0.16739   0.56915  -0.57387
  71   39709.6    251.8   0.033832079   0.28048  -0.29052  -0.32208   0.30389
  72   39859.0    250.9   0.147771198   1.22050  -0.00767  -0.81512   0.74567
  73   40128.9    249.2   0.000685740   0.00563   0.02820  -0.06229  -0.03084
  74   40147.5    249.1   0.002591179   0.02125  -0.09404  -0.09126   0.06384
  75   40234.2    248.5   0.012531674   0.10254   0.10257  -0.17634  -0.24682

FINAL SINGLE POINT ENERGY     -6132.884129943776

DIPOLE MOMENT
-------------
                                X             Y             Z
Electronic contribution:    -12.53024     -29.84920      68.05523
Nuclear contribution   :     15.55053      27.61637     -66.74253
                        -----------------------------------------
Total Dipole Moment    :      3.02029      -2.23283       1.31271
                        -----------------------------------------
Magnitude (a.u.)       :      3.97881
Magnitude (Debye)      :     10.11333

Rotational constants in cm-1:     0.001573     0.000203     0.000194
Rotational constants in MHz :    47.150604     6.078874     5.827969

                             ****ORCA TERMINATED NORMALLY****
TOTAL RUN TIME: 0 days 0 hours 10 minutes 38 seconds 921 msec
