                         Program Version 4.2.0 -  RELEASE  -
|  1> # ORCA input file
|  2> # SCF done       -207.813995443988          0.000497028441
|  3> ! CAM-B3LYP def2-SVP def2/J RIJCOSX Grid4 TightSCF
|  4> %maxcore 5000
|  5> %tddft
|  6>     Mode sTDDFT
|  7>     Ethresh 5.0
|  8>     maxcore 5000
|  9> end
| 10>
| 11> %pal
| 12>   nprocs 6
| 13>   end
| 14> * xyz 0 1
| 15>    C        4.64204        -3.92888        -1.12621
| 16>    C        3.61167        -3.07578        -0.84594
| 17>    C        2.40531        -3.45520        -0.22426
| 18>    N        1.41283        -3.67167         0.31046
| 19>    C        3.64067        -1.69294        -1.12098
| 20>    N        3.59665        -0.56859        -1.34692
| 21>    C        5.97739        -3.52849        -1.56174
| 22>    C        6.87274        -4.59020        -1.33495
| 23>    C        8.21605        -4.48301        -1.63371
| 24>    C        8.67727        -3.29275        -2.18248
| 25>    C        7.79068        -2.23662        -2.42336
| 26>    C        6.43986        -2.34414        -2.11127
| 27>   Cl        8.37183        -0.77817        -3.11910
| 28>   Cl       10.34125        -3.12176        -2.57086
| 29>    C        6.13591        -5.75073        -0.78914
| 30>    O        6.58392        -6.81482        -0.43390
| 31>    C        4.70386        -5.34748        -0.82975
| 32>    C        3.74636        -6.29765        -0.70468
| 33>    C        2.35304        -6.24166        -1.00008
| 34>    S        1.29208        -6.99753         0.16022
| 35>    C       -0.10984        -6.52483        -0.73507
| 36>    C        0.23779        -5.88563        -1.91591
| 37>    C        1.63025        -5.72851        -2.06171
| 38>    C        2.13262        -5.12292        -3.34171
| 39>    O        3.50147        -4.79037        -3.27255
| 40>    C        4.12261        -4.59211        -4.51820
| 41>    C        1.20219        -3.93670        -3.64430
| 42>    C       -0.18561        -4.46318        -3.98623
| 43>    C       -0.78075        -5.41196        -2.91969
| 44>    O       -1.48566        -6.48382        -3.52961
| 45>    C       -0.70793        -7.54199        -4.02793
| 46>    C       -1.40460        -6.78506        -0.22414
| 47>    S       -1.60066        -7.47363         1.41424
| 48>    C       -3.29118        -7.42788         1.15005
| 49>    C       -3.57415        -6.91299        -0.12375
| 50>    N       -2.52409        -6.55932        -0.85025
| 51>    C       -5.04633        -6.90708        -0.38218
| 52>    C       -5.56594        -7.48404         0.90147
| 53>    C       -4.50982        -7.76001         1.77873
| 54>    S       -5.04319        -8.39452         3.27840
| 55>    C       -6.70868        -8.31904         2.72553
| 56>    C       -6.80265        -7.81505         1.43482
| 57>    C       -7.77583        -8.75235         3.54607
| 58>    C       -7.65474        -9.05514         4.86282
| 59>    C       -8.72163        -9.52448         5.66751
| 60>    S      -10.23635       -10.00053         4.97110
| 61>    C      -10.88321       -10.39096         6.54440
| 62>    C       -9.95047       -10.08879         7.55409
| 63>    C       -8.72678        -9.64846         7.06197
| 64>    C       -7.54826        -9.32944         7.95370
| 65>    O       -6.30083        -9.71451         7.40734
| 66>    C       -6.11617       -11.09383         7.17958
| 67>    C       -7.79534        -9.90385         9.35483
| 68>    C       -9.17381        -9.48834         9.84476
| 69>    C      -10.25724       -10.20586         9.02900
| 70>    O      -11.56922        -9.78506         9.35976
| 71>    C      -11.88066        -8.43583         9.10140
| 72>    C      -12.10261       -11.03031         6.79062
| 73>    C      -13.10340       -11.39994         5.92413
| 74>    C      -14.28030       -12.15391         6.30203
| 75>    C      -14.47714       -12.84367         7.47067
| 76>    C      -15.65609       -13.55546         7.77472
| 77>    N      -16.59445       -14.13997         8.08409
| 78>    C      -13.52091       -12.99854         8.49753
| 79>    N      -12.78747       -13.21942         9.35333
| 80>    C      -15.19498       -12.13724         5.16150
| 81>    C      -14.56673       -11.47704         4.09104
| 82>    C      -13.22758       -11.01435         4.51582
| 83>    O      -12.42133       -10.41779         3.82560
| 84>    C      -15.18111       -11.32957         2.86510
| 85>    C      -16.45933       -11.85005         2.70284
| 86>    C      -17.09506       -12.50222         3.76382
| 87>    C      -16.46947       -12.65252         4.99731
| 88>   Cl      -18.67804       -13.13491         3.55153
| 89>   Cl      -17.25836       -11.68933         1.19060
| 90>    H        8.88887        -5.30491        -1.44627
| 91>    H        5.78364        -1.51344        -2.31348
| 92>    H        4.09804        -7.24896        -0.31220
| 93>    H        2.00564        -5.87646        -4.14241
| 94>    H        5.18487        -4.47128        -4.31125
| 95>    H        3.75352        -3.69436        -5.02488
| 96>    H        3.97649        -5.45796        -5.17474
| 97>    H        1.58887        -3.35730        -4.48387
| 98>    H        1.15986        -3.28326        -2.77071
| 99>    H       -0.13573        -5.00709        -4.93232
|100>    H       -0.86691        -3.62560        -4.13380
|101>    H       -1.57075        -4.89605        -2.36095
|102>    H       -1.41129        -8.23299        -4.48855
|103>    H       -0.16505        -8.06149        -3.22983
|104>    H        0.01280        -7.21264        -4.78644
|105>    H       -5.30168        -7.51685        -1.25039
|106>    H       -5.42296        -5.89914        -0.56453
|107>    H       -7.74507        -7.69610         0.93137
|108>    H       -8.74592        -8.82373         3.06973
|109>    H       -6.70019        -8.92285         5.35443
|110>    H       -7.45478        -8.23591         8.02917
|111>    H       -5.24136       -11.17404         6.53629
|112>    H       -6.97805       -11.53924         6.67283
|113>    H       -5.92275       -11.63685         8.10994
|114>    H       -7.01866        -9.53962        10.02833
|115>    H       -7.73905       -10.99315         9.32141
|116>    H       -9.28392        -8.40817         9.73237
|117>    H       -9.30387        -9.73832        10.89804
|118>    H      -10.26437       -11.27052         9.30486
|119>    H      -12.96532        -8.36427         9.16490
|120>    H      -11.55798        -8.12823         8.10116
|121>    H      -11.43941        -7.76475         9.84529
|122>    H      -12.26305       -11.26168         7.83591
|123>    H      -14.67989       -10.82482         2.05448
|124>    H      -16.99034       -13.16051         5.79225
|125> *
|126>
|127>                          ****END OF INPUT****

CARTESIAN COORDINATES (ANGSTROEM)
---------------------------------
  C      4.642040   -3.928880   -1.126210
  C      3.611670   -3.075780   -0.845940
  C      2.405310   -3.455200   -0.224260
  N      1.412830   -3.671670    0.310460
  C      3.640670   -1.692940   -1.120980
  N      3.596650   -0.568590   -1.346920
  C      5.977390   -3.528490   -1.561740
  C      6.872740   -4.590200   -1.334950
  C      8.216050   -4.483010   -1.633710
  C      8.677270   -3.292750   -2.182480
  C      7.790680   -2.236620   -2.423360
  C      6.439860   -2.344140   -2.111270
  Cl     8.371830   -0.778170   -3.119100
  Cl    10.341250   -3.121760   -2.570860
  C      6.135910   -5.750730   -0.789140
  O      6.583920   -6.814820   -0.433900
  C      4.703860   -5.347480   -0.829750
  C      3.746360   -6.297650   -0.704680
  C      2.353040   -6.241660   -1.000080
  S      1.292080   -6.997530    0.160220
  C     -0.109840   -6.524830   -0.735070
  C      0.237790   -5.885630   -1.915910
  C      1.630250   -5.728510   -2.061710
  C      2.132620   -5.122920   -3.341710
  O      3.501470   -4.790370   -3.272550
  C      4.122610   -4.592110   -4.518200
  C      1.202190   -3.936700   -3.644300
  C     -0.185610   -4.463180   -3.986230
  C     -0.780750   -5.411960   -2.919690
  O     -1.485660   -6.483820   -3.529610
  C     -0.707930   -7.541990   -4.027930
  C     -1.404600   -6.785060   -0.224140
  S     -1.600660   -7.473630    1.414240
  C     -3.291180   -7.427880    1.150050
  C     -3.574150   -6.912990   -0.123750
  N     -2.524090   -6.559320   -0.850250
  C     -5.046330   -6.907080   -0.382180
  C     -5.565940   -7.484040    0.901470
  C     -4.509820   -7.760010    1.778730
  S     -5.043190   -8.394520    3.278400
  C     -6.708680   -8.319040    2.725530
  C     -6.802650   -7.815050    1.434820
  C     -7.775830   -8.752350    3.546070
  C     -7.654740   -9.055140    4.862820
  C     -8.721630   -9.524480    5.667510
  S    -10.236350  -10.000530    4.971100
  C    -10.883210  -10.390960    6.544400
  C     -9.950470  -10.088790    7.554090
  C     -8.726780   -9.648460    7.061970
  C     -7.548260   -9.329440    7.953700
  O     -6.300830   -9.714510    7.407340
  C     -6.116170  -11.093830    7.179580
  C     -7.795340   -9.903850    9.354830
  C     -9.173810   -9.488340    9.844760
  C    -10.257240  -10.205860    9.029000
  O    -11.569220   -9.785060    9.359760
  C    -11.880660   -8.435830    9.101400
  C    -12.102610  -11.030310    6.790620
  C    -13.103400  -11.399940    5.924130
  C    -14.280300  -12.153910    6.302030
  C    -14.477140  -12.843670    7.470670
  C    -15.656090  -13.555460    7.774720
  N    -16.594450  -14.139970    8.084090
  C    -13.520910  -12.998540    8.497530
  N    -12.787470  -13.219420    9.353330
  C    -15.194980  -12.137240    5.161500
  C    -14.566730  -11.477040    4.091040
  C    -13.227580  -11.014350    4.515820
  O    -12.421330  -10.417790    3.825600
  C    -15.181110  -11.329570    2.865100
  C    -16.459330  -11.850050    2.702840
  C    -17.095060  -12.502220    3.763820
  C    -16.469470  -12.652520    4.997310
  Cl   -18.678040  -13.134910    3.551530
  Cl   -17.258360  -11.689330    1.190600
  H      8.888870   -5.304910   -1.446270
  H      5.783640   -1.513440   -2.313480
  H      4.098040   -7.248960   -0.312200
  H      2.005640   -5.876460   -4.142410
  H      5.184870   -4.471280   -4.311250
  H      3.753520   -3.694360   -5.024880
  H      3.976490   -5.457960   -5.174740
  H      1.588870   -3.357300   -4.483870
  H      1.159860   -3.283260   -2.770710
  H     -0.135730   -5.007090   -4.932320
  H     -0.866910   -3.625600   -4.133800
  H     -1.570750   -4.896050   -2.360950
  H     -1.411290   -8.232990   -4.488550
  H     -0.165050   -8.061490   -3.229830
  H      0.012800   -7.212640   -4.786440
  H     -5.301680   -7.516850   -1.250390
  H     -5.422960   -5.899140   -0.564530
  H     -7.745070   -7.696100    0.931370
  H     -8.745920   -8.823730    3.069730
  H     -6.700190   -8.922850    5.354430
  H     -7.454780   -8.235910    8.029170
  H     -5.241360  -11.174040    6.536290
  H     -6.978050  -11.539240    6.672830
  H     -5.922750  -11.636850    8.109940
  H     -7.018660   -9.539620   10.028330
  H     -7.739050  -10.993150    9.321410
  H     -9.283920   -8.408170    9.732370
  H     -9.303870   -9.738320   10.898040
  H    -10.264370  -11.270520    9.304860
  H    -12.965320   -8.364270    9.164900
  H    -11.557980   -8.128230    8.101160
  H    -11.439410   -7.764750    9.845290
  H    -12.263050  -11.261680    7.835910
  H    -14.679890  -10.824820    2.054480
  H    -16.990340  -13.160510    5.792250

 Total Charge           Charge          ....    0
 Multiplicity           Mult            ....    1
 Number of Electrons    NEL             ....  586
 Basis Dimension        Dim             .... 1257

ORBITAL ENERGIES
----------------

  NO   OCC          E(Eh)            E(eV)
   0   2.0000    -101.603944     -2764.7839
   1   2.0000    -101.603248     -2764.7649
   2   2.0000    -101.596767     -2764.5886
   3   2.0000    -101.594538     -2764.5279
   4   2.0000     -88.974453     -2421.1180
   5   2.0000     -88.968934     -2420.9678
   6   2.0000     -88.968908     -2420.9671
   7   2.0000     -88.959576     -2420.7131
   8   2.0000     -19.236541      -523.4529
   9   2.0000     -19.222085      -523.0595
  10   2.0000     -19.221496      -523.0435
  11   2.0000     -19.219867      -522.9992
  12   2.0000     -19.217924      -522.9463
  13   2.0000     -19.205336      -522.6038
  14   2.0000     -14.418344      -392.3431
  15   2.0000     -14.418279      -392.3413
  16   2.0000     -14.415687      -392.2708
  17   2.0000     -14.410652      -392.1338
  18   2.0000     -14.409606      -392.1053
  19   2.0000     -10.373133      -282.2673
  20   2.0000     -10.367406      -282.1115
  21   2.0000     -10.360798      -281.9316
  22   2.0000     -10.360059      -281.9115
  23   2.0000     -10.351358      -281.6748
  24   2.0000     -10.350861      -281.6613
  25   2.0000     -10.347158      -281.5605
  26   2.0000     -10.346112      -281.5320
  27   2.0000     -10.342719      -281.4397
  28   2.0000     -10.342191      -281.4253
  29   2.0000     -10.337353      -281.2937
  30   2.0000     -10.336731      -281.2767
  31   2.0000     -10.330811      -281.1156
  32   2.0000     -10.330664      -281.1117
  33   2.0000     -10.327134      -281.0156
  34   2.0000     -10.321992      -280.8757
  35   2.0000     -10.320698      -280.8405
  36   2.0000     -10.319769      -280.8152
  37   2.0000     -10.319551      -280.8093
  38   2.0000     -10.319428      -280.8059
  39   2.0000     -10.319087      -280.7966
  40   2.0000     -10.317717      -280.7594
  41   2.0000     -10.314870      -280.6819
  42   2.0000     -10.313630      -280.6481
  43   2.0000     -10.313563      -280.6463
  44   2.0000     -10.313315      -280.6396
  45   2.0000     -10.313039      -280.6320
  46   2.0000     -10.312930      -280.6291
  47   2.0000     -10.312814      -280.6259
  48   2.0000     -10.312673      -280.6221
  49   2.0000     -10.312053      -280.6052
  50   2.0000     -10.311192      -280.5818
  51   2.0000     -10.310157      -280.5536
  52   2.0000     -10.309757      -280.5427
  53   2.0000     -10.309708      -280.5414
  54   2.0000     -10.308298      -280.5030
  55   2.0000     -10.305733      -280.4332
  56   2.0000     -10.305463      -280.4259
  57   2.0000     -10.304934      -280.4115
  58   2.0000     -10.303670      -280.3771
  59   2.0000     -10.300100      -280.2800
  60   2.0000     -10.299945      -280.2758
  61   2.0000     -10.296246      -280.1751
  62   2.0000     -10.296110      -280.1714
  63   2.0000     -10.296008      -280.1686
  64   2.0000     -10.293261      -280.0939
  65   2.0000     -10.288634      -279.9680
  66   2.0000     -10.288240      -279.9572
  67   2.0000     -10.287995      -279.9506
  68   2.0000     -10.287572      -279.9391
  69   2.0000     -10.283600      -279.8310
  70   2.0000     -10.281861      -279.7837
  71   2.0000     -10.274862      -279.5932
  72   2.0000     -10.273362      -279.5524
  73   2.0000     -10.273027      -279.5433
  74   2.0000     -10.269317      -279.4423
  75   2.0000      -9.559021      -260.1142
  76   2.0000      -9.558297      -260.0945
  77   2.0000      -9.551732      -259.9159
  78   2.0000      -9.549585      -259.8574
  79   2.0000      -8.069630      -219.5858
  80   2.0000      -8.064697      -219.4516
  81   2.0000      -8.063809      -219.4274
  82   2.0000      -8.053265      -219.1405
  83   2.0000      -7.329412      -199.4434
  84   2.0000      -7.328685      -199.4236
  85   2.0000      -7.322120      -199.2450
  86   2.0000      -7.319981      -199.1868
  87   2.0000      -7.319268      -199.1674
  88   2.0000      -7.318553      -199.1480
  89   2.0000      -7.318544      -199.1477
  90   2.0000      -7.317827      -199.1282
  91   2.0000      -7.311998      -198.9696
  92   2.0000      -7.311286      -198.9502
  93   2.0000      -7.309834      -198.9107
  94   2.0000      -7.309120      -198.8913
  95   2.0000      -6.038887      -164.3265
  96   2.0000      -6.034870      -164.2172
  97   2.0000      -6.034063      -164.1952
  98   2.0000      -6.033130      -164.1698
  99   2.0000      -6.031701      -164.1309
 100   2.0000      -6.029925      -164.0826
 101   2.0000      -6.029106      -164.0603
 102   2.0000      -6.026551      -163.9908
 103   2.0000      -6.025870      -163.9723
 104   2.0000      -6.022514      -163.8809
 105   2.0000      -6.018218      -163.7640
 106   2.0000      -6.015572      -163.6920
 107   2.0000      -1.139949       -31.0196
 108   2.0000      -1.137585       -30.9553
 109   2.0000      -1.133119       -30.8337
 110   2.0000      -1.123051       -30.5598
 111   2.0000      -1.121164       -30.5084
 112   2.0000      -1.108789       -30.1717
 113   2.0000      -1.076225       -29.2856
 114   2.0000      -1.034756       -28.1571
 115   2.0000      -1.026229       -27.9251
 116   2.0000      -1.017850       -27.6971
 117   2.0000      -1.010032       -27.4844
 118   2.0000      -1.006802       -27.3965
 119   2.0000      -1.001019       -27.2391
 120   2.0000      -0.995432       -27.0871
 121   2.0000      -0.993528       -27.0353
 122   2.0000      -0.992983       -27.0204
 123   2.0000      -0.988603       -26.9013
 124   2.0000      -0.985152       -26.8074
 125   2.0000      -0.965805       -26.2809
 126   2.0000      -0.957449       -26.0535
 127   2.0000      -0.939969       -25.5779
 128   2.0000      -0.936189       -25.4750
 129   2.0000      -0.929794       -25.3010
 130   2.0000      -0.921825       -25.0841
 131   2.0000      -0.918329       -24.9890
 132   2.0000      -0.910404       -24.7733
 133   2.0000      -0.907067       -24.6825
 134   2.0000      -0.899992       -24.4900
 135   2.0000      -0.889233       -24.1973
 136   2.0000      -0.883825       -24.0501
 137   2.0000      -0.867329       -23.6012
 138   2.0000      -0.864376       -23.5209
 139   2.0000      -0.855805       -23.2876
 140   2.0000      -0.853868       -23.2349
 141   2.0000      -0.847278       -23.0556
 142   2.0000      -0.843347       -22.9486
 143   2.0000      -0.837962       -22.8021
 144   2.0000      -0.833912       -22.6919
 145   2.0000      -0.826080       -22.4788
 146   2.0000      -0.811055       -22.0699
 147   2.0000      -0.794410       -21.6170
 148   2.0000      -0.791388       -21.5348
 149   2.0000      -0.788002       -21.4426
 150   2.0000      -0.783816       -21.3287
 151   2.0000      -0.775930       -21.1141
 152   2.0000      -0.769060       -20.9272
 153   2.0000      -0.762023       -20.7357
 154   2.0000      -0.756829       -20.5944
 155   2.0000      -0.748231       -20.3604
 156   2.0000      -0.743529       -20.2325
 157   2.0000      -0.734970       -19.9996
 158   2.0000      -0.720002       -19.5923
 159   2.0000      -0.712131       -19.3781
 160   2.0000      -0.706732       -19.2312
 161   2.0000      -0.698655       -19.0114
 162   2.0000      -0.696951       -18.9650
 163   2.0000      -0.691429       -18.8147
 164   2.0000      -0.689445       -18.7607
 165   2.0000      -0.683544       -18.6002
 166   2.0000      -0.679202       -18.4820
 167   2.0000      -0.669881       -18.2284
 168   2.0000      -0.662036       -18.0149
 169   2.0000      -0.656662       -17.8687
 170   2.0000      -0.651348       -17.7241
 171   2.0000      -0.646644       -17.5961
 172   2.0000      -0.639421       -17.3995
 173   2.0000      -0.630239       -17.1497
 174   2.0000      -0.625440       -17.0191
 175   2.0000      -0.622490       -16.9388
 176   2.0000      -0.618891       -16.8409
 177   2.0000      -0.614461       -16.7203
 178   2.0000      -0.612794       -16.6750
 179   2.0000      -0.605459       -16.4754
 180   2.0000      -0.599191       -16.3048
 181   2.0000      -0.593891       -16.1606
 182   2.0000      -0.589086       -16.0298
 183   2.0000      -0.585982       -15.9454
 184   2.0000      -0.583909       -15.8890
 185   2.0000      -0.579750       -15.7758
 186   2.0000      -0.575104       -15.6494
 187   2.0000      -0.572312       -15.5734
 188   2.0000      -0.571857       -15.5610
 189   2.0000      -0.567615       -15.4456
 190   2.0000      -0.562122       -15.2961
 191   2.0000      -0.560992       -15.2654
 192   2.0000      -0.557170       -15.1614
 193   2.0000      -0.554978       -15.1017
 194   2.0000      -0.553897       -15.0723
 195   2.0000      -0.552423       -15.0322
 196   2.0000      -0.548534       -14.9264
 197   2.0000      -0.547461       -14.8972
 198   2.0000      -0.544490       -14.8163
 199   2.0000      -0.542034       -14.7495
 200   2.0000      -0.540702       -14.7132
 201   2.0000      -0.537080       -14.6147
 202   2.0000      -0.536173       -14.5900
 203   2.0000      -0.533485       -14.5169
 204   2.0000      -0.532642       -14.4939
 205   2.0000      -0.531049       -14.4506
 206   2.0000      -0.526149       -14.3172
 207   2.0000      -0.521539       -14.1918
 208   2.0000      -0.516246       -14.0478
 209   2.0000      -0.515122       -14.0172
 210   2.0000      -0.513216       -13.9653
 211   2.0000      -0.510537       -13.8924
 212   2.0000      -0.510027       -13.8786
 213   2.0000      -0.507876       -13.8200
 214   2.0000      -0.504551       -13.7295
 215   2.0000      -0.503924       -13.7125
 216   2.0000      -0.500998       -13.6328
 217   2.0000      -0.499052       -13.5799
 218   2.0000      -0.496661       -13.5148
 219   2.0000      -0.495343       -13.4790
 220   2.0000      -0.494067       -13.4442
 221   2.0000      -0.491726       -13.3805
 222   2.0000      -0.489289       -13.3142
 223   2.0000      -0.486349       -13.2342
 224   2.0000      -0.483980       -13.1698
 225   2.0000      -0.480179       -13.0663
 226   2.0000      -0.477880       -13.0038
 227   2.0000      -0.476655       -12.9705
 228   2.0000      -0.475264       -12.9326
 229   2.0000      -0.472670       -12.8620
 230   2.0000      -0.471210       -12.8223
 231   2.0000      -0.468699       -12.7540
 232   2.0000      -0.466609       -12.6971
 233   2.0000      -0.465141       -12.6571
 234   2.0000      -0.463671       -12.6171
 235   2.0000      -0.460211       -12.5230
 236   2.0000      -0.457792       -12.4571
 237   2.0000      -0.451983       -12.2991
 238   2.0000      -0.451810       -12.2944
 239   2.0000      -0.451243       -12.2789
 240   2.0000      -0.443659       -12.0726
 241   2.0000      -0.443581       -12.0704
 242   2.0000      -0.441138       -12.0040
 243   2.0000      -0.439634       -11.9630
 244   2.0000      -0.438595       -11.9348
 245   2.0000      -0.436629       -11.8813
 246   2.0000      -0.433715       -11.8020
 247   2.0000      -0.432049       -11.7567
 248   2.0000      -0.430654       -11.7187
 249   2.0000      -0.430581       -11.7167
 250   2.0000      -0.427118       -11.6225
 251   2.0000      -0.426461       -11.6046
 252   2.0000      -0.424501       -11.5512
 253   2.0000      -0.424293       -11.5456
 254   2.0000      -0.423603       -11.5268
 255   2.0000      -0.422436       -11.4951
 256   2.0000      -0.420805       -11.4507
 257   2.0000      -0.419463       -11.4142
 258   2.0000      -0.418537       -11.3890
 259   2.0000      -0.413757       -11.2589
 260   2.0000      -0.411616       -11.2007
 261   2.0000      -0.410546       -11.1715
 262   2.0000      -0.410108       -11.1596
 263   2.0000      -0.403378       -10.9765
 264   2.0000      -0.401789       -10.9332
 265   2.0000      -0.398034       -10.8310
 266   2.0000      -0.391587       -10.6556
 267   2.0000      -0.385627       -10.4934
 268   2.0000      -0.384456       -10.4616
 269   2.0000      -0.381527       -10.3819
 270   2.0000      -0.377662       -10.2767
 271   2.0000      -0.375975       -10.2308
 272   2.0000      -0.372888       -10.1468
 273   2.0000      -0.365227        -9.9383
 274   2.0000      -0.357168        -9.7190
 275   2.0000      -0.354087        -9.6352
 276   2.0000      -0.353070        -9.6075
 277   2.0000      -0.345792        -9.4095
 278   2.0000      -0.343406        -9.3445
 279   2.0000      -0.341980        -9.3058
 280   2.0000      -0.337278        -9.1778
 281   2.0000      -0.335341        -9.1251
 282   2.0000      -0.331513        -9.0209
 283   2.0000      -0.328575        -8.9410
 284   2.0000      -0.326042        -8.8721
 285   2.0000      -0.324740        -8.8366
 286   2.0000      -0.320188        -8.7128
 287   2.0000      -0.319256        -8.6874
 288   2.0000      -0.312044        -8.4911
 289   2.0000      -0.307396        -8.3647
 290   2.0000      -0.298895        -8.1334
 291   2.0000      -0.271691        -7.3931
 292   2.0000      -0.234613        -6.3842
 293   0.0000      -0.096565        -2.6277
 294   0.0000      -0.087022        -2.3680
 295   0.0000      -0.068683        -1.8689
 296   0.0000      -0.063561        -1.7296
 297   0.0000      -0.047693        -1.2978

MULLIKEN ATOMIC CHARGES
-----------------------
   0 C :    0.358294
   1 C :   -0.349435
   2 C :   -0.198759
   3 N :    0.177070
   4 C :   -0.196017
   5 N :    0.158411
   6 C :   -0.011531
   7 C :    0.010121
   8 C :   -0.035806
   9 C :    0.058420
  10 C :    0.049325
  11 C :   -0.018997
  12 Cl:   -0.035495
  13 Cl:   -0.041897
  14 C :    0.125997
  15 O :   -0.136012
  16 C :   -0.105849
  17 C :    0.044605
  18 C :   -0.195956
  19 S :    0.157053
  20 C :   -0.031001
  21 C :   -0.160805
  22 C :    0.059392
  23 C :    0.172615
  24 O :   -0.386573
  25 C :    0.193549
  26 C :    0.051945
  27 C :    0.067520
  28 C :    0.278740
  29 O :   -0.381174
  30 C :    0.192747
  31 C :   -0.115082
  32 S :    0.135838
  33 C :   -0.048950
  34 C :   -0.225147
  35 N :    0.007151
  36 C :    0.400314
  37 C :   -0.155539
  38 C :   -0.094510
  39 S :    0.149959
  40 C :   -0.050810
  41 C :   -0.019882
  42 C :    0.025275
  43 C :   -0.054496
  44 C :   -0.077610
  45 S :    0.170081
  46 C :   -0.102177
  47 C :   -0.056231
  48 C :   -0.060493
  49 C :    0.219632
  50 O :   -0.383298
  51 C :    0.181875
  52 C :    0.039511
  53 C :    0.050273
  54 C :    0.218444
  55 O :   -0.383622
  56 C :    0.181405
  57 C :   -0.060207
  58 C :   -0.098349
  59 C :    0.305624
  60 C :   -0.344414
  61 C :   -0.190031
  62 N :    0.149356
  63 C :   -0.194301
  64 N :    0.152969
  65 C :    0.027620
  66 C :   -0.011488
  67 C :    0.155094
  68 O :   -0.173141
  69 C :   -0.034817
  70 C :    0.059956
  71 C :    0.050047
  72 C :   -0.018477
  73 Cl:   -0.039652
  74 Cl:   -0.048663
  75 H :    0.000368
  76 H :    0.001241
  77 H :    0.031746
  78 H :   -0.000452
  79 H :    0.034552
  80 H :    0.014201
  81 H :    0.009978
  82 H :    0.002799
  83 H :    0.021655
  84 H :   -0.006234
  85 H :    0.013106
  86 H :    0.005970
  87 H :    0.026577
  88 H :    0.012439
  89 H :   -0.011751
  90 H :    0.039764
  91 H :    0.038314
  92 H :   -0.017940
  93 H :    0.009289
  94 H :    0.018627
  95 H :    0.008451
  96 H :    0.028593
  97 H :    0.019998
  98 H :    0.017471
  99 H :    0.012517
 100 H :    0.008450
 101 H :    0.004435
 102 H :    0.017696
 103 H :    0.026367
 104 H :    0.031157
 105 H :    0.016374
 106 H :    0.015712
 107 H :    0.044315
 108 H :   -0.004834
 109 H :   -0.000493
Sum of atomic charges:   -0.0000000

LOEWDIN ATOMIC CHARGES
----------------------
   0 C :    0.082797
   1 C :   -0.134625
   2 C :   -0.019167
   3 N :   -0.049276
   4 C :   -0.021149
   5 N :   -0.052649
   6 C :   -0.009694
   7 C :   -0.045979
   8 C :    0.000664
   9 C :   -0.136271
  10 C :   -0.130652
  11 C :   -0.016258
  12 Cl:    0.161798
  13 Cl:    0.158619
  14 C :    0.083269
  15 O :   -0.136853
  16 C :   -0.079847
  17 C :    0.047554
  18 C :   -0.179370
  19 S :    0.457915
  20 C :   -0.173182
  21 C :   -0.057213
  22 C :   -0.036213
  23 C :    0.069979
  24 O :   -0.149809
  25 C :    0.070669
  26 C :   -0.035767
  27 C :   -0.035234
  28 C :    0.071175
  29 O :   -0.160933
  30 C :    0.060817
  31 C :   -0.137428
  32 S :    0.412565
  33 C :   -0.211385
  34 C :   -0.034135
  35 N :   -0.059514
  36 C :   -0.010505
  37 C :   -0.050586
  38 C :   -0.190108
  39 S :    0.444771
  40 C :   -0.168156
  41 C :   -0.040549
  42 C :   -0.014981
  43 C :   -0.067020
  44 C :   -0.139264
  45 S :    0.503471
  46 C :   -0.193107
  47 C :   -0.029630
  48 C :   -0.088153
  49 C :    0.067381
  50 O :   -0.164339
  51 C :    0.064968
  52 C :   -0.034413
  53 C :   -0.032341
  54 C :    0.065881
  55 O :   -0.159635
  56 C :    0.064046
  57 C :    0.059386
  58 C :   -0.121960
  59 C :    0.075354
  60 C :   -0.142092
  61 C :   -0.020165
  62 N :   -0.054509
  63 C :   -0.021452
  64 N :   -0.052366
  65 C :   -0.012592
  66 C :   -0.042513
  67 C :    0.079890
  68 O :   -0.166963
  69 C :   -0.002691
  70 C :   -0.136366
  71 C :   -0.132073
  72 C :   -0.013351
  73 Cl:    0.158246
  74 Cl:    0.154028
  75 H :    0.046281
  76 H :    0.044173
  77 H :    0.046885
  78 H :    0.018771
  79 H :    0.023209
  80 H :    0.009842
  81 H :    0.011468
  82 H :    0.025160
  83 H :    0.029274
  84 H :    0.026113
  85 H :    0.032525
  86 H :    0.032430
  87 H :    0.024367
  88 H :    0.005896
  89 H :   -0.005335
  90 H :    0.058138
  91 H :    0.057917
  92 H :    0.034095
  93 H :    0.032826
  94 H :    0.027504
  95 H :    0.030209
  96 H :    0.024223
  97 H :    0.010630
  98 H :    0.009966
  99 H :    0.030976
 100 H :    0.024541
 101 H :    0.023205
 102 H :    0.033365
 103 H :    0.038781
 104 H :    0.025929
 105 H :    0.008823
 106 H :    0.008674
 107 H :    0.050396
 108 H :    0.043921
 109 H :    0.044065

  Mayer bond orders larger than 0.100000
B(  0-C ,  1-C ) :   1.6746 B(  0-C ,  6-C ) :   1.0063 B(  0-C , 16-C ) :   1.0063
B(  1-C ,  2-C ) :   1.1800 B(  1-C ,  4-C ) :   1.1323 B(  2-C ,  3-N ) :   2.9872
B(  4-C ,  5-N ) :   2.9864 B(  6-C ,  7-C ) :   1.3284 B(  6-C , 11-C ) :   1.3426
B(  7-C ,  8-C ) :   1.3405 B(  7-C , 14-C ) :   0.9166 B(  8-C ,  9-C ) :   1.3455
B(  8-C , 75-H ) :   1.0169 B(  9-C , 10-C ) :   1.4049 B(  9-C , 13-Cl) :   1.0490
B( 10-C , 11-C ) :   1.3557 B( 10-C , 12-Cl) :   1.0718 B( 11-C , 76-H ) :   0.9921
B( 14-C , 15-O ) :   2.2749 B( 14-C , 16-C ) :   0.9512 B( 16-C , 17-C ) :   1.7501
B( 17-C , 18-C ) :   1.0467 B( 17-C , 77-H ) :   0.9272 B( 18-C , 19-S ) :   1.1068
B( 18-C , 20-C ) :   0.1158 B( 18-C , 22-C ) :   1.5157 B( 19-S , 20-C ) :   1.1445
B( 20-C , 21-C ) :   1.5497 B( 20-C , 31-C ) :   1.0972 B( 21-C , 22-C ) :   1.2738
B( 21-C , 28-C ) :   1.0322 B( 22-C , 23-C ) :   0.9740 B( 23-C , 24-O ) :   1.0157
B( 23-C , 26-C ) :   1.0454 B( 23-C , 78-H ) :   0.9084 B( 24-O , 25-C ) :   0.9747
B( 25-C , 79-H ) :   0.9784 B( 25-C , 80-H ) :   0.9680 B( 25-C , 81-H ) :   0.9640
B( 26-C , 27-C ) :   1.0963 B( 26-C , 82-H ) :   0.9246 B( 26-C , 83-H ) :   0.9258
B( 27-C , 28-C ) :   1.0265 B( 27-C , 84-H ) :   0.9123 B( 27-C , 85-H ) :   0.9253
B( 28-C , 29-O ) :   1.0054 B( 28-C , 86-H ) :   0.8624 B( 29-O , 30-C ) :   1.0034
B( 30-C , 87-H ) :   0.9802 B( 30-C , 88-H ) :   0.9628 B( 30-C , 89-H ) :   0.9532
B( 31-C , 32-S ) :   1.0769 B( 31-C , 35-N ) :   1.6600 B( 32-S , 33-C ) :   1.0971
B( 33-C , 34-C ) :   1.4615 B( 33-C , 38-C ) :   1.1927 B( 34-C , 35-N ) :   1.4416
B( 34-C , 36-C ) :   1.0437 B( 36-C , 37-C ) :   0.9790 B( 36-C , 90-H ) :   0.8608
B( 36-C , 91-H ) :   0.8569 B( 37-C , 38-C ) :   1.5075 B( 37-C , 41-C ) :   1.3041
B( 38-C , 39-S ) :   1.0910 B( 39-S , 40-C ) :   1.0936 B( 40-C , 41-C ) :   1.4224
B( 40-C , 42-C ) :   1.1822 B( 41-C , 92-H ) :   1.0093 B( 42-C , 43-C ) :   1.5835
B( 42-C , 93-H ) :   0.9769 B( 43-C , 44-C ) :   1.1986 B( 43-C , 94-H ) :   0.9560
B( 44-C , 45-S ) :   1.1367 B( 44-C , 48-C ) :   1.3811 B( 45-S , 46-C ) :   1.0823
B( 46-C , 47-C ) :   1.3611 B( 46-C , 57-C ) :   1.2934 B( 47-C , 48-C ) :   1.4176
B( 47-C , 54-C ) :   0.9638 B( 48-C , 49-C ) :   0.9539 B( 49-C , 50-O ) :   1.0195
B( 49-C , 52-C ) :   1.0739 B( 49-C , 95-H ) :   0.8905 B( 50-O , 51-C ) :   0.9643
B( 51-C , 96-H ) :   0.9815 B( 51-C , 97-H ) :   0.9627 B( 51-C , 98-H ) :   0.9686
B( 52-C , 53-C ) :   1.0626 B( 52-C , 99-H ) :   0.9220 B( 52-C ,100-H ) :   0.9342
B( 53-C , 54-C ) :   1.0701 B( 53-C ,101-H ) :   0.9323 B( 53-C ,102-H ) :   0.9220
B( 54-C , 55-O ) :   1.0031 B( 54-C ,103-H ) :   0.8806 B( 55-O , 56-C ) :   0.9728
B( 56-C ,104-H ) :   0.9812 B( 56-C ,105-H ) :   0.9619 B( 56-C ,106-H ) :   0.9677
B( 57-C , 58-C ) :   1.4620 B( 57-C ,107-H ) :   0.9305 B( 58-C , 59-C ) :   1.0944
B( 58-C , 67-C ) :   0.9818 B( 59-C , 60-C ) :   1.6311 B( 59-C , 65-C ) :   0.9830
B( 60-C , 61-C ) :   1.1430 B( 60-C , 63-C ) :   1.1407 B( 61-C , 62-N ) :   2.9725
B( 63-C , 64-N ) :   2.9842 B( 65-C , 66-C ) :   1.3336 B( 65-C , 72-C ) :   1.3499
B( 66-C , 67-C ) :   0.9499 B( 66-C , 69-C ) :   1.3499 B( 67-C , 68-O ) :   2.1578
B( 69-C , 70-C ) :   1.3358 B( 69-C ,108-H ) :   1.0166 B( 70-C , 71-C ) :   1.4155
B( 70-C , 74-Cl) :   1.0418 B( 71-C , 72-C ) :   1.3511 B( 71-C , 73-Cl) :   1.0709
B( 72-C ,109-H ) :   0.9872

-----------------------------------------------------------------------------
         ABSORPTION SPECTRUM VIA TRANSITION ELECTRIC DIPOLE MOMENTS
-----------------------------------------------------------------------------
State   Energy  Wavelength   fosc         T2         TX        TY        TZ
        (cm-1)    (nm)                  (au**2)     (au)      (au)      (au)
-----------------------------------------------------------------------------
   0   15758.1    634.6   2.271849969  47.46249  -5.89534  -2.56695   2.47351
   1   19032.2    525.4   0.008450237   0.14617   0.02595   0.05989   0.37671
   2   22853.5    437.6   0.066520421   0.95825   0.92268  -0.14469  -0.29322
   3   24237.4    412.6   0.167252052   2.27175  -1.18883   0.08217   0.92286
   4   25220.8    396.5   0.011454492   0.14952  -0.20431  -0.07394  -0.31986
   5   27067.9    369.4   0.187801194   2.28412   0.48486   0.80271   1.18520
   6   27602.6    362.3   0.192021806   2.29021  -0.83809  -0.72363   1.03159
   7   28933.1    345.6   0.020125645   0.22900  -0.28717  -0.17502  -0.34044
   8   29777.2    335.8   0.094401616   1.04369  -0.92985   0.01139   0.42302
   9   30147.0    331.7   0.064048238   0.69942  -0.46885   0.12524  -0.68111
  10   30714.9    325.6   0.050628751   0.54265   0.21868   0.22131  -0.66773
  11   31236.5    320.1   0.063796071   0.67237   0.48386   0.08211  -0.65689
  12   31365.3    318.8   0.012377785   0.12992  -0.25000  -0.04202   0.25623
  13   32167.6    310.9   0.085136079   0.87131  -0.83600   0.18350  -0.37247
  14   32220.8    310.4   0.023105486   0.23608  -0.46250   0.09615  -0.11372
  15   32344.9    309.2   0.054612084   0.55585   0.71096  -0.14786   0.16888
  16   32632.5    306.4   0.035218566   0.35530  -0.42759   0.22095  -0.35164
  17   32757.0    305.3   0.120836216   1.21442  -1.01893  -0.39418  -0.14429
  18   33042.1    302.6   0.071302387   0.71041   0.73839  -0.21270  -0.34635
  19   33376.1    299.6   0.198638914   1.95931   1.10839   0.12692   0.84538
  20   33554.5    298.0   0.028308869   0.27775  -0.45967   0.22498  -0.12583
  21   34351.9    291.1   0.053468782   0.51242   0.64399   0.03813  -0.31022
  22   34989.2    285.8   0.007779103   0.07319   0.09335   0.07474  -0.24268
  23   35445.5    282.1   0.239120519   2.22091   0.38390  -0.54504   1.33284
  24   35634.7    280.6   0.183440673   1.69472   0.53785  -0.10056   1.18124
  25   36057.7    277.3   0.476079351   4.34667   1.91244  -0.39141  -0.73216
  26   36488.0    274.1   0.410968598   3.70795  -0.42286   0.92358  -1.63589
  27   36587.9    273.3   0.109168602   0.98228  -0.62840   0.08914   0.76122
  28   36903.9    271.0   0.032252139   0.28771  -0.37236   0.30824   0.23249
  29   37157.9    269.1   0.021860378   0.19368   0.23568   0.35501  -0.10998
  30   37363.0    267.6   0.027008037   0.23797  -0.33381  -0.34901   0.06880
  31   37441.7    267.1   0.012577336   0.11059  -0.05297   0.03424   0.32651
  32   38072.0    262.7   0.051932459   0.44906   0.62730   0.23560   0.00756
  33   38238.8    261.5   0.018057998   0.15547  -0.30402  -0.09029  -0.23429
  34   38575.1    259.2   0.043676465   0.37275   0.43773  -0.23636   0.35394
  35   38863.5    257.3   0.066570666   0.56392   0.06820   0.62814  -0.40584
  36   39062.2    256.0   0.002672055   0.02252  -0.01255   0.04711  -0.14193
  37   39431.5    253.6   0.021970038   0.18343  -0.21426  -0.07737   0.36267
  38   39692.1    251.9   0.063950208   0.53041   0.59885   0.30566   0.27993
  39   40273.4    248.3   0.039797599   0.32532   0.51673   0.17339   0.16809

FINAL SINGLE POINT ENERGY     -6308.904595729301

DIPOLE MOMENT
-------------
                                X             Y             Z
Electronic contribution:      0.19242       0.07899     -20.47062
Nuclear contribution   :      2.05507       0.78018      17.92205
                        -----------------------------------------
Total Dipole Moment    :      2.24749       0.85917      -2.54857
                        -----------------------------------------
Magnitude (a.u.)       :      3.50494
Magnitude (Debye)      :      8.90885

Rotational constants in cm-1:     0.001956     0.000159     0.000150
Rotational constants in MHz :    58.626789     4.755689     4.508370

                             ****ORCA TERMINATED NORMALLY****
TOTAL RUN TIME: 0 days 0 hours 12 minutes 22 seconds 897 msec
