                         Program Version 4.2.0 -  RELEASE  -
|  1> # ORCA input file
|  2> # SCF done       -212.835782758748          0.001109971815
|  3> ! CAM-B3LYP def2-SVP def2/J RIJCOSX Grid4 TightSCF
|  4> %maxcore 5000
|  5> %tddft
|  6>     Mode sTDDFT
|  7>     Ethresh 5.0
|  8>     maxcore 5000
|  9> end
| 10>
| 11> %pal
| 12>   nprocs 6
| 13>   end
| 14> * xyz 0 1
| 15>    C        4.45608       -10.92165        -0.40208
| 16>    C        3.61847       -10.69676         0.65199
| 17>    C        2.84300       -11.70317         1.27121
| 18>    N        2.18202       -12.47689         1.79898
| 19>    C        3.47528        -9.44495         1.28504
| 20>    N        3.34923        -8.45262         1.84788
| 21>    C        4.80393       -12.21582        -0.97013
| 22>    C        5.97204       -12.08317        -1.74725
| 23>    C        6.54051       -13.16598        -2.38887
| 24>    C        5.93043       -14.40713        -2.25728
| 25>    C        4.76123       -14.54439        -1.49351
| 26>    C        4.19328       -13.45349        -0.84597
| 27>   Cl        4.01490       -16.07961        -1.35240
| 28>   Cl        6.60790       -15.77539        -3.03457
| 29>    C        6.40795       -10.67475        -1.76245
| 30>    O        7.38452       -10.19109        -2.27100
| 31>    C        5.30784        -9.93534        -1.05571
| 32>    C        5.16587        -8.61570        -1.25575
| 33>    C        4.03916        -7.75824        -0.93499
| 34>    C        4.25177        -6.54772        -0.27392
| 35>    C        5.52028        -5.99070         0.25323
| 36>    O        6.62854        -6.44817         0.21438
| 37>    N        5.17597        -4.76039         0.83377
| 38>    C        3.81031        -4.50873         0.76707
| 39>    O        3.24072        -3.54218         1.20951
| 40>    C        3.22058        -5.67083         0.05467
| 41>    C        1.90320        -5.93574        -0.26910
| 42>    C        1.67806        -7.12405        -0.95481
| 43>    C        2.69958        -8.01646        -1.28437
| 44>    C        2.23465        -9.19958        -2.04132
| 45>    O        2.88671       -10.11076        -2.46481
| 46>    S        0.46109        -9.11045        -2.25676
| 47>    C        0.32592        -7.53722        -1.39160
| 48>    O       -0.70139        -6.96139        -1.22750
| 49>    C        6.14192        -3.93332         1.41027
| 50>    C        5.94836        -2.62399         1.60623
| 51>    C        6.89256        -1.71071         2.16606
| 52>    O        8.11934        -2.08983         2.58032
| 53>    C        8.77221        -0.98547         2.97901
| 54>    C        7.99623         0.12528         2.84505
| 55>    C        6.76356        -0.33990         2.33274
| 56>    S        5.35012         0.59600         1.85564
| 57>    C        4.10800        -0.28417         2.73904
| 58>    C        4.20824        -0.59117         4.09889
| 59>    C        5.21393        -0.16314         5.09831
| 60>    O        6.18986         0.52175         4.94750
| 61>    N        4.77774        -0.69089         6.32319
| 62>    C        3.58409        -1.42124         6.19276
| 63>    O        3.01894        -1.97735         7.09061
| 64>    C        3.22199        -1.33100         4.75737
| 65>    C        2.10452        -1.82608         4.11137
| 66>    C        1.98903        -1.50379         2.76477
| 67>    C        2.93667        -0.72961         2.10213
| 68>    C        2.65583        -0.52269         0.66901
| 69>    O        3.29957         0.10064        -0.11942
| 70>    S        1.14811        -1.39773         0.23835
| 71>    C        0.89916        -2.01321         1.90185
| 72>    O        0.00190        -2.73109         2.21631
| 73>    C        5.31408        -0.42486         7.56803
| 74>    C        6.53342         0.09273         7.79387
| 75>    C        7.01428         0.44584         9.09038
| 76>    C        6.28029         0.98580        10.10099
| 77>    C        6.79078         1.35048        11.41464
| 78>    C        7.89021         0.81697        12.02719
| 79>    C        8.32540         1.17646        13.32126
| 80>    N        8.72641         1.43443        14.36458
| 81>    C        8.70766        -0.18729        11.46280
| 82>    N        9.40131        -1.01293        11.07001
| 83>    C        5.86859         2.32016        11.99244
| 84>    C        4.77463         2.47785        11.12319
| 85>    C        4.93365         1.60113         9.94393
| 86>    O        4.14525         1.47327         9.03472
| 87>    C        3.73760         3.34308        11.40962
| 88>    C        3.79336         4.07070        12.59158
| 89>    C        4.88152         3.92223        13.46161
| 90>    C        5.92286         3.04827        13.17029
| 91>   Cl        4.94067         4.83454        14.91361
| 92>   Cl        2.52363         5.15543        12.98520
| 93>    H        7.43668       -13.04832        -2.97755
| 94>    H        3.28835       -13.58953        -0.27618
| 95>    H        6.00645        -8.11769        -1.73086
| 96>    H        1.09289        -5.27176        -0.01179
| 97>    H        7.06388        -4.44281         1.65015
| 98>    H        5.01966        -2.17354         1.29669
| 99>    H        9.77334        -1.11570         3.33937
|100>    H        8.24295         1.13595         3.08942
|101>    H        1.36152        -2.42199         4.61629
|102>    H        4.65582        -0.72825         8.37044
|103>    H        7.21743         0.24542         6.97134
|104>    H        8.08404         0.34524         9.23167
|105>    H        2.90585         3.44796        10.73106
|106>    H        6.74764         2.96351        13.85895
|107> *
|108>
|109>                          ****END OF INPUT****

CARTESIAN COORDINATES (ANGSTROEM)
---------------------------------
  C      4.456080  -10.921650   -0.402080
  C      3.618470  -10.696760    0.651990
  C      2.843000  -11.703170    1.271210
  N      2.182020  -12.476890    1.798980
  C      3.475280   -9.444950    1.285040
  N      3.349230   -8.452620    1.847880
  C      4.803930  -12.215820   -0.970130
  C      5.972040  -12.083170   -1.747250
  C      6.540510  -13.165980   -2.388870
  C      5.930430  -14.407130   -2.257280
  C      4.761230  -14.544390   -1.493510
  C      4.193280  -13.453490   -0.845970
  Cl     4.014900  -16.079610   -1.352400
  Cl     6.607900  -15.775390   -3.034570
  C      6.407950  -10.674750   -1.762450
  O      7.384520  -10.191090   -2.271000
  C      5.307840   -9.935340   -1.055710
  C      5.165870   -8.615700   -1.255750
  C      4.039160   -7.758240   -0.934990
  C      4.251770   -6.547720   -0.273920
  C      5.520280   -5.990700    0.253230
  O      6.628540   -6.448170    0.214380
  N      5.175970   -4.760390    0.833770
  C      3.810310   -4.508730    0.767070
  O      3.240720   -3.542180    1.209510
  C      3.220580   -5.670830    0.054670
  C      1.903200   -5.935740   -0.269100
  C      1.678060   -7.124050   -0.954810
  C      2.699580   -8.016460   -1.284370
  C      2.234650   -9.199580   -2.041320
  O      2.886710  -10.110760   -2.464810
  S      0.461090   -9.110450   -2.256760
  C      0.325920   -7.537220   -1.391600
  O     -0.701390   -6.961390   -1.227500
  C      6.141920   -3.933320    1.410270
  C      5.948360   -2.623990    1.606230
  C      6.892560   -1.710710    2.166060
  O      8.119340   -2.089830    2.580320
  C      8.772210   -0.985470    2.979010
  C      7.996230    0.125280    2.845050
  C      6.763560   -0.339900    2.332740
  S      5.350120    0.596000    1.855640
  C      4.108000   -0.284170    2.739040
  C      4.208240   -0.591170    4.098890
  C      5.213930   -0.163140    5.098310
  O      6.189860    0.521750    4.947500
  N      4.777740   -0.690890    6.323190
  C      3.584090   -1.421240    6.192760
  O      3.018940   -1.977350    7.090610
  C      3.221990   -1.331000    4.757370
  C      2.104520   -1.826080    4.111370
  C      1.989030   -1.503790    2.764770
  C      2.936670   -0.729610    2.102130
  C      2.655830   -0.522690    0.669010
  O      3.299570    0.100640   -0.119420
  S      1.148110   -1.397730    0.238350
  C      0.899160   -2.013210    1.901850
  O      0.001900   -2.731090    2.216310
  C      5.314080   -0.424860    7.568030
  C      6.533420    0.092730    7.793870
  C      7.014280    0.445840    9.090380
  C      6.280290    0.985800   10.100990
  C      6.790780    1.350480   11.414640
  C      7.890210    0.816970   12.027190
  C      8.325400    1.176460   13.321260
  N      8.726410    1.434430   14.364580
  C      8.707660   -0.187290   11.462800
  N      9.401310   -1.012930   11.070010
  C      5.868590    2.320160   11.992440
  C      4.774630    2.477850   11.123190
  C      4.933650    1.601130    9.943930
  O      4.145250    1.473270    9.034720
  C      3.737600    3.343080   11.409620
  C      3.793360    4.070700   12.591580
  C      4.881520    3.922230   13.461610
  C      5.922860    3.048270   13.170290
  Cl     4.940670    4.834540   14.913610
  Cl     2.523630    5.155430   12.985200
  H      7.436680  -13.048320   -2.977550
  H      3.288350  -13.589530   -0.276180
  H      6.006450   -8.117690   -1.730860
  H      1.092890   -5.271760   -0.011790
  H      7.063880   -4.442810    1.650150
  H      5.019660   -2.173540    1.296690
  H      9.773340   -1.115700    3.339370
  H      8.242950    1.135950    3.089420
  H      1.361520   -2.421990    4.616290
  H      4.655820   -0.728250    8.370440
  H      7.217430    0.245420    6.971340
  H      8.084040    0.345240    9.231670
  H      2.905850    3.447960   10.731060
  H      6.747640    2.963510   13.858950

 Total Charge           Charge          ....    0
 Multiplicity           Mult            ....    1
 Number of Electrons    NEL             ....  584
 Basis Dimension        Dim             .... 1190

ORBITAL ENERGIES
----------------

  NO   OCC          E(Eh)            E(eV)
   0   2.0000    -101.611947     -2765.0017
   1   2.0000    -101.610916     -2764.9736
   2   2.0000    -101.604359     -2764.7952
   3   2.0000    -101.602715     -2764.7504
   4   2.0000     -88.968749     -2420.9627
   5   2.0000     -88.959397     -2420.7083
   6   2.0000     -88.954222     -2420.5674
   7   2.0000     -19.303937      -525.2868
   8   2.0000     -19.262303      -524.1539
   9   2.0000     -19.260351      -524.1008
  10   2.0000     -19.255029      -523.9560
  11   2.0000     -19.253265      -523.9080
  12   2.0000     -19.247932      -523.7629
  13   2.0000     -19.247219      -523.7435
  14   2.0000     -19.246765      -523.7311
  15   2.0000     -19.246212      -523.7161
  16   2.0000     -19.239250      -523.5266
  17   2.0000     -19.228723      -523.2402
  18   2.0000     -14.502267      -394.6267
  19   2.0000     -14.498004      -394.5108
  20   2.0000     -14.441018      -392.9601
  21   2.0000     -14.436140      -392.8273
  22   2.0000     -14.421753      -392.4358
  23   2.0000     -14.421321      -392.4241
  24   2.0000     -10.434700      -283.9426
  25   2.0000     -10.431085      -283.8442
  26   2.0000     -10.426392      -283.7166
  27   2.0000     -10.426240      -283.7124
  28   2.0000     -10.424633      -283.6687
  29   2.0000     -10.420988      -283.5695
  30   2.0000     -10.409356      -283.2530
  31   2.0000     -10.409209      -283.2490
  32   2.0000     -10.389851      -282.7222
  33   2.0000     -10.380576      -282.4698
  34   2.0000     -10.370400      -282.1929
  35   2.0000     -10.370042      -282.1832
  36   2.0000     -10.369384      -282.1653
  37   2.0000     -10.366468      -282.0859
  38   2.0000     -10.360919      -281.9349
  39   2.0000     -10.360555      -281.9250
  40   2.0000     -10.358832      -281.8782
  41   2.0000     -10.357835      -281.8510
  42   2.0000     -10.351786      -281.6864
  43   2.0000     -10.348848      -281.6065
  44   2.0000     -10.348284      -281.5911
  45   2.0000     -10.347618      -281.5730
  46   2.0000     -10.344419      -281.4860
  47   2.0000     -10.344327      -281.4834
  48   2.0000     -10.343307      -281.4557
  49   2.0000     -10.341373      -281.4031
  50   2.0000     -10.340794      -281.3873
  51   2.0000     -10.339750      -281.3589
  52   2.0000     -10.337452      -281.2964
  53   2.0000     -10.337321      -281.2928
  54   2.0000     -10.335481      -281.2427
  55   2.0000     -10.334550      -281.2174
  56   2.0000     -10.333440      -281.1872
  57   2.0000     -10.333065      -281.1770
  58   2.0000     -10.332960      -281.1741
  59   2.0000     -10.332524      -281.1623
  60   2.0000     -10.332443      -281.1601
  61   2.0000     -10.328047      -281.0404
  62   2.0000     -10.326212      -280.9905
  63   2.0000     -10.324907      -280.9550
  64   2.0000     -10.323773      -280.9241
  65   2.0000     -10.323693      -280.9220
  66   2.0000     -10.323564      -280.9185
  67   2.0000     -10.323558      -280.9183
  68   2.0000     -10.320699      -280.8405
  69   2.0000     -10.318477      -280.7800
  70   2.0000     -10.314345      -280.6676
  71   2.0000     -10.313903      -280.6556
  72   2.0000     -10.308286      -280.5027
  73   2.0000     -10.307288      -280.4756
  74   2.0000     -10.305166      -280.4178
  75   2.0000     -10.299474      -280.2629
  76   2.0000     -10.289495      -279.9914
  77   2.0000     -10.282399      -279.7983
  78   2.0000      -9.567065      -260.3331
  79   2.0000      -9.565973      -260.3034
  80   2.0000      -9.559362      -260.1235
  81   2.0000      -9.557815      -260.0814
  82   2.0000      -8.067921      -219.5393
  83   2.0000      -8.054138      -219.1642
  84   2.0000      -8.053319      -219.1419
  85   2.0000      -7.337461      -199.6625
  86   2.0000      -7.336406      -199.6337
  87   2.0000      -7.329760      -199.4529
  88   2.0000      -7.328223      -199.4111
  89   2.0000      -7.327331      -199.3868
  90   2.0000      -7.326535      -199.3652
  91   2.0000      -7.326219      -199.3566
  92   2.0000      -7.325445      -199.3355
  93   2.0000      -7.319629      -199.1772
  94   2.0000      -7.318878      -199.1568
  95   2.0000      -7.318049      -199.1343
  96   2.0000      -7.317321      -199.1144
  97   2.0000      -6.036758      -164.2685
  98   2.0000      -6.033501      -164.1799
  99   2.0000      -6.028995      -164.0573
 100   2.0000      -6.024735      -163.9414
 101   2.0000      -6.022222      -163.8730
 102   2.0000      -6.020513      -163.8265
 103   2.0000      -6.018978      -163.7847
 104   2.0000      -6.014302      -163.6575
 105   2.0000      -6.013505      -163.6358
 106   2.0000      -1.223108       -33.2825
 107   2.0000      -1.200140       -32.6575
 108   2.0000      -1.194007       -32.4906
 109   2.0000      -1.187065       -32.3017
 110   2.0000      -1.182768       -32.1848
 111   2.0000      -1.177278       -32.0354
 112   2.0000      -1.172791       -31.9133
 113   2.0000      -1.170354       -31.8470
 114   2.0000      -1.168985       -31.8097
 115   2.0000      -1.156205       -31.4619
 116   2.0000      -1.144767       -31.1507
 117   2.0000      -1.092846       -29.7379
 118   2.0000      -1.087384       -29.5892
 119   2.0000      -1.047862       -28.5138
 120   2.0000      -1.038232       -28.2517
 121   2.0000      -1.035962       -28.1899
 122   2.0000      -1.029987       -28.0274
 123   2.0000      -1.022630       -27.8272
 124   2.0000      -1.020796       -27.7773
 125   2.0000      -1.016558       -27.6619
 126   2.0000      -1.009496       -27.4698
 127   2.0000      -0.999994       -27.2112
 128   2.0000      -0.996321       -27.1113
 129   2.0000      -0.974830       -26.5265
 130   2.0000      -0.972949       -26.4753
 131   2.0000      -0.966090       -26.2887
 132   2.0000      -0.964525       -26.2460
 133   2.0000      -0.955769       -26.0078
 134   2.0000      -0.951644       -25.8955
 135   2.0000      -0.941244       -25.6126
 136   2.0000      -0.939604       -25.5679
 137   2.0000      -0.922624       -25.1059
 138   2.0000      -0.920432       -25.0462
 139   2.0000      -0.910514       -24.7763
 140   2.0000      -0.904323       -24.6079
 141   2.0000      -0.900875       -24.5141
 142   2.0000      -0.890611       -24.2348
 143   2.0000      -0.882211       -24.0062
 144   2.0000      -0.876279       -23.8448
 145   2.0000      -0.865773       -23.5589
 146   2.0000      -0.865687       -23.5565
 147   2.0000      -0.847489       -23.0614
 148   2.0000      -0.840971       -22.8840
 149   2.0000      -0.829153       -22.5624
 150   2.0000      -0.812753       -22.1161
 151   2.0000      -0.803347       -21.8602
 152   2.0000      -0.801737       -21.8164
 153   2.0000      -0.800140       -21.7729
 154   2.0000      -0.788983       -21.4693
 155   2.0000      -0.782577       -21.2950
 156   2.0000      -0.773005       -21.0345
 157   2.0000      -0.765693       -20.8356
 158   2.0000      -0.763508       -20.7761
 159   2.0000      -0.757653       -20.6168
 160   2.0000      -0.738022       -20.0826
 161   2.0000      -0.728045       -19.8111
 162   2.0000      -0.726706       -19.7747
 163   2.0000      -0.717457       -19.5230
 164   2.0000      -0.706933       -19.2366
 165   2.0000      -0.706177       -19.2160
 166   2.0000      -0.701802       -19.0970
 167   2.0000      -0.700390       -19.0586
 168   2.0000      -0.697620       -18.9832
 169   2.0000      -0.692636       -18.8476
 170   2.0000      -0.683228       -18.5916
 171   2.0000      -0.681207       -18.5366
 172   2.0000      -0.672374       -18.2962
 173   2.0000      -0.653215       -17.7749
 174   2.0000      -0.651242       -17.7212
 175   2.0000      -0.646732       -17.5985
 176   2.0000      -0.641627       -17.4596
 177   2.0000      -0.635148       -17.2833
 178   2.0000      -0.634687       -17.2707
 179   2.0000      -0.632388       -17.2081
 180   2.0000      -0.626114       -17.0374
 181   2.0000      -0.624996       -17.0070
 182   2.0000      -0.621488       -16.9116
 183   2.0000      -0.618136       -16.8203
 184   2.0000      -0.611924       -16.6513
 185   2.0000      -0.609352       -16.5813
 186   2.0000      -0.604630       -16.4528
 187   2.0000      -0.602514       -16.3952
 188   2.0000      -0.596262       -16.2251
 189   2.0000      -0.593563       -16.1517
 190   2.0000      -0.592321       -16.1179
 191   2.0000      -0.589545       -16.0423
 192   2.0000      -0.586455       -15.9582
 193   2.0000      -0.579183       -15.7604
 194   2.0000      -0.575912       -15.6714
 195   2.0000      -0.574674       -15.6377
 196   2.0000      -0.572411       -15.5761
 197   2.0000      -0.571759       -15.5584
 198   2.0000      -0.568344       -15.4654
 199   2.0000      -0.566195       -15.4070
 200   2.0000      -0.562767       -15.3137
 201   2.0000      -0.560599       -15.2547
 202   2.0000      -0.557187       -15.1618
 203   2.0000      -0.555615       -15.1191
 204   2.0000      -0.554178       -15.0800
 205   2.0000      -0.552256       -15.0276
 206   2.0000      -0.550643       -14.9838
 207   2.0000      -0.549851       -14.9622
 208   2.0000      -0.546717       -14.8769
 209   2.0000      -0.546223       -14.8635
 210   2.0000      -0.544919       -14.8280
 211   2.0000      -0.542348       -14.7580
 212   2.0000      -0.541583       -14.7372
 213   2.0000      -0.539770       -14.6879
 214   2.0000      -0.537241       -14.6191
 215   2.0000      -0.531629       -14.4664
 216   2.0000      -0.531212       -14.4550
 217   2.0000      -0.529136       -14.3985
 218   2.0000      -0.527633       -14.3576
 219   2.0000      -0.525957       -14.3120
 220   2.0000      -0.522965       -14.2306
 221   2.0000      -0.518337       -14.1047
 222   2.0000      -0.515644       -14.0314
 223   2.0000      -0.514179       -13.9915
 224   2.0000      -0.513552       -13.9745
 225   2.0000      -0.511793       -13.9266
 226   2.0000      -0.509964       -13.8768
 227   2.0000      -0.507727       -13.8159
 228   2.0000      -0.504470       -13.7273
 229   2.0000      -0.502954       -13.6861
 230   2.0000      -0.499583       -13.5943
 231   2.0000      -0.499256       -13.5854
 232   2.0000      -0.494862       -13.4659
 233   2.0000      -0.494405       -13.4534
 234   2.0000      -0.490279       -13.3412
 235   2.0000      -0.487707       -13.2712
 236   2.0000      -0.486294       -13.2327
 237   2.0000      -0.483930       -13.1684
 238   2.0000      -0.481730       -13.1085
 239   2.0000      -0.475101       -12.9282
 240   2.0000      -0.473486       -12.8842
 241   2.0000      -0.472791       -12.8653
 242   2.0000      -0.472379       -12.8541
 243   2.0000      -0.462897       -12.5961
 244   2.0000      -0.454055       -12.3555
 245   2.0000      -0.453719       -12.3463
 246   2.0000      -0.450343       -12.2544
 247   2.0000      -0.449143       -12.2218
 248   2.0000      -0.448096       -12.1933
 249   2.0000      -0.445438       -12.1210
 250   2.0000      -0.442567       -12.0429
 251   2.0000      -0.441841       -12.0231
 252   2.0000      -0.441388       -12.0108
 253   2.0000      -0.440026       -11.9737
 254   2.0000      -0.436581       -11.8800
 255   2.0000      -0.433526       -11.7969
 256   2.0000      -0.432833       -11.7780
 257   2.0000      -0.432095       -11.7579
 258   2.0000      -0.422973       -11.5097
 259   2.0000      -0.420093       -11.4313
 260   2.0000      -0.418595       -11.3906
 261   2.0000      -0.413001       -11.2383
 262   2.0000      -0.407514       -11.0890
 263   2.0000      -0.406988       -11.0747
 264   2.0000      -0.402868       -10.9626
 265   2.0000      -0.393528       -10.7085
 266   2.0000      -0.393049       -10.6954
 267   2.0000      -0.392311       -10.6753
 268   2.0000      -0.389908       -10.6099
 269   2.0000      -0.385485       -10.4896
 270   2.0000      -0.384904       -10.4738
 271   2.0000      -0.381873       -10.3913
 272   2.0000      -0.381524       -10.3818
 273   2.0000      -0.380445       -10.3524
 274   2.0000      -0.374756       -10.1976
 275   2.0000      -0.370172       -10.0729
 276   2.0000      -0.367352        -9.9961
 277   2.0000      -0.366598        -9.9756
 278   2.0000      -0.363567        -9.8932
 279   2.0000      -0.359159        -9.7732
 280   2.0000      -0.356409        -9.6984
 281   2.0000      -0.354940        -9.6584
 282   2.0000      -0.353534        -9.6201
 283   2.0000      -0.352116        -9.5816
 284   2.0000      -0.348553        -9.4846
 285   2.0000      -0.344351        -9.3703
 286   2.0000      -0.340147        -9.2559
 287   2.0000      -0.325786        -8.8651
 288   2.0000      -0.317555        -8.6411
 289   2.0000      -0.315542        -8.5863
 290   2.0000      -0.296900        -8.0791
 291   2.0000      -0.275475        -7.4961
 292   0.0000      -0.116430        -3.1682
 293   0.0000      -0.106820        -2.9067
 294   0.0000      -0.099135        -2.6976
 295   0.0000      -0.092403        -2.5144
 296   0.0000      -0.080629        -2.1940

MULLIKEN ATOMIC CHARGES
-----------------------
   0 C :    0.285629
   1 C :   -0.336136
   2 C :   -0.190748
   3 N :    0.179859
   4 C :   -0.176092
   5 N :    0.160914
   6 C :    0.032499
   7 C :    0.001564
   8 C :   -0.026570
   9 C :    0.059309
  10 C :    0.054923
  11 C :   -0.010412
  12 Cl:   -0.026644
  13 Cl:   -0.031284
  14 C :    0.139124
  15 O :   -0.114058
  16 C :   -0.072210
  17 C :    0.004764
  18 C :   -0.046024
  19 C :    0.012826
  20 C :    0.203379
  21 O :   -0.128447
  22 N :   -0.238722
  23 C :    0.224790
  24 O :   -0.165362
  25 C :    0.032749
  26 C :   -0.051970
  27 C :    0.054554
  28 C :    0.061321
  29 C :    0.044164
  30 O :   -0.139135
  31 S :    0.031664
  32 C :    0.048497
  33 O :   -0.101826
  34 C :    0.086380
  35 C :    0.004608
  36 C :    0.137189
  37 O :   -0.186763
  38 C :    0.133079
  39 C :    0.015970
  40 C :   -0.124825
  41 S :    0.196290
  42 C :   -0.183962
  43 C :    0.018369
  44 C :    0.220838
  45 O :   -0.130438
  46 N :   -0.244601
  47 C :    0.203804
  48 O :   -0.117288
  49 C :    0.012879
  50 C :   -0.072285
  51 C :    0.085129
  52 C :    0.059873
  53 C :    0.028266
  54 O :   -0.114362
  55 S :    0.007272
  56 C :    0.053308
  57 O :   -0.120249
  58 C :    0.166807
  59 C :   -0.030537
  60 C :    0.011691
  61 C :   -0.106023
  62 C :    0.278579
  63 C :   -0.322373
  64 C :   -0.188357
  65 N :    0.164714
  66 C :   -0.209395
  67 N :    0.166357
  68 C :    0.035218
  69 C :   -0.019565
  70 C :    0.153922
  71 O :   -0.144796
  72 C :   -0.027861
  73 C :    0.062314
  74 C :    0.049188
  75 C :   -0.016270
  76 Cl:   -0.032678
  77 Cl:   -0.040504
  78 H :    0.005565
  79 H :    0.004777
  80 H :    0.049820
  81 H :    0.025574
  82 H :    0.036778
  83 H :    0.022933
  84 H :    0.017099
  85 H :   -0.002579
  86 H :    0.019469
  87 H :    0.046944
  88 H :    0.036241
  89 H :    0.037939
  90 H :   -0.000241
  91 H :    0.003882
Sum of atomic charges:   -0.0000000

LOEWDIN ATOMIC CHARGES
----------------------
   0 C :    0.076365
   1 C :   -0.128305
   2 C :   -0.022407
   3 N :   -0.030142
   4 C :   -0.013665
   5 N :   -0.049825
   6 C :   -0.005916
   7 C :   -0.041624
   8 C :    0.005293
   9 C :   -0.130868
  10 C :   -0.126954
  11 C :   -0.007839
  12 Cl:    0.171954
  13 Cl:    0.169180
  14 C :    0.090081
  15 O :   -0.114294
  16 C :   -0.049032
  17 C :    0.060441
  18 C :    0.018441
  19 C :   -0.020356
  20 C :    0.103663
  21 O :   -0.117729
  22 N :   -0.008483
  23 C :    0.113283
  24 O :   -0.144147
  25 C :   -0.018077
  26 C :    0.056571
  27 C :   -0.045162
  28 C :   -0.053350
  29 C :   -0.046527
  30 O :   -0.119602
  31 S :    0.316502
  32 C :   -0.042408
  33 O :   -0.094031
  34 C :    0.032259
  35 C :   -0.050192
  36 C :    0.003635
  37 O :    0.021321
  38 C :    0.043456
  39 C :   -0.062652
  40 C :   -0.210842
  41 S :    0.400755
  42 C :   -0.114592
  43 C :   -0.051580
  44 C :    0.106928
  45 O :   -0.109053
  46 N :   -0.011082
  47 C :    0.103137
  48 O :   -0.115801
  49 C :   -0.030504
  50 C :    0.042296
  51 C :   -0.039066
  52 C :   -0.074055
  53 C :   -0.053889
  54 O :   -0.110174
  55 S :    0.300490
  56 C :   -0.043566
  57 O :   -0.110736
  58 C :    0.104970
  59 C :   -0.075785
  60 C :    0.078323
  61 C :   -0.101052
  62 C :    0.073940
  63 C :   -0.131019
  64 C :   -0.020770
  65 N :   -0.043015
  66 C :   -0.024679
  67 N :   -0.043509
  68 C :   -0.013813
  69 C :   -0.043086
  70 C :    0.085877
  71 O :   -0.133351
  72 C :    0.001544
  73 C :   -0.134024
  74 C :   -0.129937
  75 C :   -0.011668
  76 Cl:    0.164736
  77 Cl:    0.161456
  78 H :    0.048469
  79 H :    0.045930
  80 H :    0.057645
  81 H :    0.055584
  82 H :    0.038844
  83 H :    0.036924
  84 H :    0.026203
  85 H :    0.035864
  86 H :    0.052909
  87 H :    0.040500
  88 H :    0.040299
  89 H :    0.047142
  90 H :    0.045925
  91 H :    0.045097

  Mayer bond orders larger than 0.100000
B(  0-C ,  1-C ) :   1.6857 B(  0-C ,  6-C ) :   1.0227 B(  0-C , 16-C ) :   0.9807
B(  1-C ,  2-C ) :   1.1199 B(  1-C ,  4-C ) :   1.1752 B(  2-C ,  3-N ) :   2.9997
B(  4-C ,  5-N ) :   2.9920 B(  6-C ,  7-C ) :   1.3227 B(  6-C , 11-C ) :   1.3386
B(  7-C ,  8-C ) :   1.3389 B(  7-C , 14-C ) :   0.9234 B(  8-C ,  9-C ) :   1.3527
B(  8-C , 78-H ) :   1.0166 B(  9-C , 10-C ) :   1.3903 B(  9-C , 13-Cl) :   1.0595
B( 10-C , 11-C ) :   1.3666 B( 10-C , 12-Cl) :   1.0791 B( 11-C , 79-H ) :   0.9901
B( 14-C , 15-O ) :   2.2960 B( 14-C , 16-C ) :   0.9179 B( 16-C , 17-C ) :   1.8349
B( 17-C , 18-C ) :   0.9948 B( 17-C , 80-H ) :   0.9208 B( 18-C , 19-C ) :   1.4270
B( 18-C , 28-C ) :   1.3617 B( 19-C , 20-C ) :   0.8858 B( 19-C , 25-C ) :   1.3876
B( 20-C , 21-O ) :   2.1983 B( 20-C , 22-N ) :   1.0332 B( 22-N , 23-C ) :   1.0660
B( 22-N , 34-C ) :   0.9804 B( 23-C , 24-O ) :   2.1350 B( 23-C , 25-C ) :   0.8761
B( 25-C , 26-C ) :   1.3262 B( 26-C , 27-C ) :   1.3429 B( 26-C , 81-H ) :   1.0225
B( 27-C , 28-C ) :   1.3404 B( 27-C , 32-C ) :   0.8329 B( 28-C , 29-C ) :   0.8512
B( 29-C , 30-O ) :   2.1463 B( 29-C , 31-S ) :   1.0492 B( 30-O , 31-S ) :   0.1088
B( 31-S , 32-C ) :   1.0138 B( 31-S , 33-O ) :   0.1057 B( 32-C , 33-O ) :   2.2388
B( 34-C , 35-C ) :   1.7149 B( 34-C , 82-H ) :   0.9834 B( 35-C , 36-C ) :   1.1579
B( 35-C , 83-H ) :   0.9320 B( 36-C , 37-O ) :   1.1836 B( 36-C , 40-C ) :   1.4639
B( 37-O , 38-C ) :   1.1275 B( 38-C , 39-C ) :   1.5522 B( 38-C , 84-H ) :   1.0061
B( 39-C , 40-C ) :   1.2613 B( 39-C , 85-H ) :   1.0090 B( 40-C , 41-S ) :   0.9981
B( 41-S , 42-C ) :   1.1296 B( 42-C , 43-C ) :   1.3697 B( 42-C , 52-C ) :   1.4155
B( 43-C , 44-C ) :   0.9083 B( 43-C , 49-C ) :   1.3971 B( 44-C , 45-O ) :   2.1612
B( 44-C , 46-N ) :   1.0177 B( 46-N , 47-C ) :   1.0013 B( 46-N , 58-C ) :   1.0626
B( 47-C , 48-O ) :   2.2586 B( 47-C , 49-C ) :   0.8780 B( 49-C , 50-C ) :   1.3266
B( 50-C , 51-C ) :   1.3343 B( 50-C , 86-H ) :   1.0282 B( 51-C , 52-C ) :   1.3561
B( 51-C , 56-C ) :   0.8375 B( 52-C , 53-C ) :   0.8487 B( 53-C , 54-O ) :   2.1945
B( 53-C , 55-S ) :   1.0270 B( 54-O , 55-S ) :   0.1093 B( 55-S , 56-C ) :   1.0169
B( 55-S , 57-O ) :   0.1044 B( 56-C , 57-O ) :   2.2232 B( 58-C , 59-C ) :   1.6949
B( 58-C , 87-H ) :   0.9606 B( 59-C , 60-C ) :   1.1564 B( 59-C , 88-H ) :   0.9403
B( 60-C , 61-C ) :   1.6366 B( 60-C , 89-H ) :   0.9499 B( 61-C , 62-C ) :   1.0475
B( 61-C , 70-C ) :   0.9449 B( 62-C , 63-C ) :   1.6733 B( 62-C , 68-C ) :   1.0021
B( 63-C , 64-C ) :   1.1308 B( 63-C , 66-C ) :   1.1358 B( 64-C , 65-N ) :   2.9836
B( 66-C , 67-N ) :   3.0107 B( 68-C , 69-C ) :   1.3257 B( 68-C , 75-C ) :   1.3393
B( 69-C , 70-C ) :   0.9490 B( 69-C , 72-C ) :   1.3481 B( 70-C , 71-O ) :   2.2074
B( 72-C , 73-C ) :   1.3437 B( 72-C , 90-H ) :   1.0165 B( 73-C , 74-C ) :   1.4007
B( 73-C , 77-Cl) :   1.0499 B( 74-C , 75-C ) :   1.3631 B( 74-C , 76-Cl) :   1.0766
B( 75-C , 91-H ) :   0.9878

-----------------------------------------------------------------------------
         ABSORPTION SPECTRUM VIA TRANSITION ELECTRIC DIPOLE MOMENTS
-----------------------------------------------------------------------------
State   Energy  Wavelength   fosc         T2         TX        TY        TZ
        (cm-1)    (nm)                  (au**2)     (au)      (au)      (au)
-----------------------------------------------------------------------------
   0   18297.6    546.5   0.007724228   0.13898   0.25018  -0.07140   0.26700
   1   19817.2    504.6   0.013507498   0.22439   0.41003   0.09654   0.21668
   2   22935.4    436.0   0.153607673   2.20487  -0.35753  -1.28104  -0.66028
   3   24763.6    403.8   0.241579640   3.21161  -0.19340  -0.52473  -1.70261
   4   25042.6    399.3   0.238899024   3.14059   0.56312   0.46026   1.61606
   5   25742.8    388.5   0.107184693   1.37073  -0.79642  -0.38062  -0.76913
   6   26169.2    382.1   0.017682517   0.22245   0.21783  -0.07463   0.41161
   7   26322.4    379.9   0.000985619   0.01233   0.03064   0.09243   0.05333
   8   27050.5    369.7   0.015831648   0.19268   0.33441  -0.28238   0.03326
   9   28117.0    355.7   0.133478544   1.56285   0.45791  -0.81283  -0.83215
  10   29398.1    340.2   0.009957178   0.11150   0.13172   0.30070  -0.06112
  11   29506.7    338.9   0.009642221   0.10758  -0.25444   0.01508   0.20643
  12   29737.1    336.3   0.075507320   0.83592  -0.03035  -0.76022  -0.50702
  13   29910.2    334.3   0.104893165   1.15453   0.42776  -0.98516  -0.03159
  14   30170.8    331.4   0.009061353   0.09887   0.07162  -0.13686   0.27389
  15   30432.9    328.6   0.097711407   1.05701  -0.60549  -0.76113  -0.33326
  16   30773.1    325.0   0.036692149   0.39253  -0.05813  -0.40677   0.47296
  17   31099.1    321.6   0.002099584   0.02223   0.09682   0.07086  -0.08849
  18   31332.5    319.2   0.216146268   2.27106   1.10827  -1.01069  -0.14599
  19   31930.7    313.2   0.040658148   0.41919   0.56160   0.32103   0.02714
  20   32366.8    309.0   0.028740082   0.29232  -0.38979   0.33419   0.16944
  21   32448.3    308.2   0.036443841   0.36975  -0.14185  -0.56286  -0.18115
  22   32609.7    306.7   0.018147637   0.18321  -0.01736  -0.42171   0.07119
  23   32658.7    306.2   0.025993729   0.26203  -0.16646   0.09673  -0.47430
  24   32881.0    304.1   0.028254141   0.28289  -0.17707  -0.36787  -0.34089
  25   33050.4    302.6   0.026011997   0.25910   0.16952  -0.01755  -0.47964
  26   33241.7    300.8   0.046206187   0.45761  -0.14973   0.24062   0.61424
  27   33444.5    299.0   0.007598883   0.07480  -0.19829   0.13867  -0.12748
  28   33547.1    298.1   0.059176806   0.58073   0.00288  -0.76193   0.01342
  29   33639.0    297.3   0.099151925   0.97036   0.05177   0.41768   0.89063
  30   33850.5    295.4   0.058073592   0.56479   0.54273   0.11515   0.50693
  31   33860.7    295.3   0.026705283   0.25964  -0.02511  -0.03944  -0.50740
  32   34081.0    293.4   0.042880123   0.41421  -0.30250  -0.55228   0.13302
  33   34326.9    291.3   0.298641823   2.86412  -1.48702  -0.08827  -0.80318
  34   34675.1    288.4   0.163397943   1.55133   0.80900   0.17386   0.93093
  35   35064.3    285.2   0.419890950   3.94227   0.91491  -1.41397  -1.05161
  36   35306.6    283.2   0.285480565   2.66193   0.62834  -1.26484  -0.81689
  37   35344.9    282.9   0.129692049   1.20799   0.08486  -0.81477  -0.73276
  38   35707.1    280.1   0.203527570   1.87648   0.92617  -0.43817  -0.90923
  39   36041.5    277.5   0.087614134   0.80029   0.56625  -0.18671  -0.66692
  40   36126.5    276.8   0.002396964   0.02184   0.11024  -0.05108  -0.08415
  41   36478.2    274.1   0.213912137   1.93054   0.80104   0.53596   1.00081
  42   36484.0    274.1   0.045300632   0.40877  -0.06691  -0.24022   0.58872
  43   36571.6    273.4   0.011728986   0.10558   0.27503  -0.09975   0.14139
  44   36633.0    273.0   0.033104491   0.29750  -0.31160   0.43209   0.11709
  45   36817.4    271.6   0.317820131   2.84187  -0.78775   1.48876   0.07007
  46   36851.4    271.4   0.126004803   1.12566  -0.22802   1.03382   0.06986
  47   37320.2    268.0   0.142016070   1.25276   0.07518  -0.96853  -0.55593
  48   37335.1    267.8   0.049855314   0.43961  -0.57742   0.21915  -0.24118
  49   37559.8    266.2   0.012035603   0.10549  -0.09040   0.30846   0.04662
  50   38048.8    262.8   0.038266967   0.33110   0.11336  -0.52890  -0.19625
  51   38238.5    261.5   0.056938785   0.49021  -0.63416   0.29659   0.00951
  52   38426.9    260.2   0.056532384   0.48433   0.56151   0.40051  -0.09286
  53   38649.0    258.7   0.003821493   0.03255   0.02746  -0.17599  -0.02872
  54   38846.9    257.4   0.003997059   0.03387  -0.06070   0.15936  -0.06924
  55   38942.9    256.8   0.031232416   0.26403  -0.49538  -0.01201  -0.13597
  56   39207.8    255.1   0.019672069   0.16518  -0.30476  -0.26875  -0.00856
  57   39295.6    254.5   0.012837770   0.10755   0.10454  -0.00138   0.31084
  58   39465.8    253.4   0.002203572   0.01838  -0.10596   0.04304  -0.07282
  59   39645.2    252.2   0.044922847   0.37304  -0.00157   0.60763   0.06180
  60   39832.5    251.1   0.023089107   0.19083  -0.10427   0.42317  -0.02971
  61   39913.1    250.5   0.003327093   0.02744   0.13646  -0.09341   0.00985
  62   40128.3    249.2   0.014494550   0.11891   0.25664   0.08050  -0.21580
  63   40233.3    248.6   0.009236410   0.07558   0.12763   0.19053   0.15161

FINAL SINGLE POINT ENERGY     -6252.654412724148

DIPOLE MOMENT
-------------
                                X             Y             Z
Electronic contribution:    -14.92295     -20.95413       1.95291
Nuclear contribution   :     15.01226      20.98794      -4.30816
                        -----------------------------------------
Total Dipole Moment    :      0.08931       0.03381      -2.35525
                        -----------------------------------------
Magnitude (a.u.)       :      2.35719
Magnitude (Debye)      :      5.99149

Rotational constants in cm-1:     0.001330     0.000231     0.000219
Rotational constants in MHz :    39.871918     6.928180     6.563750

                             ****ORCA TERMINATED NORMALLY****
TOTAL RUN TIME: 0 days 0 hours 10 minutes 49 seconds 489 msec
