                         Program Version 4.2.0 -  RELEASE  -
|  1> # ORCA input file
|  2> # SCF done       -179.323657238340          0.000439751411
|  3> ! CAM-B3LYP def2-SVP def2/J RIJCOSX Grid4 TightSCF
|  4> %maxcore 5000
|  5> %tddft
|  6>     Mode sTDDFT
|  7>     Ethresh 5.0
|  8>     maxcore 5000
|  9> end
| 10>
| 11> %pal
| 12>   nprocs 6
| 13>   end
| 14> * xyz 0 1
| 15>    C       -2.82920        -3.49845         5.31622
| 16>    C       -2.35981        -4.61283         5.96949
| 17>    C       -1.45338        -4.60371         7.04630
| 18>    N       -0.67261        -4.70619         7.88345
| 19>    C       -2.82785        -5.91589         5.70481
| 20>    N       -3.20894        -6.98514         5.53911
| 21>    C       -2.62534        -2.11935         5.74977
| 22>    C       -3.48402        -1.27608         5.02129
| 23>    C       -3.52107         0.08524         5.24216
| 24>    C       -2.67377         0.62025         6.20622
| 25>    C       -1.81080        -0.21252         6.92881
| 26>    C       -1.78369        -1.58585         6.71009
| 27>   Cl       -0.76378         0.46327         8.10834
| 28>   Cl       -2.68593         2.30967         6.50704
| 29>    C       -4.24968        -2.08376         4.05005
| 30>    O       -5.11722        -1.72214         3.29433
| 31>    C       -3.68840        -3.46888         4.16503
| 32>    C       -3.98410        -4.35157         3.16620
| 33>    C       -3.42917        -5.58809         2.76984
| 34>    C       -4.17799        -6.51074         1.89405
| 35>    N       -3.55769        -7.61252         1.61476
| 36>    C       -2.35144        -7.52621         2.24198
| 37>    C       -2.21934        -6.23524         2.94854
| 38>    C       -0.90781        -6.15038         3.54399
| 39>    S       -0.16487        -4.82529         4.18561
| 40>    C       -0.34533        -7.45421         3.35278
| 41>    C       -1.21763        -8.25494         2.47931
| 42>    N       -0.64940        -9.47105         2.21671
| 43>    C        0.46363        -9.49017         2.87908
| 44>    C        0.71482        -8.27384         3.67405
| 45>    C        1.76863        -8.10187         4.59648
| 46>    S        3.26770        -8.96022         4.46259
| 47>    C        3.89930        -8.17813         5.88308
| 48>    C        2.95422        -7.31033         6.44930
| 49>    C        1.73573        -7.29792         5.73901
| 50>    O        0.58706        -6.69909         6.09431
| 51>    O        3.25538        -6.60938         7.56914
| 52>    C        2.66072        -5.33348         7.77541
| 53>    C        5.20994        -8.44123         6.33564
| 54>    C        5.86234        -7.81442         7.50112
| 55>    N        7.07852        -8.20924         7.71057
| 56>    C        7.34982        -9.11893         6.72956
| 57>    C        6.18678        -9.28308         5.83651
| 58>    C        6.48526       -10.26082         4.82878
| 59>    S        5.53828       -10.86295         3.62434
| 60>    C        7.83407       -10.67787         5.12926
| 61>    C        8.34811        -9.95208         6.29897
| 62>    N        9.61555       -10.36304         6.59106
| 63>    C        9.92027       -11.25361         5.69687
| 64>    C        8.84290       -11.51636         4.72267
| 65>    C        8.80071       -12.44991         3.65025
| 66>    C        9.83700       -12.78547         2.84023
| 67>    C        9.83827       -13.78081         1.77875
| 68>    C        8.87931       -14.72847         1.55215
| 69>    C        8.93998       -15.68171         0.51136
| 70>    N        8.93214       -16.47706        -0.31508
| 71>    C        7.71951       -14.91087         2.33885
| 72>    N        6.77210       -15.13709         2.94504
| 73>    C       11.08613       -13.62608         1.03829
| 74>    C       11.85284       -12.60761         1.63385
| 75>    C       11.12455       -12.03891         2.78443
| 76>    O       11.47557       -11.12303         3.49182
| 77>    C       13.09231       -12.24720         1.14355
| 78>    C       13.58318       -12.92033         0.03229
| 79>    C       12.82597       -13.93524        -0.56891
| 80>    C       11.57754       -14.29332        -0.07295
| 81>   Cl       13.44225       -14.75528        -1.94358
| 82>   Cl       15.12037       -12.50618        -0.60568
| 83>    H       -4.18892         0.71784         4.67909
| 84>    H       -1.10360        -2.19815         7.27942
| 85>    H       -4.78654        -4.00371         2.51740
| 86>    H       -5.16545        -6.31752         1.51264
| 87>    H        1.12616       -10.33760         2.84098
| 88>    H        0.64641        -6.25959         6.95475
| 89>    H        3.40665        -4.74584         8.31171
| 90>    H        1.76622        -5.40454         8.40181
| 91>    H        2.42757        -4.83280         6.83326
| 92>    H        5.39889        -7.08880         8.14278
| 93>    H       10.86587       -11.76107         5.73050
| 94>    H        7.81941       -12.87139         3.46095
| 95>    H       13.66260       -11.46266         1.61550
| 96>    H       11.02216       -15.07543        -0.56412
| 97> *
| 98>
| 99>                          ****END OF INPUT****

CARTESIAN COORDINATES (ANGSTROEM)
---------------------------------
  C     -2.829200   -3.498450    5.316220
  C     -2.359810   -4.612830    5.969490
  C     -1.453380   -4.603710    7.046300
  N     -0.672610   -4.706190    7.883450
  C     -2.827850   -5.915890    5.704810
  N     -3.208940   -6.985140    5.539110
  C     -2.625340   -2.119350    5.749770
  C     -3.484020   -1.276080    5.021290
  C     -3.521070    0.085240    5.242160
  C     -2.673770    0.620250    6.206220
  C     -1.810800   -0.212520    6.928810
  C     -1.783690   -1.585850    6.710090
  Cl    -0.763780    0.463270    8.108340
  Cl    -2.685930    2.309670    6.507040
  C     -4.249680   -2.083760    4.050050
  O     -5.117220   -1.722140    3.294330
  C     -3.688400   -3.468880    4.165030
  C     -3.984100   -4.351570    3.166200
  C     -3.429170   -5.588090    2.769840
  C     -4.177990   -6.510740    1.894050
  N     -3.557690   -7.612520    1.614760
  C     -2.351440   -7.526210    2.241980
  C     -2.219340   -6.235240    2.948540
  C     -0.907810   -6.150380    3.543990
  S     -0.164870   -4.825290    4.185610
  C     -0.345330   -7.454210    3.352780
  C     -1.217630   -8.254940    2.479310
  N     -0.649400   -9.471050    2.216710
  C      0.463630   -9.490170    2.879080
  C      0.714820   -8.273840    3.674050
  C      1.768630   -8.101870    4.596480
  S      3.267700   -8.960220    4.462590
  C      3.899300   -8.178130    5.883080
  C      2.954220   -7.310330    6.449300
  C      1.735730   -7.297920    5.739010
  O      0.587060   -6.699090    6.094310
  O      3.255380   -6.609380    7.569140
  C      2.660720   -5.333480    7.775410
  C      5.209940   -8.441230    6.335640
  C      5.862340   -7.814420    7.501120
  N      7.078520   -8.209240    7.710570
  C      7.349820   -9.118930    6.729560
  C      6.186780   -9.283080    5.836510
  C      6.485260  -10.260820    4.828780
  S      5.538280  -10.862950    3.624340
  C      7.834070  -10.677870    5.129260
  C      8.348110   -9.952080    6.298970
  N      9.615550  -10.363040    6.591060
  C      9.920270  -11.253610    5.696870
  C      8.842900  -11.516360    4.722670
  C      8.800710  -12.449910    3.650250
  C      9.837000  -12.785470    2.840230
  C      9.838270  -13.780810    1.778750
  C      8.879310  -14.728470    1.552150
  C      8.939980  -15.681710    0.511360
  N      8.932140  -16.477060   -0.315080
  C      7.719510  -14.910870    2.338850
  N      6.772100  -15.137090    2.945040
  C     11.086130  -13.626080    1.038290
  C     11.852840  -12.607610    1.633850
  C     11.124550  -12.038910    2.784430
  O     11.475570  -11.123030    3.491820
  C     13.092310  -12.247200    1.143550
  C     13.583180  -12.920330    0.032290
  C     12.825970  -13.935240   -0.568910
  C     11.577540  -14.293320   -0.072950
  Cl    13.442250  -14.755280   -1.943580
  Cl    15.120370  -12.506180   -0.605680
  H     -4.188920    0.717840    4.679090
  H     -1.103600   -2.198150    7.279420
  H     -4.786540   -4.003710    2.517400
  H     -5.165450   -6.317520    1.512640
  H      1.126160  -10.337600    2.840980
  H      0.646410   -6.259590    6.954750
  H      3.406650   -4.745840    8.311710
  H      1.766220   -5.404540    8.401810
  H      2.427570   -4.832800    6.833260
  H      5.398890   -7.088800    8.142780
  H     10.865870  -11.761070    5.730500
  H      7.819410  -12.871390    3.460950
  H     13.662600  -11.462660    1.615500
  H     11.022160  -15.075430   -0.564120

 Total Charge           Charge          ....    0
 Multiplicity           Mult            ....    1
 Number of Electrons    NEL             ....  512
 Basis Dimension        Dim             .... 1050

ORBITAL ENERGIES
----------------

  NO   OCC          E(Eh)            E(eV)
   0   2.0000    -101.611198     -2764.9813
   1   2.0000    -101.609891     -2764.9457
   2   2.0000    -101.608292     -2764.9022
   3   2.0000    -101.606896     -2764.8642
   4   2.0000     -88.973029     -2421.0792
   5   2.0000     -88.916343     -2419.5367
   6   2.0000     -88.912308     -2419.4269
   7   2.0000     -19.274908      -524.4969
   8   2.0000     -19.272345      -524.4272
   9   2.0000     -19.236883      -523.4622
  10   2.0000     -19.236564      -523.4535
  11   2.0000     -14.445224      -393.0745
  12   2.0000     -14.431890      -392.7117
  13   2.0000     -14.427553      -392.5937
  14   2.0000     -14.426602      -392.5678
  15   2.0000     -14.424777      -392.5181
  16   2.0000     -14.423842      -392.4927
  17   2.0000     -14.422117      -392.4458
  18   2.0000     -14.416519      -392.2934
  19   2.0000     -10.386861      -282.6409
  20   2.0000     -10.385511      -282.6041
  21   2.0000     -10.368581      -282.1434
  22   2.0000     -10.366671      -282.0914
  23   2.0000     -10.365972      -282.0724
  24   2.0000     -10.365523      -282.0602
  25   2.0000     -10.365197      -282.0514
  26   2.0000     -10.363931      -282.0169
  27   2.0000     -10.362391      -281.9750
  28   2.0000     -10.359718      -281.9023
  29   2.0000     -10.356275      -281.8086
  30   2.0000     -10.355426      -281.7855
  31   2.0000     -10.353025      -281.7201
  32   2.0000     -10.352519      -281.7064
  33   2.0000     -10.349286      -281.6184
  34   2.0000     -10.345905      -281.5264
  35   2.0000     -10.344832      -281.4972
  36   2.0000     -10.341128      -281.3964
  37   2.0000     -10.340540      -281.3804
  38   2.0000     -10.340424      -281.3772
  39   2.0000     -10.339987      -281.3654
  40   2.0000     -10.338752      -281.3317
  41   2.0000     -10.336137      -281.2606
  42   2.0000     -10.335660      -281.2476
  43   2.0000     -10.333284      -281.1829
  44   2.0000     -10.332434      -281.1598
  45   2.0000     -10.330922      -281.1187
  46   2.0000     -10.329014      -281.0668
  47   2.0000     -10.328387      -281.0497
  48   2.0000     -10.328382      -281.0496
  49   2.0000     -10.327791      -281.0335
  50   2.0000     -10.327027      -281.0127
  51   2.0000     -10.324379      -280.9406
  52   2.0000     -10.322793      -280.8975
  53   2.0000     -10.322008      -280.8761
  54   2.0000     -10.321685      -280.8673
  55   2.0000     -10.320342      -280.8308
  56   2.0000     -10.319577      -280.8100
  57   2.0000     -10.319450      -280.8065
  58   2.0000     -10.318963      -280.7933
  59   2.0000     -10.318493      -280.7805
  60   2.0000     -10.318037      -280.7681
  61   2.0000     -10.316120      -280.7159
  62   2.0000     -10.315247      -280.6921
  63   2.0000     -10.313830      -280.6536
  64   2.0000     -10.312734      -280.6238
  65   2.0000     -10.311576      -280.5923
  66   2.0000     -10.303424      -280.3704
  67   2.0000     -10.300675      -280.2956
  68   2.0000      -9.566220      -260.3101
  69   2.0000      -9.564895      -260.2740
  70   2.0000      -9.563320      -260.2312
  71   2.0000      -9.561968      -260.1944
  72   2.0000      -8.067544      -219.5290
  73   2.0000      -8.011300      -217.9985
  74   2.0000      -8.008071      -217.9107
  75   2.0000      -7.336614      -199.6394
  76   2.0000      -7.335317      -199.6041
  77   2.0000      -7.333698      -199.5601
  78   2.0000      -7.332384      -199.5243
  79   2.0000      -7.326478      -199.3636
  80   2.0000      -7.325733      -199.3433
  81   2.0000      -7.325133      -199.3270
  82   2.0000      -7.324411      -199.3074
  83   2.0000      -7.323606      -199.2854
  84   2.0000      -7.322833      -199.2644
  85   2.0000      -7.322212      -199.2475
  86   2.0000      -7.321453      -199.2269
  87   2.0000      -6.036974      -164.2744
  88   2.0000      -6.033032      -164.1671
  89   2.0000      -6.029003      -164.0575
  90   2.0000      -5.980655      -162.7419
  91   2.0000      -5.979879      -162.7208
  92   2.0000      -5.976835      -162.6379
  93   2.0000      -5.976514      -162.6292
  94   2.0000      -5.970048      -162.4533
  95   2.0000      -5.967375      -162.3805
  96   2.0000      -1.184469       -32.2310
  97   2.0000      -1.161654       -31.6102
  98   2.0000      -1.152859       -31.3709
  99   2.0000      -1.152211       -31.3533
 100   2.0000      -1.092993       -29.7419
 101   2.0000      -1.091205       -29.6932
 102   2.0000      -1.073929       -29.2231
 103   2.0000      -1.071143       -29.1473
 104   2.0000      -1.045430       -28.4476
 105   2.0000      -1.041097       -28.3297
 106   2.0000      -1.036659       -28.2089
 107   2.0000      -1.026154       -27.9231
 108   2.0000      -1.017578       -27.6897
 109   2.0000      -1.005362       -27.3573
 110   2.0000      -1.005164       -27.3519
 111   2.0000      -1.001998       -27.2658
 112   2.0000      -1.000934       -27.2368
 113   2.0000      -0.973854       -26.4999
 114   2.0000      -0.973276       -26.4842
 115   2.0000      -0.973116       -26.4798
 116   2.0000      -0.970439       -26.4070
 117   2.0000      -0.949027       -25.8243
 118   2.0000      -0.947008       -25.7694
 119   2.0000      -0.928809       -25.2742
 120   2.0000      -0.924911       -25.1681
 121   2.0000      -0.917181       -24.9578
 122   2.0000      -0.901042       -24.5186
 123   2.0000      -0.896451       -24.3937
 124   2.0000      -0.885827       -24.1046
 125   2.0000      -0.874031       -23.7836
 126   2.0000      -0.870952       -23.6998
 127   2.0000      -0.866569       -23.5805
 128   2.0000      -0.863558       -23.4986
 129   2.0000      -0.857760       -23.3408
 130   2.0000      -0.846904       -23.0454
 131   2.0000      -0.844953       -22.9924
 132   2.0000      -0.822971       -22.3942
 133   2.0000      -0.805414       -21.9164
 134   2.0000      -0.795744       -21.6533
 135   2.0000      -0.792390       -21.5620
 136   2.0000      -0.783227       -21.3127
 137   2.0000      -0.779655       -21.2155
 138   2.0000      -0.774894       -21.0859
 139   2.0000      -0.769210       -20.9313
 140   2.0000      -0.753379       -20.5005
 141   2.0000      -0.747664       -20.3450
 142   2.0000      -0.730234       -19.8707
 143   2.0000      -0.723824       -19.6962
 144   2.0000      -0.720137       -19.5959
 145   2.0000      -0.714530       -19.4434
 146   2.0000      -0.708614       -19.2824
 147   2.0000      -0.707531       -19.2529
 148   2.0000      -0.703509       -19.1435
 149   2.0000      -0.697905       -18.9910
 150   2.0000      -0.690530       -18.7903
 151   2.0000      -0.689251       -18.7555
 152   2.0000      -0.665592       -18.1117
 153   2.0000      -0.657305       -17.8862
 154   2.0000      -0.655370       -17.8335
 155   2.0000      -0.653956       -17.7950
 156   2.0000      -0.645348       -17.5608
 157   2.0000      -0.637544       -17.3485
 158   2.0000      -0.634341       -17.2613
 159   2.0000      -0.630434       -17.1550
 160   2.0000      -0.621628       -16.9154
 161   2.0000      -0.612552       -16.6684
 162   2.0000      -0.608039       -16.5456
 163   2.0000      -0.603150       -16.4126
 164   2.0000      -0.598687       -16.2911
 165   2.0000      -0.590347       -16.0642
 166   2.0000      -0.583396       -15.8750
 167   2.0000      -0.582527       -15.8514
 168   2.0000      -0.580233       -15.7889
 169   2.0000      -0.577741       -15.7211
 170   2.0000      -0.571971       -15.5641
 171   2.0000      -0.569619       -15.5001
 172   2.0000      -0.563748       -15.3404
 173   2.0000      -0.561647       -15.2832
 174   2.0000      -0.559295       -15.2192
 175   2.0000      -0.558072       -15.1859
 176   2.0000      -0.555146       -15.1063
 177   2.0000      -0.554740       -15.0952
 178   2.0000      -0.552201       -15.0261
 179   2.0000      -0.550754       -14.9868
 180   2.0000      -0.546342       -14.8667
 181   2.0000      -0.542843       -14.7715
 182   2.0000      -0.539239       -14.6734
 183   2.0000      -0.536158       -14.5896
 184   2.0000      -0.532816       -14.4987
 185   2.0000      -0.529183       -14.3998
 186   2.0000      -0.527725       -14.3601
 187   2.0000      -0.523089       -14.2340
 188   2.0000      -0.521332       -14.1862
 189   2.0000      -0.517092       -14.0708
 190   2.0000      -0.514426       -13.9983
 191   2.0000      -0.511686       -13.9237
 192   2.0000      -0.507083       -13.7984
 193   2.0000      -0.505934       -13.7672
 194   2.0000      -0.503468       -13.7001
 195   2.0000      -0.502716       -13.6796
 196   2.0000      -0.501546       -13.6478
 197   2.0000      -0.498229       -13.5575
 198   2.0000      -0.496453       -13.5092
 199   2.0000      -0.493833       -13.4379
 200   2.0000      -0.491471       -13.3736
 201   2.0000      -0.488186       -13.2842
 202   2.0000      -0.486688       -13.2434
 203   2.0000      -0.484645       -13.1879
 204   2.0000      -0.482136       -13.1196
 205   2.0000      -0.477596       -12.9960
 206   2.0000      -0.473832       -12.8936
 207   2.0000      -0.465743       -12.6735
 208   2.0000      -0.462376       -12.5819
 209   2.0000      -0.458996       -12.4899
 210   2.0000      -0.457724       -12.4553
 211   2.0000      -0.454917       -12.3789
 212   2.0000      -0.453285       -12.3345
 213   2.0000      -0.452313       -12.3081
 214   2.0000      -0.451268       -12.2796
 215   2.0000      -0.448904       -12.2153
 216   2.0000      -0.447545       -12.1783
 217   2.0000      -0.442734       -12.0474
 218   2.0000      -0.441238       -12.0067
 219   2.0000      -0.440386       -11.9835
 220   2.0000      -0.438800       -11.9404
 221   2.0000      -0.437845       -11.9144
 222   2.0000      -0.437368       -11.9014
 223   2.0000      -0.436318       -11.8728
 224   2.0000      -0.431869       -11.7518
 225   2.0000      -0.423100       -11.5131
 226   2.0000      -0.422470       -11.4960
 227   2.0000      -0.420365       -11.4387
 228   2.0000      -0.417381       -11.3575
 229   2.0000      -0.415693       -11.3116
 230   2.0000      -0.415191       -11.2979
 231   2.0000      -0.407969       -11.1014
 232   2.0000      -0.392575       -10.6825
 233   2.0000      -0.389502       -10.5989
 234   2.0000      -0.386765       -10.5244
 235   2.0000      -0.380876       -10.3642
 236   2.0000      -0.376298       -10.2396
 237   2.0000      -0.364320        -9.9137
 238   2.0000      -0.363296        -9.8858
 239   2.0000      -0.362401        -9.8614
 240   2.0000      -0.361482        -9.8364
 241   2.0000      -0.355404        -9.6710
 242   2.0000      -0.352637        -9.5957
 243   2.0000      -0.352092        -9.5809
 244   2.0000      -0.348886        -9.4937
 245   2.0000      -0.338970        -9.2238
 246   2.0000      -0.335033        -9.1167
 247   2.0000      -0.325884        -8.8677
 248   2.0000      -0.322170        -8.7667
 249   2.0000      -0.317945        -8.6517
 250   2.0000      -0.314754        -8.5649
 251   2.0000      -0.309306        -8.4167
 252   2.0000      -0.300572        -8.1790
 253   2.0000      -0.294204        -8.0057
 254   2.0000      -0.287952        -7.8356
 255   2.0000      -0.267364        -7.2753
 256   0.0000      -0.129973        -3.5367
 257   0.0000      -0.121850        -3.3157
 258   0.0000      -0.105249        -2.8640
 259   0.0000      -0.092929        -2.5287
 260   0.0000      -0.087244        -2.3740

MULLIKEN ATOMIC CHARGES
-----------------------
   0 C :    0.355485
   1 C :   -0.403158
   2 C :   -0.101616
   3 N :    0.097138
   4 C :   -0.218224
   5 N :    0.200387
   6 C :    0.025890
   7 C :    0.002848
   8 C :   -0.023693
   9 C :    0.055964
  10 C :    0.051837
  11 C :   -0.025165
  12 Cl:   -0.034833
  13 Cl:   -0.038125
  14 C :    0.133205
  15 O :   -0.125927
  16 C :   -0.102110
  17 C :   -0.007923
  18 C :    0.014943
  19 C :    0.063372
  20 N :   -0.019036
  21 C :    0.002245
  22 C :    0.005541
  23 C :   -0.038046
  24 S :   -0.099677
  25 C :    0.006914
  26 C :    0.035925
  27 N :   -0.021401
  28 C :    0.068826
  29 C :    0.023428
  30 C :   -0.166799
  31 S :    0.194845
  32 C :   -0.147129
  33 C :    0.149305
  34 C :    0.110958
  35 O :   -0.160334
  36 O :   -0.332171
  37 C :    0.134485
  38 C :    0.022856
  39 C :    0.068325
  40 N :   -0.013311
  41 C :    0.002799
  42 C :   -0.044500
  43 C :   -0.013267
  44 S :   -0.103120
  45 C :    0.013647
  46 C :    0.018403
  47 N :   -0.031361
  48 C :    0.111503
  49 C :   -0.021343
  50 C :   -0.039674
  51 C :   -0.088687
  52 C :    0.300914
  53 C :   -0.322515
  54 C :   -0.189641
  55 N :    0.168144
  56 C :   -0.196977
  57 N :    0.174513
  58 C :    0.037973
  59 C :   -0.026048
  60 C :    0.147399
  61 O :   -0.134461
  62 C :   -0.022750
  63 C :    0.060364
  64 C :    0.052220
  65 C :   -0.014595
  66 Cl:   -0.028210
  67 Cl:   -0.035680
  68 H :    0.003842
  69 H :   -0.005745
  70 H :    0.027340
  71 H :    0.011285
  72 H :    0.022807
  73 H :    0.190503
  74 H :    0.046178
  75 H :    0.058898
  76 H :    0.044349
  77 H :    0.017219
  78 H :    0.012556
  79 H :    0.043189
  80 H :    0.002936
  81 H :    0.003552
Sum of atomic charges:   -0.0000000

LOEWDIN ATOMIC CHARGES
----------------------
   0 C :    0.065736
   1 C :   -0.142131
   2 C :    0.008654
   3 N :   -0.081769
   4 C :   -0.015624
   5 N :   -0.032716
   6 C :   -0.007475
   7 C :   -0.047333
   8 C :    0.006112
   9 C :   -0.135757
  10 C :   -0.128179
  11 C :   -0.019128
  12 Cl:    0.163880
  13 Cl:    0.162707
  14 C :    0.088457
  15 O :   -0.123414
  16 C :   -0.071460
  17 C :    0.062541
  18 C :   -0.062819
  19 C :    0.086241
  20 N :   -0.069076
  21 C :    0.027577
  22 C :    0.018192
  23 C :   -0.149669
  24 S :    0.105239
  25 C :   -0.038147
  26 C :    0.055534
  27 N :   -0.071766
  28 C :    0.098236
  29 C :   -0.041560
  30 C :   -0.204094
  31 S :    0.479145
  32 C :   -0.189376
  33 C :   -0.000225
  34 C :    0.007353
  35 O :   -0.019448
  36 O :   -0.106758
  37 C :    0.074193
  38 C :   -0.040217
  39 C :    0.097357
  40 N :   -0.072604
  41 C :    0.046150
  42 C :   -0.056853
  43 C :   -0.146431
  44 S :    0.066576
  45 C :   -0.000307
  46 C :    0.030978
  47 N :   -0.084139
  48 C :    0.105936
  49 C :   -0.051958
  50 C :    0.077992
  51 C :   -0.081885
  52 C :    0.069902
  53 C :   -0.119522
  54 C :   -0.019755
  55 N :   -0.036974
  56 C :   -0.023430
  57 N :   -0.031259
  58 C :   -0.012009
  59 C :   -0.046133
  60 C :    0.086171
  61 O :   -0.121905
  62 C :    0.003894
  63 C :   -0.133142
  64 C :   -0.127592
  65 C :   -0.011427
  66 Cl:    0.168468
  67 Cl:    0.164903
  68 H :    0.047651
  69 H :    0.041073
  70 H :    0.050821
  71 H :    0.027720
  72 H :    0.028402
  73 H :    0.080744
  74 H :    0.033390
  75 H :    0.020995
  76 H :    0.023662
  77 H :    0.025558
  78 H :    0.026308
  79 H :    0.048105
  80 H :    0.047501
  81 H :    0.045414

  Mayer bond orders larger than 0.100000
B(  0-C ,  1-C ) :   1.5615 B(  0-C ,  6-C ) :   1.0138 B(  0-C , 16-C ) :   1.0848
B(  1-C ,  2-C ) :   1.1299 B(  1-C ,  4-C ) :   1.1969 B(  1-C , 24-S ) :   0.1257
B(  2-C ,  3-N ) :   2.8834 B(  4-C ,  5-N ) :   2.9957 B(  6-C ,  7-C ) :   1.3234
B(  6-C , 11-C ) :   1.3481 B(  7-C ,  8-C ) :   1.3509 B(  7-C , 14-C ) :   0.9217
B(  8-C ,  9-C ) :   1.3438 B(  8-C , 68-H ) :   1.0158 B(  9-C , 10-C ) :   1.4095
B(  9-C , 13-Cl) :   1.0509 B( 10-C , 11-C ) :   1.3591 B( 10-C , 12-Cl) :   1.0732
B( 11-C , 69-H ) :   0.9875 B( 14-C , 15-O ) :   2.2708 B( 14-C , 16-C ) :   0.9249
B( 16-C , 17-C ) :   1.6335 B( 17-C , 18-C ) :   1.1267 B( 17-C , 70-H ) :   0.9324
B( 18-C , 19-C ) :   1.0120 B( 18-C , 22-C ) :   1.4499 B( 19-C , 20-N ) :   1.7433
B( 19-C , 71-H ) :   0.9928 B( 20-N , 21-C ) :   1.2640 B( 21-C , 22-C ) :   1.0712
B( 21-C , 26-C ) :   1.5234 B( 22-C , 23-C ) :   1.0361 B( 23-C , 24-S ) :   1.6398
B( 23-C , 25-C ) :   1.0520 B( 25-C , 26-C ) :   1.0594 B( 25-C , 29-C ) :   1.5398
B( 26-C , 27-N ) :   1.2450 B( 27-N , 28-C ) :   1.7527 B( 28-C , 29-C ) :   1.0078
B( 28-C , 72-H ) :   0.9883 B( 29-C , 30-C ) :   1.1142 B( 30-C , 31-S ) :   1.0903
B( 30-C , 32-C ) :   0.1253 B( 30-C , 34-C ) :   1.4342 B( 31-S , 32-C ) :   1.1179
B( 32-C , 33-C ) :   1.4276 B( 32-C , 38-C ) :   1.1610 B( 33-C , 34-C ) :   1.1946
B( 33-C , 36-O ) :   1.1613 B( 34-C , 35-O ) :   1.2909 B( 35-O , 73-H ) :   0.9093
B( 36-O , 37-C ) :   0.9140 B( 37-C , 74-H ) :   0.9735 B( 37-C , 75-H ) :   0.9621
B( 37-C , 76-H ) :   0.9669 B( 38-C , 39-C ) :   1.0292 B( 38-C , 42-C ) :   1.4878
B( 39-C , 40-N ) :   1.7176 B( 39-C , 77-H ) :   0.9834 B( 40-N , 41-C ) :   1.2652
B( 41-C , 42-C ) :   1.0766 B( 41-C , 46-C ) :   1.5088 B( 42-C , 43-C ) :   1.0480
B( 43-C , 44-S ) :   1.6952 B( 43-C , 45-C ) :   1.0162 B( 45-C , 46-C ) :   1.0695
B( 45-C , 49-C ) :   1.5503 B( 46-C , 47-N ) :   1.2720 B( 47-N , 48-C ) :   1.7256
B( 48-C , 49-C ) :   1.0065 B( 48-C , 78-H ) :   0.9881 B( 49-C , 50-C ) :   1.0844
B( 50-C , 51-C ) :   1.6609 B( 50-C , 79-H ) :   0.9357 B( 51-C , 52-C ) :   1.0329
B( 51-C , 60-C ) :   0.9362 B( 52-C , 53-C ) :   1.6757 B( 52-C , 58-C ) :   1.0002
B( 53-C , 54-C ) :   1.1347 B( 53-C , 56-C ) :   1.1404 B( 54-C , 55-N ) :   2.9781
B( 56-C , 57-N ) :   2.9863 B( 58-C , 59-C ) :   1.3256 B( 58-C , 65-C ) :   1.3404
B( 59-C , 60-C ) :   0.9470 B( 59-C , 62-C ) :   1.3404 B( 60-C , 61-O ) :   2.2244
B( 62-C , 63-C ) :   1.3461 B( 62-C , 80-H ) :   1.0172 B( 63-C , 64-C ) :   1.3975
B( 63-C , 67-Cl) :   1.0537 B( 64-C , 65-C ) :   1.3621 B( 64-C , 66-Cl) :   1.0826
B( 65-C , 81-H ) :   0.9865

-----------------------------------------------------------------------------
         ABSORPTION SPECTRUM VIA TRANSITION ELECTRIC DIPOLE MOMENTS
-----------------------------------------------------------------------------
State   Energy  Wavelength   fosc         T2         TX        TY        TZ
        (cm-1)    (nm)                  (au**2)     (au)      (au)      (au)
-----------------------------------------------------------------------------
   0   12506.0    799.6   0.102668527   2.70267   1.42913  -0.74638   0.32122
   1   13908.7    719.0   0.285459296   6.75669  -2.25154   1.29609   0.08599
   2   14660.9    682.1   0.002902825   0.06518  -0.07112   0.15040   0.19367
   3   15446.4    647.4   0.029590296   0.63066  -0.64995   0.43961   0.12235
   4   17149.5    583.1   0.048616701   0.93328  -0.84233   0.44392  -0.16337
   5   17304.3    577.9   0.003217251   0.06121  -0.17480   0.16935   0.04442
   6   18920.3    528.5   0.325759652   5.66818   1.98370  -1.31547  -0.05153
   7   19276.4    518.8   0.388155106   6.62912  -2.24451   1.22587  -0.29755
   8   20601.2    485.4   0.017894112   0.28595  -0.06917   0.28032   0.45010
   9   21453.3    466.1   0.032813632   0.50354  -0.32904   0.60533  -0.16985
  10   22066.9    453.2   0.028008736   0.41786   0.59119   0.02627   0.26011
  11   22658.9    441.3   0.045551712   0.66182   0.44759  -0.53632  -0.41695
  12   22786.7    438.9   0.013783128   0.19913  -0.11425  -0.08047  -0.42380
  13   23282.8    429.5   0.186647755   2.63915  -1.03124   1.14249   0.52001
  14   23439.5    426.6   0.003905214   0.05485   0.18219  -0.09953   0.10841
  15   23809.2    420.0   0.050691027   0.70091   0.60563  -0.57078  -0.09127
  16   24508.2    408.0   0.109186498   1.46667   0.64478  -0.77568  -0.67027
  17   25037.6    399.4   0.105713673   1.39000   0.73201  -0.78031  -0.49524
  18   25197.7    396.9   0.320401068   4.18609  -1.06015   1.43029   1.00818
  19   25473.9    392.6   0.025542944   0.33010  -0.36176   0.22290   0.38671
  20   25688.3    389.3   0.018596518   0.23833  -0.41867   0.14315  -0.20629
  21   25875.0    386.5   0.008615143   0.10961   0.04131   0.10502   0.31125
  22   26059.5    383.7   0.027067924   0.34195   0.03202   0.39445   0.43051
  23   26113.7    382.9   0.007062853   0.08904  -0.06598  -0.03439  -0.28897
  24   26923.1    371.4   0.060962538   0.74544  -0.14169  -0.73042  -0.43801
  25   27070.2    369.4   0.032656898   0.39715   0.54053  -0.17056  -0.27547
  26   27787.7    359.9   0.095523533   1.13171   0.81985  -0.19578  -0.64902
  27   27894.6    358.5   0.031027526   0.36619   0.31957  -0.06602  -0.50961
  28   28211.8    354.5   0.100484967   1.17259   0.39387  -0.66860  -0.75527
  29   28349.5    352.7   0.001914211   0.02223   0.02581   0.12021  -0.08433
  30   28484.4    351.1   0.249269296   2.88096   0.25966  -1.45107  -0.84139
  31   28508.4    350.8   0.016230693   0.18743   0.13823  -0.19316  -0.36196
  32   28911.6    345.9   0.049095055   0.55904  -0.68442   0.15047  -0.26071
  33   29532.4    338.6   0.054677231   0.60951  -0.36310  -0.53144  -0.44186
  34   29770.5    335.9   0.009215456   0.10191   0.00477   0.02035   0.31854
  35   29928.4    334.1   0.004268281   0.04695  -0.09234   0.04229   0.19140
  36   30188.5    331.3   0.171430841   1.86949  -1.15448   0.72527  -0.10321
  37   30283.7    330.2   0.011452965   0.12450   0.02230  -0.15248   0.31742
  38   30505.4    327.8   0.020337632   0.21948  -0.35549  -0.30464   0.01742
  39   30608.9    326.7   0.041274815   0.44393   0.50188  -0.24292  -0.36474
  40   30831.5    324.3   0.024677416   0.26350   0.31294   0.28904  -0.28640
  41   31048.0    322.1   0.009149304   0.09701  -0.10453   0.12095   0.26732
  42   31422.6    318.2   0.054731064   0.57341   0.13658   0.40910  -0.62241
  43   31610.0    316.4   0.408519465   4.25465   0.79875  -1.85810  -0.40512
  44   31999.8    312.5   0.043771531   0.45032   0.34381  -0.36762  -0.44381
  45   32062.9    311.9   0.032833546   0.33712   0.52422   0.21591  -0.12531
  46   32227.7    310.3   0.004352055   0.04446   0.17805   0.05480   0.09876
  47   32316.1    309.4   0.030314624   0.30882   0.25223  -0.15086  -0.47164
  48   32487.7    307.8   0.006373277   0.06458   0.10763   0.22982   0.01344
  49   32519.4    307.5   0.002501986   0.02533  -0.05044   0.14922   0.02274
  50   32926.2    303.7   0.038023786   0.38018   0.41006  -0.44763  -0.10799
  51   33105.9    302.1   0.011070923   0.11009  -0.09257   0.11510   0.29711
  52   33234.2    300.9   0.004347172   0.04306  -0.11127  -0.01113  -0.17481
  53   33425.2    299.2   0.008040391   0.07919  -0.03239   0.13686  -0.24375
  54   33526.0    298.3   0.039975362   0.39254   0.41626  -0.41768  -0.21169
  55   33778.6    296.0   0.216784173   2.11282   1.25463  -0.36399  -0.63737
  56   33895.2    295.0   0.017335851   0.16838   0.17151  -0.32039  -0.19056
  57   34083.5    293.4   0.049179515   0.47502  -0.09830   0.19221   0.65453
  58   34492.8    289.9   0.021390908   0.20416  -0.05634   0.34712   0.28371
  59   34788.0    287.5   0.107613332   1.01839  -0.19283  -0.98688  -0.08527
  60   34821.8    287.2   0.556635999   5.26254  -2.12166  -0.85933  -0.15049
  61   34921.4    286.4   0.165168941   1.55708   0.34846   1.02363  -0.62277
  62   35160.1    284.4   0.013376227   0.12524  -0.04440   0.33718  -0.09788
  63   35398.6    282.5   0.023017058   0.21406  -0.35653   0.17636  -0.23633
  64   35418.2    282.3   0.010119831   0.09406   0.01228   0.28417   0.11473
  65   35637.9    280.6   0.042957555   0.39683   0.44719  -0.38015  -0.22877
  66   35926.7    278.3   0.015662513   0.14352  -0.08346   0.18429   0.32030
  67   36022.6    277.6   0.007931075   0.07248   0.25764  -0.01461  -0.07676
  68   36555.0    273.6   0.006201748   0.05585   0.00415   0.08375  -0.22095
  69   36833.9    271.5   0.045890338   0.41016   0.38179  -0.27891  -0.43197
  70   37047.2    269.9   0.313908141   2.78948  -0.49528   1.57030   0.27989
  71   37306.9    268.0   0.143967537   1.27043  -0.66742  -0.70677   0.57049
  72   37445.6    267.1   0.099115083   0.87139  -0.58544   0.01232  -0.72698
  73   37530.4    266.5   0.001814082   0.01591   0.10513  -0.00043  -0.06972
  74   37704.9    265.2   0.058252097   0.50862  -0.03625   0.53352   0.47187
  75   37858.6    264.1   0.010759782   0.09357  -0.02089   0.29586  -0.07479
  76   38050.5    262.8   0.007235281   0.06260   0.01388  -0.21114   0.13352
  77   38209.9    261.7   0.005932437   0.05111   0.07263   0.10067  -0.18895
  78   38328.3    260.9   0.052808683   0.45359  -0.32865   0.33852   0.48061
  79   38504.3    259.7   0.014127006   0.12079   0.15665  -0.25443  -0.17752
  80   38691.4    258.5   0.013578581   0.11554  -0.16135   0.29879   0.01515
  81   39027.9    256.2   0.037630947   0.31743   0.15401   0.54111  -0.03020
  82   39193.8    255.1   0.047445962   0.39853   0.22177   0.55900   0.19201
  83   39314.6    254.4   0.008001762   0.06701   0.01689   0.25672   0.02857
  84   39495.3    253.2   0.204124988   1.70148   0.48463   0.74633   0.95373
  85   39657.4    252.2   0.003644261   0.03025  -0.15349  -0.04940   0.06522
  86   39728.1    251.7   0.036613541   0.30340  -0.48111  -0.06425  -0.26040
  87   39781.4    251.4   0.044588340   0.36899   0.52700  -0.02482   0.30107
  88   39837.2    251.0   0.104703082   0.86526   0.69693   0.35079   0.50645
  89   39897.3    250.6   0.138732357   1.14475   0.62018   0.09941   0.86616
  90   40089.6    249.4   0.043374865   0.35619  -0.49570   0.06361  -0.32623
  91   40222.8    248.6   0.107426234   0.87925  -0.68188  -0.02867  -0.64302

FINAL SINGLE POINT ENERGY     -5645.457375973014

DIPOLE MOMENT
-------------
                                X             Y             Z
Electronic contribution:     22.25611       3.68327     -15.64541
Nuclear contribution   :    -21.94336      -0.76340      16.17504
                        -----------------------------------------
Total Dipole Moment    :      0.31275       2.91988       0.52963
                        -----------------------------------------
Magnitude (a.u.)       :      2.98396
Magnitude (Debye)      :      7.58462

Rotational constants in cm-1:     0.001892     0.000277     0.000262
Rotational constants in MHz :    56.725556     8.309907     7.857666

                             ****ORCA TERMINATED NORMALLY****
TOTAL RUN TIME: 0 days 0 hours 8 minutes 23 seconds 354 msec
