                         Program Version 4.2.0 -  RELEASE  -
|  1> # ORCA input file
|  2> # SCF done       -205.588443110146          0.000516753349
|  3> ! CAM-B3LYP def2-SVP def2/J RIJCOSX Grid4 TightSCF
|  4> %maxcore 5000
|  5> %tddft
|  6>     Mode sTDDFT
|  7>     Ethresh 5.0
|  8>     maxcore 5000
|  9> end
| 10>
| 11> %pal
| 12>   nprocs 6
| 13>   end
| 14> * xyz 0 1
| 15>    C       -2.10160        -6.97374        -8.48193
| 16>    C       -1.01123        -6.96357        -9.31577
| 17>    C       -1.09300        -6.91286       -10.72277
| 18>    N       -1.08370        -6.87029       -11.87022
| 19>    C        0.33866        -7.00274        -8.90977
| 20>    N        1.46157        -7.03378        -8.66816
| 21>    C       -3.49717        -6.94297        -8.92319
| 22>    C       -4.33097        -6.97612        -7.79199
| 23>    C       -5.70579        -6.95874        -7.89671
| 24>    C       -6.26726        -6.90511        -9.16703
| 25>    C       -5.44727        -6.87001       -10.29841
| 26>    C       -4.06029        -6.88920       -10.18664
| 27>   Cl       -6.15330        -6.80142       -11.86314
| 28>   Cl       -7.97596        -6.88174        -9.34243
| 29>    C       -3.49637        -7.02784        -6.57396
| 30>    O       -3.90028        -7.06176        -5.42428
| 31>    C       -2.10923        -7.01825        -7.03730
| 32>    C       -0.99987        -7.01448        -6.22103
| 33>    C       -0.91089        -7.03546        -4.83041
| 34>    C        0.30397        -6.94814        -4.14483
| 35>    C        0.21796        -6.95633        -2.73635
| 36>    C        1.52032        -6.76287        -2.18024
| 37>    C        2.51992        -6.65574        -3.09121
| 38>    S        1.91733        -6.77088        -4.73086
| 39>    C        3.96786        -6.45633        -2.82946
| 40>    F        1.77623        -6.65492        -0.86327
| 41>    C       -1.10608        -7.08097        -2.30069
| 42>    S       -2.20116        -7.14492        -3.65109
| 43>    C       -1.64153        -7.13997        -0.96894
| 44>    C       -2.95172        -6.76712        -0.75060
| 45>    C       -3.47443        -6.74910         0.55450
| 46>    C       -4.72461        -6.37613         1.02876
| 47>    C       -5.89654        -5.96501         0.20418
| 48>    C       -7.11219        -6.87947         0.45318
| 49>    N       -7.96376        -6.87097        -0.71835
| 50>    C       -6.23628        -4.48017         0.42782
| 51>    N       -7.22795        -4.03005        -0.53682
| 52>    C       -4.66363        -6.47141         2.46970
| 53>    C       -5.56222        -6.17530         3.42594
| 54>    C       -5.23115        -6.29171         4.87789
| 55>    C       -3.87327        -6.84029         5.16903
| 56>    C       -2.98592        -7.13356         4.20175
| 57>    C       -3.32237        -6.95339         2.83829
| 58>    C       -2.61335        -7.12535         1.66947
| 59>    C       -1.29929        -7.57861         1.40481
| 60>    C       -0.83612        -7.59127         0.13137
| 61>    C       -6.35747        -7.00204         5.57514
| 62>    C       -6.24581        -8.13515         6.27407
| 63>    C       -7.34824        -8.75716         6.93962
| 64>    C       -7.28700        -9.85021         7.78205
| 65>    C       -8.52933       -10.23293         8.32769
| 66>    C       -8.37464       -11.35267         9.18326
| 67>    C       -7.09439       -11.80171         9.30413
| 68>    S       -5.98396       -10.85395         8.34426
| 69>    C       -6.61426       -12.94140        10.12271
| 70>    F       -9.40119       -11.94429         9.81356
| 71>    C       -9.59564        -9.42533         7.89590
| 72>    S       -8.99037        -8.21453         6.77829
| 73>    C      -10.90470        -9.56079         8.36099
| 74>    C      -12.04519        -8.89789         7.97030
| 75>    C      -13.36596        -9.08470         8.53418
| 76>    C      -13.67862        -9.68655         9.72437
| 77>    C      -14.99392        -9.82212        10.21647
| 78>    N      -16.03852        -9.97007        10.66827
| 79>    C      -12.73976       -10.18985        10.65136
| 80>    N      -12.03869       -10.58056        11.47210
| 81>    C      -14.31605        -8.41745         7.64468
| 82>    C      -13.59723        -7.75486         6.63394
| 83>    C      -12.15278        -7.99348         6.82541
| 84>    O      -11.24886        -7.53331         6.14837
| 85>    C      -14.22948        -7.02256         5.65064
| 86>    C      -15.61721        -6.95368         5.67172
| 87>    C      -16.34119        -7.61332         6.67041
| 88>    C      -15.69825        -8.34626         7.66330
| 89>   Cl      -18.05603        -7.52511         6.68041
| 90>   Cl      -16.44315        -6.05526         4.46338
| 91>    H       -6.32633        -6.98688        -7.01507
| 92>    H       -3.46243        -6.86072       -11.08255
| 93>    H       -0.03034        -6.97454        -6.70428
| 94>    H        4.14183        -6.38057        -1.75857
| 95>    H        4.32123        -5.54664        -3.31353
| 96>    H        4.54511        -7.29130        -3.22560
| 97>    H       -3.56394        -6.44925        -1.58191
| 98>    H       -5.63680        -6.09037        -0.85158
| 99>    H       -7.62976        -6.56108         1.37325
|100>    H       -6.75912        -7.90497         0.60742
|101>    H       -8.27468        -5.91907        -0.89081
|102>    H       -8.77731        -7.45838        -0.57396
|103>    H       -5.29638        -3.90247         0.38328
|104>    H       -6.66135        -4.34066         1.42541
|105>    H       -6.84720        -4.08913        -1.47635
|106>    H       -7.47450        -3.06137        -0.36315
|107>    H       -6.55900        -5.83013         3.19376
|108>    H       -5.25198        -5.25673         5.26875
|109>    H       -3.62036        -6.95045         6.21241
|110>    H       -2.00227        -7.50384         4.45103
|111>    H       -0.67792        -7.91861         2.21964
|112>    H        0.14842        -7.97279        -0.07431
|113>    H       -7.32971        -6.53582         5.47840
|114>    H       -5.29139        -8.63159         6.38821
|115>    H       -7.45097       -13.39059        10.65267
|116>    H       -5.87317       -12.60471        10.84715
|117>    H       -6.14486       -13.69547         9.49124
|118>    H      -11.01959       -10.31815         9.12732
|119>    H      -13.66027        -6.51863         4.88577
|120>    H      -16.28896        -8.84326         8.41520
|121> *
|122>
|123>                          ****END OF INPUT****

CARTESIAN COORDINATES (ANGSTROEM)
---------------------------------
  C     -2.101600   -6.973740   -8.481930
  C     -1.011230   -6.963570   -9.315770
  C     -1.093000   -6.912860  -10.722770
  N     -1.083700   -6.870290  -11.870220
  C      0.338660   -7.002740   -8.909770
  N      1.461570   -7.033780   -8.668160
  C     -3.497170   -6.942970   -8.923190
  C     -4.330970   -6.976120   -7.791990
  C     -5.705790   -6.958740   -7.896710
  C     -6.267260   -6.905110   -9.167030
  C     -5.447270   -6.870010  -10.298410
  C     -4.060290   -6.889200  -10.186640
  Cl    -6.153300   -6.801420  -11.863140
  Cl    -7.975960   -6.881740   -9.342430
  C     -3.496370   -7.027840   -6.573960
  O     -3.900280   -7.061760   -5.424280
  C     -2.109230   -7.018250   -7.037300
  C     -0.999870   -7.014480   -6.221030
  C     -0.910890   -7.035460   -4.830410
  C      0.303970   -6.948140   -4.144830
  C      0.217960   -6.956330   -2.736350
  C      1.520320   -6.762870   -2.180240
  C      2.519920   -6.655740   -3.091210
  S      1.917330   -6.770880   -4.730860
  C      3.967860   -6.456330   -2.829460
  F      1.776230   -6.654920   -0.863270
  C     -1.106080   -7.080970   -2.300690
  S     -2.201160   -7.144920   -3.651090
  C     -1.641530   -7.139970   -0.968940
  C     -2.951720   -6.767120   -0.750600
  C     -3.474430   -6.749100    0.554500
  C     -4.724610   -6.376130    1.028760
  C     -5.896540   -5.965010    0.204180
  C     -7.112190   -6.879470    0.453180
  N     -7.963760   -6.870970   -0.718350
  C     -6.236280   -4.480170    0.427820
  N     -7.227950   -4.030050   -0.536820
  C     -4.663630   -6.471410    2.469700
  C     -5.562220   -6.175300    3.425940
  C     -5.231150   -6.291710    4.877890
  C     -3.873270   -6.840290    5.169030
  C     -2.985920   -7.133560    4.201750
  C     -3.322370   -6.953390    2.838290
  C     -2.613350   -7.125350    1.669470
  C     -1.299290   -7.578610    1.404810
  C     -0.836120   -7.591270    0.131370
  C     -6.357470   -7.002040    5.575140
  C     -6.245810   -8.135150    6.274070
  C     -7.348240   -8.757160    6.939620
  C     -7.287000   -9.850210    7.782050
  C     -8.529330  -10.232930    8.327690
  C     -8.374640  -11.352670    9.183260
  C     -7.094390  -11.801710    9.304130
  S     -5.983960  -10.853950    8.344260
  C     -6.614260  -12.941400   10.122710
  F     -9.401190  -11.944290    9.813560
  C     -9.595640   -9.425330    7.895900
  S     -8.990370   -8.214530    6.778290
  C    -10.904700   -9.560790    8.360990
  C    -12.045190   -8.897890    7.970300
  C    -13.365960   -9.084700    8.534180
  C    -13.678620   -9.686550    9.724370
  C    -14.993920   -9.822120   10.216470
  N    -16.038520   -9.970070   10.668270
  C    -12.739760  -10.189850   10.651360
  N    -12.038690  -10.580560   11.472100
  C    -14.316050   -8.417450    7.644680
  C    -13.597230   -7.754860    6.633940
  C    -12.152780   -7.993480    6.825410
  O    -11.248860   -7.533310    6.148370
  C    -14.229480   -7.022560    5.650640
  C    -15.617210   -6.953680    5.671720
  C    -16.341190   -7.613320    6.670410
  C    -15.698250   -8.346260    7.663300
  Cl   -18.056030   -7.525110    6.680410
  Cl   -16.443150   -6.055260    4.463380
  H     -6.326330   -6.986880   -7.015070
  H     -3.462430   -6.860720  -11.082550
  H     -0.030340   -6.974540   -6.704280
  H      4.141830   -6.380570   -1.758570
  H      4.321230   -5.546640   -3.313530
  H      4.545110   -7.291300   -3.225600
  H     -3.563940   -6.449250   -1.581910
  H     -5.636800   -6.090370   -0.851580
  H     -7.629760   -6.561080    1.373250
  H     -6.759120   -7.904970    0.607420
  H     -8.274680   -5.919070   -0.890810
  H     -8.777310   -7.458380   -0.573960
  H     -5.296380   -3.902470    0.383280
  H     -6.661350   -4.340660    1.425410
  H     -6.847200   -4.089130   -1.476350
  H     -7.474500   -3.061370   -0.363150
  H     -6.559000   -5.830130    3.193760
  H     -5.251980   -5.256730    5.268750
  H     -3.620360   -6.950450    6.212410
  H     -2.002270   -7.503840    4.451030
  H     -0.677920   -7.918610    2.219640
  H      0.148420   -7.972790   -0.074310
  H     -7.329710   -6.535820    5.478400
  H     -5.291390   -8.631590    6.388210
  H     -7.450970  -13.390590   10.652670
  H     -5.873170  -12.604710   10.847150
  H     -6.144860  -13.695470    9.491240
  H    -11.019590  -10.318150    9.127320
  H    -13.660270   -6.518630    4.885770
  H    -16.288960   -8.843260    8.415200

 Total Charge           Charge          ....    0
 Multiplicity           Mult            ....    1
 Number of Electrons    NEL             ....  586
 Basis Dimension        Dim             .... 1246

ORBITAL ENERGIES
----------------

  NO   OCC          E(Eh)            E(eV)
   0   2.0000    -101.601013     -2764.7041
   1   2.0000    -101.599098     -2764.6520
   2   2.0000    -101.597791     -2764.6164
   3   2.0000    -101.595929     -2764.5658
   4   2.0000     -88.975528     -2421.1472
   5   2.0000     -88.971100     -2421.0267
   6   2.0000     -88.969349     -2420.9791
   7   2.0000     -88.966131     -2420.8915
   8   2.0000     -24.799542      -674.8298
   9   2.0000     -24.794996      -674.7062
  10   2.0000     -19.226173      -523.1708
  11   2.0000     -19.221648      -523.0476
  12   2.0000     -14.416267      -392.2866
  13   2.0000     -14.415735      -392.2721
  14   2.0000     -14.415117      -392.2553
  15   2.0000     -14.411887      -392.1674
  16   2.0000     -14.395681      -391.7264
  17   2.0000     -14.361916      -390.8076
  18   2.0000     -10.374814      -282.3130
  19   2.0000     -10.370294      -282.1901
  20   2.0000     -10.370259      -282.1891
  21   2.0000     -10.364215      -282.0246
  22   2.0000     -10.356248      -281.8078
  23   2.0000     -10.355829      -281.7964
  24   2.0000     -10.352855      -281.7155
  25   2.0000     -10.352345      -281.7016
  26   2.0000     -10.344062      -281.4762
  27   2.0000     -10.343043      -281.4485
  28   2.0000     -10.341139      -281.3967
  29   2.0000     -10.340124      -281.3691
  30   2.0000     -10.329609      -281.0829
  31   2.0000     -10.327315      -281.0205
  32   2.0000     -10.326539      -280.9994
  33   2.0000     -10.325470      -280.9703
  34   2.0000     -10.325001      -280.9575
  35   2.0000     -10.323815      -280.9253
  36   2.0000     -10.323178      -280.9080
  37   2.0000     -10.319283      -280.8020
  38   2.0000     -10.319130      -280.7978
  39   2.0000     -10.318035      -280.7680
  40   2.0000     -10.317975      -280.7664
  41   2.0000     -10.317839      -280.7627
  42   2.0000     -10.315983      -280.7122
  43   2.0000     -10.315414      -280.6967
  44   2.0000     -10.315162      -280.6898
  45   2.0000     -10.312713      -280.6232
  46   2.0000     -10.312248      -280.6105
  47   2.0000     -10.311997      -280.6037
  48   2.0000     -10.311448      -280.5888
  49   2.0000     -10.310336      -280.5585
  50   2.0000     -10.308703      -280.5141
  51   2.0000     -10.308471      -280.5078
  52   2.0000     -10.306571      -280.4561
  53   2.0000     -10.305345      -280.4227
  54   2.0000     -10.302233      -280.3380
  55   2.0000     -10.302028      -280.3324
  56   2.0000     -10.300854      -280.3005
  57   2.0000     -10.298080      -280.2250
  58   2.0000     -10.296990      -280.1953
  59   2.0000     -10.295432      -280.1529
  60   2.0000     -10.294260      -280.1211
  61   2.0000     -10.293490      -280.1001
  62   2.0000     -10.291530      -280.0468
  63   2.0000     -10.285843      -279.8920
  64   2.0000     -10.285167      -279.8736
  65   2.0000     -10.284573      -279.8575
  66   2.0000     -10.283864      -279.8382
  67   2.0000     -10.280351      -279.7426
  68   2.0000     -10.280216      -279.7389
  69   2.0000     -10.276667      -279.6423
  70   2.0000     -10.275160      -279.6013
  71   2.0000     -10.274334      -279.5788
  72   2.0000     -10.273744      -279.5628
  73   2.0000     -10.271837      -279.5109
  74   2.0000     -10.271107      -279.4910
  75   2.0000     -10.270899      -279.4854
  76   2.0000      -9.556031      -260.0328
  77   2.0000      -9.554058      -259.9791
  78   2.0000      -9.552807      -259.9451
  79   2.0000      -9.550912      -259.8935
  80   2.0000      -8.068554      -219.5565
  81   2.0000      -8.066843      -219.5100
  82   2.0000      -8.062154      -219.3824
  83   2.0000      -8.061865      -219.3745
  84   2.0000      -7.326403      -199.3616
  85   2.0000      -7.324454      -199.3085
  86   2.0000      -7.323179      -199.2738
  87   2.0000      -7.321327      -199.2234
  88   2.0000      -7.316298      -199.0866
  89   2.0000      -7.315577      -199.0670
  90   2.0000      -7.314320      -199.0328
  91   2.0000      -7.313605      -199.0133
  92   2.0000      -7.313075      -198.9989
  93   2.0000      -7.312362      -198.9795
  94   2.0000      -7.311153      -198.9466
  95   2.0000      -7.310447      -198.9274
  96   2.0000      -6.038050      -164.3037
  97   2.0000      -6.036625      -164.2649
  98   2.0000      -6.033489      -164.1796
  99   2.0000      -6.032546      -164.1539
 100   2.0000      -6.031657      -164.1297
 101   2.0000      -6.031535      -164.1264
 102   2.0000      -6.030665      -164.1027
 103   2.0000      -6.027814      -164.0252
 104   2.0000      -6.027412      -164.0142
 105   2.0000      -6.027102      -164.0058
 106   2.0000      -6.024274      -163.9288
 107   2.0000      -6.023032      -163.8950
 108   2.0000      -1.312048       -35.7026
 109   2.0000      -1.306638       -35.5554
 110   2.0000      -1.141199       -31.0536
 111   2.0000      -1.136622       -30.9291
 112   2.0000      -1.031470       -28.0677
 113   2.0000      -1.028157       -27.9776
 114   2.0000      -1.027404       -27.9571
 115   2.0000      -1.022176       -27.8148
 116   2.0000      -1.015210       -27.6253
 117   2.0000      -1.013496       -27.5786
 118   2.0000      -0.994277       -27.0556
 119   2.0000      -0.993960       -27.0470
 120   2.0000      -0.992837       -27.0165
 121   2.0000      -0.991681       -26.9850
 122   2.0000      -0.988428       -26.8965
 123   2.0000      -0.978609       -26.6293
 124   2.0000      -0.969620       -26.3847
 125   2.0000      -0.965038       -26.2600
 126   2.0000      -0.962080       -26.1795
 127   2.0000      -0.958694       -26.0874
 128   2.0000      -0.954090       -25.9621
 129   2.0000      -0.943853       -25.6835
 130   2.0000      -0.937295       -25.5051
 131   2.0000      -0.933361       -25.3980
 132   2.0000      -0.926011       -25.1980
 133   2.0000      -0.915199       -24.9038
 134   2.0000      -0.903677       -24.5903
 135   2.0000      -0.895836       -24.3769
 136   2.0000      -0.885928       -24.1073
 137   2.0000      -0.881770       -23.9942
 138   2.0000      -0.872161       -23.7327
 139   2.0000      -0.863689       -23.5022
 140   2.0000      -0.861301       -23.4372
 141   2.0000      -0.858337       -23.3565
 142   2.0000      -0.857379       -23.3305
 143   2.0000      -0.850414       -23.1409
 144   2.0000      -0.848207       -23.0809
 145   2.0000      -0.842801       -22.9338
 146   2.0000      -0.837718       -22.7955
 147   2.0000      -0.824687       -22.4409
 148   2.0000      -0.805636       -21.9225
 149   2.0000      -0.799108       -21.7448
 150   2.0000      -0.794766       -21.6267
 151   2.0000      -0.784737       -21.3538
 152   2.0000      -0.775906       -21.1135
 153   2.0000      -0.768464       -20.9110
 154   2.0000      -0.765311       -20.8252
 155   2.0000      -0.764472       -20.8023
 156   2.0000      -0.756875       -20.5956
 157   2.0000      -0.739881       -20.1332
 158   2.0000      -0.728365       -19.8198
 159   2.0000      -0.724083       -19.7033
 160   2.0000      -0.709637       -19.3102
 161   2.0000      -0.702403       -19.1133
 162   2.0000      -0.696532       -18.9536
 163   2.0000      -0.695163       -18.9163
 164   2.0000      -0.690494       -18.7893
 165   2.0000      -0.688287       -18.7292
 166   2.0000      -0.680648       -18.5214
 167   2.0000      -0.676269       -18.4022
 168   2.0000      -0.672051       -18.2874
 169   2.0000      -0.667884       -18.1741
 170   2.0000      -0.664294       -18.0764
 171   2.0000      -0.661741       -18.0069
 172   2.0000      -0.654554       -17.8113
 173   2.0000      -0.652820       -17.7641
 174   2.0000      -0.641837       -17.4653
 175   2.0000      -0.641186       -17.4476
 176   2.0000      -0.629212       -17.1217
 177   2.0000      -0.625275       -17.0146
 178   2.0000      -0.621452       -16.9106
 179   2.0000      -0.617943       -16.8151
 180   2.0000      -0.611854       -16.6494
 181   2.0000      -0.609647       -16.5893
 182   2.0000      -0.605221       -16.4689
 183   2.0000      -0.589674       -16.0458
 184   2.0000      -0.587216       -15.9790
 185   2.0000      -0.583891       -15.8885
 186   2.0000      -0.581838       -15.8326
 187   2.0000      -0.577955       -15.7270
 188   2.0000      -0.573839       -15.6150
 189   2.0000      -0.570208       -15.5161
 190   2.0000      -0.567451       -15.4411
 191   2.0000      -0.567069       -15.4307
 192   2.0000      -0.563036       -15.3210
 193   2.0000      -0.560854       -15.2616
 194   2.0000      -0.559812       -15.2333
 195   2.0000      -0.552865       -15.0442
 196   2.0000      -0.551943       -15.0191
 197   2.0000      -0.547369       -14.8947
 198   2.0000      -0.544632       -14.8202
 199   2.0000      -0.544416       -14.8143
 200   2.0000      -0.543962       -14.8019
 201   2.0000      -0.542616       -14.7653
 202   2.0000      -0.539521       -14.6811
 203   2.0000      -0.537161       -14.6169
 204   2.0000      -0.535420       -14.5695
 205   2.0000      -0.531084       -14.4515
 206   2.0000      -0.528977       -14.3942
 207   2.0000      -0.528123       -14.3709
 208   2.0000      -0.524075       -14.2608
 209   2.0000      -0.522681       -14.2229
 210   2.0000      -0.520680       -14.1684
 211   2.0000      -0.519645       -14.1403
 212   2.0000      -0.515668       -14.0321
 213   2.0000      -0.513130       -13.9630
 214   2.0000      -0.510481       -13.8909
 215   2.0000      -0.509932       -13.8760
 216   2.0000      -0.508386       -13.8339
 217   2.0000      -0.507494       -13.8096
 218   2.0000      -0.505433       -13.7535
 219   2.0000      -0.504331       -13.7235
 220   2.0000      -0.501372       -13.6430
 221   2.0000      -0.501103       -13.6357
 222   2.0000      -0.498648       -13.5689
 223   2.0000      -0.495565       -13.4850
 224   2.0000      -0.494506       -13.4562
 225   2.0000      -0.491880       -13.3847
 226   2.0000      -0.490137       -13.3373
 227   2.0000      -0.489057       -13.3079
 228   2.0000      -0.485803       -13.2194
 229   2.0000      -0.482193       -13.1211
 230   2.0000      -0.480007       -13.0617
 231   2.0000      -0.478198       -13.0124
 232   2.0000      -0.475104       -12.9282
 233   2.0000      -0.473942       -12.8966
 234   2.0000      -0.469809       -12.7842
 235   2.0000      -0.466017       -12.6810
 236   2.0000      -0.465171       -12.6580
 237   2.0000      -0.462441       -12.5837
 238   2.0000      -0.458677       -12.4812
 239   2.0000      -0.451033       -12.2732
 240   2.0000      -0.449269       -12.2252
 241   2.0000      -0.448332       -12.1997
 242   2.0000      -0.446854       -12.1595
 243   2.0000      -0.443329       -12.0636
 244   2.0000      -0.442068       -12.0293
 245   2.0000      -0.439746       -11.9661
 246   2.0000      -0.437411       -11.9026
 247   2.0000      -0.436173       -11.8689
 248   2.0000      -0.434328       -11.8187
 249   2.0000      -0.432936       -11.7808
 250   2.0000      -0.431401       -11.7390
 251   2.0000      -0.429487       -11.6869
 252   2.0000      -0.427645       -11.6368
 253   2.0000      -0.426546       -11.6069
 254   2.0000      -0.426076       -11.5941
 255   2.0000      -0.425441       -11.5768
 256   2.0000      -0.424122       -11.5409
 257   2.0000      -0.423305       -11.5187
 258   2.0000      -0.420698       -11.4478
 259   2.0000      -0.419324       -11.4104
 260   2.0000      -0.417225       -11.3533
 261   2.0000      -0.414375       -11.2757
 262   2.0000      -0.411971       -11.2103
 263   2.0000      -0.408212       -11.1080
 264   2.0000      -0.407675       -11.0934
 265   2.0000      -0.406704       -11.0670
 266   2.0000      -0.404462       -11.0060
 267   2.0000      -0.399442       -10.8694
 268   2.0000      -0.396911       -10.8005
 269   2.0000      -0.394505       -10.7350
 270   2.0000      -0.389497       -10.5988
 271   2.0000      -0.381882       -10.3915
 272   2.0000      -0.378759       -10.3066
 273   2.0000      -0.377234       -10.2651
 274   2.0000      -0.374610       -10.1937
 275   2.0000      -0.352552        -9.5934
 276   2.0000      -0.343614        -9.3502
 277   2.0000      -0.342100        -9.3090
 278   2.0000      -0.340368        -9.2619
 279   2.0000      -0.337024        -9.1709
 280   2.0000      -0.336772        -9.1640
 281   2.0000      -0.332672        -9.0525
 282   2.0000      -0.325928        -8.8690
 283   2.0000      -0.319501        -8.6941
 284   2.0000      -0.317631        -8.6432
 285   2.0000      -0.315111        -8.5746
 286   2.0000      -0.311925        -8.4879
 287   2.0000      -0.311318        -8.4714
 288   2.0000      -0.304893        -8.2966
 289   2.0000      -0.290114        -7.8944
 290   2.0000      -0.263063        -7.1583
 291   2.0000      -0.262396        -7.1402
 292   2.0000      -0.230413        -6.2699
 293   0.0000      -0.100168        -2.7257
 294   0.0000      -0.096694        -2.6312
 295   0.0000      -0.074057        -2.0152
 296   0.0000      -0.069787        -1.8990
 297   0.0000      -0.061964        -1.6861

MULLIKEN ATOMIC CHARGES
-----------------------
   0 C :    0.325377
   1 C :   -0.351593
   2 C :   -0.192921
   3 N :    0.152764
   4 C :   -0.188070
   5 N :    0.144451
   6 C :    0.029726
   7 C :   -0.017797
   8 C :   -0.031542
   9 C :    0.059960
  10 C :    0.044425
  11 C :   -0.012687
  12 Cl:   -0.038697
  13 Cl:   -0.047031
  14 C :    0.160691
  15 O :   -0.177538
  16 C :   -0.106669
  17 C :   -0.049319
  18 C :   -0.087124
  19 C :   -0.060039
  20 C :    0.102102
  21 C :    0.225181
  22 C :   -0.296015
  23 S :    0.158558
  24 C :    0.118792
  25 F :   -0.185755
  26 C :   -0.096209
  27 S :    0.197250
  28 C :    0.089017
  29 C :   -0.101895
  30 C :    0.051762
  31 C :   -0.014804
  32 C :   -0.070724
  33 C :    0.155828
  34 N :   -0.220544
  35 C :    0.143920
  36 N :   -0.217989
  37 C :    0.090273
  38 C :   -0.130289
  39 C :    0.191729
  40 C :   -0.075268
  41 C :    0.033938
  42 C :    0.001419
  43 C :    0.040519
  44 C :   -0.009665
  45 C :   -0.002933
  46 C :   -0.099090
  47 C :    0.022708
  48 C :   -0.087599
  49 C :   -0.041028
  50 C :    0.106254
  51 C :    0.238819
  52 C :   -0.293066
  53 S :    0.138440
  54 C :    0.111163
  55 F :   -0.173253
  56 C :   -0.090608
  57 S :    0.189431
  58 C :   -0.056068
  59 C :   -0.105525
  60 C :    0.303421
  61 C :   -0.336948
  62 C :   -0.186705
  63 N :    0.150844
  64 C :   -0.211453
  65 N :    0.166073
  66 C :    0.029496
  67 C :   -0.007569
  68 C :    0.162868
  69 O :   -0.183476
  70 C :   -0.032951
  71 C :    0.057796
  72 C :    0.047217
  73 C :   -0.014545
  74 Cl:   -0.036847
  75 Cl:   -0.046230
  76 H :   -0.001589
  77 H :   -0.000944
  78 H :    0.007414
  79 H :    0.034016
  80 H :    0.039946
  81 H :    0.041536
  82 H :   -0.009741
  83 H :   -0.018261
  84 H :   -0.030755
  85 H :    0.001329
  86 H :    0.080519
  87 H :    0.083530
  88 H :   -0.001722
  89 H :   -0.019749
  90 H :    0.104977
  91 H :    0.098134
  92 H :    0.000099
  93 H :    0.054542
  94 H :   -0.004219
  95 H :   -0.034343
  96 H :   -0.034479
  97 H :   -0.022460
  98 H :    0.020143
  99 H :    0.002455
 100 H :    0.044044
 101 H :    0.044334
 102 H :    0.043881
 103 H :    0.023530
 104 H :   -0.003842
 105 H :    0.001537
Sum of atomic charges:   -0.0000000

LOEWDIN ATOMIC CHARGES
----------------------
   0 C :    0.075211
   1 C :   -0.144719
   2 C :   -0.020519
   3 N :   -0.053502
   4 C :   -0.021500
   5 N :   -0.054634
   6 C :   -0.012439
   7 C :   -0.042917
   8 C :   -0.001102
   9 C :   -0.136017
  10 C :   -0.131956
  11 C :   -0.012874
  12 Cl:    0.159168
  13 Cl:    0.155305
  14 C :    0.083137
  15 O :   -0.167576
  16 C :   -0.121256
  17 C :    0.052016
  18 C :   -0.215110
  19 C :   -0.151886
  20 C :   -0.107630
  21 C :    0.033706
  22 C :   -0.193576
  23 S :    0.432629
  24 C :   -0.056233
  25 F :   -0.057258
  26 C :   -0.123324
  27 S :    0.526089
  28 C :   -0.052430
  29 C :    0.004980
  30 C :   -0.023971
  31 C :   -0.014935
  32 C :   -0.041029
  33 C :    0.031684
  34 N :   -0.126203
  35 C :    0.026388
  36 N :   -0.104084
  37 C :   -0.015227
  38 C :    0.069988
  39 C :   -0.030915
  40 C :   -0.042581
  41 C :   -0.008467
  42 C :   -0.040578
  43 C :   -0.025911
  44 C :   -0.008511
  45 C :   -0.020152
  46 C :    0.014888
  47 C :   -0.049919
  48 C :   -0.161884
  49 C :   -0.196976
  50 C :   -0.057298
  51 C :    0.031826
  52 C :   -0.173223
  53 S :    0.401248
  54 C :   -0.055395
  55 F :   -0.051289
  56 C :   -0.189637
  57 S :    0.516848
  58 C :    0.055591
  59 C :   -0.118629
  60 C :    0.073426
  61 C :   -0.138358
  62 C :   -0.020440
  63 N :   -0.050530
  64 C :   -0.026666
  65 N :   -0.045180
  66 C :   -0.011514
  67 C :   -0.043145
  68 C :    0.083292
  69 O :   -0.171707
  70 C :   -0.001905
  71 C :   -0.136264
  72 C :   -0.131345
  73 C :   -0.012743
  74 Cl:    0.161155
  75 Cl:    0.156050
  76 H :    0.045282
  77 H :    0.044156
  78 H :    0.044792
  79 H :    0.042458
  80 H :    0.041026
  81 H :    0.041992
  82 H :    0.021789
  83 H :    0.027388
  84 H :   -0.006031
  85 H :    0.018687
  86 H :    0.035848
  87 H :    0.050893
  88 H :    0.004354
  89 H :    0.011496
  90 H :    0.058388
  91 H :    0.058337
  92 H :    0.026318
  93 H :    0.071009
  94 H :    0.025156
  95 H :    0.031326
  96 H :    0.028791
  97 H :    0.024788
  98 H :    0.025035
  99 H :    0.034025
 100 H :    0.046780
 101 H :    0.044158
 102 H :    0.043578
 103 H :    0.049783
 104 H :    0.044207
 105 H :    0.044632

  Mayer bond orders larger than 0.100000
B(  0-C ,  1-C ) :   1.6112 B(  0-C ,  6-C ) :   0.9828 B(  0-C , 16-C ) :   1.1048
B(  1-C ,  2-C ) :   1.1470 B(  1-C ,  4-C ) :   1.1482 B(  2-C ,  3-N ) :   2.9681
B(  4-C ,  5-N ) :   2.9557 B(  6-C ,  7-C ) :   1.3299 B(  6-C , 11-C ) :   1.3511
B(  7-C ,  8-C ) :   1.3506 B(  7-C , 14-C ) :   0.9523 B(  8-C ,  9-C ) :   1.3347
B(  8-C , 76-H ) :   1.0175 B(  9-C , 10-C ) :   1.4163 B(  9-C , 13-Cl) :   1.0419
B( 10-C , 11-C ) :   1.3513 B( 10-C , 12-Cl) :   1.0736 B( 11-C , 77-H ) :   0.9861
B( 14-C , 15-O ) :   2.1371 B( 14-C , 16-C ) :   0.9897 B( 16-C , 17-C ) :   1.4627
B( 17-C , 18-C ) :   1.3191 B( 17-C , 78-H ) :   0.9402 B( 18-C , 19-C ) :   1.3592
B( 18-C , 27-S ) :   1.0708 B( 19-C , 20-C ) :   1.2848 B( 19-C , 23-S ) :   1.1084
B( 20-C , 21-C ) :   1.0656 B( 20-C , 26-C ) :   1.3245 B( 21-C , 22-C ) :   1.6716
B( 21-C , 25-F ) :   1.1244 B( 22-C , 23-S ) :   1.0521 B( 22-C , 24-C ) :   1.0653
B( 24-C , 79-H ) :   0.9552 B( 24-C , 80-H ) :   0.9489 B( 24-C , 81-H ) :   0.9480
B( 26-C , 27-S ) :   1.1643 B( 26-C , 28-C ) :   1.0902 B( 28-C , 29-C ) :   1.4880
B( 28-C , 45-C ) :   1.1316 B( 29-C , 30-C ) :   1.1610 B( 29-C , 82-H ) :   0.9840
B( 30-C , 31-C ) :   1.4901 B( 30-C , 43-C ) :   1.1089 B( 31-C , 32-C ) :   1.0293
B( 31-C , 37-C ) :   1.0855 B( 32-C , 33-C ) :   1.0243 B( 32-C , 35-C ) :   1.0436
B( 32-C , 83-H ) :   0.8801 B( 33-C , 34-N ) :   1.1164 B( 33-C , 84-H ) :   0.9220
B( 33-C , 85-H ) :   0.9462 B( 34-N , 86-H ) :   0.9438 B( 34-N , 87-H ) :   0.9666
B( 35-C , 36-N ) :   1.0834 B( 35-C , 88-H ) :   0.9463 B( 35-C , 89-H ) :   0.9311
B( 36-N , 90-H ) :   0.9617 B( 36-N , 91-H ) :   0.9669 B( 37-C , 38-C ) :   1.6905
B( 37-C , 42-C ) :   1.0432 B( 38-C , 39-C ) :   0.9572 B( 38-C , 92-H ) :   0.9577
B( 39-C , 40-C ) :   1.0150 B( 39-C , 46-C ) :   0.9444 B( 39-C , 93-H ) :   0.8316
B( 40-C , 41-C ) :   1.7195 B( 40-C , 94-H ) :   0.9633 B( 41-C , 42-C ) :   1.1295
B( 41-C , 95-H ) :   0.9896 B( 42-C , 43-C ) :   1.4533 B( 43-C , 44-C ) :   1.1333
B( 44-C , 45-C ) :   1.6293 B( 44-C , 96-H ) :   0.9914 B( 45-C , 97-H ) :   0.9774
B( 46-C , 47-C ) :   1.8332 B( 46-C , 98-H ) :   0.9710 B( 47-C , 48-C ) :   1.1187
B( 47-C , 99-H ) :   0.9565 B( 48-C , 49-C ) :   1.4538 B( 48-C , 57-S ) :   1.1395
B( 49-C , 50-C ) :   1.2861 B( 49-C , 53-S ) :   1.0295 B( 50-C , 51-C ) :   1.1187
B( 50-C , 56-C ) :   1.2914 B( 51-C , 52-C ) :   1.6223 B( 51-C , 55-F ) :   1.1273
B( 52-C , 53-S ) :   1.0846 B( 52-C , 54-C ) :   1.0656 B( 54-C ,100-H ) :   0.9554
B( 54-C ,101-H ) :   0.9473 B( 54-C ,102-H ) :   0.9479 B( 56-C , 57-S ) :   1.0721
B( 56-C , 58-C ) :   1.3137 B( 58-C , 59-C ) :   1.4680 B( 58-C ,103-H ) :   0.9431
B( 59-C , 60-C ) :   1.0832 B( 59-C , 68-C ) :   0.9948 B( 60-C , 61-C ) :   1.6365
B( 60-C , 66-C ) :   0.9859 B( 61-C , 62-C ) :   1.1392 B( 61-C , 64-C ) :   1.1429
B( 62-C , 63-N ) :   2.9738 B( 64-C , 65-N ) :   2.9971 B( 66-C , 67-C ) :   1.3318
B( 66-C , 73-C ) :   1.3513 B( 67-C , 68-C ) :   0.9553 B( 67-C , 70-C ) :   1.3474
B( 68-C , 69-O ) :   2.1263 B( 70-C , 71-C ) :   1.3382 B( 70-C ,104-H ) :   1.0165
B( 71-C , 72-C ) :   1.4146 B( 71-C , 75-Cl) :   1.0425 B( 72-C , 73-C ) :   1.3520
B( 72-C , 74-Cl) :   1.0733 B( 73-C ,105-H ) :   0.9871

-----------------------------------------------------------------------------
         ABSORPTION SPECTRUM VIA TRANSITION ELECTRIC DIPOLE MOMENTS
-----------------------------------------------------------------------------
State   Energy  Wavelength   fosc         T2         TX        TY        TZ
        (cm-1)    (nm)                  (au**2)     (au)      (au)      (au)
-----------------------------------------------------------------------------
   0   13186.0    758.4   0.093692814   2.33920  -0.84344   0.18675   1.26212
   1   16961.0    589.6   0.155543644   3.01909  -0.45187  -0.14147  -1.67179
   2   17815.2    561.3   0.940789326  17.38512  -1.08270  -0.07298   4.02586
   3   19654.4    508.8   0.863429015  14.46249  -3.78992   0.26516   0.16931
   4   20417.3    489.8   0.147033684   2.37079  -0.40998  -0.06554  -1.48270
   5   21864.1    457.4   0.075639773   1.13892  -0.57135   0.00111  -0.90138
   6   24078.7    415.3   0.074249166   1.01516  -0.88295   0.32517  -0.36032
   7   25287.6    395.5   0.047777181   0.62200   0.68872  -0.25416   0.28821
   8   25456.8    392.8   0.014566975   0.18838   0.37964   0.19444  -0.08029
   9   25720.1    388.8   0.013388409   0.17137  -0.33505   0.18415  -0.15874
  10   26143.6    382.5   0.062971399   0.79296   0.79291   0.00373  -0.40527
  11   27405.9    364.9   0.002800766   0.03364  -0.17928   0.03265  -0.02087
  12   27910.6    358.3   0.085586219   1.00951   0.81711   0.03872  -0.58339
  13   28566.2    350.1   0.052360410   0.60343  -0.03898   0.52131  -0.57459
  14   28722.2    348.2   0.057281952   0.65656  -0.64059  -0.00078  -0.49620
  15   29138.6    343.2   0.002726007   0.03080   0.15594  -0.07313   0.03368
  16   29666.9    337.1   0.065551309   0.72742  -0.78750   0.04515  -0.32438
  17   30114.4    332.1   0.042399696   0.46351  -0.50683  -0.09159   0.44525
  18   30207.0    331.0   0.032738054   0.35680   0.18624   0.29973  -0.48194
  19   30413.3    328.8   0.231324214   2.50399  -0.33595  -0.94107   1.22699
  20   30652.7    326.2   0.273258948   2.93482  -1.68203  -0.04857  -0.32131
  21   31212.2    320.4   0.067097370   0.70771  -0.68507   0.05051   0.48563
  22   31663.7    315.8   0.021232920   0.22076  -0.35506   0.15567   0.26545
  23   31682.6    315.6   0.085964131   0.89325   0.64735   0.05032  -0.68677
  24   31892.9    313.5   0.327504427   3.38063  -0.98639   0.14011   1.54533
  25   32522.4    307.5   0.007281566   0.07371  -0.17117  -0.05160  -0.20432
  26   32696.3    305.8   0.086392592   0.86987  -0.07945  -0.23084   0.90015
  27   33010.6    302.9   0.004735532   0.04723   0.14435   0.05331  -0.15345
  28   33282.3    300.5   0.047794689   0.47276   0.64138  -0.04796  -0.24309
  29   33384.7    299.5   0.067357397   0.66422   0.73931  -0.08318  -0.33275
  30   34521.6    289.7   0.471629379   4.49765  -0.44281   1.05987  -1.78276
  31   34680.1    288.4   0.680585024   6.46068   2.38726   0.03343  -0.87208
  32   34710.1    288.1   0.053947041   0.51167  -0.60419  -0.11964   0.36374
  33   34820.8    287.2   0.005276619   0.04989  -0.17120   0.09197  -0.11009
  34   35142.1    284.6   0.044867306   0.42032   0.63222  -0.05567   0.13237
  35   35529.8    281.5   0.029230341   0.27084   0.45727   0.24746  -0.02259
  36   35903.9    278.5   0.280226517   2.56947  -0.55358  -0.97096   1.14902
  37   36201.6    276.2   0.145969511   1.32742  -0.44339  -0.16246   1.05092
  38   36429.8    274.5   0.090948295   0.82189   0.40023   0.03805   0.81256
  39   36586.5    273.3   0.002800465   0.02520   0.13304  -0.00282   0.08656
  40   36705.7    272.4   0.040102094   0.35967  -0.36598  -0.11865   0.46006
  41   36766.5    272.0   0.082258749   0.73656  -0.85049   0.11094   0.03022
  42   36780.7    271.9   0.101794748   0.91113   0.46143   0.16481  -0.81918
  43   36956.0    270.6   0.018506467   0.16486   0.37563  -0.13117   0.08096
  44   37018.4    270.1   0.024916825   0.22159  -0.01706  -0.02043   0.46998
  45   37051.9    269.9   0.008249175   0.07330  -0.05919   0.05488  -0.25842
  46   37249.6    268.5   0.004791640   0.04235   0.12369  -0.02977   0.16175
  47   37676.6    265.4   0.016036677   0.14013  -0.27985   0.00670   0.24852
  48   38336.0    260.9   0.016203036   0.13914   0.20850  -0.05504   0.30437
  49   38773.4    257.9   0.123931890   1.05226  -0.80686   0.01637  -0.63322
  50   38884.3    257.2   0.038745912   0.32804   0.17651  -0.42278   0.34372
  51   39031.4    256.2   0.022559419   0.19028  -0.12899   0.03367   0.41534
  52   39140.6    255.5   0.013988108   0.11765  -0.06672  -0.01139   0.33626
  53   39153.9    255.4   0.004248759   0.03572  -0.11433   0.04778  -0.14272
  54   39517.6    253.1   0.105941594   0.88257   0.93761  -0.01341  -0.05729
  55   39694.3    251.9   0.069681868   0.57792  -0.20542   0.22394  -0.69683
  56   39788.6    251.3   0.136197572   1.12690  -0.96358   0.42189  -0.14288

FINAL SINGLE POINT ENERGY     -6335.614434322578

DIPOLE MOMENT
-------------
                                X             Y             Z
Electronic contribution:    -61.09051      -8.82052     -34.98511
Nuclear contribution   :     62.66827       9.90778      36.96316
                        -----------------------------------------
Total Dipole Moment    :      1.57776       1.08727       1.97806
                        -----------------------------------------
Magnitude (a.u.)       :      2.75394
Magnitude (Debye)      :      6.99995

Rotational constants in cm-1:     0.000919     0.000217     0.000183
Rotational constants in MHz :    27.556354     6.501710     5.472340

                             ****ORCA TERMINATED NORMALLY****
TOTAL RUN TIME: 0 days 0 hours 12 minutes 8 seconds 79 msec
