                         Program Version 4.2.0 -  RELEASE  -
|  1> # ORCA input file
|  2> # SCF done       -206.983248134272          0.000760002308
|  3> ! CAM-B3LYP def2-SVP def2/J RIJCOSX Grid4 TightSCF
|  4> %maxcore 5000
|  5> %tddft
|  6>     Mode sTDDFT
|  7>     Ethresh 5.0
|  8>     maxcore 5000
|  9> end
| 10>
| 11> %pal
| 12>   nprocs 6
| 13>   end
| 14> * xyz 0 1
| 15>    C        4.50550        -4.77663        -3.27101
| 16>    C        4.23007        -4.80086        -1.92605
| 17>    C        5.21567        -4.85814        -0.91810
| 18>    N        5.96348        -4.90740        -0.04861
| 19>    C        2.94389        -4.77428        -1.34943
| 20>    N        1.93263        -4.75386        -0.80273
| 21>    C        5.84281        -4.81162        -3.86125
| 22>    C        5.72325        -4.77869        -5.26240
| 23>    C        6.82691        -4.80048        -6.08914
| 24>    C        8.08684        -4.85556        -5.50465
| 25>    C        8.21636        -4.88768        -4.11205
| 26>    C        7.09979        -4.86647        -3.28240
| 27>   Cl        9.77826        -4.95413        -3.40192
| 28>   Cl        9.48644        -4.88345        -6.49836
| 29>    C        4.29366        -4.71847        -5.63117
| 30>    O        3.83512        -4.68132        -6.75695
| 31>    C        3.55606        -4.71271        -4.36241
| 32>    C        2.19219        -4.64555        -4.22792
| 33>    C        1.17931        -4.56161        -5.18831
| 34>    S        1.35167        -4.52888        -6.93493
| 35>    C       -0.35482        -4.39197        -7.15023
| 36>    C       -1.02205        -4.37609        -5.97306
| 37>    C       -0.18060        -4.47315        -4.84357
| 38>    C       -0.84097        -4.46087        -3.58313
| 39>    C       -2.19016        -4.33399        -3.63480
| 40>    S       -2.70846        -4.21853        -5.37672
| 41>    O       -3.50453        -5.35486        -5.76398
| 42>    O       -3.22721        -2.91780        -5.70019
| 43>    C       -3.16317        -4.31969        -2.59811
| 44>    C       -4.48256        -4.07517        -2.93523
| 45>    C       -5.47412        -4.09943        -1.94432
| 46>    C       -6.85412        -3.93111        -2.02749
| 47>    C       -7.71982        -3.72572        -3.21903
| 48>    C       -7.65070        -2.25453        -3.68198
| 49>    N       -8.22570        -1.39549        -2.66121
| 50>    C       -7.39933        -4.69578        -4.39130
| 51>    N       -6.33302        -4.21111        -5.23399
| 52>    C       -7.35538        -3.99558        -0.67361
| 53>    C       -8.59144        -3.79577        -0.18261
| 54>    C       -8.87000        -3.86891         1.27906
| 55>    C       -7.69836        -4.29671         2.11587
| 56>    C       -6.46360        -4.45993         1.60851
| 57>    C       -6.22846        -4.27879         0.22340
| 58>    C       -5.09108        -4.33340        -0.55655
| 59>    C       -3.73036        -4.56017        -0.24073
| 60>    C       -2.79996        -4.55952        -1.22778
| 61>    C      -10.05556        -4.76755         1.50531
| 62>    C      -10.91512        -4.65937         2.52188
| 63>    C      -12.09444        -5.47561         2.61346
| 64>    S      -12.76339        -6.01433         4.12171
| 65>    C      -14.05412        -6.86474         3.32787
| 66>    C      -13.97575        -6.72277         1.99272
| 67>    C      -12.87495        -5.92851         1.55916
| 68>    C      -12.82528        -5.65235         0.16524
| 69>    C      -13.80218        -6.23746        -0.57531
| 70>    S      -14.88861        -7.20780         0.51921
| 71>    O      -16.20844        -6.64964         0.53363
| 72>    O      -14.74367        -8.61310         0.27660
| 73>    C      -14.15065        -6.21477        -1.93409
| 74>    C      -13.55553        -5.61204        -3.01385
| 75>    C      -14.07443        -5.69122        -4.37438
| 76>    C      -15.22186        -6.30512        -4.79831
| 77>    C      -15.65774        -6.31004        -6.14271
| 78>    N      -16.07220        -6.35158        -7.21205
| 79>    C      -16.15805        -7.01301        -4.00991
| 80>    N      -16.98803        -7.60733        -3.48544
| 81>    C      -13.15194        -4.96576        -5.24596
| 82>    C      -12.11730        -4.43369        -4.46030
| 83>    C      -12.31447        -4.80663        -3.04732
| 84>    O      -11.56930        -4.49291        -2.13712
| 85>    C      -11.09447        -3.68605        -5.00790
| 86>    C      -11.09034        -3.47591        -6.37963
| 87>    C      -12.11330        -4.00587        -7.17402
| 88>    C      -13.14897        -4.74806        -6.61469
| 89>   Cl      -12.10040        -3.74040        -8.87020
| 90>   Cl       -9.82246        -2.56743        -7.09998
| 91>    H        6.71225        -4.77496        -7.16120
| 92>    H        7.24046        -4.89237        -2.21438
| 93>    H        1.81149        -4.64770        -3.21563
| 94>    H       -0.76619        -4.33041        -8.13854
| 95>    H       -0.28939        -4.54096        -2.65898
| 96>    H       -4.76203        -3.86748        -3.95704
| 97>    H       -8.74934        -3.93051        -2.90422
| 98>    H       -8.15822        -2.16762        -4.65649
| 99>    H       -6.60467        -1.97805        -3.81805
|100>    H       -9.23597        -1.48915        -2.63725
|101>    H       -8.00601        -0.42441        -2.84556
|102>    H       -8.33645        -4.85762        -4.94928
|103>    H       -7.09982        -5.65460        -3.96254
|104>    H       -6.65232        -3.56608        -5.94257
|105>    H       -5.78924        -4.94603        -5.66570
|106>    H       -9.43748        -3.58414        -0.82043
|107>    H       -9.15179        -2.85696         1.61313
|108>    H       -7.89988        -4.43965         3.16619
|109>    H       -5.63871        -4.73464         2.24950
|110>    H       -3.44429        -4.73245         0.78625
|111>    H       -1.76276        -4.73741        -0.99303
|112>    H      -10.17647        -5.56114         0.78288
|113>    H      -10.75352        -3.94258         3.31616
|114>    H      -14.77262        -7.40101         3.91382
|115>    H      -12.08372        -4.99447        -0.25825
|116>    H      -15.05171        -6.78627        -2.12583
|117>    H      -10.31661        -3.27851        -4.38383
|118>    H      -13.91828        -5.13629        -7.26092
|119> *
|120>
|121>                          ****END OF INPUT****

CARTESIAN COORDINATES (ANGSTROEM)
---------------------------------
  C      4.505500   -4.776630   -3.271010
  C      4.230070   -4.800860   -1.926050
  C      5.215670   -4.858140   -0.918100
  N      5.963480   -4.907400   -0.048610
  C      2.943890   -4.774280   -1.349430
  N      1.932630   -4.753860   -0.802730
  C      5.842810   -4.811620   -3.861250
  C      5.723250   -4.778690   -5.262400
  C      6.826910   -4.800480   -6.089140
  C      8.086840   -4.855560   -5.504650
  C      8.216360   -4.887680   -4.112050
  C      7.099790   -4.866470   -3.282400
  Cl     9.778260   -4.954130   -3.401920
  Cl     9.486440   -4.883450   -6.498360
  C      4.293660   -4.718470   -5.631170
  O      3.835120   -4.681320   -6.756950
  C      3.556060   -4.712710   -4.362410
  C      2.192190   -4.645550   -4.227920
  C      1.179310   -4.561610   -5.188310
  S      1.351670   -4.528880   -6.934930
  C     -0.354820   -4.391970   -7.150230
  C     -1.022050   -4.376090   -5.973060
  C     -0.180600   -4.473150   -4.843570
  C     -0.840970   -4.460870   -3.583130
  C     -2.190160   -4.333990   -3.634800
  S     -2.708460   -4.218530   -5.376720
  O     -3.504530   -5.354860   -5.763980
  O     -3.227210   -2.917800   -5.700190
  C     -3.163170   -4.319690   -2.598110
  C     -4.482560   -4.075170   -2.935230
  C     -5.474120   -4.099430   -1.944320
  C     -6.854120   -3.931110   -2.027490
  C     -7.719820   -3.725720   -3.219030
  C     -7.650700   -2.254530   -3.681980
  N     -8.225700   -1.395490   -2.661210
  C     -7.399330   -4.695780   -4.391300
  N     -6.333020   -4.211110   -5.233990
  C     -7.355380   -3.995580   -0.673610
  C     -8.591440   -3.795770   -0.182610
  C     -8.870000   -3.868910    1.279060
  C     -7.698360   -4.296710    2.115870
  C     -6.463600   -4.459930    1.608510
  C     -6.228460   -4.278790    0.223400
  C     -5.091080   -4.333400   -0.556550
  C     -3.730360   -4.560170   -0.240730
  C     -2.799960   -4.559520   -1.227780
  C    -10.055560   -4.767550    1.505310
  C    -10.915120   -4.659370    2.521880
  C    -12.094440   -5.475610    2.613460
  S    -12.763390   -6.014330    4.121710
  C    -14.054120   -6.864740    3.327870
  C    -13.975750   -6.722770    1.992720
  C    -12.874950   -5.928510    1.559160
  C    -12.825280   -5.652350    0.165240
  C    -13.802180   -6.237460   -0.575310
  S    -14.888610   -7.207800    0.519210
  O    -16.208440   -6.649640    0.533630
  O    -14.743670   -8.613100    0.276600
  C    -14.150650   -6.214770   -1.934090
  C    -13.555530   -5.612040   -3.013850
  C    -14.074430   -5.691220   -4.374380
  C    -15.221860   -6.305120   -4.798310
  C    -15.657740   -6.310040   -6.142710
  N    -16.072200   -6.351580   -7.212050
  C    -16.158050   -7.013010   -4.009910
  N    -16.988030   -7.607330   -3.485440
  C    -13.151940   -4.965760   -5.245960
  C    -12.117300   -4.433690   -4.460300
  C    -12.314470   -4.806630   -3.047320
  O    -11.569300   -4.492910   -2.137120
  C    -11.094470   -3.686050   -5.007900
  C    -11.090340   -3.475910   -6.379630
  C    -12.113300   -4.005870   -7.174020
  C    -13.148970   -4.748060   -6.614690
  Cl   -12.100400   -3.740400   -8.870200
  Cl    -9.822460   -2.567430   -7.099980
  H      6.712250   -4.774960   -7.161200
  H      7.240460   -4.892370   -2.214380
  H      1.811490   -4.647700   -3.215630
  H     -0.766190   -4.330410   -8.138540
  H     -0.289390   -4.540960   -2.658980
  H     -4.762030   -3.867480   -3.957040
  H     -8.749340   -3.930510   -2.904220
  H     -8.158220   -2.167620   -4.656490
  H     -6.604670   -1.978050   -3.818050
  H     -9.235970   -1.489150   -2.637250
  H     -8.006010   -0.424410   -2.845560
  H     -8.336450   -4.857620   -4.949280
  H     -7.099820   -5.654600   -3.962540
  H     -6.652320   -3.566080   -5.942570
  H     -5.789240   -4.946030   -5.665700
  H     -9.437480   -3.584140   -0.820430
  H     -9.151790   -2.856960    1.613130
  H     -7.899880   -4.439650    3.166190
  H     -5.638710   -4.734640    2.249500
  H     -3.444290   -4.732450    0.786250
  H     -1.762760   -4.737410   -0.993030
  H    -10.176470   -5.561140    0.782880
  H    -10.753520   -3.942580    3.316160
  H    -14.772620   -7.401010    3.913820
  H    -12.083720   -4.994470   -0.258250
  H    -15.051710   -6.786270   -2.125830
  H    -10.316610   -3.278510   -4.383830
  H    -13.918280   -5.136290   -7.260920

 Total Charge           Charge          ....    0
 Multiplicity           Mult            ....    1
 Number of Electrons    NEL             ....  586
 Basis Dimension        Dim             .... 1236

ORBITAL ENERGIES
----------------

  NO   OCC          E(Eh)            E(eV)
   0   2.0000    -101.618899     -2765.1908
   1   2.0000    -101.611517     -2764.9900
   2   2.0000    -101.604884     -2764.8095
   3   2.0000    -101.603252     -2764.7651
   4   2.0000     -89.154924     -2426.0288
   5   2.0000     -89.152179     -2425.9541
   6   2.0000     -88.994374     -2421.6600
   7   2.0000     -88.978281     -2421.2221
   8   2.0000     -19.248164      -523.7692
   9   2.0000     -19.232878      -523.3532
  10   2.0000     -19.205447      -522.6068
  11   2.0000     -19.204408      -522.5785
  12   2.0000     -19.203819      -522.5625
  13   2.0000     -19.200662      -522.4766
  14   2.0000     -14.431150      -392.6916
  15   2.0000     -14.428956      -392.6318
  16   2.0000     -14.428302      -392.6140
  17   2.0000     -14.422371      -392.4527
  18   2.0000     -14.385041      -391.4369
  19   2.0000     -14.376398      -391.2017
  20   2.0000     -10.397226      -282.9229
  21   2.0000     -10.381623      -282.4983
  22   2.0000     -10.371246      -282.2159
  23   2.0000     -10.370771      -282.2030
  24   2.0000     -10.362381      -281.9747
  25   2.0000     -10.361667      -281.9553
  26   2.0000     -10.361059      -281.9387
  27   2.0000     -10.359008      -281.8830
  28   2.0000     -10.353273      -281.7269
  29   2.0000     -10.352638      -281.7096
  30   2.0000     -10.346744      -281.5492
  31   2.0000     -10.343394      -281.4581
  32   2.0000     -10.337011      -281.2844
  33   2.0000     -10.334096      -281.2050
  34   2.0000     -10.333985      -281.2020
  35   2.0000     -10.332915      -281.1729
  36   2.0000     -10.331108      -281.1238
  37   2.0000     -10.330679      -281.1121
  38   2.0000     -10.330054      -281.0951
  39   2.0000     -10.328482      -281.0523
  40   2.0000     -10.328357      -281.0489
  41   2.0000     -10.326056      -280.9863
  42   2.0000     -10.325387      -280.9681
  43   2.0000     -10.325179      -280.9624
  44   2.0000     -10.324327      -280.9392
  45   2.0000     -10.322370      -280.8860
  46   2.0000     -10.321916      -280.8736
  47   2.0000     -10.319884      -280.8183
  48   2.0000     -10.319515      -280.8083
  49   2.0000     -10.317054      -280.7413
  50   2.0000     -10.316900      -280.7371
  51   2.0000     -10.315638      -280.7028
  52   2.0000     -10.315335      -280.6945
  53   2.0000     -10.314504      -280.6719
  54   2.0000     -10.311446      -280.5887
  55   2.0000     -10.309450      -280.5344
  56   2.0000     -10.307956      -280.4937
  57   2.0000     -10.306887      -280.4646
  58   2.0000     -10.306875      -280.4643
  59   2.0000     -10.305545      -280.4281
  60   2.0000     -10.304890      -280.4103
  61   2.0000     -10.303245      -280.3656
  62   2.0000     -10.288055      -279.9522
  63   2.0000     -10.286319      -279.9050
  64   2.0000     -10.285774      -279.8901
  65   2.0000     -10.277030      -279.6522
  66   2.0000     -10.275960      -279.6231
  67   2.0000     -10.275524      -279.6112
  68   2.0000     -10.272206      -279.5209
  69   2.0000     -10.271271      -279.4955
  70   2.0000     -10.271157      -279.4924
  71   2.0000     -10.271122      -279.4914
  72   2.0000     -10.269306      -279.4420
  73   2.0000     -10.265620      -279.3417
  74   2.0000     -10.265472      -279.3377
  75   2.0000     -10.262927      -279.2684
  76   2.0000      -9.573439      -260.5065
  77   2.0000      -9.566499      -260.3177
  78   2.0000      -9.559984      -260.1404
  79   2.0000      -9.558277      -260.0939
  80   2.0000      -8.219824      -223.6728
  81   2.0000      -8.216629      -223.5858
  82   2.0000      -8.090063      -220.1418
  83   2.0000      -8.071805      -219.6450
  84   2.0000      -7.343811      -199.8353
  85   2.0000      -7.336939      -199.6483
  86   2.0000      -7.333766      -199.5619
  87   2.0000      -7.332973      -199.5404
  88   2.0000      -7.330363      -199.4693
  89   2.0000      -7.328703      -199.4242
  90   2.0000      -7.326724      -199.3703
  91   2.0000      -7.326001      -199.3506
  92   2.0000      -7.320242      -199.1939
  93   2.0000      -7.319497      -199.1737
  94   2.0000      -7.318510      -199.1468
  95   2.0000      -7.317786      -199.1271
  96   2.0000      -6.189019      -168.4118
  97   2.0000      -6.188330      -168.3930
  98   2.0000      -6.188044      -168.3852
  99   2.0000      -6.185599      -168.3187
 100   2.0000      -6.185384      -168.3128
 101   2.0000      -6.184896      -168.2996
 102   2.0000      -6.059389      -164.8844
 103   2.0000      -6.054966      -164.7640
 104   2.0000      -6.052304      -164.6916
 105   2.0000      -6.041426      -164.3955
 106   2.0000      -6.036622      -164.2648
 107   2.0000      -6.033843      -164.1892
 108   2.0000      -1.211757       -32.9736
 109   2.0000      -1.206611       -32.8336
 110   2.0000      -1.160362       -31.5751
 111   2.0000      -1.148120       -31.2419
 112   2.0000      -1.090087       -29.6628
 113   2.0000      -1.084077       -29.4992
 114   2.0000      -1.046312       -28.4716
 115   2.0000      -1.037417       -28.2296
 116   2.0000      -1.030207       -28.0334
 117   2.0000      -1.029039       -28.0016
 118   2.0000      -1.025646       -27.9093
 119   2.0000      -1.018768       -27.7221
 120   2.0000      -1.006824       -27.3971
 121   2.0000      -1.006025       -27.3753
 122   2.0000      -1.005041       -27.3486
 123   2.0000      -0.998421       -27.1684
 124   2.0000      -0.988391       -26.8955
 125   2.0000      -0.976464       -26.5709
 126   2.0000      -0.970160       -26.3994
 127   2.0000      -0.969389       -26.3784
 128   2.0000      -0.966436       -26.2981
 129   2.0000      -0.960859       -26.1463
 130   2.0000      -0.954348       -25.9691
 131   2.0000      -0.947285       -25.7769
 132   2.0000      -0.946020       -25.7425
 133   2.0000      -0.941076       -25.6080
 134   2.0000      -0.921735       -25.0817
 135   2.0000      -0.917304       -24.9611
 136   2.0000      -0.916136       -24.9293
 137   2.0000      -0.900619       -24.5071
 138   2.0000      -0.890882       -24.2421
 139   2.0000      -0.890018       -24.2186
 140   2.0000      -0.875874       -23.8337
 141   2.0000      -0.874826       -23.8052
 142   2.0000      -0.866983       -23.5918
 143   2.0000      -0.857537       -23.3348
 144   2.0000      -0.842323       -22.9208
 145   2.0000      -0.840158       -22.8619
 146   2.0000      -0.838599       -22.8194
 147   2.0000      -0.835966       -22.7478
 148   2.0000      -0.828074       -22.5330
 149   2.0000      -0.805047       -21.9064
 150   2.0000      -0.792836       -21.5742
 151   2.0000      -0.789301       -21.4780
 152   2.0000      -0.784241       -21.3403
 153   2.0000      -0.780568       -21.2403
 154   2.0000      -0.776036       -21.1170
 155   2.0000      -0.768159       -20.9027
 156   2.0000      -0.758370       -20.6363
 157   2.0000      -0.746992       -20.3267
 158   2.0000      -0.742789       -20.2123
 159   2.0000      -0.730660       -19.8823
 160   2.0000      -0.726577       -19.7712
 161   2.0000      -0.712399       -19.3854
 162   2.0000      -0.708159       -19.2700
 163   2.0000      -0.706223       -19.2173
 164   2.0000      -0.704120       -19.1601
 165   2.0000      -0.700402       -19.0589
 166   2.0000      -0.692333       -18.8393
 167   2.0000      -0.678618       -18.4661
 168   2.0000      -0.676564       -18.4102
 169   2.0000      -0.671767       -18.2797
 170   2.0000      -0.667127       -18.1534
 171   2.0000      -0.664515       -18.0824
 172   2.0000      -0.661242       -17.9933
 173   2.0000      -0.655158       -17.8278
 174   2.0000      -0.642639       -17.4871
 175   2.0000      -0.638030       -17.3617
 176   2.0000      -0.636263       -17.3136
 177   2.0000      -0.628979       -17.1154
 178   2.0000      -0.624114       -16.9830
 179   2.0000      -0.622853       -16.9487
 180   2.0000      -0.609552       -16.5868
 181   2.0000      -0.607536       -16.5319
 182   2.0000      -0.605395       -16.4736
 183   2.0000      -0.598858       -16.2957
 184   2.0000      -0.594905       -16.1882
 185   2.0000      -0.592813       -16.1313
 186   2.0000      -0.587018       -15.9736
 187   2.0000      -0.585574       -15.9343
 188   2.0000      -0.580201       -15.7881
 189   2.0000      -0.573204       -15.5977
 190   2.0000      -0.572197       -15.5703
 191   2.0000      -0.568382       -15.4664
 192   2.0000      -0.567039       -15.4299
 193   2.0000      -0.564770       -15.3682
 194   2.0000      -0.563560       -15.3352
 195   2.0000      -0.560420       -15.2498
 196   2.0000      -0.558795       -15.2056
 197   2.0000      -0.557073       -15.1587
 198   2.0000      -0.554765       -15.0959
 199   2.0000      -0.552525       -15.0350
 200   2.0000      -0.548364       -14.9217
 201   2.0000      -0.547292       -14.8926
 202   2.0000      -0.544074       -14.8050
 203   2.0000      -0.542977       -14.7752
 204   2.0000      -0.539297       -14.6750
 205   2.0000      -0.537647       -14.6301
 206   2.0000      -0.535460       -14.5706
 207   2.0000      -0.531652       -14.4670
 208   2.0000      -0.529296       -14.4029
 209   2.0000      -0.526407       -14.3243
 210   2.0000      -0.524938       -14.2843
 211   2.0000      -0.522464       -14.2170
 212   2.0000      -0.520249       -14.1567
 213   2.0000      -0.517568       -14.0837
 214   2.0000      -0.515688       -14.0326
 215   2.0000      -0.514631       -14.0038
 216   2.0000      -0.512849       -13.9553
 217   2.0000      -0.510145       -13.8817
 218   2.0000      -0.508755       -13.8439
 219   2.0000      -0.506186       -13.7740
 220   2.0000      -0.505526       -13.7561
 221   2.0000      -0.503777       -13.7085
 222   2.0000      -0.500629       -13.6228
 223   2.0000      -0.499500       -13.5921
 224   2.0000      -0.498622       -13.5682
 225   2.0000      -0.495833       -13.4923
 226   2.0000      -0.493947       -13.4410
 227   2.0000      -0.491701       -13.3799
 228   2.0000      -0.489165       -13.3109
 229   2.0000      -0.484193       -13.1756
 230   2.0000      -0.481957       -13.1147
 231   2.0000      -0.475515       -12.9394
 232   2.0000      -0.473746       -12.8913
 233   2.0000      -0.469651       -12.7798
 234   2.0000      -0.464158       -12.6304
 235   2.0000      -0.462697       -12.5906
 236   2.0000      -0.461017       -12.5449
 237   2.0000      -0.459377       -12.5003
 238   2.0000      -0.457710       -12.4549
 239   2.0000      -0.453377       -12.3370
 240   2.0000      -0.453349       -12.3363
 241   2.0000      -0.452538       -12.3142
 242   2.0000      -0.449599       -12.2342
 243   2.0000      -0.446212       -12.1421
 244   2.0000      -0.445498       -12.1226
 245   2.0000      -0.443369       -12.0647
 246   2.0000      -0.442755       -12.0480
 247   2.0000      -0.441170       -12.0049
 248   2.0000      -0.439754       -11.9663
 249   2.0000      -0.437632       -11.9086
 250   2.0000      -0.437421       -11.9028
 251   2.0000      -0.433849       -11.8056
 252   2.0000      -0.427281       -11.6269
 253   2.0000      -0.425010       -11.5651
 254   2.0000      -0.423560       -11.5257
 255   2.0000      -0.418816       -11.3966
 256   2.0000      -0.418593       -11.3905
 257   2.0000      -0.417391       -11.3578
 258   2.0000      -0.414539       -11.2802
 259   2.0000      -0.412858       -11.2344
 260   2.0000      -0.412669       -11.2293
 261   2.0000      -0.411476       -11.1968
 262   2.0000      -0.408087       -11.1046
 263   2.0000      -0.405256       -11.0276
 264   2.0000      -0.401427       -10.9234
 265   2.0000      -0.400597       -10.9008
 266   2.0000      -0.399495       -10.8708
 267   2.0000      -0.397723       -10.8226
 268   2.0000      -0.394669       -10.7395
 269   2.0000      -0.391889       -10.6638
 270   2.0000      -0.386013       -10.5039
 271   2.0000      -0.381577       -10.3832
 272   2.0000      -0.377081       -10.2609
 273   2.0000      -0.372003       -10.1227
 274   2.0000      -0.370597       -10.0845
 275   2.0000      -0.367329        -9.9955
 276   2.0000      -0.366239        -9.9659
 277   2.0000      -0.363966        -9.9040
 278   2.0000      -0.362606        -9.8670
 279   2.0000      -0.352851        -9.6016
 280   2.0000      -0.347116        -9.4455
 281   2.0000      -0.345090        -9.3904
 282   2.0000      -0.340383        -9.2623
 283   2.0000      -0.333878        -9.0853
 284   2.0000      -0.328546        -8.9402
 285   2.0000      -0.323743        -8.8095
 286   2.0000      -0.319423        -8.6919
 287   2.0000      -0.310257        -8.4425
 288   2.0000      -0.304179        -8.2771
 289   2.0000      -0.297417        -8.0931
 290   2.0000      -0.296028        -8.0553
 291   2.0000      -0.278592        -7.5809
 292   2.0000      -0.224451        -6.1076
 293   0.0000      -0.116437        -3.1684
 294   0.0000      -0.106241        -2.8910
 295   0.0000      -0.086913        -2.3650
 296   0.0000      -0.078283        -2.1302
 297   0.0000      -0.067703        -1.8423

MULLIKEN ATOMIC CHARGES
-----------------------
   0 C :    0.320201
   1 C :   -0.344995
   2 C :   -0.192687
   3 N :    0.164435
   4 C :   -0.180825
   5 N :    0.142746
   6 C :    0.028530
   7 C :   -0.016198
   8 C :   -0.028178
   9 C :    0.057103
  10 C :    0.048447
  11 C :   -0.011390
  12 Cl:   -0.032863
  13 Cl:   -0.039040
  14 C :    0.161210
  15 O :   -0.164943
  16 C :   -0.096733
  17 C :   -0.033088
  18 C :   -0.098473
  19 S :    0.212717
  20 C :   -0.125073
  21 C :    0.044140
  22 C :    0.094688
  23 C :   -0.012731
  24 C :   -0.012505
  25 S :    0.778175
  26 O :   -0.459699
  27 O :   -0.445527
  28 C :    0.130997
  29 C :   -0.090443
  30 C :    0.013758
  31 C :    0.021172
  32 C :   -0.056067
  33 C :    0.120918
  34 N :   -0.217396
  35 C :    0.142748
  36 N :   -0.220394
  37 C :    0.104076
  38 C :   -0.137102
  39 C :    0.144625
  40 C :   -0.036007
  41 C :    0.025535
  42 C :    0.001891
  43 C :    0.046288
  44 C :   -0.002718
  45 C :   -0.028738
  46 C :   -0.063828
  47 C :    0.023361
  48 C :   -0.116937
  49 S :    0.166219
  50 C :   -0.159587
  51 C :    0.070051
  52 C :    0.063740
  53 C :    0.047834
  54 C :   -0.103463
  55 S :    0.780917
  56 O :   -0.439905
  57 O :   -0.439490
  58 C :    0.074842
  59 C :   -0.076848
  60 C :    0.315077
  61 C :   -0.338932
  62 C :   -0.191044
  63 N :    0.164130
  64 C :   -0.191053
  65 N :    0.188904
  66 C :    0.032887
  67 C :    0.002657
  68 C :    0.171761
  69 O :   -0.168688
  70 C :   -0.020535
  71 C :    0.066670
  72 C :    0.040871
  73 C :   -0.007155
  74 Cl:   -0.025115
  75 Cl:   -0.020236
  76 H :    0.001345
  77 H :    0.000940
  78 H :   -0.017257
  79 H :    0.043543
  80 H :    0.019524
  81 H :   -0.011814
  82 H :   -0.023678
  83 H :   -0.028260
  84 H :    0.020644
  85 H :    0.082708
  86 H :    0.096724
  87 H :   -0.026174
  88 H :    0.011975
  89 H :    0.097350
  90 H :    0.117283
  91 H :   -0.002859
  92 H :    0.047362
  93 H :   -0.017107
  94 H :   -0.032318
  95 H :   -0.033394
  96 H :   -0.017585
  97 H :    0.034626
  98 H :    0.012261
  99 H :    0.050162
 100 H :    0.023468
 101 H :    0.017208
 102 H :   -0.037371
 103 H :    0.003005
Sum of atomic charges:   -0.0000000

LOEWDIN ATOMIC CHARGES
----------------------
   0 C :    0.078080
   1 C :   -0.140715
   2 C :   -0.021279
   3 N :   -0.045924
   4 C :   -0.013547
   5 N :   -0.057892
   6 C :   -0.013530
   7 C :   -0.043127
   8 C :    0.001450
   9 C :   -0.133743
  10 C :   -0.129989
  11 C :   -0.011130
  12 Cl:    0.164000
  13 Cl:    0.161239
  14 C :    0.084859
  15 O :   -0.156342
  16 C :   -0.111694
  17 C :    0.062024
  18 C :   -0.192164
  19 S :    0.511858
  20 C :   -0.135938
  21 C :   -0.213923
  22 C :   -0.025781
  23 C :   -0.044047
  24 C :   -0.107504
  25 S :    1.181717
  26 O :   -0.495452
  27 O :   -0.491271
  28 C :   -0.063498
  29 C :    0.026836
  30 C :   -0.028498
  31 C :    0.012644
  32 C :   -0.049103
  33 C :    0.022866
  34 N :   -0.115491
  35 C :    0.028617
  36 N :   -0.086509
  37 C :   -0.011405
  38 C :    0.073442
  39 C :   -0.031580
  40 C :   -0.040197
  41 C :   -0.010127
  42 C :   -0.044585
  43 C :   -0.023586
  44 C :   -0.008053
  45 C :   -0.020505
  46 C :    0.030073
  47 C :   -0.054805
  48 C :   -0.136295
  49 S :    0.473355
  50 C :   -0.151912
  51 C :   -0.194883
  52 C :   -0.095049
  53 C :    0.058565
  54 C :   -0.186650
  55 S :    1.167590
  56 O :   -0.484231
  57 O :   -0.486019
  58 C :    0.064414
  59 C :   -0.084922
  60 C :    0.068966
  61 C :   -0.117806
  62 C :   -0.017454
  63 N :   -0.037468
  64 C :   -0.030697
  65 N :   -0.016958
  66 C :   -0.009381
  67 C :   -0.045710
  68 C :    0.096995
  69 O :   -0.151814
  70 C :   -0.001989
  71 C :   -0.133857
  72 C :   -0.126405
  73 C :   -0.009585
  74 Cl:    0.169571
  75 Cl:    0.173921
  76 H :    0.046515
  77 H :    0.044852
  78 H :    0.048210
  79 H :    0.037398
  80 H :    0.039135
  81 H :    0.014405
  82 H :    0.016453
  83 H :   -0.017239
  84 H :    0.028007
  85 H :    0.046045
  86 H :    0.057303
  87 H :   -0.000017
  88 H :    0.024977
  89 H :    0.052681
  90 H :    0.053686
  91 H :    0.028433
  92 H :    0.063888
  93 H :    0.021849
  94 H :    0.031512
  95 H :    0.029355
  96 H :    0.030134
  97 H :    0.034928
  98 H :    0.034925
  99 H :    0.038786
 100 H :    0.036188
 101 H :    0.048671
 102 H :    0.041958
 103 H :    0.045899

  Mayer bond orders larger than 0.100000
B(  0-C ,  1-C ) :   1.6246 B(  0-C ,  6-C ) :   0.9885 B(  0-C , 16-C ) :   1.0902
B(  1-C ,  2-C ) :   1.1416 B(  1-C ,  4-C ) :   1.1505 B(  2-C ,  3-N ) :   2.9740
B(  4-C ,  5-N ) :   2.9666 B(  6-C ,  7-C ) :   1.3305 B(  6-C , 11-C ) :   1.3475
B(  7-C ,  8-C ) :   1.3464 B(  7-C , 14-C ) :   0.9530 B(  8-C ,  9-C ) :   1.3381
B(  8-C , 76-H ) :   1.0172 B(  9-C , 10-C ) :   1.4098 B(  9-C , 13-Cl) :   1.0504
B( 10-C , 11-C ) :   1.3545 B( 10-C , 12-Cl) :   1.0790 B( 11-C , 77-H ) :   0.9864
B( 14-C , 15-O ) :   2.1634 B( 14-C , 16-C ) :   0.9685 B( 16-C , 17-C ) :   1.5209
B( 17-C , 18-C ) :   1.2835 B( 17-C , 78-H ) :   0.9284 B( 18-C , 19-S ) :   1.0797
B( 18-C , 22-C ) :   1.3429 B( 19-S , 20-C ) :   1.1798 B( 20-C , 21-C ) :   1.5586
B( 20-C , 79-H ) :   0.9746 B( 21-C , 22-C ) :   1.2826 B( 21-C , 25-S ) :   0.7534
B( 22-C , 23-C ) :   1.1171 B( 23-C , 24-C ) :   1.6225 B( 23-C , 80-H ) :   0.9736
B( 24-C , 25-S ) :   0.8326 B( 24-C , 28-C ) :   1.1655 B( 25-S , 26-O ) :   1.6822
B( 25-S , 27-O ) :   1.7012 B( 28-C , 29-C ) :   1.4307 B( 28-C , 45-C ) :   1.1027
B( 29-C , 30-C ) :   1.1857 B( 29-C , 81-H ) :   0.9308 B( 30-C , 31-C ) :   1.4721
B( 30-C , 43-C ) :   1.1076 B( 31-C , 32-C ) :   1.0185 B( 31-C , 37-C ) :   1.1164
B( 32-C , 33-C ) :   1.0264 B( 32-C , 35-C ) :   1.0130 B( 32-C , 82-H ) :   0.8873
B( 33-C , 34-N ) :   1.1036 B( 33-C , 83-H ) :   0.9399 B( 33-C , 84-H ) :   0.9313
B( 34-N , 85-H ) :   0.9741 B( 34-N , 86-H ) :   0.9669 B( 35-C , 36-N ) :   1.1023
B( 35-C , 87-H ) :   0.9346 B( 35-C , 88-H ) :   0.9515 B( 36-N , 81-H ) :   0.1539
B( 36-N , 89-H ) :   0.9645 B( 36-N , 90-H ) :   0.9402 B( 37-C , 38-C ) :   1.6710
B( 37-C , 42-C ) :   1.0496 B( 38-C , 39-C ) :   0.9558 B( 38-C , 91-H ) :   0.9662
B( 39-C , 40-C ) :   0.9847 B( 39-C , 46-C ) :   0.9657 B( 39-C , 92-H ) :   0.8584
B( 40-C , 41-C ) :   1.7345 B( 40-C , 93-H ) :   0.9691 B( 41-C , 42-C ) :   1.1267
B( 41-C , 94-H ) :   0.9866 B( 42-C , 43-C ) :   1.4503 B( 43-C , 44-C ) :   1.1326
B( 44-C , 45-C ) :   1.6308 B( 44-C , 95-H ) :   0.9911 B( 45-C , 96-H ) :   0.9864
B( 46-C , 47-C ) :   1.8081 B( 46-C , 97-H ) :   0.9793 B( 47-C , 48-C ) :   1.0595
B( 47-C , 98-H ) :   0.9578 B( 48-C , 49-S ) :   1.1678 B( 48-C , 52-C ) :   1.4572
B( 49-S , 50-C ) :   1.1394 B( 50-C , 51-C ) :   1.6550 B( 50-C , 99-H ) :   0.9760
B( 51-C , 52-C ) :   1.2132 B( 51-C , 55-S ) :   0.7542 B( 52-C , 53-C ) :   1.1027
B( 53-C , 54-C ) :   1.5828 B( 53-C ,100-H ) :   0.9635 B( 54-C , 55-S ) :   0.8479
B( 54-C , 58-C ) :   1.2355 B( 55-S , 56-O ) :   1.7290 B( 55-S , 57-O ) :   1.7378
B( 58-C , 59-C ) :   1.5922 B( 58-C ,101-H ) :   0.9024 B( 59-C , 60-C ) :   1.0749
B( 59-C , 68-C ) :   0.9606 B( 60-C , 61-C ) :   1.6490 B( 60-C , 66-C ) :   0.9809
B( 61-C , 62-C ) :   1.1486 B( 61-C , 64-C ) :   1.1326 B( 62-C , 63-N ) :   2.9678
B( 64-C , 65-N ) :   2.9722 B( 66-C , 67-C ) :   1.3245 B( 66-C , 73-C ) :   1.3404
B( 67-C , 68-C ) :   0.9658 B( 67-C , 70-C ) :   1.3454 B( 68-C , 69-O ) :   2.0981
B( 70-C , 71-C ) :   1.3470 B( 70-C ,102-H ) :   1.0217 B( 71-C , 72-C ) :   1.4017
B( 71-C , 75-Cl) :   1.0772 B( 72-C , 73-C ) :   1.3581 B( 72-C , 74-Cl) :   1.0897
B( 73-C ,103-H ) :   0.9855

-----------------------------------------------------------------------------
         ABSORPTION SPECTRUM VIA TRANSITION ELECTRIC DIPOLE MOMENTS
-----------------------------------------------------------------------------
State   Energy  Wavelength   fosc         T2         TX        TY        TZ
        (cm-1)    (nm)                  (au**2)     (au)      (au)      (au)
-----------------------------------------------------------------------------
   0   10623.1    941.3   0.062971877   1.95152  -1.39479  -0.04632  -0.06269
   1   12183.4    820.8   0.235889231   6.37404  -2.50563   0.21550   0.22229
   2   15959.2    626.6   0.257794728   5.31788  -2.08385  -0.00045   0.98764
   3   17305.7    577.8   0.002043409   0.03887  -0.15103   0.01208   0.12616
   4   20948.3    477.4   0.106603019   1.67532   1.20904  -0.00503  -0.46207
   5   21699.5    460.8   1.025814410  15.56308   3.48037  -0.14142   1.85206
   6   21870.9    457.2   0.460648691   6.93392   0.69933  -0.17484  -2.53264
   7   24578.5    406.9   0.015391798   0.20616   0.43321   0.01545   0.13509
   8   25447.1    393.0   0.065791070   0.85115  -0.39595  -0.04044   0.83231
   9   25704.2    389.0   0.028709621   0.36770   0.23840   0.13304  -0.54145
  10   26318.1    380.0   0.012950829   0.16200  -0.03026   0.02160  -0.40077
  11   26580.8    376.2   0.038741355   0.47982  -0.14673  -0.01739  -0.67675
  12   26984.4    370.6   0.000064618   0.00079   0.01329   0.01525  -0.01947
  13   27236.1    367.2   0.002802775   0.03388   0.16410   0.08278  -0.00989
  14   27810.9    359.6   0.248314074   2.93942  -0.77493   0.00314  -1.52934
  15   28042.8    356.6   0.113925662   1.33744   1.12366  -0.19781  -0.18897
  16   28137.8    355.4   0.025046382   0.29304  -0.25047  -0.19859  -0.43689
  17   28223.2    354.3   0.088879536   1.03674  -0.64932  -0.06749   0.78139
  18   29146.7    343.1   0.011922965   0.13467  -0.27488  -0.17602   0.16771
  19   29335.9    340.9   0.361514133   4.05696  -0.92654  -0.77453   1.61201
  20   29601.2    337.8   0.000879193   0.00978   0.00845   0.07758   0.06073
  21   29920.2    334.2   0.916164610  10.08058   2.60638  -0.07817  -1.81142
  22   30415.4    328.8   0.004716771   0.05105  -0.03066  -0.12941  -0.18267
  23   30482.6    328.1   0.037745643   0.40765  -0.53059  -0.05876   0.35025
  24   30790.0    324.8   0.003311097   0.03540   0.10563   0.14290  -0.06186
  25   30873.3    323.9   0.119356430   1.27274  -0.69128  -0.01233   0.89147
  26   31944.3    313.0   0.066329012   0.68358   0.57023   0.08702  -0.59231
  27   32071.8    311.8   0.004328690   0.04443   0.09792  -0.05780  -0.17750
  28   32086.1    311.7   0.002380852   0.02443  -0.11686  -0.02949   0.09951
  29   32107.8    311.5   0.013218640   0.13554   0.20648  -0.08585  -0.29246
  30   32700.5    305.8   0.008655097   0.08714  -0.17300   0.02765   0.23757
  31   32904.0    303.9   0.000201911   0.00202  -0.01868   0.02272   0.03399
  32   33401.4    299.4   0.073688036   0.72629  -0.74093  -0.00313   0.42107
  33   33660.8    297.1   0.030447487   0.29778  -0.33541  -0.24504   0.35390
  34   33703.2    296.7   0.011471348   0.11205   0.31436   0.04701  -0.10497
  35   34011.0    294.0   0.124440923   1.20453   1.08683  -0.04079  -0.14721
  36   34262.2    291.9   0.307945427   2.95893   1.08329   0.04999  -1.33526
  37   34370.6    290.9   0.011286145   0.10810  -0.25305  -0.20726  -0.03327
  38   34601.3    289.0   0.558044353   5.30948   1.95858   1.18545   0.26109
  39   34811.1    287.3   0.010170422   0.09618  -0.04006  -0.18433  -0.24617
  40   35136.1    284.6   0.001616943   0.01515   0.00111  -0.12173   0.01818
  41   35304.9    283.2   0.259135931   2.41640   0.21794  -0.07751   1.53717
  42   35364.2    282.8   0.039990938   0.37228   0.52386  -0.10283  -0.29542
  43   35835.1    279.1   0.004918973   0.04519   0.11735  -0.08619   0.15489
  44   36126.1    276.8   0.010621808   0.09679   0.16349  -0.04184  -0.26137
  45   36186.9    276.3   0.008778099   0.07986  -0.23998  -0.05391  -0.13915
  46   36725.0    272.3   0.124121187   1.11265  -0.46081  -0.09544   0.94403
  47   36754.0    272.1   0.013177363   0.11803   0.20980   0.18253  -0.20173
  48   37783.8    264.7   0.045798844   0.39905  -0.52951   0.06040  -0.33914
  49   38303.3    261.1   0.002438000   0.02095   0.14106  -0.02175   0.02416
  50   38428.5    260.2   0.009850960   0.08439   0.21364   0.01721  -0.19609
  51   38559.7    259.3   0.049628277   0.42371  -0.11482   0.03879  -0.63955
  52   38721.8    258.3   0.022454369   0.19091  -0.42016   0.01682   0.11870
  53   38804.4    257.7   0.177118913   1.50266   1.21660   0.03036  -0.14706
  54   38837.3    257.5   0.000540986   0.00459  -0.01521   0.02842   0.05956
  55   39086.0    255.8   0.171208550   1.44205   0.14892   0.19266  -1.17591
  56   39165.3    255.3   0.021809494   0.18332  -0.13110  -0.02791  -0.40664
  57   39401.0    253.8   0.193922379   1.62030   1.04850   0.51912  -0.50148
  58   39595.1    252.6   0.101178075   0.84124  -0.85953  -0.26359  -0.18158
  59   39611.7    252.5   0.076652526   0.63706   0.11858   0.17383  -0.76992
  60   39846.9    251.0   0.105793720   0.87406  -0.25523   0.27073   0.85768
  61   39994.2    250.0   0.052070621   0.42862  -0.57313   0.10973   0.29683
  62   40157.4    249.0   0.077481481   0.63520   0.76454   0.16960   0.14803

FINAL SINGLE POINT ENERGY     -6359.174667870798

DIPOLE MOMENT
-------------
                                X             Y             Z
Electronic contribution:     56.87742      -9.53796     -38.36342
Nuclear contribution   :    -55.64375      11.42581      38.97885
                        -----------------------------------------
Total Dipole Moment    :      1.23368       1.88786       0.61543
                        -----------------------------------------
Magnitude (a.u.)       :      2.33767
Magnitude (Debye)      :      5.94189

Rotational constants in cm-1:     0.001362     0.000222     0.000197
Rotational constants in MHz :    40.818664     6.648234     5.899791

                             ****ORCA TERMINATED NORMALLY****
TOTAL RUN TIME: 0 days 0 hours 14 minutes 34 seconds 911 msec
