                         Program Version 4.2.0 -  RELEASE  -
|  1> # ORCA input file
|  2> # SCF done       -180.778792156437          0.000697656136
|  3> ! CAM-B3LYP def2-SVP def2/J RIJCOSX Grid4 TightSCF
|  4> %maxcore 5000
|  5> %tddft
|  6>     Mode sTDDFT
|  7>     Ethresh 5.0
|  8>     maxcore 5000
|  9> end
| 10>
| 11> %pal
| 12>   nprocs 6
| 13>   end
| 14> * xyz 0 1
| 15>    C        2.15002        -2.78840        -1.50526
| 16>    C        2.08194        -3.86631        -2.34203
| 17>    C        2.05727        -3.76647        -3.74838
| 18>    N        2.02400        -3.72994        -4.89475
| 19>    C        2.17068        -5.20329        -1.89462
| 20>    N        2.37899        -6.29305        -1.60018
| 21>    C        2.42072        -1.40881        -1.90364
| 22>    C        2.88340        -0.69250        -0.78289
| 23>    C        3.25853         0.63291        -0.87580
| 24>    C        3.16018         1.26161        -2.11069
| 25>    C        2.69028         0.55894        -3.22650
| 26>    C        2.32242        -0.77897        -3.13268
| 27>   Cl        2.56130         1.35473        -4.74193
| 28>   Cl        3.61399         2.91068        -2.26469
| 29>    C        2.86007        -1.56711         0.40929
| 30>    O        3.21901        -1.30673         1.53468
| 31>    C        2.23023        -2.82879        -0.05901
| 32>    C        1.70793        -3.70098         0.84567
| 33>    C        0.74853        -4.70661         0.60748
| 34>    N        0.36009        -5.59627         1.62595
| 35>    C       -0.59878        -6.35501         1.08151
| 36>    N       -1.46722        -7.36004         1.27341
| 37>    C       -2.15652        -7.48468         0.05204
| 38>    N       -1.75740        -6.61185        -0.85140
| 39>    C       -0.78855        -5.89316        -0.25174
| 40>    N        0.05594        -4.88579        -0.50720
| 41>    C       -3.17272        -8.45512        -0.12988
| 42>    C       -3.80038        -8.61613        -1.32101
| 43>    C       -4.83697        -9.53944        -1.57321
| 44>    S       -5.53656       -10.57756        -0.34278
| 45>    C       -6.67190       -11.30356        -1.43113
| 46>    C       -6.51891       -10.77560        -2.71704
| 47>    C       -5.48717        -9.78557        -2.77485
| 48>    N       -5.40733        -9.32454        -4.04989
| 49>    C       -6.34896        -9.98888        -4.79332
| 50>    N       -6.49446        -9.71111        -6.16547
| 51>    O       -5.75251        -8.86440        -6.63233
| 52>    O       -7.34202       -10.32750        -6.78031
| 53>    C       -7.05393       -10.88658        -4.01893
| 54>    C       -7.58004       -12.26317        -0.94009
| 55>    N       -8.53916       -12.88766        -1.75942
| 56>    C       -9.21344       -13.70404        -0.93497
| 57>    N      -10.20470       -14.59395        -0.83120
| 58>    C      -10.22079       -14.96730         0.52840
| 59>    N       -9.28848       -14.34436         1.23331
| 60>    C       -8.64472       -13.55444         0.36399
| 61>    N       -7.63971       -12.65782         0.31693
| 62>    C      -11.13706       -15.89582         1.06319
| 63>    C      -12.09471       -16.54189         0.34026
| 64>    C      -12.99133       -17.46263         0.91606
| 65>    C      -13.95125       -18.14156         0.21037
| 66>    C      -14.89863       -19.10700         0.73280
| 67>    C      -15.07234       -19.47478         2.04140
| 68>    C      -16.02235       -20.42310         2.47786
| 69>    N      -16.76923       -21.18505         2.90075
| 70>    C      -14.35062       -18.96492         3.14171
| 71>    N      -13.81595       -18.59875         4.08951
| 72>    C      -15.67011       -19.62277        -0.39715
| 73>    C      -15.24264       -18.98033        -1.57215
| 74>    C      -14.16493       -18.02316        -1.25041
| 75>    O      -13.58749       -17.30157        -2.04004
| 76>    C      -15.79642       -19.26700        -2.80324
| 77>    C      -16.80186       -20.22324        -2.86706
| 78>    C      -17.23266       -20.87055        -1.70322
| 79>    C      -16.67345       -20.57560        -0.46430
| 80>   Cl      -18.47292       -22.05398        -1.79546
| 81>   Cl      -17.51464       -20.61198        -4.38001
| 82>    H        3.61806         1.16559        -0.00960
| 83>    H        1.96061        -1.29241        -4.00865
| 84>    H        1.98861        -3.53425         1.87985
| 85>    H        0.78035        -5.65555         2.53928
| 86>    H       -1.60610        -7.93731         2.08631
| 87>    H       -3.43850        -9.07207         0.71714
| 88>    H       -3.48416        -7.98657        -2.14083
| 89>    H       -4.78593        -8.62859        -4.43245
| 90>    H       -7.83706       -11.51569        -4.39042
| 91>    H       -8.66431       -12.72993        -2.74466
| 92>    H      -10.82489       -14.94640        -1.54225
| 93>    H      -11.03523       -16.07455         2.12418
| 94>    H      -12.19673       -16.36647        -0.71988
| 95>    H      -12.89517       -17.63654         1.97934
| 96>    H      -15.45386       -18.76094        -3.69207
| 97>    H      -17.03184       -21.09578         0.40872
| 98> *
| 99>
|100>                          ****END OF INPUT****

CARTESIAN COORDINATES (ANGSTROEM)
---------------------------------
  C      2.150020   -2.788400   -1.505260
  C      2.081940   -3.866310   -2.342030
  C      2.057270   -3.766470   -3.748380
  N      2.024000   -3.729940   -4.894750
  C      2.170680   -5.203290   -1.894620
  N      2.378990   -6.293050   -1.600180
  C      2.420720   -1.408810   -1.903640
  C      2.883400   -0.692500   -0.782890
  C      3.258530    0.632910   -0.875800
  C      3.160180    1.261610   -2.110690
  C      2.690280    0.558940   -3.226500
  C      2.322420   -0.778970   -3.132680
  Cl     2.561300    1.354730   -4.741930
  Cl     3.613990    2.910680   -2.264690
  C      2.860070   -1.567110    0.409290
  O      3.219010   -1.306730    1.534680
  C      2.230230   -2.828790   -0.059010
  C      1.707930   -3.700980    0.845670
  C      0.748530   -4.706610    0.607480
  N      0.360090   -5.596270    1.625950
  C     -0.598780   -6.355010    1.081510
  N     -1.467220   -7.360040    1.273410
  C     -2.156520   -7.484680    0.052040
  N     -1.757400   -6.611850   -0.851400
  C     -0.788550   -5.893160   -0.251740
  N      0.055940   -4.885790   -0.507200
  C     -3.172720   -8.455120   -0.129880
  C     -3.800380   -8.616130   -1.321010
  C     -4.836970   -9.539440   -1.573210
  S     -5.536560  -10.577560   -0.342780
  C     -6.671900  -11.303560   -1.431130
  C     -6.518910  -10.775600   -2.717040
  C     -5.487170   -9.785570   -2.774850
  N     -5.407330   -9.324540   -4.049890
  C     -6.348960   -9.988880   -4.793320
  N     -6.494460   -9.711110   -6.165470
  O     -5.752510   -8.864400   -6.632330
  O     -7.342020  -10.327500   -6.780310
  C     -7.053930  -10.886580   -4.018930
  C     -7.580040  -12.263170   -0.940090
  N     -8.539160  -12.887660   -1.759420
  C     -9.213440  -13.704040   -0.934970
  N    -10.204700  -14.593950   -0.831200
  C    -10.220790  -14.967300    0.528400
  N     -9.288480  -14.344360    1.233310
  C     -8.644720  -13.554440    0.363990
  N     -7.639710  -12.657820    0.316930
  C    -11.137060  -15.895820    1.063190
  C    -12.094710  -16.541890    0.340260
  C    -12.991330  -17.462630    0.916060
  C    -13.951250  -18.141560    0.210370
  C    -14.898630  -19.107000    0.732800
  C    -15.072340  -19.474780    2.041400
  C    -16.022350  -20.423100    2.477860
  N    -16.769230  -21.185050    2.900750
  C    -14.350620  -18.964920    3.141710
  N    -13.815950  -18.598750    4.089510
  C    -15.670110  -19.622770   -0.397150
  C    -15.242640  -18.980330   -1.572150
  C    -14.164930  -18.023160   -1.250410
  O    -13.587490  -17.301570   -2.040040
  C    -15.796420  -19.267000   -2.803240
  C    -16.801860  -20.223240   -2.867060
  C    -17.232660  -20.870550   -1.703220
  C    -16.673450  -20.575600   -0.464300
  Cl   -18.472920  -22.053980   -1.795460
  Cl   -17.514640  -20.611980   -4.380010
  H      3.618060    1.165590   -0.009600
  H      1.960610   -1.292410   -4.008650
  H      1.988610   -3.534250    1.879850
  H      0.780350   -5.655550    2.539280
  H     -1.606100   -7.937310    2.086310
  H     -3.438500   -9.072070    0.717140
  H     -3.484160   -7.986570   -2.140830
  H     -4.785930   -8.628590   -4.432450
  H     -7.837060  -11.515690   -4.390420
  H     -8.664310  -12.729930   -2.744660
  H    -10.824890  -14.946400   -1.542250
  H    -11.035230  -16.074550    2.124180
  H    -12.196730  -16.366470   -0.719880
  H    -12.895170  -17.636540    1.979340
  H    -15.453860  -18.760940   -3.692070
  H    -17.031840  -21.095780    0.408720

 Total Charge           Charge          ....    0
 Multiplicity           Mult            ....    1
 Number of Electrons    NEL             ....  494
 Basis Dimension        Dim             .... 1038

ORBITAL ENERGIES
----------------

  NO   OCC          E(Eh)            E(eV)
   0   2.0000    -101.604176     -2764.7902
   1   2.0000    -101.602048     -2764.7323
   2   2.0000    -101.596245     -2764.5744
   3   2.0000    -101.595490     -2764.5538
   4   2.0000     -88.985549     -2421.4199
   5   2.0000     -19.261074      -524.1205
   6   2.0000     -19.259996      -524.0911
   7   2.0000     -19.228475      -523.2334
   8   2.0000     -19.216814      -522.9161
   9   2.0000     -14.670864      -399.2145
  10   2.0000     -14.511664      -394.8825
  11   2.0000     -14.508422      -394.7942
  12   2.0000     -14.506155      -394.7325
  13   2.0000     -14.502209      -394.6252
  14   2.0000     -14.496213      -394.4620
  15   2.0000     -14.422023      -392.4432
  16   2.0000     -14.420734      -392.4081
  17   2.0000     -14.419441      -392.3729
  18   2.0000     -14.418673      -392.3520
  19   2.0000     -14.416104      -392.2821
  20   2.0000     -14.411148      -392.1473
  21   2.0000     -14.406938      -392.0327
  22   2.0000     -14.404164      -391.9572
  23   2.0000     -10.380600      -282.4705
  24   2.0000     -10.379020      -282.4275
  25   2.0000     -10.372701      -282.2556
  26   2.0000     -10.370493      -282.1955
  27   2.0000     -10.368342      -282.1369
  28   2.0000     -10.364443      -282.0308
  29   2.0000     -10.360021      -281.9105
  30   2.0000     -10.359635      -281.9000
  31   2.0000     -10.357177      -281.8331
  32   2.0000     -10.356269      -281.8084
  33   2.0000     -10.352811      -281.7143
  34   2.0000     -10.352295      -281.7003
  35   2.0000     -10.351095      -281.6676
  36   2.0000     -10.349164      -281.6151
  37   2.0000     -10.347896      -281.5806
  38   2.0000     -10.344477      -281.4875
  39   2.0000     -10.338829      -281.3338
  40   2.0000     -10.337855      -281.3073
  41   2.0000     -10.334328      -281.2114
  42   2.0000     -10.328312      -281.0477
  43   2.0000     -10.325073      -280.9595
  44   2.0000     -10.324389      -280.9409
  45   2.0000     -10.322502      -280.8896
  46   2.0000     -10.322081      -280.8781
  47   2.0000     -10.322018      -280.8764
  48   2.0000     -10.320089      -280.8239
  49   2.0000     -10.319593      -280.8104
  50   2.0000     -10.319550      -280.8092
  51   2.0000     -10.317696      -280.7588
  52   2.0000     -10.313930      -280.6563
  53   2.0000     -10.313708      -280.6503
  54   2.0000     -10.312981      -280.6305
  55   2.0000     -10.312260      -280.6109
  56   2.0000     -10.311692      -280.5954
  57   2.0000     -10.308900      -280.5194
  58   2.0000     -10.306452      -280.4528
  59   2.0000     -10.305810      -280.4354
  60   2.0000     -10.305510      -280.4272
  61   2.0000     -10.303718      -280.3784
  62   2.0000     -10.302687      -280.3504
  63   2.0000     -10.297870      -280.2193
  64   2.0000     -10.297645      -280.2132
  65   2.0000     -10.297360      -280.2054
  66   2.0000     -10.294828      -280.1365
  67   2.0000      -9.559152      -260.1178
  68   2.0000      -9.557092      -260.0617
  69   2.0000      -9.551309      -259.9043
  70   2.0000      -9.550484      -259.8819
  71   2.0000      -8.079525      -219.8551
  72   2.0000      -7.329530      -199.4467
  73   2.0000      -7.327457      -199.3902
  74   2.0000      -7.321689      -199.2333
  75   2.0000      -7.320890      -199.2115
  76   2.0000      -7.319425      -199.1717
  77   2.0000      -7.318698      -199.1519
  78   2.0000      -7.317367      -199.1157
  79   2.0000      -7.316624      -199.0955
  80   2.0000      -7.311550      -198.9574
  81   2.0000      -7.310864      -198.9387
  82   2.0000      -7.310743      -198.9354
  83   2.0000      -7.310007      -198.9154
  84   2.0000      -6.048908      -164.5992
  85   2.0000      -6.044669      -164.4838
  86   2.0000      -6.041735      -164.4040
  87   2.0000      -1.341340       -36.4997
  88   2.0000      -1.167147       -31.7597
  89   2.0000      -1.161341       -31.6017
  90   2.0000      -1.160221       -31.5712
  91   2.0000      -1.142195       -31.0807
  92   2.0000      -1.131922       -30.8012
  93   2.0000      -1.121997       -30.5311
  94   2.0000      -1.114460       -30.3260
  95   2.0000      -1.107827       -30.1455
  96   2.0000      -1.034888       -28.1607
  97   2.0000      -1.026712       -27.9383
  98   2.0000      -1.023197       -27.8426
  99   2.0000      -1.020136       -27.7593
 100   2.0000      -1.017289       -27.6818
 101   2.0000      -1.007538       -27.4165
 102   2.0000      -1.002918       -27.2908
 103   2.0000      -0.999275       -27.1917
 104   2.0000      -0.995015       -27.0757
 105   2.0000      -0.987779       -26.8788
 106   2.0000      -0.984064       -26.7778
 107   2.0000      -0.977032       -26.5864
 108   2.0000      -0.970442       -26.4071
 109   2.0000      -0.965345       -26.2684
 110   2.0000      -0.957952       -26.0672
 111   2.0000      -0.944964       -25.7138
 112   2.0000      -0.938519       -25.5384
 113   2.0000      -0.930937       -25.3321
 114   2.0000      -0.929035       -25.2803
 115   2.0000      -0.920218       -25.0404
 116   2.0000      -0.904381       -24.6095
 117   2.0000      -0.901633       -24.5347
 118   2.0000      -0.894763       -24.3477
 119   2.0000      -0.882853       -24.0237
 120   2.0000      -0.873499       -23.7691
 121   2.0000      -0.864816       -23.5328
 122   2.0000      -0.860459       -23.4143
 123   2.0000      -0.855940       -23.2913
 124   2.0000      -0.832194       -22.6451
 125   2.0000      -0.814705       -22.1693
 126   2.0000      -0.801577       -21.8120
 127   2.0000      -0.794204       -21.6114
 128   2.0000      -0.779107       -21.2006
 129   2.0000      -0.771476       -20.9929
 130   2.0000      -0.765134       -20.8203
 131   2.0000      -0.760580       -20.6964
 132   2.0000      -0.755580       -20.5604
 133   2.0000      -0.744699       -20.2643
 134   2.0000      -0.738159       -20.0863
 135   2.0000      -0.724215       -19.7069
 136   2.0000      -0.720563       -19.6075
 137   2.0000      -0.711703       -19.3664
 138   2.0000      -0.710391       -19.3307
 139   2.0000      -0.709099       -19.2956
 140   2.0000      -0.704448       -19.1690
 141   2.0000      -0.701533       -19.0897
 142   2.0000      -0.699819       -19.0430
 143   2.0000      -0.690013       -18.7762
 144   2.0000      -0.683531       -18.5998
 145   2.0000      -0.680978       -18.5303
 146   2.0000      -0.671029       -18.2596
 147   2.0000      -0.666709       -18.1421
 148   2.0000      -0.663060       -18.0428
 149   2.0000      -0.657823       -17.9003
 150   2.0000      -0.653530       -17.7834
 151   2.0000      -0.641765       -17.4633
 152   2.0000      -0.630928       -17.1684
 153   2.0000      -0.629545       -17.1308
 154   2.0000      -0.624017       -16.9804
 155   2.0000      -0.618740       -16.8368
 156   2.0000      -0.612828       -16.6759
 157   2.0000      -0.610728       -16.6188
 158   2.0000      -0.605482       -16.4760
 159   2.0000      -0.599673       -16.3179
 160   2.0000      -0.595880       -16.2147
 161   2.0000      -0.595390       -16.2014
 162   2.0000      -0.588135       -16.0040
 163   2.0000      -0.585833       -15.9413
 164   2.0000      -0.577461       -15.7135
 165   2.0000      -0.574071       -15.6213
 166   2.0000      -0.570044       -15.5117
 167   2.0000      -0.561968       -15.2919
 168   2.0000      -0.559701       -15.2302
 169   2.0000      -0.556003       -15.1296
 170   2.0000      -0.555487       -15.1156
 171   2.0000      -0.552446       -15.0328
 172   2.0000      -0.550955       -14.9923
 173   2.0000      -0.550002       -14.9663
 174   2.0000      -0.547935       -14.9101
 175   2.0000      -0.542646       -14.7661
 176   2.0000      -0.541041       -14.7225
 177   2.0000      -0.538940       -14.6653
 178   2.0000      -0.537452       -14.6248
 179   2.0000      -0.528782       -14.3889
 180   2.0000      -0.526588       -14.3292
 181   2.0000      -0.522407       -14.2154
 182   2.0000      -0.520445       -14.1620
 183   2.0000      -0.519271       -14.1301
 184   2.0000      -0.513591       -13.9755
 185   2.0000      -0.512174       -13.9370
 186   2.0000      -0.511830       -13.9276
 187   2.0000      -0.502742       -13.6803
 188   2.0000      -0.501568       -13.6484
 189   2.0000      -0.500795       -13.6273
 190   2.0000      -0.497011       -13.5244
 191   2.0000      -0.488986       -13.3060
 192   2.0000      -0.487022       -13.2525
 193   2.0000      -0.485026       -13.1982
 194   2.0000      -0.481190       -13.0938
 195   2.0000      -0.480403       -13.0724
 196   2.0000      -0.475215       -12.9313
 197   2.0000      -0.470640       -12.8068
 198   2.0000      -0.469088       -12.7645
 199   2.0000      -0.463082       -12.6011
 200   2.0000      -0.453691       -12.3456
 201   2.0000      -0.448887       -12.2148
 202   2.0000      -0.447851       -12.1867
 203   2.0000      -0.444768       -12.1027
 204   2.0000      -0.442211       -12.0332
 205   2.0000      -0.440971       -11.9994
 206   2.0000      -0.440535       -11.9876
 207   2.0000      -0.436916       -11.8891
 208   2.0000      -0.435808       -11.8589
 209   2.0000      -0.432219       -11.7613
 210   2.0000      -0.432104       -11.7581
 211   2.0000      -0.430535       -11.7154
 212   2.0000      -0.430129       -11.7044
 213   2.0000      -0.424609       -11.5542
 214   2.0000      -0.423846       -11.5334
 215   2.0000      -0.421460       -11.4685
 216   2.0000      -0.417695       -11.3660
 217   2.0000      -0.415790       -11.3142
 218   2.0000      -0.410781       -11.1779
 219   2.0000      -0.407711       -11.0944
 220   2.0000      -0.406840       -11.0707
 221   2.0000      -0.405329       -11.0296
 222   2.0000      -0.398654       -10.8479
 223   2.0000      -0.396781       -10.7970
 224   2.0000      -0.395650       -10.7662
 225   2.0000      -0.391118       -10.6429
 226   2.0000      -0.390485       -10.6256
 227   2.0000      -0.386721       -10.5232
 228   2.0000      -0.385004       -10.4765
 229   2.0000      -0.378129       -10.2894
 230   2.0000      -0.377765       -10.2795
 231   2.0000      -0.359741        -9.7891
 232   2.0000      -0.358236        -9.7481
 233   2.0000      -0.357792        -9.7360
 234   2.0000      -0.351387        -9.5617
 235   2.0000      -0.349682        -9.5153
 236   2.0000      -0.347232        -9.4487
 237   2.0000      -0.340746        -9.2722
 238   2.0000      -0.340200        -9.2573
 239   2.0000      -0.335001        -9.1158
 240   2.0000      -0.330354        -8.9894
 241   2.0000      -0.327687        -8.9168
 242   2.0000      -0.315452        -8.5839
 243   2.0000      -0.304921        -8.2973
 244   2.0000      -0.297262        -8.0889
 245   2.0000      -0.270269        -7.3544
 246   2.0000      -0.236786        -6.4433
 247   0.0000      -0.109720        -2.9856
 248   0.0000      -0.090943        -2.4747
 249   0.0000      -0.081557        -2.2193
 250   0.0000      -0.072145        -1.9632
 251   0.0000      -0.060638        -1.6500

MULLIKEN ATOMIC CHARGES
-----------------------
   0 C :    0.270842
   1 C :   -0.272081
   2 C :   -0.194706
   3 N :    0.151905
   4 C :   -0.171257
   5 N :    0.141944
   6 C :    0.023572
   7 C :   -0.006787
   8 C :   -0.031454
   9 C :    0.057345
  10 C :    0.052357
  11 C :   -0.015729
  12 Cl:   -0.038602
  13 Cl:   -0.047867
  14 C :    0.135434
  15 O :   -0.144069
  16 C :   -0.126542
  17 C :    0.047569
  18 C :    0.035565
  19 N :   -0.026986
  20 C :    0.019405
  21 N :   -0.042446
  22 C :    0.045312
  23 N :   -0.055684
  24 C :   -0.065862
  25 N :   -0.057765
  26 C :   -0.012617
  27 C :   -0.010471
  28 C :   -0.135455
  29 S :    0.214345
  30 C :   -0.119782
  31 C :    0.104003
  32 C :    0.127100
  33 N :   -0.027336
  34 C :    0.124798
  35 N :    0.290924
  36 O :   -0.256263
  37 O :   -0.239597
  38 C :   -0.108108
  39 C :    0.000543
  40 N :   -0.052903
  41 C :    0.030419
  42 N :   -0.037276
  43 C :    0.005535
  44 N :   -0.010378
  45 C :   -0.096018
  46 N :   -0.034608
  47 C :    0.091786
  48 C :   -0.035066
  49 C :   -0.026797
  50 C :   -0.079356
  51 C :    0.324736
  52 C :   -0.341356
  53 C :   -0.191323
  54 N :    0.154876
  55 C :   -0.192646
  56 N :    0.154573
  57 C :    0.027492
  58 C :   -0.011493
  59 C :    0.151400
  60 O :   -0.167021
  61 C :   -0.029217
  62 C :    0.060192
  63 C :    0.046143
  64 C :   -0.011021
  65 Cl:   -0.033089
  66 Cl:   -0.042836
  67 H :   -0.002723
  68 H :    0.002790
  69 H :   -0.002748
  70 H :    0.139218
  71 H :    0.137183
  72 H :   -0.020369
  73 H :    0.012596
  74 H :    0.151061
  75 H :   -0.020831
  76 H :    0.133937
  77 H :    0.150275
  78 H :    0.024316
  79 H :   -0.005528
  80 H :    0.014461
  81 H :   -0.004214
  82 H :    0.000332
Sum of atomic charges:   -0.0000000

LOEWDIN ATOMIC CHARGES
----------------------
   0 C :    0.064341
   1 C :   -0.110096
   2 C :   -0.017945
   3 N :   -0.048536
   4 C :   -0.011307
   5 N :   -0.060747
   6 C :   -0.005422
   7 C :   -0.048671
   8 C :    0.000046
   9 C :   -0.138354
  10 C :   -0.129362
  11 C :   -0.015993
  12 Cl:    0.160781
  13 Cl:    0.154334
  14 C :    0.081641
  15 O :   -0.145985
  16 C :   -0.079989
  17 C :    0.033365
  18 C :    0.002058
  19 N :    0.076424
  20 C :    0.008782
  21 N :    0.057249
  22 C :    0.034345
  23 N :   -0.112591
  24 C :   -0.046275
  25 N :   -0.073296
  26 C :   -0.068074
  27 C :   -0.003028
  28 C :   -0.206278
  29 S :    0.505851
  30 C :   -0.187843
  31 C :   -0.072971
  32 C :    0.004744
  33 N :    0.075060
  34 C :    0.004394
  35 N :    0.279345
  36 O :   -0.212616
  37 O :   -0.200449
  38 C :   -0.049452
  39 C :    0.008609
  40 N :    0.060229
  41 C :    0.014793
  42 N :    0.071676
  43 C :    0.002684
  44 N :   -0.078636
  45 C :   -0.059308
  46 N :   -0.109709
  47 C :    0.033034
  48 C :   -0.055905
  49 C :    0.072301
  50 C :   -0.104743
  51 C :    0.072751
  52 C :   -0.135299
  53 C :   -0.020425
  54 N :   -0.047145
  55 C :   -0.020742
  56 N :   -0.046897
  57 C :   -0.012204
  58 C :   -0.044492
  59 C :    0.087302
  60 O :   -0.158069
  61 C :   -0.000428
  62 C :   -0.134973
  63 C :   -0.130353
  64 C :   -0.012189
  65 Cl:    0.163550
  66 Cl:    0.158777
  67 H :    0.044896
  68 H :    0.044519
  69 H :    0.042711
  70 H :    0.099544
  71 H :    0.096668
  72 H :    0.022759
  73 H :    0.042804
  74 H :    0.101144
  75 H :    0.029881
  76 H :    0.094400
  77 H :    0.101292
  78 H :    0.054019
  79 H :    0.020441
  80 H :    0.044060
  81 H :    0.044454
  82 H :    0.044740

  Mayer bond orders larger than 0.100000
B(  0-C ,  1-C ) :   1.6927 B(  0-C ,  6-C ) :   1.0014 B(  0-C , 16-C ) :   1.0385
B(  1-C ,  2-C ) :   1.1404 B(  1-C ,  4-C ) :   1.1436 B(  2-C ,  3-N ) :   2.9849
B(  4-C ,  5-N ) :   2.9905 B(  6-C ,  7-C ) :   1.3299 B(  6-C , 11-C ) :   1.3521
B(  7-C ,  8-C ) :   1.3477 B(  7-C , 14-C ) :   0.9199 B(  8-C ,  9-C ) :   1.3482
B(  8-C , 67-H ) :   1.0158 B(  9-C , 10-C ) :   1.4095 B(  9-C , 13-Cl) :   1.0428
B( 10-C , 11-C ) :   1.3545 B( 10-C , 12-Cl) :   1.0681 B( 11-C , 68-H ) :   0.9892
B( 14-C , 15-O ) :   2.2680 B( 14-C , 16-C ) :   0.9507 B( 16-C , 17-C ) :   1.6425
B( 17-C , 18-C ) :   1.1189 B( 17-C , 69-H ) :   0.9350 B( 18-C , 19-N ) :   1.1016
B( 18-C , 25-N ) :   1.5523 B( 19-N , 20-C ) :   1.2917 B( 19-N , 70-H ) :   0.9232
B( 20-C , 21-N ) :   1.2559 B( 20-C , 24-C ) :   1.1821 B( 21-N , 22-C ) :   1.1022
B( 21-N , 71-H ) :   0.9228 B( 22-C , 23-N ) :   1.6698 B( 22-C , 26-C ) :   1.1138
B( 23-N , 24-C ) :   1.3955 B( 24-C , 25-N ) :   1.4470 B( 26-C , 27-C ) :   1.6506
B( 26-C , 72-H ) :   0.9527 B( 27-C , 28-C ) :   1.1426 B( 27-C , 73-H ) :   0.9909
B( 28-C , 29-S ) :   1.0817 B( 28-C , 30-C ) :   0.1289 B( 28-C , 32-C ) :   1.3943
B( 29-S , 30-C ) :   1.1815 B( 30-C , 31-C ) :   1.3405 B( 30-C , 39-C ) :   1.1235
B( 31-C , 32-C ) :   1.2242 B( 31-C , 38-C ) :   1.1249 B( 32-C , 33-N ) :   1.1895
B( 33-N , 34-C ) :   1.1854 B( 33-N , 74-H ) :   0.9071 B( 34-C , 35-N ) :   0.9247
B( 34-C , 38-C ) :   1.5534 B( 35-N , 36-O ) :   1.4791 B( 35-N , 37-O ) :   1.5330
B( 36-O , 37-O ) :   0.2741 B( 38-C , 75-H ) :   1.0029 B( 39-C , 40-N ) :   1.1420
B( 39-C , 46-N ) :   1.7386 B( 40-N , 41-C ) :   1.2497 B( 40-N , 76-H ) :   0.9188
B( 41-C , 42-N ) :   1.2890 B( 41-C , 45-C ) :   1.1879 B( 42-N , 43-C ) :   1.1153
B( 42-N , 77-H ) :   0.9165 B( 43-C , 44-N ) :   1.5975 B( 43-C , 47-C ) :   1.1483
B( 44-N , 45-C ) :   1.4582 B( 45-C , 46-N ) :   1.4041 B( 47-C , 48-C ) :   1.4860
B( 47-C , 78-H ) :   0.9738 B( 48-C , 49-C ) :   1.2118 B( 48-C , 79-H ) :   0.9711
B( 49-C , 50-C ) :   1.5074 B( 49-C , 80-H ) :   0.9643 B( 50-C , 51-C ) :   1.0742
B( 50-C , 59-C ) :   0.9621 B( 51-C , 52-C ) :   1.6341 B( 51-C , 57-C ) :   0.9878
B( 52-C , 53-C ) :   1.1400 B( 52-C , 55-C ) :   1.1466 B( 53-C , 54-N ) :   2.9696
B( 55-C , 56-N ) :   2.9634 B( 57-C , 58-C ) :   1.3320 B( 57-C , 64-C ) :   1.3450
B( 58-C , 59-C ) :   0.9507 B( 58-C , 61-C ) :   1.3432 B( 59-C , 60-O ) :   2.1680
B( 61-C , 62-C ) :   1.3412 B( 61-C , 81-H ) :   1.0169 B( 62-C , 63-C ) :   1.4080
B( 62-C , 66-Cl) :   1.0463 B( 63-C , 64-C ) :   1.3578 B( 63-C , 65-Cl) :   1.0778
B( 64-C , 82-H ) :   0.9855

-----------------------------------------------------------------------------
         ABSORPTION SPECTRUM VIA TRANSITION ELECTRIC DIPOLE MOMENTS
-----------------------------------------------------------------------------
State   Energy  Wavelength   fosc         T2         TX        TY        TZ
        (cm-1)    (nm)                  (au**2)     (au)      (au)      (au)
-----------------------------------------------------------------------------
   0   13894.4    719.7   2.360649442  55.93294  -5.33745  -5.16055   0.90185
   1   18570.2    538.5   0.032492298   0.57602  -0.56292  -0.49676  -0.11127
   2   19818.5    504.6   0.217488024   3.61278  -1.42827  -1.23477   0.21946
   3   22607.9    442.3   0.099087001   1.44289  -0.69850  -0.77249   0.59853
   4   23670.7    422.5   0.107128609   1.48994  -0.74727  -0.61989  -0.73977
   5   24511.3    408.0   0.228568544   3.06992   1.08170   1.13230   0.78597
   6   26536.0    376.8   0.137152704   1.70155   1.04256   0.65949  -0.42391
   7   27613.4    362.1   0.198764614   2.36971   0.91684   0.78215   0.95778
   8   28325.4    353.0   0.070090265   0.81462   0.22885   0.60154   0.63277
   9   28890.6    346.1   0.162012594   1.84616   0.47544   1.22851  -0.33296
  10   29111.8    343.5   0.083712715   0.94667   0.27791  -0.28074   0.88917
  11   29272.9    341.6   0.024595031   0.27660  -0.19172   0.04643  -0.48754
  12   30043.1    332.9   0.059606108   0.65316  -0.37747  -0.45879  -0.54790
  13   31228.9    320.2   0.039901697   0.42064  -0.08144  -0.64166  -0.04772
  14   31700.6    315.5   0.158746678   1.64859   0.52724   0.25396   1.14285
  15   32252.3    310.1   0.000092509   0.00094  -0.03064   0.00179  -0.00150
  16   33115.3    302.0   0.146530818   1.45672   0.63437   0.67532   0.77346
  17   33602.1    297.6   0.016896282   0.16554  -0.08982  -0.06660   0.39120
  18   33846.8    295.4   0.276466308   2.68906   0.32235  -0.12001   1.60335
  19   33896.3    295.0   0.021645591   0.21023   0.28251  -0.19692   0.30272
  20   34050.4    293.7   0.023589725   0.22807  -0.07765   0.37578  -0.28432
  21   34096.6    293.3   0.077208508   0.74547   0.19224   0.79564   0.27472
  22   34624.9    288.8   0.225047798   2.13974  -0.51102  -0.36890  -1.32005
  23   34836.1    287.1   0.334456539   3.16072  -0.20381   0.34968  -1.73116
  24   35153.4    284.5   0.027638963   0.25884   0.25703  -0.06339  -0.43446
  25   35314.3    283.2   0.080454645   0.75002   0.09536   0.14216   0.84895
  26   35402.4    282.5   0.495318131   4.60603  -0.43686  -1.93078  -0.82901
  27   35986.1    277.9   0.163584603   1.49652  -0.49786  -1.03715   0.41592
  28   36295.4    275.5   0.203483717   1.84567  -0.07874  -0.65574   1.18721
  29   36697.3    272.5   0.031304256   0.28083  -0.31163  -0.01335  -0.42842
  30   36969.1    270.5   0.084177174   0.74960   0.01034   0.08087   0.86195
  31   37506.9    266.6   0.094018955   0.82524   0.35138   0.00813   0.83768
  32   38055.7    262.8   0.153782884   1.33034  -0.55693  -0.34865  -0.94795
  33   38517.5    259.6   0.031004371   0.26500  -0.25342  -0.28367   0.34686
  34   39077.5    255.9   0.069811356   0.58813   0.57190   0.39054   0.32946
  35   39249.8    254.8   0.068252597   0.57248  -0.41484  -0.48361   0.40806
  36   39587.0    252.6   0.016431918   0.13665   0.23561   0.14399   0.24577
  37   39702.8    251.9   0.034487597   0.28597   0.04100   0.18097  -0.50153
  38   39755.5    251.5   0.019375808   0.16045  -0.07172   0.00439   0.39406
  39   40260.4    248.4   0.016880807   0.13804  -0.16275  -0.28810  -0.16896

FINAL SINGLE POINT ENERGY     -4988.449628665410

DIPOLE MOMENT
-------------
                                X             Y             Z
Electronic contribution:     -5.31088      10.16972     -18.43768
Nuclear contribution   :      5.07629      -9.87456      19.26197
                        -----------------------------------------
Total Dipole Moment    :     -0.23459       0.29516       0.82429
                        -----------------------------------------
Magnitude (a.u.)       :      0.90642
Magnitude (Debye)      :      2.30395

Rotational constants in cm-1:     0.002778     0.000156     0.000150
Rotational constants in MHz :    83.295659     4.686772     4.493705

                             ****ORCA TERMINATED NORMALLY****
TOTAL RUN TIME: 0 days 0 hours 15 minutes 16 seconds 346 msec
