                         Program Version 4.2.0 -  RELEASE  -
|  1> # ORCA input file
|  2> # SCF done       -194.467922215627          0.000917968644
|  3> ! CAM-B3LYP def2-SVP def2/J RIJCOSX Grid4 TightSCF
|  4> %maxcore 5000
|  5> %tddft
|  6>     Mode sTDDFT
|  7>     Ethresh 5.0
|  8>     maxcore 5000
|  9> end
| 10>
| 11> %pal
| 12>   nprocs 6
| 13>   end
| 14> * xyz 0 1
| 15>    C        4.38139        -3.90327        -0.28730
| 16>    C        5.10877        -4.50589         0.70473
| 17>    C        5.43778        -3.87935         1.91953
| 18>    N        5.73908        -3.40801         2.92331
| 19>    C        5.71447        -5.77144         0.56841
| 20>    N        6.26412        -6.77623         0.49506
| 21>    C        3.89900        -2.53219        -0.27993
| 22>    C        3.51447        -2.17082        -1.58555
| 23>    C        2.99591        -0.92278        -1.86453
| 24>    C        2.85229        -0.01856        -0.81835
| 25>    C        3.24083        -0.37087         0.47854
| 26>    C        3.76584        -1.62496         0.75938
| 27>   Cl        3.07056         0.75908         1.75597
| 28>   Cl        2.18909         1.53801        -1.12042
| 29>    C        3.71781        -3.32017        -2.49376
| 30>    O        3.56089        -3.36577        -3.69016
| 31>    C        4.08966        -4.45367        -1.59607
| 32>    C        3.96078        -5.72771        -2.04005
| 33>    C        3.84296        -6.94122        -1.27668
| 34>    C        4.33981        -8.17370        -1.68016
| 35>    C        5.20045        -8.58319        -2.79253
| 36>    O        5.33049        -9.76111        -3.04829
| 37>    C        5.92193        -7.50479        -3.55719
| 38>    S        3.94375        -9.42966        -0.56403
| 39>    C        3.10931        -8.32605         0.43394
| 40>    C        3.11899        -7.04553        -0.04270
| 41>    C        2.44544        -5.92457         0.61482
| 42>    C        2.62663        -5.68654         1.95076
| 43>    C        2.10256        -4.50692         2.53249
| 44>    C        2.19216        -4.00057         3.81957
| 45>    C        2.75705        -4.71308         4.99848
| 46>    C        4.04445        -4.05708         5.52788
| 47>    N        4.73858        -4.96630         6.42938
| 48>    C        1.70480        -4.85448         6.13298
| 49>    N        2.06249        -5.79707         7.16465
| 50>    C        1.54866        -2.70399         3.80282
| 51>    C        1.36995        -1.76537         4.75198
| 52>    C        0.58297        -0.52774         4.49487
| 53>    C        0.15004        -0.34158         3.07486
| 54>    C        0.37079        -1.26646         2.12336
| 55>    C        1.04494        -2.46692         2.44139
| 56>    C        1.38774        -3.56743         1.68071
| 57>    C        1.14193        -3.88992         0.32991
| 58>    C        1.65171        -5.04113        -0.18069
| 59>    C        1.30851         0.70059         4.98536
| 60>    C        0.73201         1.61369         5.75898
| 61>    C        1.40157         2.80803         6.25047
| 62>    C        0.88241         4.08371         6.20409
| 63>    C       -0.36804         4.65879         5.70899
| 64>    O       -0.57283         5.84547         5.85691
| 65>    C       -1.34879         3.75044         5.01723
| 66>    S        1.99859         5.27102         6.82304
| 67>    C        3.16298         4.07247         7.09439
| 68>    C        2.72660         2.79770         6.79337
| 69>    C        3.57917         1.66528         7.02544
| 70>    C        3.24147         0.43646         7.49167
| 71>    C        4.15993        -0.68327         7.65857
| 72>    C        5.40244        -0.80406         7.09780
| 73>    C        6.22317        -1.93943         7.25871
| 74>    N        6.91492        -2.85049         7.35504
| 75>    C        6.00985         0.14603         6.24712
| 76>    N        6.55970         0.86267         5.53942
| 77>    C        3.46905        -1.70753         8.43394
| 78>    C        2.13966        -1.29765         8.64633
| 79>    C        1.93646         0.05533         8.09200
| 80>    O        0.93210         0.72648         8.17988
| 81>    C        1.22933        -2.09833         9.30774
| 82>    C        1.65523        -3.33246         9.78275
| 83>    C        2.98925        -3.72835         9.61577
| 84>    C        3.89972        -2.92401         8.94079
| 85>   Cl        3.51846        -5.22331        10.25822
| 86>   Cl        0.55126        -4.36505        10.58455
| 87>    H        2.70427        -0.65785        -2.86856
| 88>    H        4.04606        -1.86866         1.77064
| 89>    H        3.82429        -5.82291        -3.11242
| 90>    H        6.26656        -6.71695        -2.89291
| 91>    H        5.25371        -7.07470        -4.30179
| 92>    H        6.76537        -7.95083        -4.07870
| 93>    H        2.62318        -8.67004         1.32598
| 94>    H        3.22043        -6.36849         2.54279
| 95>    H        3.02134        -5.72796         4.67583
| 96>    H        3.79148        -3.15533         6.09240
| 97>    H        4.66349        -3.75671         4.66765
| 98>    H        5.57895        -4.52381         6.79137
| 99>    H        5.04217        -5.78789         5.91382
|100>    H        0.74893        -5.15875         5.69626
|101>    H        1.56142        -3.88287         6.61436
|102>    H        3.01934        -5.61116         7.45968
|103>    H        2.03663        -6.74528         6.80404
|104>    H        1.76018        -1.87532         5.75414
|105>    H       -0.33177        -0.61962         5.10539
|106>    H       -0.36239         0.58208         2.85379
|107>    H        0.03955        -1.10527         1.10757
|108>    H        0.55222        -3.22422        -0.28290
|109>    H        1.45405        -5.31803        -1.20574
|110>    H        2.32174         0.82145         4.62810
|111>    H       -0.29227         1.48177         6.07799
|112>    H       -1.82890         3.11075         5.75574
|113>    H       -0.84502         3.12616         4.28391
|114>    H       -2.11092         4.35710         4.53414
|115>    H        4.11380         4.32974         7.52101
|116>    H        4.63053         1.87007         6.85942
|117>    H        0.21190        -1.76993         9.45049
|118>    H        4.91593        -3.26326         8.83510
|119> *
|120>
|121>                          ****END OF INPUT****

CARTESIAN COORDINATES (ANGSTROEM)
---------------------------------
  C      4.381390   -3.903270   -0.287300
  C      5.108770   -4.505890    0.704730
  C      5.437780   -3.879350    1.919530
  N      5.739080   -3.408010    2.923310
  C      5.714470   -5.771440    0.568410
  N      6.264120   -6.776230    0.495060
  C      3.899000   -2.532190   -0.279930
  C      3.514470   -2.170820   -1.585550
  C      2.995910   -0.922780   -1.864530
  C      2.852290   -0.018560   -0.818350
  C      3.240830   -0.370870    0.478540
  C      3.765840   -1.624960    0.759380
  Cl     3.070560    0.759080    1.755970
  Cl     2.189090    1.538010   -1.120420
  C      3.717810   -3.320170   -2.493760
  O      3.560890   -3.365770   -3.690160
  C      4.089660   -4.453670   -1.596070
  C      3.960780   -5.727710   -2.040050
  C      3.842960   -6.941220   -1.276680
  C      4.339810   -8.173700   -1.680160
  C      5.200450   -8.583190   -2.792530
  O      5.330490   -9.761110   -3.048290
  C      5.921930   -7.504790   -3.557190
  S      3.943750   -9.429660   -0.564030
  C      3.109310   -8.326050    0.433940
  C      3.118990   -7.045530   -0.042700
  C      2.445440   -5.924570    0.614820
  C      2.626630   -5.686540    1.950760
  C      2.102560   -4.506920    2.532490
  C      2.192160   -4.000570    3.819570
  C      2.757050   -4.713080    4.998480
  C      4.044450   -4.057080    5.527880
  N      4.738580   -4.966300    6.429380
  C      1.704800   -4.854480    6.132980
  N      2.062490   -5.797070    7.164650
  C      1.548660   -2.703990    3.802820
  C      1.369950   -1.765370    4.751980
  C      0.582970   -0.527740    4.494870
  C      0.150040   -0.341580    3.074860
  C      0.370790   -1.266460    2.123360
  C      1.044940   -2.466920    2.441390
  C      1.387740   -3.567430    1.680710
  C      1.141930   -3.889920    0.329910
  C      1.651710   -5.041130   -0.180690
  C      1.308510    0.700590    4.985360
  C      0.732010    1.613690    5.758980
  C      1.401570    2.808030    6.250470
  C      0.882410    4.083710    6.204090
  C     -0.368040    4.658790    5.708990
  O     -0.572830    5.845470    5.856910
  C     -1.348790    3.750440    5.017230
  S      1.998590    5.271020    6.823040
  C      3.162980    4.072470    7.094390
  C      2.726600    2.797700    6.793370
  C      3.579170    1.665280    7.025440
  C      3.241470    0.436460    7.491670
  C      4.159930   -0.683270    7.658570
  C      5.402440   -0.804060    7.097800
  C      6.223170   -1.939430    7.258710
  N      6.914920   -2.850490    7.355040
  C      6.009850    0.146030    6.247120
  N      6.559700    0.862670    5.539420
  C      3.469050   -1.707530    8.433940
  C      2.139660   -1.297650    8.646330
  C      1.936460    0.055330    8.092000
  O      0.932100    0.726480    8.179880
  C      1.229330   -2.098330    9.307740
  C      1.655230   -3.332460    9.782750
  C      2.989250   -3.728350    9.615770
  C      3.899720   -2.924010    8.940790
  Cl     3.518460   -5.223310   10.258220
  Cl     0.551260   -4.365050   10.584550
  H      2.704270   -0.657850   -2.868560
  H      4.046060   -1.868660    1.770640
  H      3.824290   -5.822910   -3.112420
  H      6.266560   -6.716950   -2.892910
  H      5.253710   -7.074700   -4.301790
  H      6.765370   -7.950830   -4.078700
  H      2.623180   -8.670040    1.325980
  H      3.220430   -6.368490    2.542790
  H      3.021340   -5.727960    4.675830
  H      3.791480   -3.155330    6.092400
  H      4.663490   -3.756710    4.667650
  H      5.578950   -4.523810    6.791370
  H      5.042170   -5.787890    5.913820
  H      0.748930   -5.158750    5.696260
  H      1.561420   -3.882870    6.614360
  H      3.019340   -5.611160    7.459680
  H      2.036630   -6.745280    6.804040
  H      1.760180   -1.875320    5.754140
  H     -0.331770   -0.619620    5.105390
  H     -0.362390    0.582080    2.853790
  H      0.039550   -1.105270    1.107570
  H      0.552220   -3.224220   -0.282900
  H      1.454050   -5.318030   -1.205740
  H      2.321740    0.821450    4.628100
  H     -0.292270    1.481770    6.077990
  H     -1.828900    3.110750    5.755740
  H     -0.845020    3.126160    4.283910
  H     -2.110920    4.357100    4.534140
  H      4.113800    4.329740    7.521010
  H      4.630530    1.870070    6.859420
  H      0.211900   -1.769930    9.450490
  H      4.915930   -3.263260    8.835100

 Total Charge           Charge          ....    0
 Multiplicity           Mult            ....    1
 Number of Electrons    NEL             ....  542
 Basis Dimension        Dim             .... 1192

ORBITAL ENERGIES
----------------

  NO   OCC          E(Eh)            E(eV)
   0   2.0000    -101.607219     -2764.8730
   1   2.0000    -101.605891     -2764.8368
   2   2.0000    -101.602005     -2764.7311
   3   2.0000    -101.601166     -2764.7083
   4   2.0000     -88.978252     -2421.2213
   5   2.0000     -88.970246     -2421.0035
   6   2.0000     -19.234571      -523.3993
   7   2.0000     -19.228393      -523.2312
   8   2.0000     -19.210755      -522.7512
   9   2.0000     -19.204546      -522.5823
  10   2.0000     -14.433246      -392.7486
  11   2.0000     -14.429586      -392.6490
  12   2.0000     -14.429528      -392.6474
  13   2.0000     -14.423184      -392.4748
  14   2.0000     -14.380627      -391.3168
  15   2.0000     -14.356020      -390.6472
  16   2.0000     -10.384721      -282.5826
  17   2.0000     -10.379100      -282.4297
  18   2.0000     -10.370739      -282.2022
  19   2.0000     -10.364462      -282.0314
  20   2.0000     -10.361701      -281.9562
  21   2.0000     -10.361296      -281.9452
  22   2.0000     -10.360863      -281.9334
  23   2.0000     -10.360382      -281.9203
  24   2.0000     -10.360083      -281.9122
  25   2.0000     -10.358114      -281.8586
  26   2.0000     -10.354577      -281.7624
  27   2.0000     -10.347659      -281.5741
  28   2.0000     -10.336544      -281.2717
  29   2.0000     -10.335370      -281.2397
  30   2.0000     -10.332227      -281.1542
  31   2.0000     -10.331706      -281.1400
  32   2.0000     -10.326241      -280.9913
  33   2.0000     -10.325020      -280.9581
  34   2.0000     -10.324641      -280.9478
  35   2.0000     -10.324549      -280.9453
  36   2.0000     -10.320340      -280.8307
  37   2.0000     -10.316382      -280.7230
  38   2.0000     -10.316034      -280.7136
  39   2.0000     -10.314851      -280.6814
  40   2.0000     -10.314795      -280.6798
  41   2.0000     -10.314511      -280.6721
  42   2.0000     -10.313311      -280.6395
  43   2.0000     -10.313042      -280.6321
  44   2.0000     -10.311387      -280.5871
  45   2.0000     -10.310349      -280.5589
  46   2.0000     -10.309698      -280.5412
  47   2.0000     -10.309097      -280.5248
  48   2.0000     -10.308298      -280.5030
  49   2.0000     -10.307649      -280.4854
  50   2.0000     -10.306585      -280.4564
  51   2.0000     -10.306478      -280.4535
  52   2.0000     -10.305168      -280.4179
  53   2.0000     -10.296672      -280.1867
  54   2.0000     -10.293422      -280.0982
  55   2.0000     -10.292613      -280.0762
  56   2.0000     -10.292389      -280.0702
  57   2.0000     -10.286054      -279.8978
  58   2.0000     -10.284018      -279.8424
  59   2.0000     -10.282044      -279.7886
  60   2.0000     -10.281493      -279.7736
  61   2.0000     -10.281259      -279.7673
  62   2.0000     -10.281225      -279.7663
  63   2.0000     -10.278197      -279.6840
  64   2.0000     -10.276516      -279.6382
  65   2.0000     -10.275725      -279.6167
  66   2.0000     -10.275374      -279.6072
  67   2.0000     -10.273783      -279.5638
  68   2.0000     -10.272392      -279.5260
  69   2.0000     -10.270567      -279.4763
  70   2.0000     -10.270229      -279.4671
  71   2.0000     -10.265395      -279.3356
  72   2.0000      -9.561825      -260.1905
  73   2.0000      -9.560801      -260.1626
  74   2.0000      -9.557055      -260.0607
  75   2.0000      -9.555928      -260.0300
  76   2.0000      -8.073857      -219.7008
  77   2.0000      -8.065722      -219.4795
  78   2.0000      -7.332121      -199.5172
  79   2.0000      -7.331168      -199.4912
  80   2.0000      -7.327441      -199.3898
  81   2.0000      -7.326337      -199.3598
  82   2.0000      -7.322059      -199.2433
  83   2.0000      -7.321499      -199.2281
  84   2.0000      -7.321074      -199.2166
  85   2.0000      -7.320376      -199.1976
  86   2.0000      -7.317325      -199.1145
  87   2.0000      -7.316554      -199.0936
  88   2.0000      -7.316214      -199.0843
  89   2.0000      -7.315426      -199.0629
  90   2.0000      -6.042935      -164.4366
  91   2.0000      -6.038462      -164.3149
  92   2.0000      -6.036599      -164.2642
  93   2.0000      -6.034748      -164.2139
  94   2.0000      -6.030323      -164.0934
  95   2.0000      -6.028588      -164.0462
  96   2.0000      -1.149714       -31.2853
  97   2.0000      -1.143720       -31.1222
  98   2.0000      -1.131422       -30.7876
  99   2.0000      -1.124790       -30.6071
 100   2.0000      -1.039541       -28.2874
 101   2.0000      -1.037986       -28.2450
 102   2.0000      -1.028010       -27.9736
 103   2.0000      -1.025697       -27.9106
 104   2.0000      -1.011522       -27.5249
 105   2.0000      -1.009376       -27.4665
 106   2.0000      -1.008437       -27.4410
 107   2.0000      -1.000829       -27.2339
 108   2.0000      -1.000299       -27.2195
 109   2.0000      -0.996587       -27.1185
 110   2.0000      -0.992374       -27.0039
 111   2.0000      -0.969261       -26.3749
 112   2.0000      -0.968050       -26.3420
 113   2.0000      -0.964959       -26.2579
 114   2.0000      -0.955721       -26.0065
 115   2.0000      -0.944423       -25.6991
 116   2.0000      -0.941376       -25.6161
 117   2.0000      -0.937171       -25.5017
 118   2.0000      -0.926227       -25.2039
 119   2.0000      -0.919966       -25.0335
 120   2.0000      -0.915299       -24.9065
 121   2.0000      -0.900694       -24.5091
 122   2.0000      -0.889148       -24.1950
 123   2.0000      -0.886873       -24.1330
 124   2.0000      -0.882674       -24.0188
 125   2.0000      -0.868322       -23.6283
 126   2.0000      -0.866829       -23.5876
 127   2.0000      -0.865581       -23.5537
 128   2.0000      -0.852038       -23.1851
 129   2.0000      -0.848287       -23.0831
 130   2.0000      -0.841415       -22.8961
 131   2.0000      -0.835156       -22.7258
 132   2.0000      -0.830051       -22.5868
 133   2.0000      -0.824029       -22.4230
 134   2.0000      -0.814425       -22.1616
 135   2.0000      -0.793601       -21.5950
 136   2.0000      -0.783364       -21.3164
 137   2.0000      -0.781734       -21.2721
 138   2.0000      -0.773942       -21.0600
 139   2.0000      -0.767963       -20.8973
 140   2.0000      -0.763896       -20.7867
 141   2.0000      -0.744643       -20.2628
 142   2.0000      -0.728145       -19.8138
 143   2.0000      -0.721761       -19.6401
 144   2.0000      -0.718998       -19.5649
 145   2.0000      -0.711213       -19.3531
 146   2.0000      -0.708786       -19.2870
 147   2.0000      -0.705111       -19.1870
 148   2.0000      -0.696711       -18.9585
 149   2.0000      -0.695230       -18.9182
 150   2.0000      -0.689083       -18.7509
 151   2.0000      -0.685663       -18.6578
 152   2.0000      -0.680688       -18.5225
 153   2.0000      -0.674631       -18.3577
 154   2.0000      -0.673890       -18.3375
 155   2.0000      -0.656563       -17.8660
 156   2.0000      -0.652631       -17.7590
 157   2.0000      -0.645174       -17.5561
 158   2.0000      -0.635371       -17.2893
 159   2.0000      -0.632715       -17.2171
 160   2.0000      -0.630009       -17.1434
 161   2.0000      -0.628693       -17.1076
 162   2.0000      -0.621586       -16.9142
 163   2.0000      -0.605955       -16.4889
 164   2.0000      -0.604316       -16.4443
 165   2.0000      -0.600720       -16.3464
 166   2.0000      -0.599634       -16.3169
 167   2.0000      -0.586672       -15.9642
 168   2.0000      -0.584057       -15.8930
 169   2.0000      -0.581124       -15.8132
 170   2.0000      -0.574466       -15.6320
 171   2.0000      -0.572626       -15.5819
 172   2.0000      -0.569969       -15.5097
 173   2.0000      -0.566515       -15.4157
 174   2.0000      -0.563453       -15.3323
 175   2.0000      -0.560419       -15.2498
 176   2.0000      -0.558503       -15.1976
 177   2.0000      -0.556496       -15.1430
 178   2.0000      -0.554370       -15.0852
 179   2.0000      -0.553463       -15.0605
 180   2.0000      -0.551642       -15.0110
 181   2.0000      -0.547880       -14.9086
 182   2.0000      -0.546586       -14.8734
 183   2.0000      -0.539845       -14.6899
 184   2.0000      -0.538354       -14.6494
 185   2.0000      -0.535604       -14.5745
 186   2.0000      -0.534009       -14.5311
 187   2.0000      -0.532218       -14.4824
 188   2.0000      -0.531737       -14.4693
 189   2.0000      -0.527287       -14.3482
 190   2.0000      -0.525860       -14.3094
 191   2.0000      -0.525109       -14.2889
 192   2.0000      -0.521865       -14.2007
 193   2.0000      -0.521275       -14.1846
 194   2.0000      -0.519797       -14.1444
 195   2.0000      -0.518579       -14.1112
 196   2.0000      -0.516276       -14.0486
 197   2.0000      -0.515271       -14.0212
 198   2.0000      -0.511568       -13.9205
 199   2.0000      -0.507041       -13.7973
 200   2.0000      -0.504902       -13.7391
 201   2.0000      -0.501792       -13.6545
 202   2.0000      -0.498136       -13.5550
 203   2.0000      -0.495433       -13.4814
 204   2.0000      -0.494287       -13.4502
 205   2.0000      -0.492200       -13.3935
 206   2.0000      -0.491257       -13.3678
 207   2.0000      -0.486170       -13.2293
 208   2.0000      -0.484341       -13.1796
 209   2.0000      -0.482428       -13.1275
 210   2.0000      -0.476858       -12.9760
 211   2.0000      -0.476316       -12.9612
 212   2.0000      -0.473927       -12.8962
 213   2.0000      -0.471622       -12.8335
 214   2.0000      -0.469544       -12.7770
 215   2.0000      -0.468842       -12.7578
 216   2.0000      -0.465469       -12.6661
 217   2.0000      -0.462467       -12.5844
 218   2.0000      -0.459839       -12.5129
 219   2.0000      -0.458658       -12.4807
 220   2.0000      -0.456577       -12.4241
 221   2.0000      -0.453588       -12.3428
 222   2.0000      -0.452272       -12.3069
 223   2.0000      -0.449796       -12.2396
 224   2.0000      -0.448798       -12.2124
 225   2.0000      -0.446431       -12.1480
 226   2.0000      -0.443514       -12.0686
 227   2.0000      -0.442690       -12.0462
 228   2.0000      -0.441853       -12.0234
 229   2.0000      -0.440371       -11.9831
 230   2.0000      -0.440166       -11.9775
 231   2.0000      -0.438793       -11.9402
 232   2.0000      -0.437665       -11.9095
 233   2.0000      -0.433818       -11.8048
 234   2.0000      -0.432040       -11.7564
 235   2.0000      -0.431256       -11.7351
 236   2.0000      -0.429796       -11.6953
 237   2.0000      -0.425709       -11.5841
 238   2.0000      -0.422262       -11.4903
 239   2.0000      -0.419536       -11.4162
 240   2.0000      -0.418073       -11.3763
 241   2.0000      -0.415867       -11.3163
 242   2.0000      -0.411436       -11.1958
 243   2.0000      -0.409876       -11.1533
 244   2.0000      -0.409235       -11.1358
 245   2.0000      -0.404743       -11.0136
 246   2.0000      -0.397627       -10.8200
 247   2.0000      -0.395199       -10.7539
 248   2.0000      -0.388216       -10.5639
 249   2.0000      -0.383753       -10.4425
 250   2.0000      -0.379828       -10.3356
 251   2.0000      -0.372326       -10.1315
 252   2.0000      -0.367955       -10.0126
 253   2.0000      -0.366446        -9.9715
 254   2.0000      -0.354556        -9.6480
 255   2.0000      -0.351093        -9.5537
 256   2.0000      -0.347590        -9.4584
 257   2.0000      -0.345378        -9.3982
 258   2.0000      -0.339064        -9.2264
 259   2.0000      -0.338689        -9.2162
 260   2.0000      -0.335391        -9.1265
 261   2.0000      -0.331799        -9.0287
 262   2.0000      -0.320254        -8.7146
 263   2.0000      -0.319819        -8.7027
 264   2.0000      -0.314704        -8.5635
 265   2.0000      -0.314244        -8.5510
 266   2.0000      -0.306642        -8.3442
 267   2.0000      -0.303224        -8.2511
 268   2.0000      -0.294905        -8.0248
 269   2.0000      -0.275287        -7.4909
 270   2.0000      -0.231714        -6.3052
 271   0.0000      -0.099039        -2.6950
 272   0.0000      -0.095270        -2.5924
 273   0.0000      -0.078028        -2.1232
 274   0.0000      -0.076575        -2.0837
 275   0.0000      -0.070932        -1.9302

MULLIKEN ATOMIC CHARGES
-----------------------
   0 C :    0.294060
   1 C :   -0.308737
   2 C :   -0.159884
   3 N :    0.154950
   4 C :   -0.214310
   5 N :    0.192626
   6 C :    0.029891
   7 C :   -0.003746
   8 C :   -0.050651
   9 C :    0.058754
  10 C :    0.035100
  11 C :    0.034638
  12 Cl:   -0.030713
  13 Cl:   -0.046576
  14 C :    0.146386
  15 O :   -0.130410
  16 C :   -0.125962
  17 C :   -0.049244
  18 C :    0.112689
  19 C :   -0.193850
  20 C :    0.022442
  21 O :   -0.183837
  22 C :    0.031707
  23 S :    0.217925
  24 C :   -0.103867
  25 C :    0.074731
  26 C :   -0.014245
  27 C :   -0.028485
  28 C :    0.021876
  29 C :   -0.005287
  30 C :   -0.056441
  31 C :    0.141444
  32 N :   -0.229662
  33 C :    0.149253
  34 N :   -0.216387
  35 C :    0.105271
  36 C :   -0.141309
  37 C :    0.166686
  38 C :   -0.034796
  39 C :    0.029644
  40 C :   -0.010252
  41 C :    0.026828
  42 C :   -0.007976
  43 C :    0.026459
  44 C :   -0.072594
  45 C :   -0.020620
  46 C :    0.172430
  47 C :   -0.235926
  48 C :    0.027513
  49 O :   -0.188121
  50 C :    0.033852
  51 S :    0.214136
  52 C :   -0.082442
  53 C :    0.056473
  54 C :   -0.073517
  55 C :   -0.066552
  56 C :    0.294010
  57 C :   -0.333234
  58 C :   -0.161248
  59 N :    0.143088
  60 C :   -0.197015
  61 N :    0.175001
  62 C :    0.028450
  63 C :   -0.023645
  64 C :    0.150458
  65 O :   -0.138385
  66 C :   -0.037950
  67 C :    0.089214
  68 C :    0.045782
  69 C :   -0.007390
  70 Cl:   -0.019106
  71 Cl:   -0.029113
  72 H :   -0.000895
  73 H :   -0.002949
  74 H :    0.026833
  75 H :    0.051320
  76 H :    0.048805
  77 H :    0.038221
  78 H :    0.024409
  79 H :   -0.031870
  80 H :   -0.051357
  81 H :   -0.036705
  82 H :    0.008983
  83 H :    0.094884
  84 H :    0.095993
  85 H :   -0.000013
  86 H :   -0.035299
  87 H :    0.084889
  88 H :    0.077437
  89 H :   -0.018545
  90 H :    0.044431
  91 H :   -0.015237
  92 H :   -0.037436
  93 H :   -0.031287
  94 H :   -0.019977
  95 H :    0.009674
  96 H :    0.010849
  97 H :    0.048937
  98 H :    0.049121
  99 H :    0.033809
 100 H :    0.038860
 101 H :    0.034000
 102 H :   -0.004287
 103 H :   -0.005885
Sum of atomic charges:   -0.0000000

LOEWDIN ATOMIC CHARGES
----------------------
   0 C :    0.066174
   1 C :   -0.119181
   2 C :    0.001125
   3 N :   -0.039618
   4 C :   -0.017248
   5 N :   -0.039978
   6 C :   -0.005293
   7 C :   -0.047743
   8 C :   -0.001688
   9 C :   -0.139618
  10 C :   -0.129339
  11 C :   -0.005476
  12 Cl:    0.178907
  13 Cl:    0.154814
  14 C :    0.086617
  15 O :   -0.132553
  16 C :   -0.074225
  17 C :    0.063983
  18 C :   -0.057902
  19 C :   -0.199994
  20 C :    0.059005
  21 O :   -0.153226
  22 C :   -0.073859
  23 S :    0.531661
  24 C :   -0.163716
  25 C :   -0.050365
  26 C :   -0.029108
  27 C :   -0.013848
  28 C :   -0.029288
  29 C :   -0.026699
  30 C :   -0.050554
  31 C :    0.016432
  32 N :   -0.101965
  33 C :    0.023352
  34 N :   -0.119726
  35 C :   -0.015695
  36 C :    0.065681
  37 C :   -0.028039
  38 C :   -0.025008
  39 C :   -0.023373
  40 C :   -0.030936
  41 C :   -0.040316
  42 C :   -0.006657
  43 C :   -0.027639
  44 C :   -0.011934
  45 C :   -0.022284
  46 C :   -0.010512
  47 C :   -0.217758
  48 C :    0.059098
  49 O :   -0.158827
  50 C :   -0.073406
  51 S :    0.522339
  52 C :   -0.141178
  53 C :   -0.078054
  54 C :    0.082487
  55 C :   -0.091741
  56 C :    0.074721
  57 C :   -0.132038
  58 C :   -0.000384
  59 N :   -0.046688
  60 C :   -0.024352
  61 N :   -0.038772
  62 C :   -0.024263
  63 C :   -0.050599
  64 C :    0.082742
  65 O :   -0.124121
  66 C :   -0.002020
  67 C :   -0.122860
  68 C :   -0.122325
  69 C :   -0.006813
  70 Cl:    0.183263
  71 Cl:    0.174967
  72 H :    0.045816
  73 H :    0.043602
  74 H :    0.045913
  75 H :    0.039793
  76 H :    0.048215
  77 H :    0.046019
  78 H :    0.027531
  79 H :    0.025040
  80 H :    0.017259
  81 H :    0.003229
  82 H :    0.004823
  83 H :    0.045985
  84 H :    0.055878
  85 H :    0.016218
  86 H :    0.005702
  87 H :    0.023937
  88 H :    0.047340
  89 H :    0.025219
  90 H :    0.066398
  91 H :    0.024144
  92 H :    0.028986
  93 H :    0.028519
  94 H :    0.028520
  95 H :    0.019893
  96 H :    0.031657
  97 H :    0.047078
  98 H :    0.039493
  99 H :    0.043121
 100 H :    0.031657
 101 H :    0.049695
 102 H :    0.044839
 103 H :    0.041920

  Mayer bond orders larger than 0.100000
B(  0-C ,  1-C ) :   1.6652 B(  0-C ,  6-C ) :   1.0225 B(  0-C , 16-C ) :   1.0205
B(  1-C ,  2-C ) :   1.1503 B(  1-C ,  4-C ) :   1.1721 B(  2-C ,  3-N ) :   2.8561
B(  3-N , 82-H ) :   0.1014 B(  4-C ,  5-N ) :   2.9958 B(  6-C ,  7-C ) :   1.3156
B(  6-C , 11-C ) :   1.3576 B(  7-C ,  8-C ) :   1.3370 B(  7-C , 14-C ) :   0.9234
B(  8-C ,  9-C ) :   1.3344 B(  8-C , 72-H ) :   1.0185 B(  9-C , 10-C ) :   1.4125
B(  9-C , 13-Cl) :   1.0441 B( 10-C , 11-C ) :   1.3651 B( 10-C , 12-Cl) :   1.0652
B( 11-C , 73-H ) :   0.9780 B( 14-C , 15-O ) :   2.2828 B( 14-C , 16-C ) :   0.9268
B( 16-C , 17-C ) :   1.7331 B( 17-C , 18-C ) :   1.0304 B( 17-C , 74-H ) :   0.9356
B( 18-C , 19-C ) :   1.4335 B( 18-C , 25-C ) :   1.2598 B( 19-C , 20-C ) :   0.9514
B( 19-C , 23-S ) :   1.1941 B( 20-C , 21-O ) :   2.1939 B( 20-C , 22-C ) :   1.0725
B( 22-C , 75-H ) :   0.9465 B( 22-C , 76-H ) :   0.9374 B( 22-C , 77-H ) :   0.9363
B( 23-S , 24-C ) :   1.1941 B( 24-C , 25-C ) :   1.5537 B( 24-C , 78-H ) :   0.9657
B( 25-C , 26-C ) :   0.9757 B( 26-C , 27-C ) :   1.5611 B( 26-C , 43-C ) :   1.1413
B( 27-C , 28-C ) :   1.1157 B( 27-C , 79-H ) :   0.9994 B( 28-C , 29-C ) :   1.5031
B( 28-C , 41-C ) :   1.1305 B( 29-C , 30-C ) :   1.0163 B( 29-C , 35-C ) :   1.0773
B( 30-C , 31-C ) :   1.0297 B( 30-C , 33-C ) :   0.9990 B( 30-C , 80-H ) :   0.8757
B( 31-C , 32-N ) :   1.0673 B( 31-C , 81-H ) :   0.9191 B( 31-C , 82-H ) :   0.9246
B( 32-N , 83-H ) :   0.9474 B( 32-N , 84-H ) :   0.9592 B( 32-N , 87-H ) :   0.1177
B( 33-C , 34-N ) :   1.1458 B( 33-C , 85-H ) :   0.9508 B( 33-C , 86-H ) :   0.9314
B( 34-N , 87-H ) :   0.9394 B( 34-N , 88-H ) :   0.9735 B( 35-C , 36-C ) :   1.6354
B( 35-C , 40-C ) :   1.0512 B( 36-C , 37-C ) :   0.9527 B( 36-C , 89-H ) :   0.9769
B( 37-C , 38-C ) :   0.9936 B( 37-C , 44-C ) :   0.9629 B( 37-C , 90-H ) :   0.8516
B( 38-C , 39-C ) :   1.6959 B( 38-C , 91-H ) :   0.9759 B( 39-C , 40-C ) :   1.1455
B( 39-C , 92-H ) :   0.9873 B( 40-C , 41-C ) :   1.4097 B( 41-C , 42-C ) :   1.1477
B( 42-C , 43-C ) :   1.5733 B( 42-C , 93-H ) :   0.9997 B( 43-C , 94-H ) :   0.9774
B( 44-C , 45-C ) :   1.8649 B( 44-C , 95-H ) :   0.9716 B( 45-C , 46-C ) :   1.0251
B( 45-C , 96-H ) :   0.9348 B( 46-C , 47-C ) :   1.5112 B( 46-C , 53-C ) :   1.2514
B( 47-C , 48-C ) :   0.9564 B( 47-C , 51-S ) :   1.1271 B( 48-C , 49-O ) :   2.1892
B( 48-C , 50-C ) :   1.0790 B( 50-C , 97-H ) :   0.9411 B( 50-C , 98-H ) :   0.9436
B( 50-C , 99-H ) :   0.9359 B( 51-S , 52-C ) :   1.2451 B( 52-C , 53-C ) :   1.4479
B( 52-C ,100-H ) :   0.9714 B( 53-C , 54-C ) :   1.0828 B( 54-C , 55-C ) :   1.6510
B( 54-C ,101-H ) :   0.9466 B( 55-C , 56-C ) :   1.0459 B( 55-C , 64-C ) :   0.9364
B( 56-C , 57-C ) :   1.6569 B( 56-C , 62-C ) :   0.9934 B( 57-C , 58-C ) :   1.1599
B( 57-C , 60-C ) :   1.1387 B( 58-C , 59-N ) :   2.8950 B( 60-C , 61-N ) :   2.9894
B( 62-C , 63-C ) :   1.3272 B( 62-C , 69-C ) :   1.3244 B( 63-C , 64-C ) :   0.9450
B( 63-C , 66-C ) :   1.3360 B( 64-C , 65-O ) :   2.2122 B( 66-C , 67-C ) :   1.3362
B( 66-C ,102-H ) :   1.0194 B( 67-C , 68-C ) :   1.4009 B( 67-C , 71-Cl) :   1.0603
B( 68-C , 69-C ) :   1.3595 B( 68-C , 70-Cl) :   1.0779 B( 69-C ,103-H ) :   0.9907

-----------------------------------------------------------------------------
         ABSORPTION SPECTRUM VIA TRANSITION ELECTRIC DIPOLE MOMENTS
-----------------------------------------------------------------------------
State   Energy  Wavelength   fosc         T2         TX        TY        TZ
        (cm-1)    (nm)                  (au**2)     (au)      (au)      (au)
-----------------------------------------------------------------------------
   0   11789.0    848.2   0.065353096   1.82501  -0.96152   0.17882   0.93193
   1   13938.1    717.5   0.020407369   0.48201  -0.19824   0.30352  -0.59211
   2   14736.9    678.6   0.033995671   0.75944   0.22732  -0.62904   0.55864
   3   17253.3    579.6   0.002494491   0.04760   0.06134   0.20835  -0.02059
   4   18686.8    535.1   0.001448164   0.02551  -0.00810   0.14672   0.06261
   5   20600.6    485.4   0.003904901   0.06240  -0.11817   0.14608   0.16462
   6   23610.9    423.5   0.046496880   0.64832   0.23637  -0.75806  -0.13340
   7   23953.6    417.5   0.024825511   0.34119  -0.00029   0.51802  -0.26991
   8   25080.2    398.7   0.029691667   0.38974  -0.03055  -0.29236  -0.55076
   9   25803.0    387.6   0.007412469   0.09457   0.11833   0.09413   0.26779
  10   26128.4    382.7   0.310717750   3.91497   0.69568  -1.80188   0.42921
  11   26425.4    378.4   0.113482334   1.41378  -0.45351  -0.78411  -0.77025
  12   27346.6    365.7   0.016425669   0.19774   0.14514   0.16468   0.38673
  13   27946.6    357.8   0.004541367   0.05350   0.07114   0.03252  -0.21767
  14   28253.1    353.9   0.118741348   1.38360   0.43317  -1.03501  -0.35317
  15   28499.7    350.9   0.017743565   0.20496   0.33996  -0.27661   0.11349
  16   28650.8    349.0   0.095225979   1.09419   0.26325  -0.84917  -0.55119
  17   28719.1    348.2   0.054341698   0.62293   0.13072  -0.69975  -0.34086
  18   28959.6    345.3   0.064445139   0.73261  -0.05180  -0.22149  -0.82515
  19   29685.8    336.9   0.007252947   0.08043  -0.17983   0.20716  -0.07197
  20   30053.8    332.7   0.029393873   0.32198  -0.22997  -0.13926   0.49971
  21   30093.0    332.3   0.044955370   0.49180   0.49868  -0.40785   0.27709
  22   30410.9    328.8   0.127960209   1.38523   1.07913   0.22175  -0.41417
  23   30921.1    323.4   0.021586727   0.22983  -0.04644   0.24994  -0.40645
  24   31307.1    319.4   0.204216502   2.14745  -0.21305  -1.25062   0.73349
  25   31462.1    317.8   0.071582447   0.74902   0.46551  -0.19917  -0.70189
  26   31860.6    313.9   0.060713847   0.62735  -0.10274  -0.63599   0.46077
  27   32060.2    311.9   0.161198773   1.65528  -0.14940   1.12233  -0.61101
  28   32160.3    310.9   0.031630059   0.32378   0.38345  -0.41393  -0.07353
  29   32656.1    306.2   0.049583222   0.49986   0.48748  -0.50832  -0.06189
  30   32902.9    303.9   0.001413994   0.01415  -0.04955   0.01654  -0.10686
  31   33043.6    302.6   0.007703702   0.07675  -0.06818   0.12729  -0.23643
  32   33197.2    301.2   0.039244149   0.38918  -0.01613  -0.62326  -0.02145
  33   33390.6    299.5   0.006370233   0.06281  -0.00286   0.22661   0.10699
  34   33565.6    297.9   0.137668672   1.35026   0.22565  -1.13960  -0.02571
  35   33774.1    296.1   0.070852287   0.69063   0.78718   0.06219  -0.25906
  36   33896.3    295.0   0.404465914   3.92831  -1.33969  -0.99637   1.06809
  37   33902.8    295.0   0.098699592   0.95842  -0.05983   0.96841   0.13044
  38   34114.8    293.1   0.138262288   1.33425   0.90761   0.07480  -0.71056
  39   34184.6    292.5   0.006558075   0.06316  -0.08041   0.20488   0.12131
  40   34516.2    289.7   0.018930379   0.18056   0.12525   0.40164  -0.05962
  41   34753.7    287.7   0.012766975   0.12094   0.30326  -0.16472   0.04286
  42   34804.4    287.3   0.056361984   0.53312  -0.44428  -0.57370  -0.08131
  43   35058.3    285.2   0.000154342   0.00145   0.00170  -0.01613   0.03444
  44   35204.9    284.1   0.091728623   0.85778  -0.81508   0.23432  -0.37219
  45   35292.5    283.3   0.002491409   0.02324   0.03348  -0.14688  -0.02337
  46   35475.9    281.9   0.096009653   0.89096  -0.00125  -0.09651   0.93896
  47   35639.6    280.6   0.258696018   2.38964  -0.45177   1.25517   0.78108
  48   35847.5    279.0   0.460331607   4.22753   0.61818  -1.61288  -1.11534
  49   36016.1    277.7   0.424370510   3.87904   1.06464  -1.63679   0.25791
  50   36309.8    275.4   0.128802613   1.16782  -0.50534   0.92876  -0.22328
  51   36814.7    271.6   0.006679423   0.05973  -0.11976   0.21220  -0.01896
  52   37146.9    269.2   0.013833157   0.12260  -0.14768  -0.13892   0.28546
  53   37277.3    268.3   0.057319102   0.50621  -0.36441   0.61095  -0.01261
  54   37600.4    266.0   0.047865893   0.41909   0.23013  -0.54992   0.25242
  55   38157.9    262.1   0.019177864   0.16546  -0.09398   0.38666   0.08437
  56   38393.3    260.5   0.013378805   0.11472  -0.08174   0.32489   0.04986
  57   38698.7    258.4   0.005791231   0.04927  -0.04952  -0.21577   0.01597
  58   38752.3    258.0   0.007810829   0.06636   0.14942   0.05119  -0.20349
  59   38855.5    257.4   0.028701645   0.24318   0.05225   0.48994   0.02021
  60   39054.0    256.1   0.010967282   0.09245   0.04122   0.28975   0.08245
  61   39144.1    255.5   0.005522683   0.04645  -0.04105   0.18045   0.11046
  62   39158.4    255.4   0.009726228   0.08177   0.16722   0.22135  -0.06937
  63   39316.5    254.3   0.164336158   1.37605  -0.20342   1.13611  -0.20956
  64   39649.3    252.2   0.138010262   1.14591   0.16988   1.05468   0.06851
  65   39739.0    251.6   0.255754428   2.11876  -0.36718  -1.40531  -0.09512
  66   39826.6    251.1   0.001585481   0.01311  -0.06198   0.06037  -0.07497
  67   39966.9    250.2   0.028525895   0.23497   0.19565   0.44316   0.01740

FINAL SINGLE POINT ENERGY     -5415.330710651730

DIPOLE MOMENT
-------------
                                X             Y             Z
Electronic contribution:      9.79980      14.62769      11.79725
Nuclear contribution   :    -11.55871     -13.60735     -11.14270
                        -----------------------------------------
Total Dipole Moment    :     -1.75891       1.02034       0.65455
                        -----------------------------------------
Magnitude (a.u.)       :      2.13619
Magnitude (Debye)      :      5.42975

Rotational constants in cm-1:     0.001269     0.000654     0.000499
Rotational constants in MHz :    38.030154    19.616509    14.969293

                             ****ORCA TERMINATED NORMALLY****
TOTAL RUN TIME: 0 days 0 hours 13 minutes 55 seconds 529 msec
