                         Program Version 4.2.0 -  RELEASE  -
|  1> # ORCA input file
|  2> # SCF done       -174.560647499905          0.000863983650
|  3> ! CAM-B3LYP def2-SVP def2/J RIJCOSX Grid4 TightSCF
|  4> %maxcore 5000
|  5> %tddft
|  6>     Mode sTDDFT
|  7>     Ethresh 5.0
|  8>     maxcore 5000
|  9> end
| 10>
| 11> %pal
| 12>   nprocs 6
| 13>   end
| 14> * xyz 0 1
| 15>    C       -4.24475         1.21272         3.39846
| 16>    C       -4.58979         2.55591         3.33846
| 17>    N       -3.75889         3.48044         2.90060
| 18>    C       -2.54656         3.08491         2.50626
| 19>    N       -2.12379         1.81938         2.52652
| 20>    C       -2.96243         0.90285         2.96565
| 21>    C       -1.62204         4.10689         2.02436
| 22>    C       -2.04887         5.43636         1.92902
| 23>    C       -1.16712         6.39220         1.48355
| 24>    C        0.13330         6.02674         1.09106
| 25>    C        0.55917         4.70965         1.18470
| 26>    C       -0.32050         3.75695         1.65944
| 27>    C        0.80958         7.20264         0.57983
| 28>    C       -0.07602         8.28861         0.64686
| 29>    C       -1.37964         7.87795         1.29817
| 30>    C       -1.45903         8.61878         2.65364
| 31>    C       -2.62049         8.22625         3.55720
| 32>    C       -2.59481         8.18422         0.41122
| 33>    C       -2.46742         7.56577        -0.97633
| 34>    C        0.29911         9.52723         0.18190
| 35>    C        1.57685         9.70208        -0.35729
| 36>    C        2.45581         8.61822        -0.40179
| 37>    C        2.08315         7.36930         0.05793
| 38>    C        1.98444        11.01015        -0.88365
| 39>    C        3.23345        11.51105        -0.64191
| 40>    C        3.60796        12.77082        -1.16685
| 41>    C        4.79107        13.48482        -1.07138
| 42>    C        6.00092        13.03486        -0.31270
| 43>    C        7.08061        12.44711        -1.24395
| 44>    N        7.56924        13.43017        -2.19809
| 45>    C        6.59210        14.12516         0.59156
| 46>    N        5.57251        14.60786         1.50947
| 47>    C        4.60416        14.70188        -1.83275
| 48>    C        5.42504        15.73034        -2.12199
| 49>    C        4.96863        16.90487        -2.91685
| 50>    C        3.59062        16.78311        -3.48517
| 51>    C        2.78381        15.74364        -3.20334
| 52>    C        3.23536        14.68636        -2.37976
| 53>    C        2.64459        13.50890        -1.97121
| 54>    C        1.36114        12.96209        -2.20271
| 55>    C        1.04697        11.75509        -1.66963
| 56>    C        4.97970        18.11366        -2.00794
| 57>    C        5.72258        19.19682        -2.22312
| 58>    C        5.74122        20.41403        -1.42713
| 59>    C        6.72715        21.37085        -1.70223
| 60>    C        6.76399        22.54137        -0.98372
| 61>    C        5.81523        22.79126         0.02008
| 62>    C        4.83470        21.85282         0.30226
| 63>    C        4.80659        20.67578        -0.42054
| 64>    C        6.08186        24.09764         0.59056
| 65>    C        7.19660        24.64869        -0.06203
| 66>    C        7.72817        23.69773        -1.10831
| 67>    C        7.68262        24.32361        -2.51421
| 68>    C        6.28454        24.78120        -2.91212
| 69>    C        9.16922        23.26043        -0.78426
| 70>    C        9.29893        22.62606         0.59530
| 71>    C        7.66226        25.89614         0.28002
| 72>    C        7.01702        26.61223         1.29317
| 73>    C        5.91354        26.05476         1.94054
| 74>    C        5.43783        24.80325         1.59444
| 75>    C        7.49721        27.94222         1.66681
| 76>    C        7.95947        28.86587         0.72550
| 77>    N        8.40181        30.06461         1.05910
| 78>    C        8.37964        30.37307         2.34312
| 79>    N        7.96110        29.59377         3.32428
| 80>    C        7.53133        28.39088         2.99004
| 81>    H       -4.92685         0.46022         3.75763
| 82>    H       -5.56479         2.90876         3.65294
| 83>    H       -2.58984        -0.11458         2.96881
| 84>    H       -3.06755         5.66837         2.19448
| 85>    H        1.55868         4.43265         0.88398
| 86>    H       -0.02469         2.72329         1.74608
| 87>    H       -1.51457         9.68976         2.44406
| 88>    H       -0.52253         8.43716         3.18801
| 89>    H       -3.57733         8.39211         3.06868
| 90>    H       -2.59416         8.83331         4.46054
| 91>    H       -2.54933         7.18217         3.84893
| 92>    H       -2.70134         9.26756         0.31977
| 93>    H       -3.49402         7.79592         0.89070
| 94>    H       -1.58647         7.94651        -1.48904
| 95>    H       -3.34427         7.80119        -1.57555
| 96>    H       -2.37927         6.48396        -0.90411
| 97>    H       -0.37565        10.36892         0.24255
| 98>    H        3.43736         8.75891        -0.83101
| 99>    H        2.77083         6.53821         0.00354
|100>    H        3.93025        10.95713        -0.02976
|101>    H        5.67964        12.22360         0.34833
|102>    H        6.65862        11.55217        -1.73214
|103>    H        7.92921        12.12910        -0.63143
|104>    H        6.84401        13.63270        -2.87889
|105>    H        8.36697        13.05705        -2.70120
|106>    H        7.04318        14.91373        -0.02577
|107>    H        7.39165        13.68248         1.19424
|108>    H        4.78198        14.96942         0.98478
|109>    H        5.94018        15.35973         2.08214
|110>    H        6.44883        15.76517        -1.78044
|111>    H        5.68897        17.08501        -3.72627
|112>    H        3.26279        17.60174        -4.10790
|113>    H        1.78647        15.69213        -3.61698
|114>    H        0.64839        13.50857        -2.80366
|115>    H        0.07795        11.31445        -1.85445
|116>    H        4.30448        18.04088        -1.16829
|117>    H        6.39678        19.20403        -3.07223
|118>    H        7.45357        21.17761        -2.47934
|119>    H        4.09906        22.03820         1.07085
|120>    H        4.03557        19.95069        -0.21068
|121>    H        8.04199        23.58737        -3.23637
|122>    H        8.36517        25.17584        -2.54066
|123>    H        5.59208        23.94226        -2.91324
|124>    H        6.30199        25.21537        -3.90916
|125>    H        5.91249        25.53028        -2.21656
|126>    H        9.82209        24.13393        -0.84448
|127>    H        9.49616        22.54636        -1.54322
|128>    H        8.99695        23.32676         1.37068
|129>    H       10.33075        22.33470         0.77770
|130>    H        8.67193        21.74035         0.67138
|131>    H        8.52931        26.31838        -0.20702
|132>    H        5.41012        26.62404         2.70832
|133>    H        4.57804        24.38777         2.09825
|134>    H        7.95786        28.63983        -0.33381
|135>    H        8.73692        31.35688         2.61744
|136>    H        7.21820        27.75474         3.80873
|137> *
|138>
|139>                          ****END OF INPUT****

CARTESIAN COORDINATES (ANGSTROEM)
---------------------------------
  C     -4.244750    1.212720    3.398460
  C     -4.589790    2.555910    3.338460
  N     -3.758890    3.480440    2.900600
  C     -2.546560    3.084910    2.506260
  N     -2.123790    1.819380    2.526520
  C     -2.962430    0.902850    2.965650
  C     -1.622040    4.106890    2.024360
  C     -2.048870    5.436360    1.929020
  C     -1.167120    6.392200    1.483550
  C      0.133300    6.026740    1.091060
  C      0.559170    4.709650    1.184700
  C     -0.320500    3.756950    1.659440
  C      0.809580    7.202640    0.579830
  C     -0.076020    8.288610    0.646860
  C     -1.379640    7.877950    1.298170
  C     -1.459030    8.618780    2.653640
  C     -2.620490    8.226250    3.557200
  C     -2.594810    8.184220    0.411220
  C     -2.467420    7.565770   -0.976330
  C      0.299110    9.527230    0.181900
  C      1.576850    9.702080   -0.357290
  C      2.455810    8.618220   -0.401790
  C      2.083150    7.369300    0.057930
  C      1.984440   11.010150   -0.883650
  C      3.233450   11.511050   -0.641910
  C      3.607960   12.770820   -1.166850
  C      4.791070   13.484820   -1.071380
  C      6.000920   13.034860   -0.312700
  C      7.080610   12.447110   -1.243950
  N      7.569240   13.430170   -2.198090
  C      6.592100   14.125160    0.591560
  N      5.572510   14.607860    1.509470
  C      4.604160   14.701880   -1.832750
  C      5.425040   15.730340   -2.121990
  C      4.968630   16.904870   -2.916850
  C      3.590620   16.783110   -3.485170
  C      2.783810   15.743640   -3.203340
  C      3.235360   14.686360   -2.379760
  C      2.644590   13.508900   -1.971210
  C      1.361140   12.962090   -2.202710
  C      1.046970   11.755090   -1.669630
  C      4.979700   18.113660   -2.007940
  C      5.722580   19.196820   -2.223120
  C      5.741220   20.414030   -1.427130
  C      6.727150   21.370850   -1.702230
  C      6.763990   22.541370   -0.983720
  C      5.815230   22.791260    0.020080
  C      4.834700   21.852820    0.302260
  C      4.806590   20.675780   -0.420540
  C      6.081860   24.097640    0.590560
  C      7.196600   24.648690   -0.062030
  C      7.728170   23.697730   -1.108310
  C      7.682620   24.323610   -2.514210
  C      6.284540   24.781200   -2.912120
  C      9.169220   23.260430   -0.784260
  C      9.298930   22.626060    0.595300
  C      7.662260   25.896140    0.280020
  C      7.017020   26.612230    1.293170
  C      5.913540   26.054760    1.940540
  C      5.437830   24.803250    1.594440
  C      7.497210   27.942220    1.666810
  C      7.959470   28.865870    0.725500
  N      8.401810   30.064610    1.059100
  C      8.379640   30.373070    2.343120
  N      7.961100   29.593770    3.324280
  C      7.531330   28.390880    2.990040
  H     -4.926850    0.460220    3.757630
  H     -5.564790    2.908760    3.652940
  H     -2.589840   -0.114580    2.968810
  H     -3.067550    5.668370    2.194480
  H      1.558680    4.432650    0.883980
  H     -0.024690    2.723290    1.746080
  H     -1.514570    9.689760    2.444060
  H     -0.522530    8.437160    3.188010
  H     -3.577330    8.392110    3.068680
  H     -2.594160    8.833310    4.460540
  H     -2.549330    7.182170    3.848930
  H     -2.701340    9.267560    0.319770
  H     -3.494020    7.795920    0.890700
  H     -1.586470    7.946510   -1.489040
  H     -3.344270    7.801190   -1.575550
  H     -2.379270    6.483960   -0.904110
  H     -0.375650   10.368920    0.242550
  H      3.437360    8.758910   -0.831010
  H      2.770830    6.538210    0.003540
  H      3.930250   10.957130   -0.029760
  H      5.679640   12.223600    0.348330
  H      6.658620   11.552170   -1.732140
  H      7.929210   12.129100   -0.631430
  H      6.844010   13.632700   -2.878890
  H      8.366970   13.057050   -2.701200
  H      7.043180   14.913730   -0.025770
  H      7.391650   13.682480    1.194240
  H      4.781980   14.969420    0.984780
  H      5.940180   15.359730    2.082140
  H      6.448830   15.765170   -1.780440
  H      5.688970   17.085010   -3.726270
  H      3.262790   17.601740   -4.107900
  H      1.786470   15.692130   -3.616980
  H      0.648390   13.508570   -2.803660
  H      0.077950   11.314450   -1.854450
  H      4.304480   18.040880   -1.168290
  H      6.396780   19.204030   -3.072230
  H      7.453570   21.177610   -2.479340
  H      4.099060   22.038200    1.070850
  H      4.035570   19.950690   -0.210680
  H      8.041990   23.587370   -3.236370
  H      8.365170   25.175840   -2.540660
  H      5.592080   23.942260   -2.913240
  H      6.301990   25.215370   -3.909160
  H      5.912490   25.530280   -2.216560
  H      9.822090   24.133930   -0.844480
  H      9.496160   22.546360   -1.543220
  H      8.996950   23.326760    1.370680
  H     10.330750   22.334700    0.777700
  H      8.671930   21.740350    0.671380
  H      8.529310   26.318380   -0.207020
  H      5.410120   26.624040    2.708320
  H      4.578040   24.387770    2.098250
  H      7.957860   28.639830   -0.333810
  H      8.736920   31.356880    2.617440
  H      7.218200   27.754740    3.808730

 Total Charge           Charge          ....    0
 Multiplicity           Mult            ....    1
 Number of Electrons    NEL             ....  458
 Basis Dimension        Dim             .... 1204

ORBITAL ENERGIES
----------------

  NO   OCC          E(Eh)            E(eV)
   0   2.0000     -14.403930      -391.9509
   1   2.0000     -14.403637      -391.9429
   2   2.0000     -14.401172      -391.8758
   3   2.0000     -14.400680      -391.8624
   4   2.0000     -14.375639      -391.1810
   5   2.0000     -14.359593      -390.7444
   6   2.0000     -10.333658      -281.1931
   7   2.0000     -10.325411      -280.9687
   8   2.0000     -10.315254      -280.6923
   9   2.0000     -10.314934      -280.6836
  10   2.0000     -10.314424      -280.6698
  11   2.0000     -10.314203      -280.6637
  12   2.0000     -10.289570      -279.9934
  13   2.0000     -10.288365      -279.9607
  14   2.0000     -10.286363      -279.9062
  15   2.0000     -10.283272      -279.8220
  16   2.0000     -10.278004      -279.6787
  17   2.0000     -10.277669      -279.6696
  18   2.0000     -10.277619      -279.6682
  19   2.0000     -10.276959      -279.6503
  20   2.0000     -10.275238      -279.6034
  21   2.0000     -10.273703      -279.5617
  22   2.0000     -10.273314      -279.5511
  23   2.0000     -10.273181      -279.5475
  24   2.0000     -10.272232      -279.5216
  25   2.0000     -10.271233      -279.4945
  26   2.0000     -10.271181      -279.4930
  27   2.0000     -10.269856      -279.4570
  28   2.0000     -10.269070      -279.4356
  29   2.0000     -10.268364      -279.4164
  30   2.0000     -10.267997      -279.4064
  31   2.0000     -10.266991      -279.3790
  32   2.0000     -10.266826      -279.3746
  33   2.0000     -10.266395      -279.3628
  34   2.0000     -10.266032      -279.3529
  35   2.0000     -10.264832      -279.3203
  36   2.0000     -10.264482      -279.3108
  37   2.0000     -10.264092      -279.3002
  38   2.0000     -10.263961      -279.2966
  39   2.0000     -10.263830      -279.2930
  40   2.0000     -10.263446      -279.2826
  41   2.0000     -10.260335      -279.1979
  42   2.0000     -10.260190      -279.1940
  43   2.0000     -10.259476      -279.1745
  44   2.0000     -10.258881      -279.1583
  45   2.0000     -10.256799      -279.1017
  46   2.0000     -10.256700      -279.0990
  47   2.0000     -10.256601      -279.0963
  48   2.0000     -10.256350      -279.0895
  49   2.0000     -10.255843      -279.0757
  50   2.0000     -10.255770      -279.0737
  51   2.0000     -10.255669      -279.0709
  52   2.0000     -10.254668      -279.0437
  53   2.0000     -10.254566      -279.0409
  54   2.0000     -10.254128      -279.0290
  55   2.0000     -10.253800      -279.0201
  56   2.0000     -10.253497      -279.0118
  57   2.0000     -10.252898      -278.9955
  58   2.0000     -10.252395      -278.9818
  59   2.0000     -10.252270      -278.9785
  60   2.0000     -10.252180      -278.9760
  61   2.0000     -10.247895      -278.8594
  62   2.0000     -10.246761      -278.8285
  63   2.0000     -10.246059      -278.8094
  64   2.0000     -10.240285      -278.6523
  65   2.0000     -10.237051      -278.5643
  66   2.0000      -1.075129       -29.2557
  67   2.0000      -1.074743       -29.2453
  68   2.0000      -0.988463       -26.8974
  69   2.0000      -0.976278       -26.5659
  70   2.0000      -0.973928       -26.5019
  71   2.0000      -0.970122       -26.3984
  72   2.0000      -0.968735       -26.3606
  73   2.0000      -0.956252       -26.0209
  74   2.0000      -0.949387       -25.8341
  75   2.0000      -0.940194       -25.5840
  76   2.0000      -0.938178       -25.5291
  77   2.0000      -0.929462       -25.2919
  78   2.0000      -0.921414       -25.0729
  79   2.0000      -0.909310       -24.7436
  80   2.0000      -0.894483       -24.3401
  81   2.0000      -0.891819       -24.2676
  82   2.0000      -0.881218       -23.9792
  83   2.0000      -0.874560       -23.7980
  84   2.0000      -0.860784       -23.4231
  85   2.0000      -0.853137       -23.2150
  86   2.0000      -0.837904       -22.8005
  87   2.0000      -0.837366       -22.7859
  88   2.0000      -0.833970       -22.6935
  89   2.0000      -0.830366       -22.5954
  90   2.0000      -0.829646       -22.5758
  91   2.0000      -0.825417       -22.4607
  92   2.0000      -0.821057       -22.3421
  93   2.0000      -0.818970       -22.2853
  94   2.0000      -0.817929       -22.2570
  95   2.0000      -0.809475       -22.0269
  96   2.0000      -0.793127       -21.5821
  97   2.0000      -0.773273       -21.0418
  98   2.0000      -0.762362       -20.7449
  99   2.0000      -0.754759       -20.5380
 100   2.0000      -0.748999       -20.3813
 101   2.0000      -0.744585       -20.2612
 102   2.0000      -0.738939       -20.1075
 103   2.0000      -0.735893       -20.0247
 104   2.0000      -0.734241       -19.9797
 105   2.0000      -0.719041       -19.5661
 106   2.0000      -0.716408       -19.4945
 107   2.0000      -0.707987       -19.2653
 108   2.0000      -0.702430       -19.1141
 109   2.0000      -0.695759       -18.9326
 110   2.0000      -0.680349       -18.5132
 111   2.0000      -0.678005       -18.4494
 112   2.0000      -0.676772       -18.4159
 113   2.0000      -0.674509       -18.3543
 114   2.0000      -0.671709       -18.2781
 115   2.0000      -0.662042       -18.0151
 116   2.0000      -0.659206       -17.9379
 117   2.0000      -0.655888       -17.8476
 118   2.0000      -0.649332       -17.6692
 119   2.0000      -0.644113       -17.5272
 120   2.0000      -0.637375       -17.3439
 121   2.0000      -0.627477       -17.0745
 122   2.0000      -0.626683       -17.0529
 123   2.0000      -0.617827       -16.8119
 124   2.0000      -0.610723       -16.6186
 125   2.0000      -0.601399       -16.3649
 126   2.0000      -0.598990       -16.2993
 127   2.0000      -0.593503       -16.1500
 128   2.0000      -0.592299       -16.1173
 129   2.0000      -0.584139       -15.8952
 130   2.0000      -0.579984       -15.7822
 131   2.0000      -0.575891       -15.6708
 132   2.0000      -0.571544       -15.5525
 133   2.0000      -0.564436       -15.3591
 134   2.0000      -0.563061       -15.3217
 135   2.0000      -0.556437       -15.1414
 136   2.0000      -0.550496       -14.9798
 137   2.0000      -0.546130       -14.8609
 138   2.0000      -0.543258       -14.7828
 139   2.0000      -0.541126       -14.7248
 140   2.0000      -0.537741       -14.6327
 141   2.0000      -0.533109       -14.5066
 142   2.0000      -0.529402       -14.4058
 143   2.0000      -0.527707       -14.3597
 144   2.0000      -0.525312       -14.2945
 145   2.0000      -0.523387       -14.2421
 146   2.0000      -0.519987       -14.1496
 147   2.0000      -0.518330       -14.1045
 148   2.0000      -0.517614       -14.0850
 149   2.0000      -0.514803       -14.0085
 150   2.0000      -0.513276       -13.9669
 151   2.0000      -0.512137       -13.9359
 152   2.0000      -0.509674       -13.8689
 153   2.0000      -0.508206       -13.8290
 154   2.0000      -0.507138       -13.7999
 155   2.0000      -0.504242       -13.7211
 156   2.0000      -0.501800       -13.6547
 157   2.0000      -0.499093       -13.5810
 158   2.0000      -0.498036       -13.5522
 159   2.0000      -0.495177       -13.4744
 160   2.0000      -0.493048       -13.4165
 161   2.0000      -0.491809       -13.3828
 162   2.0000      -0.489806       -13.3283
 163   2.0000      -0.486489       -13.2380
 164   2.0000      -0.484982       -13.1970
 165   2.0000      -0.483846       -13.1661
 166   2.0000      -0.482134       -13.1195
 167   2.0000      -0.480644       -13.0790
 168   2.0000      -0.479017       -13.0347
 169   2.0000      -0.472469       -12.8565
 170   2.0000      -0.470472       -12.8022
 171   2.0000      -0.467859       -12.7311
 172   2.0000      -0.464880       -12.6500
 173   2.0000      -0.461979       -12.5711
 174   2.0000      -0.454380       -12.3643
 175   2.0000      -0.452845       -12.3225
 176   2.0000      -0.448264       -12.1979
 177   2.0000      -0.447108       -12.1664
 178   2.0000      -0.443038       -12.0557
 179   2.0000      -0.439913       -11.9706
 180   2.0000      -0.437988       -11.9182
 181   2.0000      -0.437502       -11.9050
 182   2.0000      -0.435987       -11.8638
 183   2.0000      -0.431320       -11.7368
 184   2.0000      -0.429128       -11.6772
 185   2.0000      -0.425849       -11.5879
 186   2.0000      -0.425012       -11.5652
 187   2.0000      -0.423860       -11.5338
 188   2.0000      -0.421367       -11.4660
 189   2.0000      -0.419302       -11.4098
 190   2.0000      -0.415607       -11.3092
 191   2.0000      -0.414500       -11.2791
 192   2.0000      -0.411813       -11.2060
 193   2.0000      -0.407282       -11.0827
 194   2.0000      -0.407150       -11.0791
 195   2.0000      -0.402642       -10.9564
 196   2.0000      -0.399761       -10.8781
 197   2.0000      -0.397630       -10.8201
 198   2.0000      -0.396024       -10.7764
 199   2.0000      -0.389504       -10.5989
 200   2.0000      -0.388356       -10.5677
 201   2.0000      -0.384474       -10.4621
 202   2.0000      -0.384446       -10.4613
 203   2.0000      -0.383092       -10.4245
 204   2.0000      -0.382548       -10.4096
 205   2.0000      -0.379612       -10.3298
 206   2.0000      -0.378339       -10.2951
 207   2.0000      -0.375858       -10.2276
 208   2.0000      -0.369938       -10.0665
 209   2.0000      -0.368157       -10.0181
 210   2.0000      -0.365357        -9.9419
 211   2.0000      -0.364142        -9.9088
 212   2.0000      -0.361477        -9.8363
 213   2.0000      -0.353737        -9.6257
 214   2.0000      -0.331483        -9.0201
 215   2.0000      -0.322480        -8.7751
 216   2.0000      -0.321591        -8.7509
 217   2.0000      -0.316840        -8.6217
 218   2.0000      -0.314638        -8.5617
 219   2.0000      -0.312176        -8.4947
 220   2.0000      -0.309710        -8.4276
 221   2.0000      -0.306852        -8.3499
 222   2.0000      -0.304834        -8.2949
 223   2.0000      -0.300450        -8.1757
 224   2.0000      -0.293462        -7.9855
 225   2.0000      -0.279679        -7.6105
 226   2.0000      -0.261768        -7.1231
 227   2.0000      -0.255134        -6.9426
 228   2.0000      -0.214241        -5.8298
 229   0.0000      -0.058856        -1.6016
 230   0.0000      -0.028436        -0.7738
 231   0.0000      -0.020910        -0.5690
 232   0.0000       0.003949         0.1075
 233   0.0000       0.006460         0.1758

MULLIKEN ATOMIC CHARGES
-----------------------
   0 C :   -0.028669
   1 C :    0.071703
   2 N :   -0.064013
   3 C :   -0.095528
   4 N :   -0.060376
   5 C :    0.069042
   6 C :    0.106010
   7 C :   -0.102909
   8 C :    0.030917
   9 C :    0.113589
  10 C :   -0.051537
  11 C :   -0.006835
  12 C :    0.106996
  13 C :    0.014683
  14 C :   -0.126870
  15 C :    0.077805
  16 C :    0.033118
  17 C :    0.051502
  18 C :    0.024913
  19 C :   -0.093407
  20 C :    0.081197
  21 C :   -0.008301
  22 C :   -0.057328
  23 C :    0.077380
  24 C :   -0.083866
  25 C :    0.061258
  26 C :   -0.105390
  27 C :    0.006831
  28 C :    0.147303
  29 N :   -0.237032
  30 C :    0.129256
  31 N :   -0.219685
  32 C :    0.084853
  33 C :   -0.153411
  34 C :    0.131429
  35 C :   -0.042104
  36 C :    0.020237
  37 C :    0.009550
  38 C :    0.040449
  39 C :   -0.009718
  40 C :   -0.007117
  41 C :   -0.028207
  42 C :    0.007501
  43 C :    0.126620
  44 C :   -0.113883
  45 C :    0.017788
  46 C :    0.111279
  47 C :   -0.048787
  48 C :   -0.017267
  49 C :    0.115088
  50 C :    0.009202
  51 C :   -0.141311
  52 C :    0.066401
  53 C :    0.026487
  54 C :    0.067444
  55 C :    0.025089
  56 C :   -0.093706
  57 C :    0.106700
  58 C :   -0.015253
  59 C :   -0.051992
  60 C :   -0.021414
  61 C :    0.025634
  62 N :   -0.092210
  63 C :    0.061950
  64 N :   -0.092507
  65 C :    0.028780
  66 H :    0.004191
  67 H :    0.006696
  68 H :    0.007899
  69 H :   -0.021744
  70 H :   -0.040250
  71 H :   -0.014930
  72 H :   -0.004969
  73 H :    0.003000
  74 H :    0.000943
  75 H :    0.008346
  76 H :    0.023205
  77 H :   -0.005265
  78 H :    0.007431
  79 H :    0.018454
  80 H :    0.004860
  81 H :    0.022261
  82 H :   -0.037638
  83 H :   -0.029426
  84 H :   -0.037605
  85 H :   -0.037473
  86 H :   -0.015900
  87 H :   -0.015684
  88 H :   -0.011057
  89 H :    0.099126
  90 H :    0.092976
  91 H :   -0.008581
  92 H :   -0.017996
  93 H :    0.093137
  94 H :    0.085520
  95 H :    0.009460
  96 H :    0.016340
  97 H :   -0.013389
  98 H :   -0.038688
  99 H :   -0.039888
 100 H :   -0.028034
 101 H :    0.004626
 102 H :   -0.027182
 103 H :   -0.041818
 104 H :   -0.036644
 105 H :   -0.030403
 106 H :   -0.002693
 107 H :   -0.002845
 108 H :    0.023041
 109 H :    0.008594
 110 H :    0.020339
 111 H :   -0.000890
 112 H :   -0.002376
 113 H :    0.020749
 114 H :    0.009144
 115 H :    0.022670
 116 H :   -0.035915
 117 H :   -0.022458
 118 H :   -0.033423
 119 H :    0.005787
 120 H :    0.016312
 121 H :    0.004705
Sum of atomic charges:   -0.0000000

LOEWDIN ATOMIC CHARGES
----------------------
   0 C :   -0.079388
   1 C :    0.049466
   2 N :   -0.087182
   3 C :    0.043600
   4 N :   -0.085430
   5 C :    0.049616
   6 C :   -0.051264
   7 C :   -0.002489
   8 C :   -0.003431
   9 C :   -0.005784
  10 C :   -0.026722
  11 C :    0.002408
  12 C :   -0.022756
  13 C :    0.007921
  14 C :   -0.034535
  15 C :   -0.009555
  16 C :   -0.059076
  17 C :   -0.016018
  18 C :   -0.057120
  19 C :   -0.024065
  20 C :   -0.012218
  21 C :   -0.021034
  22 C :   -0.018106
  23 C :   -0.015383
  24 C :   -0.020267
  25 C :   -0.011859
  26 C :   -0.056505
  27 C :   -0.037599
  28 C :    0.028401
  29 N :   -0.119953
  30 C :    0.025167
  31 N :   -0.123375
  32 C :   -0.029213
  33 C :    0.061959
  34 C :   -0.028526
  35 C :   -0.033162
  36 C :   -0.019621
  37 C :   -0.034141
  38 C :   -0.033584
  39 C :   -0.011090
  40 C :   -0.028797
  41 C :    0.001350
  42 C :   -0.034216
  43 C :   -0.021819
  44 C :   -0.024158
  45 C :    0.003197
  46 C :   -0.021036
  47 C :   -0.016120
  48 C :   -0.016009
  49 C :   -0.014522
  50 C :    0.005668
  51 C :   -0.035830
  52 C :   -0.012091
  53 C :   -0.057899
  54 C :   -0.011370
  55 C :   -0.057564
  56 C :   -0.020716
  57 C :   -0.023594
  58 C :   -0.019024
  59 C :   -0.016375
  60 C :   -0.058752
  61 C :    0.043924
  62 N :   -0.083078
  63 C :    0.039292
  64 N :   -0.082794
  65 C :    0.045141
  66 H :    0.033708
  67 H :    0.024535
  68 H :    0.024797
  69 H :    0.025641
  70 H :    0.024583
  71 H :    0.028586
  72 H :    0.019208
  73 H :    0.026204
  74 H :    0.019387
  75 H :    0.025844
  76 H :    0.026268
  77 H :    0.018608
  78 H :    0.020536
  79 H :    0.023970
  80 H :    0.021984
  81 H :    0.026249
  82 H :    0.023941
  83 H :    0.025628
  84 H :    0.025612
  85 H :    0.024349
  86 H :    0.030505
  87 H :    0.000581
  88 H :    0.014517
  89 H :    0.051281
  90 H :    0.055602
  91 H :   -0.003146
  92 H :    0.014593
  93 H :    0.048824
  94 H :    0.051607
  95 H :    0.031240
  96 H :    0.049756
  97 H :    0.024101
  98 H :    0.028764
  99 H :    0.025387
 100 H :    0.025027
 101 H :    0.025386
 102 H :    0.024999
 103 H :    0.022992
 104 H :    0.026674
 105 H :    0.025800
 106 H :    0.019830
 107 H :    0.019512
 108 H :    0.026091
 109 H :    0.023881
 110 H :    0.024931
 111 H :    0.019978
 112 H :    0.019917
 113 H :    0.025323
 114 H :    0.024120
 115 H :    0.025921
 116 H :    0.024998
 117 H :    0.027744
 118 H :    0.027683
 119 H :    0.023608
 120 H :    0.017430
 121 H :    0.024008

  Mayer bond orders larger than 0.100000
B(  0-C ,  1-C ) :   1.3752 B(  0-C ,  5-C ) :   1.3728 B(  0-C , 66-H ) :   0.9736
B(  1-C ,  2-N ) :   1.5488 B(  1-C , 67-H ) :   0.9825 B(  2-N ,  3-C ) :   1.5747
B(  3-C ,  4-N ) :   1.5780 B(  3-C ,  6-C ) :   0.9473 B(  4-N ,  5-C ) :   1.5495
B(  5-C , 68-H ) :   0.9828 B(  6-C ,  7-C ) :   1.3258 B(  6-C , 11-C ) :   1.3843
B(  7-C ,  8-C ) :   1.3588 B(  7-C , 69-H ) :   0.9992 B(  8-C ,  9-C ) :   1.3819
B(  8-C , 14-C ) :   0.9172 B(  9-C , 10-C ) :   1.3420 B(  9-C , 12-C ) :   0.9879
B( 10-C , 11-C ) :   1.3533 B( 10-C , 70-H ) :   0.9932 B( 11-C , 71-H ) :   0.9840
B( 12-C , 13-C ) :   1.3822 B( 12-C , 22-C ) :   1.3413 B( 13-C , 14-C ) :   0.9255
B( 13-C , 19-C ) :   1.3842 B( 14-C , 15-C ) :   1.0127 B( 14-C , 17-C ) :   1.0330
B( 15-C , 16-C ) :   1.1147 B( 15-C , 72-H ) :   0.9373 B( 15-C , 73-H ) :   0.9388
B( 16-C , 74-H ) :   0.9629 B( 16-C , 75-H ) :   0.9593 B( 16-C , 76-H ) :   0.9611
B( 17-C , 18-C ) :   1.1041 B( 17-C , 77-H ) :   0.9391 B( 17-C , 78-H ) :   0.9379
B( 18-C , 79-H ) :   0.9628 B( 18-C , 80-H ) :   0.9649 B( 18-C , 81-H ) :   0.9648
B( 19-C , 20-C ) :   1.3329 B( 19-C , 82-H ) :   1.0004 B( 20-C , 21-C ) :   1.3932
B( 20-C , 23-C ) :   0.9402 B( 21-C , 22-C ) :   1.3704 B( 21-C , 83-H ) :   0.9859
B( 22-C , 84-H ) :   0.9928 B( 23-C , 24-C ) :   1.5821 B( 23-C , 40-C ) :   1.1483
B( 24-C , 25-C ) :   1.1277 B( 24-C , 85-H ) :   0.9912 B( 25-C , 26-C ) :   1.4972
B( 25-C , 38-C ) :   1.1263 B( 26-C , 27-C ) :   1.0461 B( 26-C , 32-C ) :   1.0805
B( 27-C , 28-C ) :   1.0478 B( 27-C , 30-C ) :   1.0342 B( 27-C , 86-H ) :   0.8749
B( 28-C , 29-N ) :   1.0894 B( 28-C , 87-H ) :   0.9411 B( 28-C , 88-H ) :   0.9378
B( 29-N , 89-H ) :   0.9576 B( 29-N , 90-H ) :   0.9686 B( 30-C , 31-N ) :   1.0880
B( 30-C , 91-H ) :   0.9387 B( 30-C , 92-H ) :   0.9339 B( 31-N , 93-H ) :   0.9714
B( 31-N , 94-H ) :   0.9685 B( 32-C , 33-C ) :   1.6234 B( 32-C , 37-C ) :   1.0510
B( 33-C , 34-C ) :   0.9666 B( 33-C , 95-H ) :   0.9723 B( 34-C , 35-C ) :   0.9881
B( 34-C , 41-C ) :   0.9521 B( 34-C , 96-H ) :   0.8800 B( 35-C , 36-C ) :   1.7046
B( 35-C , 97-H ) :   0.9740 B( 36-C , 37-C ) :   1.1353 B( 36-C , 98-H ) :   0.9882
B( 37-C , 38-C ) :   1.4266 B( 38-C , 39-C ) :   1.1408 B( 39-C , 40-C ) :   1.5965
B( 39-C , 99-H ) :   0.9926 B( 40-C ,100-H ) :   0.9831 B( 41-C , 42-C ) :   1.8153
B( 41-C ,101-H ) :   0.9542 B( 42-C , 43-C ) :   1.0426 B( 42-C ,102-H ) :   0.9805
B( 43-C , 44-C ) :   1.2983 B( 43-C , 48-C ) :   1.3602 B( 44-C , 45-C ) :   1.3725
B( 44-C ,103-H ) :   1.0131 B( 45-C , 46-C ) :   1.3770 B( 45-C , 51-C ) :   0.9168
B( 46-C , 47-C ) :   1.3348 B( 46-C , 49-C ) :   0.9889 B( 47-C , 48-C ) :   1.3937
B( 47-C ,104-H ) :   0.9915 B( 48-C ,105-H ) :   0.9846 B( 49-C , 50-C ) :   1.3717
B( 49-C , 59-C ) :   1.3482 B( 50-C , 51-C ) :   0.9148 B( 50-C , 56-C ) :   1.3869
B( 51-C , 52-C ) :   1.0385 B( 51-C , 54-C ) :   1.0351 B( 52-C , 53-C ) :   1.1020
B( 52-C ,106-H ) :   0.9387 B( 52-C ,107-H ) :   0.9390 B( 53-C ,108-H ) :   0.9641
B( 53-C ,109-H ) :   0.9640 B( 53-C ,110-H ) :   0.9639 B( 54-C , 55-C ) :   1.1022
B( 54-C ,111-H ) :   0.9399 B( 54-C ,112-H ) :   0.9395 B( 55-C ,113-H ) :   0.9643
B( 55-C ,114-H ) :   0.9639 B( 55-C ,115-H ) :   0.9643 B( 56-C , 57-C ) :   1.3294
B( 56-C ,116-H ) :   1.0042 B( 57-C , 58-C ) :   1.3867 B( 57-C , 60-C ) :   0.9486
B( 58-C , 59-C ) :   1.3710 B( 58-C ,117-H ) :   0.9874 B( 59-C ,118-H ) :   0.9933
B( 60-C , 61-C ) :   1.3672 B( 60-C , 65-C ) :   1.3657 B( 61-C , 62-N ) :   1.5604
B( 61-C ,119-H ) :   0.9861 B( 62-N , 63-C ) :   1.5102 B( 63-C , 64-N ) :   1.5090
B( 63-C ,120-H ) :   0.9756 B( 64-N , 65-C ) :   1.5612 B( 65-C ,121-H ) :   0.9871

-----------------------------------------------------------------------------
         ABSORPTION SPECTRUM VIA TRANSITION ELECTRIC DIPOLE MOMENTS
-----------------------------------------------------------------------------
State   Energy  Wavelength   fosc         T2         TX        TY        TZ
        (cm-1)    (nm)                  (au**2)     (au)      (au)      (au)
-----------------------------------------------------------------------------
   0   15143.0    660.4   0.056201210   1.22183   0.84827  -0.37630   0.60055
   1   26677.3    374.9   0.034255075   0.42273  -0.53793   0.34801   0.11067
   2   27252.0    366.9   0.013581156   0.16406  -0.07084  -0.39300  -0.06779
   3   28155.0    355.2   1.281971267  14.98991   1.57842   3.49438  -0.53649
   4   29555.9    338.3   0.374640502   4.17298  -0.81478  -1.86730   0.14930
   5   29686.6    336.9   0.491597283   5.45161   1.18917   1.80967  -0.87325
   6   32156.8    311.0   0.016535675   0.16929  -0.40989   0.02637   0.02411
   7   34074.1    293.5   0.270755471   2.61595  -0.52595  -1.14408  -1.01509
   8   35093.7    285.0   1.328418197  12.46181   0.81457   3.30026   0.95213
   9   35383.5    282.6   0.763450005   7.10322  -1.52687  -1.94018   1.00380
  10   36576.3    273.4   0.003757202   0.03382  -0.17341   0.05542   0.02601
  11   36589.2    273.3   0.015816074   0.14231   0.34235   0.11680  -0.10706
  12   37017.4    270.1   0.088743503   0.78923  -0.50735  -0.61822   0.38683
  13   37545.9    266.3   0.063125795   0.55350   0.17023   0.70261  -0.17567
  14   37791.0    264.6   0.011160711   0.09723   0.07872   0.06887   0.29375
  15   38209.9    261.7   0.023407240   0.20167  -0.36520   0.25056   0.07433
  16   39326.3    254.3   0.018735932   0.15684   0.15645   0.31212  -0.18695
  17   39544.6    252.9   0.128050301   1.06603   0.37918   0.87874  -0.38739
  18   40041.0    249.7   0.023908454   0.19657   0.01669  -0.42597   0.12184
  19   40206.8    248.7   0.060320869   0.49391   0.32620   0.54707  -0.29702

FINAL SINGLE POINT ENERGY     -2645.200031450727

DIPOLE MOMENT
-------------
                                X             Y             Z
Electronic contribution:    -10.85557      -4.33446       9.29513
Nuclear contribution   :     10.53495       3.43218     -10.13994
                        -----------------------------------------
Total Dipole Moment    :     -0.32062      -0.90228      -0.84481
                        -----------------------------------------
Magnitude (a.u.)       :      1.27696
Magnitude (Debye)      :      3.24576

Rotational constants in cm-1:     0.003126     0.000227     0.000220
Rotational constants in MHz :    93.702292     6.802356     6.605170

                             ****ORCA TERMINATED NORMALLY****
TOTAL RUN TIME: 0 days 0 hours 10 minutes 57 seconds 455 msec
