                         Program Version 4.2.0 -  RELEASE  -
|  1> # ORCA input file
|  2> # SCF done       -149.411709151982          0.000876451323
|  3> ! CAM-B3LYP def2-SVP def2/J RIJCOSX Grid4 TightSCF
|  4> %maxcore 5000
|  5> %tddft
|  6>     Mode sTDDFT
|  7>     Ethresh 5.0
|  8>     maxcore 5000
|  9> end
| 10>
| 11> %pal
| 12>   nprocs 6
| 13>   end
| 14> * xyz 0 1
| 15>    C       -0.80848        -1.30456        -1.89054
| 16>    C       -0.43294        -0.94317        -0.60208
| 17>    N       -0.14437         0.30026        -0.27215
| 18>    C       -0.22951         1.21376        -1.23972
| 19>    N       -0.57888         0.97197        -2.50481
| 20>    C       -0.86370        -0.27546        -2.82177
| 21>    C        0.07281         2.58005        -0.90861
| 22>    C        0.45575         3.09992         0.30847
| 23>    C        0.65340         4.48048         0.23382
| 24>    C        0.40900         4.98967        -1.05707
| 25>    S       -0.05476         3.78018        -2.16820
| 26>    C        0.62210         6.38935        -1.03357
| 27>    C        1.00541         6.77043         0.26757
| 28>    C        1.00882         5.58175         1.11264
| 29>    C        1.23250         5.52620         2.45576
| 30>    C        1.44319         6.67661         3.24843
| 31>    N        1.56535         7.59414         3.92389
| 32>    C        1.21178         4.30843         3.17016
| 33>    N        1.20220         3.32670         3.76193
| 34>    C        1.26762         8.13045         0.38494
| 35>    C        1.06204         8.79572        -0.81818
| 36>    S        0.54968         7.71231        -2.10720
| 37>    C        1.20954        10.17585        -1.05240
| 38>    C        1.75376        11.13191        -0.18298
| 39>    C        1.72771        12.46563        -0.72364
| 40>    N        2.23492        13.49559        -0.04133
| 41>    C        2.76497        13.23335         1.13212
| 42>    C        3.36126        14.37467         1.87502
| 43>    O        3.51149        15.46945         1.37986
| 44>    C        3.77543        14.06306         3.25556
| 45>    C        3.80444        12.82378         3.75527
| 46>    C        3.42546        11.62535         2.98368
| 47>    O        3.63074        10.50074         3.38265
| 48>    C        2.79386        11.90732         1.66797
| 49>    N        2.28889        10.88470         1.01498
| 50>    C        1.16596        12.52747        -2.00629
| 51>    S        0.70446        10.93743        -2.52736
| 52>    C        0.97884        13.67548        -2.79956
| 53>    C        1.15409        14.99617        -2.40399
| 54>    C        0.86896        15.88135        -3.43738
| 55>    C        0.49699        15.23628        -4.63282
| 56>    S        0.46218        13.53767        -4.47595
| 57>    C        0.27041        16.21934        -5.62641
| 58>    C        0.49271        17.48709        -5.06414
| 59>    C        0.84699        17.32153        -3.66443
| 60>    C        1.05049        18.30789        -2.74640
| 61>    C        1.00001        19.67322        -3.10172
| 62>    N        0.96020        20.78050        -3.39684
| 63>    C        1.26381        18.05159        -1.37357
| 64>    N        1.39422        17.88453        -0.24768
| 65>    C        0.28999        18.52528        -5.97855
| 66>    C       -0.07544        18.06082        -7.22293
| 67>    S       -0.17874        16.30374        -7.26919
| 68>    C       -0.35669        18.82525        -8.40785
| 69>    C       -0.58884        18.22078        -9.65158
| 70>    N       -0.84464        18.90963       -10.74404
| 71>    C       -0.87105        20.22635       -10.62929
| 72>    N       -0.67257        20.91149        -9.51676
| 73>    C       -0.42307        20.22761        -8.41956
| 74>    H       -1.04297        -2.32264        -2.15162
| 75>    H       -0.35949        -1.66981         0.19698
| 76>    H       -1.14398        -0.44798        -3.85319
| 77>    H        0.57691         2.48529         1.18127
| 78>    H        1.59520         8.64549         1.27031
| 79>    H        4.09700        14.91485         3.83949
| 80>    H        4.15081        12.62887         4.76123
| 81>    H        1.47983        15.25391        -1.41209
| 82>    H        0.41279        19.56743        -5.74833
| 83>    H       -0.56285        17.14253        -9.76087
| 84>    H       -1.07583        20.79404       -11.52664
| 85>    H       -0.27639        20.81249        -7.52155
| 86> *
| 87>
| 88>                          ****END OF INPUT****

CARTESIAN COORDINATES (ANGSTROEM)
---------------------------------
  C     -0.808480   -1.304560   -1.890540
  C     -0.432940   -0.943170   -0.602080
  N     -0.144370    0.300260   -0.272150
  C     -0.229510    1.213760   -1.239720
  N     -0.578880    0.971970   -2.504810
  C     -0.863700   -0.275460   -2.821770
  C      0.072810    2.580050   -0.908610
  C      0.455750    3.099920    0.308470
  C      0.653400    4.480480    0.233820
  C      0.409000    4.989670   -1.057070
  S     -0.054760    3.780180   -2.168200
  C      0.622100    6.389350   -1.033570
  C      1.005410    6.770430    0.267570
  C      1.008820    5.581750    1.112640
  C      1.232500    5.526200    2.455760
  C      1.443190    6.676610    3.248430
  N      1.565350    7.594140    3.923890
  C      1.211780    4.308430    3.170160
  N      1.202200    3.326700    3.761930
  C      1.267620    8.130450    0.384940
  C      1.062040    8.795720   -0.818180
  S      0.549680    7.712310   -2.107200
  C      1.209540   10.175850   -1.052400
  C      1.753760   11.131910   -0.182980
  C      1.727710   12.465630   -0.723640
  N      2.234920   13.495590   -0.041330
  C      2.764970   13.233350    1.132120
  C      3.361260   14.374670    1.875020
  O      3.511490   15.469450    1.379860
  C      3.775430   14.063060    3.255560
  C      3.804440   12.823780    3.755270
  C      3.425460   11.625350    2.983680
  O      3.630740   10.500740    3.382650
  C      2.793860   11.907320    1.667970
  N      2.288890   10.884700    1.014980
  C      1.165960   12.527470   -2.006290
  S      0.704460   10.937430   -2.527360
  C      0.978840   13.675480   -2.799560
  C      1.154090   14.996170   -2.403990
  C      0.868960   15.881350   -3.437380
  C      0.496990   15.236280   -4.632820
  S      0.462180   13.537670   -4.475950
  C      0.270410   16.219340   -5.626410
  C      0.492710   17.487090   -5.064140
  C      0.846990   17.321530   -3.664430
  C      1.050490   18.307890   -2.746400
  C      1.000010   19.673220   -3.101720
  N      0.960200   20.780500   -3.396840
  C      1.263810   18.051590   -1.373570
  N      1.394220   17.884530   -0.247680
  C      0.289990   18.525280   -5.978550
  C     -0.075440   18.060820   -7.222930
  S     -0.178740   16.303740   -7.269190
  C     -0.356690   18.825250   -8.407850
  C     -0.588840   18.220780   -9.651580
  N     -0.844640   18.909630  -10.744040
  C     -0.871050   20.226350  -10.629290
  N     -0.672570   20.911490   -9.516760
  C     -0.423070   20.227610   -8.419560
  H     -1.042970   -2.322640   -2.151620
  H     -0.359490   -1.669810    0.196980
  H     -1.143980   -0.447980   -3.853190
  H      0.576910    2.485290    1.181270
  H      1.595200    8.645490    1.270310
  H      4.097000   14.914850    3.839490
  H      4.150810   12.628870    4.761230
  H      1.479830   15.253910   -1.412090
  H      0.412790   19.567430   -5.748330
  H     -0.562850   17.142530   -9.760870
  H     -1.075830   20.794040  -11.526640
  H     -0.276390   20.812490   -7.521550

 Total Charge           Charge          ....    0
 Multiplicity           Mult            ....    1
 Number of Electrons    NEL             ....  430
 Basis Dimension        Dim             ....  906

ORBITAL ENERGIES
----------------

  NO   OCC          E(Eh)            E(eV)
   0   2.0000     -89.002693     -2421.8864
   1   2.0000     -88.994919     -2421.6749
   2   2.0000     -88.993383     -2421.6331
   3   2.0000     -88.992165     -2421.5999
   4   2.0000     -88.983897     -2421.3749
   5   2.0000     -19.224456      -523.1241
   6   2.0000     -19.223960      -523.1105
   7   2.0000     -14.449800      -393.1990
   8   2.0000     -14.449654      -393.1951
   9   2.0000     -14.431496      -392.7010
  10   2.0000     -14.425964      -392.5504
  11   2.0000     -14.424391      -392.5076
  12   2.0000     -14.421542      -392.4301
  13   2.0000     -14.421443      -392.4274
  14   2.0000     -14.419206      -392.3665
  15   2.0000     -14.417019      -392.3070
  16   2.0000     -14.416121      -392.2826
  17   2.0000     -10.373344      -282.2730
  18   2.0000     -10.372866      -282.2600
  19   2.0000     -10.366216      -282.0791
  20   2.0000     -10.360116      -281.9131
  21   2.0000     -10.357806      -281.8502
  22   2.0000     -10.351978      -281.6916
  23   2.0000     -10.346407      -281.5400
  24   2.0000     -10.341463      -281.4055
  25   2.0000     -10.340863      -281.3892
  26   2.0000     -10.339664      -281.3566
  27   2.0000     -10.338801      -281.3331
  28   2.0000     -10.337004      -281.2842
  29   2.0000     -10.336433      -281.2686
  30   2.0000     -10.336114      -281.2600
  31   2.0000     -10.336016      -281.2573
  32   2.0000     -10.335424      -281.2412
  33   2.0000     -10.333457      -281.1877
  34   2.0000     -10.332560      -281.1632
  35   2.0000     -10.331728      -281.1406
  36   2.0000     -10.331581      -281.1366
  37   2.0000     -10.331124      -281.1242
  38   2.0000     -10.330377      -281.1038
  39   2.0000     -10.330237      -281.1000
  40   2.0000     -10.329359      -281.0761
  41   2.0000     -10.328554      -281.0543
  42   2.0000     -10.328292      -281.0471
  43   2.0000     -10.324777      -280.9515
  44   2.0000     -10.324294      -280.9383
  45   2.0000     -10.320608      -280.8380
  46   2.0000     -10.311080      -280.5788
  47   2.0000     -10.310056      -280.5509
  48   2.0000     -10.306142      -280.4444
  49   2.0000     -10.305928      -280.4386
  50   2.0000     -10.305645      -280.4308
  51   2.0000     -10.305429      -280.4250
  52   2.0000     -10.304670      -280.4043
  53   2.0000     -10.302692      -280.3505
  54   2.0000     -10.300039      -280.2783
  55   2.0000     -10.298506      -280.2366
  56   2.0000     -10.298316      -280.2314
  57   2.0000     -10.296198      -280.1738
  58   2.0000     -10.292628      -280.0766
  59   2.0000      -8.097442      -220.3426
  60   2.0000      -8.089721      -220.1325
  61   2.0000      -8.087884      -220.0825
  62   2.0000      -8.087030      -220.0593
  63   2.0000      -8.078018      -219.8140
  64   2.0000      -6.066504      -165.0780
  65   2.0000      -6.062417      -164.9668
  66   2.0000      -6.060118      -164.9042
  67   2.0000      -6.058996      -164.8737
  68   2.0000      -6.057148      -164.8234
  69   2.0000      -6.056301      -164.8003
  70   2.0000      -6.054887      -164.7618
  71   2.0000      -6.052940      -164.7089
  72   2.0000      -6.052186      -164.6884
  73   2.0000      -6.051966      -164.6824
  74   2.0000      -6.050286      -164.6366
  75   2.0000      -6.049279      -164.6092
  76   2.0000      -6.047234      -164.5536
  77   2.0000      -6.042909      -164.4359
  78   2.0000      -6.040626      -164.3738
  79   2.0000      -1.142094       -31.0780
  80   2.0000      -1.137295       -30.9474
  81   2.0000      -1.101210       -29.9654
  82   2.0000      -1.094775       -29.7903
  83   2.0000      -1.088571       -29.6215
  84   2.0000      -1.047076       -28.4924
  85   2.0000      -1.041452       -28.3394
  86   2.0000      -1.028323       -27.9821
  87   2.0000      -1.021972       -27.8093
  88   2.0000      -1.017392       -27.6847
  89   2.0000      -1.013575       -27.5808
  90   2.0000      -1.005482       -27.3605
  91   2.0000      -1.000096       -27.2140
  92   2.0000      -0.998894       -27.1813
  93   2.0000      -0.989501       -26.9257
  94   2.0000      -0.987495       -26.8711
  95   2.0000      -0.983993       -26.7758
  96   2.0000      -0.961442       -26.1622
  97   2.0000      -0.953709       -25.9517
  98   2.0000      -0.937378       -25.5073
  99   2.0000      -0.925057       -25.1721
 100   2.0000      -0.915504       -24.9121
 101   2.0000      -0.898867       -24.4594
 102   2.0000      -0.890071       -24.2201
 103   2.0000      -0.878354       -23.9012
 104   2.0000      -0.875987       -23.8368
 105   2.0000      -0.866960       -23.5912
 106   2.0000      -0.857813       -23.3423
 107   2.0000      -0.855152       -23.2699
 108   2.0000      -0.850967       -23.1560
 109   2.0000      -0.816261       -22.2116
 110   2.0000      -0.803260       -21.8578
 111   2.0000      -0.792943       -21.5771
 112   2.0000      -0.789859       -21.4932
 113   2.0000      -0.780918       -21.2499
 114   2.0000      -0.776200       -21.1215
 115   2.0000      -0.767847       -20.8942
 116   2.0000      -0.753390       -20.5008
 117   2.0000      -0.751317       -20.4444
 118   2.0000      -0.750762       -20.4293
 119   2.0000      -0.733413       -19.9572
 120   2.0000      -0.718630       -19.5549
 121   2.0000      -0.699731       -19.0406
 122   2.0000      -0.694307       -18.8930
 123   2.0000      -0.687076       -18.6963
 124   2.0000      -0.683970       -18.6118
 125   2.0000      -0.678050       -18.4507
 126   2.0000      -0.675371       -18.3778
 127   2.0000      -0.667434       -18.1618
 128   2.0000      -0.655829       -17.8460
 129   2.0000      -0.654481       -17.8093
 130   2.0000      -0.635480       -17.2923
 131   2.0000      -0.629542       -17.1307
 132   2.0000      -0.627407       -17.0726
 133   2.0000      -0.621942       -16.9239
 134   2.0000      -0.621187       -16.9033
 135   2.0000      -0.613469       -16.6933
 136   2.0000      -0.612120       -16.6566
 137   2.0000      -0.606029       -16.4909
 138   2.0000      -0.604047       -16.4370
 139   2.0000      -0.597276       -16.2527
 140   2.0000      -0.595904       -16.2154
 141   2.0000      -0.572856       -15.5882
 142   2.0000      -0.568792       -15.4776
 143   2.0000      -0.561333       -15.2746
 144   2.0000      -0.560359       -15.2481
 145   2.0000      -0.558241       -15.1905
 146   2.0000      -0.555130       -15.1059
 147   2.0000      -0.549380       -14.9494
 148   2.0000      -0.545997       -14.8573
 149   2.0000      -0.534173       -14.5356
 150   2.0000      -0.532989       -14.5034
 151   2.0000      -0.528608       -14.3842
 152   2.0000      -0.525761       -14.3067
 153   2.0000      -0.525363       -14.2959
 154   2.0000      -0.520905       -14.1745
 155   2.0000      -0.518647       -14.1131
 156   2.0000      -0.513564       -13.9748
 157   2.0000      -0.510346       -13.8872
 158   2.0000      -0.506305       -13.7773
 159   2.0000      -0.504632       -13.7317
 160   2.0000      -0.502788       -13.6816
 161   2.0000      -0.501725       -13.6526
 162   2.0000      -0.498863       -13.5748
 163   2.0000      -0.496174       -13.5016
 164   2.0000      -0.494996       -13.4695
 165   2.0000      -0.494515       -13.4564
 166   2.0000      -0.490698       -13.3526
 167   2.0000      -0.489732       -13.3263
 168   2.0000      -0.486922       -13.2498
 169   2.0000      -0.482561       -13.1311
 170   2.0000      -0.479196       -13.0396
 171   2.0000      -0.477645       -12.9974
 172   2.0000      -0.472740       -12.8639
 173   2.0000      -0.466786       -12.7019
 174   2.0000      -0.460881       -12.5412
 175   2.0000      -0.455410       -12.3923
 176   2.0000      -0.454890       -12.3782
 177   2.0000      -0.454136       -12.3577
 178   2.0000      -0.452588       -12.3155
 179   2.0000      -0.449339       -12.2271
 180   2.0000      -0.446054       -12.1378
 181   2.0000      -0.443983       -12.0814
 182   2.0000      -0.441846       -12.0232
 183   2.0000      -0.438341       -11.9279
 184   2.0000      -0.437259       -11.8984
 185   2.0000      -0.436193       -11.8694
 186   2.0000      -0.432789       -11.7768
 187   2.0000      -0.431637       -11.7454
 188   2.0000      -0.424317       -11.5463
 189   2.0000      -0.419393       -11.4123
 190   2.0000      -0.418887       -11.3985
 191   2.0000      -0.410628       -11.1738
 192   2.0000      -0.407492       -11.0884
 193   2.0000      -0.401774       -10.9328
 194   2.0000      -0.398572       -10.8457
 195   2.0000      -0.395464       -10.7611
 196   2.0000      -0.390922       -10.6375
 197   2.0000      -0.388019       -10.5585
 198   2.0000      -0.378456       -10.2983
 199   2.0000      -0.370634       -10.0855
 200   2.0000      -0.370044       -10.0694
 201   2.0000      -0.362124        -9.8539
 202   2.0000      -0.355308        -9.6684
 203   2.0000      -0.350315        -9.5326
 204   2.0000      -0.348147        -9.4736
 205   2.0000      -0.344798        -9.3824
 206   2.0000      -0.343413        -9.3447
 207   2.0000      -0.335568        -9.1313
 208   2.0000      -0.333369        -9.0714
 209   2.0000      -0.327543        -8.9129
 210   2.0000      -0.324448        -8.8287
 211   2.0000      -0.317995        -8.6531
 212   2.0000      -0.309003        -8.4084
 213   2.0000      -0.277352        -7.5471
 214   2.0000      -0.236897        -6.4463
 215   0.0000      -0.115358        -3.1390
 216   0.0000      -0.101586        -2.7643
 217   0.0000      -0.089189        -2.4269
 218   0.0000      -0.083401        -2.2695
 219   0.0000      -0.040794        -1.1101

MULLIKEN ATOMIC CHARGES
-----------------------
   0 C :   -0.024432
   1 C :    0.073721
   2 N :   -0.052621
   3 C :   -0.087050
   4 N :   -0.086561
   5 C :    0.076580
   6 C :   -0.030413
   7 C :   -0.041300
   8 C :    0.004083
   9 C :   -0.094917
  10 S :    0.231621
  11 C :   -0.097065
  12 C :    0.027933
  13 C :    0.302176
  14 C :   -0.293581
  15 C :   -0.195839
  16 N :    0.193704
  17 C :   -0.194446
  18 N :    0.176612
  19 C :   -0.059833
  20 C :   -0.088584
  21 S :    0.174555
  22 C :   -0.116118
  23 C :    0.023052
  24 C :    0.028942
  25 N :    0.064646
  26 C :   -0.116286
  27 C :    0.139886
  28 O :   -0.096373
  29 C :   -0.016257
  30 C :   -0.011573
  31 C :    0.137184
  32 O :   -0.095615
  33 C :   -0.116438
  34 N :    0.065945
  35 C :   -0.122572
  36 S :    0.196730
  37 C :   -0.088756
  38 C :   -0.057362
  39 C :    0.026485
  40 C :   -0.097307
  41 S :    0.175316
  42 C :   -0.092543
  43 C :    0.012901
  44 C :    0.302130
  45 C :   -0.289905
  46 C :   -0.187964
  47 N :    0.167772
  48 C :   -0.193621
  49 N :    0.198340
  50 C :   -0.045105
  51 C :   -0.051078
  52 S :    0.170983
  53 C :    0.027767
  54 C :   -0.004584
  55 N :   -0.083004
  56 C :    0.065362
  57 N :   -0.083181
  58 C :    0.020020
  59 H :    0.010430
  60 H :    0.018601
  61 H :    0.014502
  62 H :    0.019685
  63 H :    0.029459
  64 H :    0.021706
  65 H :    0.022060
  66 H :    0.029229
  67 H :    0.009250
  68 H :    0.014296
  69 H :    0.022512
  70 H :    0.016108
Sum of atomic charges:   -0.0000000

LOEWDIN ATOMIC CHARGES
----------------------
   0 C :   -0.074090
   1 C :    0.056819
   2 N :   -0.082443
   3 C :    0.011071
   4 N :   -0.104159
   5 C :    0.054437
   6 C :   -0.188044
   7 C :   -0.001845
   8 C :   -0.071892
   9 C :   -0.179311
  10 S :    0.509258
  11 C :   -0.177818
  12 C :   -0.063893
  13 C :    0.076605
  14 C :   -0.094485
  15 C :   -0.023533
  16 N :   -0.016968
  17 C :   -0.016986
  18 N :   -0.029557
  19 C :   -0.006899
  20 C :   -0.185908
  21 S :    0.459159
  22 C :   -0.189535
  23 C :   -0.044618
  24 C :   -0.043334
  25 N :    0.007064
  26 C :   -0.037608
  27 C :    0.055086
  28 O :   -0.091320
  29 C :   -0.012957
  30 C :   -0.011769
  31 C :    0.054932
  32 O :   -0.090290
  33 C :   -0.039155
  34 N :    0.008989
  35 C :   -0.194817
  36 S :    0.486593
  37 C :   -0.182922
  38 C :   -0.008571
  39 C :   -0.064113
  40 C :   -0.181907
  41 S :    0.459534
  42 C :   -0.177560
  43 C :   -0.068306
  44 C :    0.077379
  45 C :   -0.092399
  46 C :   -0.014181
  47 N :   -0.032535
  48 C :   -0.024325
  49 N :   -0.011935
  50 C :   -0.025295
  51 C :   -0.162646
  52 S :    0.474528
  53 C :   -0.081866
  54 C :    0.033487
  55 N :   -0.076092
  56 C :    0.044387
  57 N :   -0.074504
  58 C :    0.053427
  59 H :    0.036688
  60 H :    0.029617
  61 H :    0.028132
  62 H :    0.046450
  63 H :    0.044680
  64 H :    0.046567
  65 H :    0.046624
  66 H :    0.044658
  67 H :    0.040307
  68 H :    0.017313
  69 H :    0.020374
  70 H :    0.028229

  Mayer bond orders larger than 0.100000
B(  0-C ,  1-C ) :   1.3696 B(  0-C ,  5-C ) :   1.3800 B(  0-C , 59-H ) :   0.9744
B(  1-C ,  2-N ) :   1.5442 B(  1-C , 60-H ) :   0.9832 B(  2-N ,  3-C ) :   1.6033
B(  3-C ,  4-N ) :   1.5939 B(  3-C ,  6-C ) :   1.0164 B(  4-N ,  5-C ) :   1.5432
B(  5-C , 61-H ) :   0.9821 B(  6-C ,  7-C ) :   1.4895 B(  6-C , 10-S ) :   1.1098
B(  7-C ,  8-C ) :   1.2582 B(  7-C , 62-H ) :   1.0067 B(  8-C ,  9-C ) :   1.4263
B(  8-C , 13-C ) :   1.0018 B(  9-C , 10-S ) :   1.1250 B(  9-C , 11-C ) :   1.2011
B( 11-C , 12-C ) :   1.4301 B( 11-C , 21-S ) :   1.1239 B( 12-C , 13-C ) :   0.9870
B( 12-C , 19-C ) :   1.2733 B( 13-C , 14-C ) :   1.7172 B( 14-C , 15-C ) :   1.1318
B( 14-C , 17-C ) :   1.1343 B( 15-C , 16-N ) :   3.0024 B( 17-C , 18-N ) :   2.9997
B( 19-C , 20-C ) :   1.4548 B( 19-C , 63-H ) :   0.9883 B( 20-C , 21-S ) :   1.0799
B( 20-C , 22-C ) :   1.1853 B( 22-C , 23-C ) :   1.3688 B( 22-C , 35-C ) :   0.1537
B( 22-C , 36-S ) :   1.1541 B( 23-C , 24-C ) :   1.1852 B( 23-C , 34-N ) :   1.4407
B( 24-C , 25-N ) :   1.4381 B( 24-C , 35-C ) :   1.3739 B( 25-N , 26-C ) :   1.7191
B( 26-C , 27-C ) :   0.8893 B( 26-C , 33-C ) :   1.0873 B( 27-C , 28-O ) :   2.2427
B( 27-C , 29-C ) :   1.0232 B( 29-C , 30-C ) :   1.6949 B( 29-C , 64-H ) :   0.9942
B( 30-C , 31-C ) :   1.0228 B( 30-C , 65-H ) :   0.9932 B( 31-C , 32-O ) :   2.2438
B( 31-C , 33-C ) :   0.8910 B( 33-C , 34-N ) :   1.7176 B( 35-C , 36-S ) :   1.1489
B( 35-C , 37-C ) :   1.1831 B( 37-C , 38-C ) :   1.4587 B( 37-C , 41-S ) :   1.0829
B( 38-C , 39-C ) :   1.2711 B( 38-C , 66-H ) :   0.9879 B( 39-C , 40-C ) :   1.4313
B( 39-C , 44-C ) :   0.9846 B( 40-C , 41-S ) :   1.1190 B( 40-C , 42-C ) :   1.1945
B( 42-C , 43-C ) :   1.4459 B( 42-C , 52-S ) :   1.1226 B( 43-C , 44-C ) :   1.0012
B( 43-C , 50-C ) :   1.2746 B( 44-C , 45-C ) :   1.7173 B( 45-C , 46-C ) :   1.1345
B( 45-C , 48-C ) :   1.1307 B( 46-C , 47-N ) :   2.9873 B( 48-C , 49-N ) :   3.0036
B( 50-C , 51-C ) :   1.5055 B( 50-C , 67-H ) :   0.9894 B( 51-C , 52-S ) :   1.1005
B( 51-C , 53-C ) :   1.0648 B( 53-C , 54-C ) :   1.3266 B( 53-C , 58-C ) :   1.3368
B( 54-C , 55-N ) :   1.5856 B( 54-C , 68-H ) :   0.9827 B( 55-N , 56-C ) :   1.5016
B( 56-C , 57-N ) :   1.5007 B( 56-C , 69-H ) :   0.9758 B( 57-N , 58-C ) :   1.5812
B( 58-C , 70-H ) :   0.9875

-----------------------------------------------------------------------------
         ABSORPTION SPECTRUM VIA TRANSITION ELECTRIC DIPOLE MOMENTS
-----------------------------------------------------------------------------
State   Energy  Wavelength   fosc         T2         TX        TY        TZ
        (cm-1)    (nm)                  (au**2)     (au)      (au)      (au)
-----------------------------------------------------------------------------
   0   10706.8    934.0   0.590578675  18.15901   0.11890  -3.87971   1.75861
   1   12710.7    786.7   0.092741975   2.40204   0.40277   1.45480   0.35126
   2   14627.0    683.7   0.131264374   2.95439  -0.08552   1.53842  -0.76181
   3   18110.1    552.2   0.137019131   2.49078  -0.77019  -0.54867  -1.26355
   4   20456.2    488.8   0.042747662   0.68796   0.35379   0.44333   0.60519
   5   22878.0    437.1   0.101644350   1.46265   0.14998  -0.99656   0.66861
   6   24786.1    403.5   0.003019084   0.04010   0.17223  -0.01231  -0.10141
   7   25848.6    386.9   0.162450429   2.06899   0.56192   1.11530   0.71369
   8   25971.7    385.0   0.002218964   0.02813  -0.05997   0.04830  -0.14899
   9   26682.4    374.8   1.345441821  16.60028   0.10668  -3.70519   1.69129
  10   26743.3    373.9   0.004238385   0.05217  -0.10075   0.19787   0.05361
  11   28924.9    345.7   0.069969374   0.79636   0.04726   0.89107  -0.01105
  12   29238.1    342.0   0.021563503   0.24280  -0.04616   0.25660  -0.41812
  13   29649.0    337.3   0.262778321   2.91780  -0.37501   0.02190  -1.66634
  14   29947.5    333.9   0.353033109   3.88088  -0.65221  -0.89515  -1.62917
  15   30275.9    330.3   0.107364500   1.16745  -0.03842  -0.90038  -0.59606
  16   30742.8    325.3   0.000140353   0.00150  -0.00331   0.00961   0.03741
  17   31628.1    316.2   0.030204527   0.31439  -0.05705  -0.47489  -0.29261
  18   31673.9    315.7   0.014515999   0.15088  -0.10146  -0.19110  -0.32259
  19   32056.7    311.9   0.011154044   0.11455   0.06263  -0.32146   0.08538
  20   32126.7    311.3   0.000132508   0.00136  -0.01502  -0.02758  -0.01927
  21   32635.6    306.4   0.548278000   5.53077  -0.54429  -1.83090  -1.37198
  22   32774.4    305.1   0.303916496   3.05278  -0.42894   0.18456  -1.68366
  23   33212.9    301.1   0.466690464   4.62592   0.59415   0.15348   2.06139
  24   33738.5    296.4   0.022626269   0.22078  -0.29816  -0.02042   0.36258
  25   33817.8    295.7   0.002370794   0.02308  -0.00284  -0.11569   0.09842
  26   34131.9    293.0   0.049720333   0.47957  -0.16241  -0.63642  -0.21945
  27   34191.1    292.5   0.151405994   1.45782   0.19585   0.06397   1.18969
  28   34515.1    289.7   0.001569964   0.01497   0.08646   0.06660   0.05535
  29   35133.6    284.6   0.018041226   0.16905  -0.05532  -0.30392   0.27134
  30   35470.0    281.9   0.242285153   2.24875   0.04831  -1.38911   0.56283
  31   36192.7    276.3   0.052685080   0.47923   0.27905   0.37003   0.51423
  32   36291.3    275.5   0.000687837   0.00624  -0.01785  -0.05018  -0.05833
  33   36314.5    275.4   0.026263857   0.23810  -0.16196  -0.46029   0.00040
  34   36718.5    272.3   0.009602524   0.08609  -0.05207   0.07710  -0.27828
  35   36969.8    270.5   0.062273979   0.55454   0.27104   0.07216   0.68983
  36   37194.0    268.9   0.019887196   0.17603   0.25177   0.23693   0.23770
  37   37578.6    266.1   0.041015991   0.35933  -0.14620  -0.38202  -0.43819
  38   37608.0    265.9   0.011316031   0.09906   0.30909   0.03954   0.04422
  39   37773.3    264.7   0.078139346   0.68102  -0.01492   0.78992  -0.23838
  40   37844.1    264.2   0.076277624   0.66355   0.21782   0.72877   0.29153
  41   38001.2    263.1   0.018887762   0.16363  -0.12680  -0.24501  -0.29584
  42   38263.5    261.3   0.042852628   0.36870  -0.27630  -0.13697  -0.52306
  43   38455.9    260.0   0.007415315   0.06348  -0.23919   0.03894   0.06894
  44   38510.7    259.7   0.167723702   1.43380  -0.46692  -0.13678  -1.09411
  45   38725.3    258.2   0.012207502   0.10378   0.06326   0.30368   0.08692
  46   38943.6    256.8   0.004653748   0.03934   0.11786  -0.01531  -0.15880
  47   39053.7    256.1   0.045470822   0.38331   0.12958  -0.09672   0.59763
  48   39104.8    255.7   0.013516295   0.11379  -0.01255   0.22839  -0.24793
  49   39313.9    254.4   0.030363745   0.25426   0.23215   0.30092   0.33139
  50   39469.9    253.4   0.005395229   0.04500   0.20195  -0.03668  -0.05358
  51   39694.9    251.9   0.058470544   0.48493   0.18311  -0.37229   0.55929
  52   40026.5    249.8   0.233315349   1.91899  -0.07456  -1.33501   0.36219
  53   40095.2    249.4   0.012102407   0.09937   0.06372   0.20519   0.23067
  54   40319.3    248.0   0.052018696   0.42474   0.34414   0.16556   0.52811

FINAL SINGLE POINT ENERGY     -4292.985080446092

DIPOLE MOMENT
-------------
                                X             Y             Z
Electronic contribution:      1.71782       3.00791       3.68580
Nuclear contribution   :     -2.52126      -5.80444      -6.07205
                        -----------------------------------------
Total Dipole Moment    :     -0.80344      -2.79653      -2.38625
                        -----------------------------------------
Magnitude (a.u.)       :      3.76302
Magnitude (Debye)      :      9.56484

Rotational constants in cm-1:     0.001960     0.000452     0.000370
Rotational constants in MHz :    58.766375    13.564160    11.078384

                             ****ORCA TERMINATED NORMALLY****
TOTAL RUN TIME: 0 days 0 hours 12 minutes 15 seconds 854 msec
