                         Program Version 4.2.0 -  RELEASE  -
|  1> # ORCA input file
|  2> # SCF done       -151.935420802291          0.000837885621
|  3> ! CAM-B3LYP def2-SVP def2/J RIJCOSX Grid4 TightSCF
|  4> %maxcore 5000
|  5> %tddft
|  6>     Mode sTDDFT
|  7>     Ethresh 5.0
|  8>     maxcore 5000
|  9> end
| 10>
| 11> %pal
| 12>   nprocs 6
| 13>   end
| 14> * xyz 0 1
| 15>    C       -0.21229        -0.16848         4.05103
| 16>    C       -0.85675        -0.06270         2.82430
| 17>    N       -0.82002         1.03800         2.09922
| 18>    C       -0.12874         2.06346         2.59791
| 19>    N        0.52539         2.06420         3.76069
| 20>    C        0.48139         0.95776         4.47582
| 21>    C       -0.08009         3.27941         1.83071
| 22>    C       -0.67105         3.53670         0.61173
| 23>    C       -0.41091         4.83991         0.18672
| 24>    C        0.38521         5.55964         1.10288
| 25>    S        0.80863         4.63528         2.47328
| 26>    C        0.58684         6.86831         0.59899
| 27>    C       -0.08544         6.97543        -0.63689
| 28>    C       -0.72748         5.70370        -0.93693
| 29>    C       -1.46480         5.39614        -2.04253
| 30>    C       -1.69933         6.33084        -3.07336
| 31>    N       -1.90076         7.08391        -3.91433
| 32>    C       -2.04084         4.12256        -2.23637
| 33>    N       -2.51298         3.09189        -2.40708
| 34>    C        0.04028         8.23130        -1.21137
| 35>    C        0.80687         9.08718        -0.42702
| 36>    S        1.38153         8.31413         1.04356
| 37>    C        1.12702        10.43932        -0.70657
| 38>    C        1.93857        11.19416         0.17082
| 39>    C        2.27431        12.57219        -0.08190
| 40>    N        3.04761        13.23196         0.78695
| 41>    C        3.49792        12.62567         1.85876
| 42>    C        3.16535        11.25478         2.10898
| 43>    N        2.40589        10.59311         1.26930
| 44>    C        3.65614        10.59655         3.26330
| 45>    N        4.06500        10.09027         4.20574
| 46>    C        4.31898        13.34145         2.76442
| 47>    N        4.98460        13.89454         3.51458
| 48>    C        1.81622        13.26657        -1.22365
| 49>    C        1.00675        12.51378        -2.10745
| 50>    C        0.67003        11.13009        -1.85468
| 51>    N       -0.10227        10.63341        -2.82154
| 52>    S       -0.37783        11.76313        -3.92348
| 53>    N        0.46121        12.94738        -3.24436
| 54>    C        2.16033        14.62504        -1.44106
| 55>    C        1.78671        15.41940        -2.51923
| 56>    C        2.29723        16.70549        -2.41701
| 57>    C        3.06602        16.89739        -1.25073
| 58>    S        3.16104        15.49041        -0.28447
| 59>    C        3.53385        18.23482        -1.24713
| 60>    C        3.06551        18.88573        -2.40236
| 61>    C        2.27383        17.94617        -3.17753
| 62>    C        1.64394        18.17563        -4.36543
| 63>    C        1.69864        19.42997        -5.00920
| 64>    N        1.74543        20.45266        -5.52571
| 65>    C        0.89863        17.17773        -5.02876
| 66>    N        0.29390        16.37257        -5.57699
| 67>    C        3.47978        20.21763        -2.47898
| 68>    C        4.25716        20.58281        -1.40052
| 69>    S        4.48271        19.25642        -0.26620
| 70>    C        4.86159        21.86159        -1.14128
| 71>    C        4.56474        23.01442        -1.88578
| 72>    N        5.13604        24.17556        -1.64327
| 73>    C        6.00618        24.22997        -0.64988
| 74>    N        6.35807        23.22106         0.12833
| 75>    C        5.79874        22.05454        -0.11603
| 76>    H       -0.24841        -1.07060         4.63800
| 77>    H       -1.42348        -0.88323         2.40307
| 78>    H        1.01879         0.98126         5.41526
| 79>    H       -1.25225         2.79946         0.08914
| 80>    H       -0.38757         8.54652        -2.14517
| 81>    H        1.17387        15.04300        -3.31741
| 82>    H        3.23485        20.88372        -3.28567
| 83>    H        3.84285        23.00176        -2.69133
| 84>    H        6.47031        25.18701        -0.45477
| 85>    H        6.10518        21.23316         0.52144
| 86> *
| 87>
| 88>                          ****END OF INPUT****

CARTESIAN COORDINATES (ANGSTROEM)
---------------------------------
  C     -0.212290   -0.168480    4.051030
  C     -0.856750   -0.062700    2.824300
  N     -0.820020    1.038000    2.099220
  C     -0.128740    2.063460    2.597910
  N      0.525390    2.064200    3.760690
  C      0.481390    0.957760    4.475820
  C     -0.080090    3.279410    1.830710
  C     -0.671050    3.536700    0.611730
  C     -0.410910    4.839910    0.186720
  C      0.385210    5.559640    1.102880
  S      0.808630    4.635280    2.473280
  C      0.586840    6.868310    0.598990
  C     -0.085440    6.975430   -0.636890
  C     -0.727480    5.703700   -0.936930
  C     -1.464800    5.396140   -2.042530
  C     -1.699330    6.330840   -3.073360
  N     -1.900760    7.083910   -3.914330
  C     -2.040840    4.122560   -2.236370
  N     -2.512980    3.091890   -2.407080
  C      0.040280    8.231300   -1.211370
  C      0.806870    9.087180   -0.427020
  S      1.381530    8.314130    1.043560
  C      1.127020   10.439320   -0.706570
  C      1.938570   11.194160    0.170820
  C      2.274310   12.572190   -0.081900
  N      3.047610   13.231960    0.786950
  C      3.497920   12.625670    1.858760
  C      3.165350   11.254780    2.108980
  N      2.405890   10.593110    1.269300
  C      3.656140   10.596550    3.263300
  N      4.065000   10.090270    4.205740
  C      4.318980   13.341450    2.764420
  N      4.984600   13.894540    3.514580
  C      1.816220   13.266570   -1.223650
  C      1.006750   12.513780   -2.107450
  C      0.670030   11.130090   -1.854680
  N     -0.102270   10.633410   -2.821540
  S     -0.377830   11.763130   -3.923480
  N      0.461210   12.947380   -3.244360
  C      2.160330   14.625040   -1.441060
  C      1.786710   15.419400   -2.519230
  C      2.297230   16.705490   -2.417010
  C      3.066020   16.897390   -1.250730
  S      3.161040   15.490410   -0.284470
  C      3.533850   18.234820   -1.247130
  C      3.065510   18.885730   -2.402360
  C      2.273830   17.946170   -3.177530
  C      1.643940   18.175630   -4.365430
  C      1.698640   19.429970   -5.009200
  N      1.745430   20.452660   -5.525710
  C      0.898630   17.177730   -5.028760
  N      0.293900   16.372570   -5.576990
  C      3.479780   20.217630   -2.478980
  C      4.257160   20.582810   -1.400520
  S      4.482710   19.256420   -0.266200
  C      4.861590   21.861590   -1.141280
  C      4.564740   23.014420   -1.885780
  N      5.136040   24.175560   -1.643270
  C      6.006180   24.229970   -0.649880
  N      6.358070   23.221060    0.128330
  C      5.798740   22.054540   -0.116030
  H     -0.248410   -1.070600    4.638000
  H     -1.423480   -0.883230    2.403070
  H      1.018790    0.981260    5.415260
  H     -1.252250    2.799460    0.089140
  H     -0.387570    8.546520   -2.145170
  H      1.173870   15.043000   -3.317410
  H      3.234850   20.883720   -3.285670
  H      3.842850   23.001760   -2.691330
  H      6.470310   25.187010   -0.454770
  H      6.105180   21.233160    0.521440

 Total Charge           Charge          ....    0
 Multiplicity           Mult            ....    1
 Number of Electrons    NEL             ....  440
 Basis Dimension        Dim             ....  924

ORBITAL ENERGIES
----------------

  NO   OCC          E(Eh)            E(eV)
   0   2.0000     -89.056194     -2423.3422
   1   2.0000     -88.995275     -2421.6845
   2   2.0000     -88.989249     -2421.5206
   3   2.0000     -88.987146     -2421.4634
   4   2.0000     -88.986712     -2421.4515
   5   2.0000     -14.481115      -394.0512
   6   2.0000     -14.480963      -394.0470
   7   2.0000     -14.464566      -393.6009
   8   2.0000     -14.464162      -393.5899
   9   2.0000     -14.443167      -393.0186
  10   2.0000     -14.442171      -392.9915
  11   2.0000     -14.433156      -392.7461
  12   2.0000     -14.432126      -392.7181
  13   2.0000     -14.428188      -392.6109
  14   2.0000     -14.426722      -392.5711
  15   2.0000     -14.423424      -392.4813
  16   2.0000     -14.421501      -392.4290
  17   2.0000     -14.418153      -392.3379
  18   2.0000     -14.417536      -392.3211
  19   2.0000     -10.398691      -282.9628
  20   2.0000     -10.397785      -282.9381
  21   2.0000     -10.367071      -282.1023
  22   2.0000     -10.361758      -281.9578
  23   2.0000     -10.361093      -281.9397
  24   2.0000     -10.360811      -281.9320
  25   2.0000     -10.359933      -281.9081
  26   2.0000     -10.356534      -281.8156
  27   2.0000     -10.356295      -281.8091
  28   2.0000     -10.354483      -281.7598
  29   2.0000     -10.349582      -281.6264
  30   2.0000     -10.338618      -281.3281
  31   2.0000     -10.336737      -281.2769
  32   2.0000     -10.336439      -281.2688
  33   2.0000     -10.335539      -281.2443
  34   2.0000     -10.333906      -281.1999
  35   2.0000     -10.333553      -281.1903
  36   2.0000     -10.333180      -281.1801
  37   2.0000     -10.332431      -281.1597
  38   2.0000     -10.332397      -281.1588
  39   2.0000     -10.332212      -281.1538
  40   2.0000     -10.331865      -281.1443
  41   2.0000     -10.331665      -281.1389
  42   2.0000     -10.331294      -281.1288
  43   2.0000     -10.330024      -281.0942
  44   2.0000     -10.329811      -281.0885
  45   2.0000     -10.328697      -281.0581
  46   2.0000     -10.328692      -281.0580
  47   2.0000     -10.328105      -281.0420
  48   2.0000     -10.327431      -281.0237
  49   2.0000     -10.326955      -281.0107
  50   2.0000     -10.314316      -280.6668
  51   2.0000     -10.312532      -280.6183
  52   2.0000     -10.308941      -280.5206
  53   2.0000     -10.306880      -280.4645
  54   2.0000     -10.303103      -280.3617
  55   2.0000     -10.302552      -280.3467
  56   2.0000     -10.301891      -280.3287
  57   2.0000     -10.301215      -280.3103
  58   2.0000     -10.300725      -280.2970
  59   2.0000     -10.299082      -280.2523
  60   2.0000     -10.294707      -280.1332
  61   2.0000      -8.147164      -221.6956
  62   2.0000      -8.089649      -220.1305
  63   2.0000      -8.081795      -219.9168
  64   2.0000      -8.080778      -219.8891
  65   2.0000      -8.079851      -219.8639
  66   2.0000      -6.118236      -166.4857
  67   2.0000      -6.110286      -166.2693
  68   2.0000      -6.110122      -166.2649
  69   2.0000      -6.058851      -164.8697
  70   2.0000      -6.054664      -164.7558
  71   2.0000      -6.052178      -164.6881
  72   2.0000      -6.051360      -164.6659
  73   2.0000      -6.049907      -164.6263
  74   2.0000      -6.049384      -164.6121
  75   2.0000      -6.046527      -164.5344
  76   2.0000      -6.045631      -164.5100
  77   2.0000      -6.044594      -164.4818
  78   2.0000      -6.044265      -164.4728
  79   2.0000      -6.043483      -164.4515
  80   2.0000      -6.042300      -164.4194
  81   2.0000      -1.154107       -31.4048
  82   2.0000      -1.139867       -31.0174
  83   2.0000      -1.096660       -29.8416
  84   2.0000      -1.090111       -29.6634
  85   2.0000      -1.068733       -29.0817
  86   2.0000      -1.046946       -28.4889
  87   2.0000      -1.041787       -28.3485
  88   2.0000      -1.027976       -27.9726
  89   2.0000      -1.024250       -27.8713
  90   2.0000      -1.019512       -27.7423
  91   2.0000      -1.017572       -27.6895
  92   2.0000      -1.010730       -27.5033
  93   2.0000      -1.009694       -27.4752
  94   2.0000      -1.005373       -27.3576
  95   2.0000      -1.004177       -27.3251
  96   2.0000      -0.994606       -27.0646
  97   2.0000      -0.990238       -26.9458
  98   2.0000      -0.985438       -26.8151
  99   2.0000      -0.984168       -26.7806
 100   2.0000      -0.961829       -26.1727
 101   2.0000      -0.955030       -25.9877
 102   2.0000      -0.927856       -25.2482
 103   2.0000      -0.923511       -25.1300
 104   2.0000      -0.918550       -24.9950
 105   2.0000      -0.906177       -24.6583
 106   2.0000      -0.892265       -24.2798
 107   2.0000      -0.883851       -24.0508
 108   2.0000      -0.868708       -23.6387
 109   2.0000      -0.863835       -23.5061
 110   2.0000      -0.857502       -23.3338
 111   2.0000      -0.853175       -23.2161
 112   2.0000      -0.848727       -23.0950
 113   2.0000      -0.822444       -22.3799
 114   2.0000      -0.819512       -22.3000
 115   2.0000      -0.795467       -21.6457
 116   2.0000      -0.786924       -21.4133
 117   2.0000      -0.780464       -21.2375
 118   2.0000      -0.771814       -21.0021
 119   2.0000      -0.753332       -20.4992
 120   2.0000      -0.752908       -20.4877
 121   2.0000      -0.749918       -20.4063
 122   2.0000      -0.748583       -20.3700
 123   2.0000      -0.728905       -19.8345
 124   2.0000      -0.719886       -19.5891
 125   2.0000      -0.707987       -19.2653
 126   2.0000      -0.702287       -19.1102
 127   2.0000      -0.697325       -18.9752
 128   2.0000      -0.694063       -18.8864
 129   2.0000      -0.685230       -18.6461
 130   2.0000      -0.677915       -18.4470
 131   2.0000      -0.668257       -18.1842
 132   2.0000      -0.662380       -18.0243
 133   2.0000      -0.652314       -17.7504
 134   2.0000      -0.639587       -17.4041
 135   2.0000      -0.637316       -17.3422
 136   2.0000      -0.635748       -17.2996
 137   2.0000      -0.628632       -17.1059
 138   2.0000      -0.626941       -17.0599
 139   2.0000      -0.618046       -16.8179
 140   2.0000      -0.615761       -16.7557
 141   2.0000      -0.614107       -16.7107
 142   2.0000      -0.609138       -16.5755
 143   2.0000      -0.603788       -16.4299
 144   2.0000      -0.596495       -16.2315
 145   2.0000      -0.592088       -16.1115
 146   2.0000      -0.575263       -15.6537
 147   2.0000      -0.570206       -15.5161
 148   2.0000      -0.565460       -15.3870
 149   2.0000      -0.558625       -15.2010
 150   2.0000      -0.550492       -14.9796
 151   2.0000      -0.548535       -14.9264
 152   2.0000      -0.547578       -14.9004
 153   2.0000      -0.541127       -14.7248
 154   2.0000      -0.534385       -14.5414
 155   2.0000      -0.531004       -14.4494
 156   2.0000      -0.527785       -14.3617
 157   2.0000      -0.526736       -14.3332
 158   2.0000      -0.514113       -13.9897
 159   2.0000      -0.513364       -13.9693
 160   2.0000      -0.513079       -13.9616
 161   2.0000      -0.507833       -13.8188
 162   2.0000      -0.506759       -13.7896
 163   2.0000      -0.504663       -13.7326
 164   2.0000      -0.501012       -13.6332
 165   2.0000      -0.497949       -13.5499
 166   2.0000      -0.496867       -13.5204
 167   2.0000      -0.496283       -13.5045
 168   2.0000      -0.494801       -13.4642
 169   2.0000      -0.492988       -13.4149
 170   2.0000      -0.488101       -13.2819
 171   2.0000      -0.483209       -13.1488
 172   2.0000      -0.481336       -13.0978
 173   2.0000      -0.477184       -12.9848
 174   2.0000      -0.473670       -12.8892
 175   2.0000      -0.471397       -12.8274
 176   2.0000      -0.469031       -12.7630
 177   2.0000      -0.465839       -12.6761
 178   2.0000      -0.463896       -12.6233
 179   2.0000      -0.461741       -12.5646
 180   2.0000      -0.459628       -12.5071
 181   2.0000      -0.459290       -12.4979
 182   2.0000      -0.456148       -12.4124
 183   2.0000      -0.454360       -12.3638
 184   2.0000      -0.453557       -12.3419
 185   2.0000      -0.449183       -12.2229
 186   2.0000      -0.445319       -12.1177
 187   2.0000      -0.442880       -12.0514
 188   2.0000      -0.441330       -12.0092
 189   2.0000      -0.439884       -11.9698
 190   2.0000      -0.437785       -11.9127
 191   2.0000      -0.436603       -11.8806
 192   2.0000      -0.435192       -11.8422
 193   2.0000      -0.430240       -11.7074
 194   2.0000      -0.429962       -11.6999
 195   2.0000      -0.425150       -11.5689
 196   2.0000      -0.419372       -11.4117
 197   2.0000      -0.416206       -11.3255
 198   2.0000      -0.410403       -11.1676
 199   2.0000      -0.403407       -10.9773
 200   2.0000      -0.399750       -10.8777
 201   2.0000      -0.398423       -10.8416
 202   2.0000      -0.395850       -10.7716
 203   2.0000      -0.392534       -10.6814
 204   2.0000      -0.389431       -10.5970
 205   2.0000      -0.388485       -10.5712
 206   2.0000      -0.379605       -10.3296
 207   2.0000      -0.366873        -9.9831
 208   2.0000      -0.363335        -9.8869
 209   2.0000      -0.362448        -9.8627
 210   2.0000      -0.350913        -9.5488
 211   2.0000      -0.349806        -9.5187
 212   2.0000      -0.345163        -9.3924
 213   2.0000      -0.335190        -9.1210
 214   2.0000      -0.328790        -8.9468
 215   2.0000      -0.325342        -8.8530
 216   2.0000      -0.320317        -8.7163
 217   2.0000      -0.313023        -8.5178
 218   2.0000      -0.281087        -7.6488
 219   2.0000      -0.243850        -6.6355
 220   0.0000      -0.140302        -3.8178
 221   0.0000      -0.105411        -2.8684
 222   0.0000      -0.099476        -2.7069
 223   0.0000      -0.066365        -1.8059
 224   0.0000      -0.053567        -1.4576

MULLIKEN ATOMIC CHARGES
-----------------------
   0 C :   -0.022828
   1 C :    0.076859
   2 N :   -0.057906
   3 C :   -0.083181
   4 N :   -0.086094
   5 C :    0.076275
   6 C :   -0.026879
   7 C :   -0.046750
   8 C :    0.012724
   9 C :   -0.103787
  10 S :    0.246207
  11 C :   -0.061720
  12 C :    0.036263
  13 C :    0.307003
  14 C :   -0.306029
  15 C :   -0.183846
  16 N :    0.167434
  17 C :   -0.196259
  18 N :    0.182790
  19 C :   -0.064432
  20 C :   -0.178078
  21 S :    0.204351
  22 C :    0.195256
  23 C :   -0.066014
  24 C :   -0.064144
  25 N :   -0.001438
  26 C :   -0.097118
  27 C :   -0.105945
  28 N :    0.002840
  29 C :   -0.242667
  30 N :    0.253612
  31 C :   -0.242722
  32 N :    0.249724
  33 C :    0.192273
  34 C :   -0.012057
  35 C :   -0.014193
  36 N :   -0.283017
  37 S :    0.587583
  38 N :   -0.284065
  39 C :   -0.177863
  40 C :   -0.064058
  41 C :    0.035907
  42 C :   -0.060449
  43 S :    0.204918
  44 C :   -0.102508
  45 C :    0.013734
  46 C :    0.307373
  47 C :   -0.301224
  48 C :   -0.188748
  49 N :    0.169788
  50 C :   -0.184520
  51 N :    0.174120
  52 C :   -0.042649
  53 C :   -0.052970
  54 S :    0.187045
  55 C :    0.024802
  56 C :    0.019133
  57 N :   -0.083499
  58 C :    0.067039
  59 N :   -0.082609
  60 C :    0.000597
  61 H :    0.012103
  62 H :    0.017581
  63 H :    0.016928
  64 H :    0.020054
  65 H :    0.021707
  66 H :    0.021026
  67 H :    0.009683
  68 H :    0.017620
  69 H :    0.023626
  70 H :    0.016288
Sum of atomic charges:   -0.0000000

LOEWDIN ATOMIC CHARGES
----------------------
   0 C :   -0.071563
   1 C :    0.057192
   2 N :   -0.082253
   3 C :    0.010737
   4 N :   -0.101678
   5 C :    0.055633
   6 C :   -0.183121
   7 C :   -0.003083
   8 C :   -0.067147
   9 C :   -0.179958
  10 S :    0.520428
  11 C :   -0.171898
  12 C :   -0.073985
  13 C :    0.080163
  14 C :   -0.103694
  15 C :   -0.015842
  16 N :   -0.036311
  17 C :   -0.019091
  18 N :   -0.030231
  19 C :   -0.004761
  20 C :   -0.170387
  21 S :    0.509253
  22 C :   -0.034746
  23 C :   -0.017014
  24 C :   -0.015769
  25 N :   -0.017033
  26 C :   -0.021756
  27 C :   -0.024125
  28 N :   -0.014452
  29 C :   -0.039936
  30 N :    0.001105
  31 C :   -0.039243
  32 N :    0.001033
  33 C :   -0.040276
  34 C :   -0.036427
  35 C :   -0.037517
  36 N :   -0.269378
  37 S :    0.706176
  38 N :   -0.271765
  39 C :   -0.168599
  40 C :   -0.007176
  41 C :   -0.075185
  42 C :   -0.176635
  43 S :    0.509542
  44 C :   -0.178609
  45 C :   -0.063957
  46 C :    0.081325
  47 C :   -0.102205
  48 C :   -0.016436
  49 N :   -0.033584
  50 C :   -0.016680
  51 N :   -0.031760
  52 C :   -0.026546
  53 C :   -0.158351
  54 S :    0.485280
  55 C :   -0.083302
  56 C :    0.054019
  57 N :   -0.074290
  58 C :    0.046525
  59 N :   -0.075168
  60 C :    0.036452
  61 H :    0.037365
  62 H :    0.029637
  63 H :    0.029188
  64 H :    0.046536
  65 H :    0.038321
  66 H :    0.038263
  67 H :    0.040556
  68 H :    0.028392
  69 H :    0.020926
  70 H :    0.018875

  Mayer bond orders larger than 0.100000
B(  0-C ,  1-C ) :   1.3710 B(  0-C ,  5-C ) :   1.3804 B(  0-C , 61-H ) :   0.9742
B(  1-C ,  2-N ) :   1.5427 B(  1-C , 62-H ) :   0.9830 B(  2-N ,  3-C ) :   1.6015
B(  3-C ,  4-N ) :   1.5930 B(  3-C ,  6-C ) :   1.0140 B(  4-N ,  5-C ) :   1.5430
B(  5-C , 63-H ) :   0.9818 B(  6-C ,  7-C ) :   1.4826 B(  6-C , 10-S ) :   1.1169
B(  7-C ,  8-C ) :   1.2634 B(  7-C , 64-H ) :   1.0072 B(  8-C ,  9-C ) :   1.4144
B(  8-C , 13-C ) :   0.9957 B(  9-C , 10-S ) :   1.1277 B(  9-C , 11-C ) :   1.2048
B( 11-C , 12-C ) :   1.4035 B( 11-C , 21-S ) :   1.0942 B( 12-C , 13-C ) :   0.9882
B( 12-C , 19-C ) :   1.2845 B( 13-C , 14-C ) :   1.7135 B( 14-C , 15-C ) :   1.1359
B( 14-C , 17-C ) :   1.1347 B( 15-C , 16-N ) :   2.9847 B( 17-C , 18-N ) :   3.0024
B( 19-C , 20-C ) :   1.4013 B( 19-C , 65-H ) :   0.9822 B( 20-C , 21-S ) :   1.0822
B( 20-C , 22-C ) :   1.2196 B( 22-C , 23-C ) :   1.2490 B( 22-C , 33-C ) :   0.1215
B( 22-C , 35-C ) :   1.1926 B( 23-C , 24-C ) :   1.1015 B( 23-C , 28-N ) :   1.4115
B( 24-C , 25-N ) :   1.4038 B( 24-C , 33-C ) :   1.2564 B( 25-N , 26-C ) :   1.6955
B( 26-C , 27-C ) :   1.2192 B( 26-C , 31-C ) :   1.1642 B( 27-C , 28-N ) :   1.6934
B( 27-C , 29-C ) :   1.1681 B( 29-C , 30-N ) :   3.0401 B( 31-C , 32-N ) :   3.0397
B( 33-C , 34-C ) :   1.1940 B( 33-C , 39-C ) :   1.2096 B( 34-C , 35-C ) :   1.0968
B( 34-C , 38-N ) :   1.5187 B( 35-C , 36-N ) :   1.5179 B( 36-N , 37-S ) :   1.2867
B( 36-N , 38-N ) :   0.1461 B( 37-S , 38-N ) :   1.2839 B( 39-C , 40-C ) :   1.4105
B( 39-C , 43-S ) :   1.0851 B( 40-C , 41-C ) :   1.2778 B( 40-C , 66-H ) :   0.9825
B( 41-C , 42-C ) :   1.4080 B( 41-C , 46-C ) :   0.9884 B( 42-C , 43-S ) :   1.0896
B( 42-C , 44-C ) :   1.1935 B( 44-C , 45-C ) :   1.4371 B( 44-C , 54-S ) :   1.1247
B( 45-C , 46-C ) :   0.9967 B( 45-C , 52-C ) :   1.2814 B( 46-C , 47-C ) :   1.7104
B( 47-C , 48-C ) :   1.1323 B( 47-C , 50-C ) :   1.1369 B( 48-C , 49-N ) :   2.9888
B( 50-C , 51-N ) :   2.9870 B( 52-C , 53-C ) :   1.4981 B( 52-C , 67-H ) :   0.9887
B( 53-C , 54-S ) :   1.1094 B( 53-C , 55-C ) :   1.0608 B( 55-C , 56-C ) :   1.3365
B( 55-C , 60-C ) :   1.3258 B( 56-C , 57-N ) :   1.5807 B( 56-C , 68-H ) :   0.9879
B( 57-N , 58-C ) :   1.5008 B( 58-C , 59-N ) :   1.5011 B( 58-C , 69-H ) :   0.9758
B( 59-N , 60-C ) :   1.5867 B( 60-C , 70-H ) :   0.9839

-----------------------------------------------------------------------------
         ABSORPTION SPECTRUM VIA TRANSITION ELECTRIC DIPOLE MOMENTS
-----------------------------------------------------------------------------
State   Energy  Wavelength   fosc         T2         TX        TY        TZ
        (cm-1)    (nm)                  (au**2)     (au)      (au)      (au)
-----------------------------------------------------------------------------
   0    7197.4   1389.4   0.499947562  22.86774   1.13664   4.56649  -0.85029
   1   13124.7    761.9   0.005265727   0.13208   0.11174   0.34539   0.01734
   2   14170.3    705.7   0.021445252   0.49823  -0.16524  -0.66397   0.17341
   3   16511.8    605.6   0.000127214   0.00254   0.04804   0.01426  -0.00505
   4   22258.3    449.3   0.042865348   0.63400  -0.47754  -0.20948  -0.60172
   5   22546.9    443.5   0.213614663   3.11903   0.38761   1.68334  -0.36761
   6   23398.7    427.4   0.043959194   0.61849   0.35447   0.66954   0.21108
   7   23543.5    424.7   0.349386862   4.88552   0.39845   2.08870  -0.60340
   8   24081.3    415.3   0.019455138   0.26597   0.27039   0.36601   0.24268
   9   24937.8    401.0   0.006545338   0.08641   0.16214   0.05148   0.23972
  10   25301.4    395.2   0.001553681   0.02022  -0.12488  -0.04614   0.04991
  11   25462.7    392.7   0.106484271   1.37676   0.27627   1.11845  -0.22247
  12   28480.1    351.1   0.756621264   8.74607   0.81426   2.82058  -0.35691
  13   28987.5    345.0   0.759517192   8.62587   0.44647   2.74519  -0.94365
  14   29703.3    336.7   0.012296958   0.13629  -0.19286  -0.26223  -0.17416
  15   30008.4    333.2   0.000048106   0.00053   0.01394   0.01631  -0.00822
  16   30193.4    331.2   0.223547749   2.43744  -0.55220  -1.45992   0.03362
  17   30496.4    327.9   0.040563679   0.43789   0.24700  -0.31905   0.52448
  18   30984.4    322.7   0.000511972   0.00544   0.03201   0.02267   0.06246
  19   31034.0    322.2   0.028606207   0.30346  -0.25460  -0.30703  -0.37996
  20   31721.3    315.2   0.155840952   1.61736  -0.58920   0.15220  -1.11671
  21   31814.7    314.3   1.108901743  11.47470   1.72137  -0.03069   2.91730
  22   32045.5    312.1   0.229124283   2.35386  -0.78375  -1.04059  -0.81041
  23   32367.9    308.9   0.117169985   1.19173   0.36961  -0.47301   0.91180
  24   32804.3    304.8   0.412850906   4.14322  -0.96885   0.27117  -1.76947
  25   32979.0    303.2   0.080057185   0.79917  -0.50938  -0.48389  -0.55277
  26   33756.9    296.2   0.108222746   1.05544   0.28897   0.97102  -0.17046
  27   33787.4    296.0   0.002457832   0.02395  -0.04718  -0.14389   0.03188
  28   34057.3    293.6   0.044001825   0.42534   0.24404  -0.16248   0.58257
  29   34329.5    291.3   0.220552831   2.11505  -0.68510   0.14402  -1.27473
  30   34629.6    288.8   0.202123560   1.92152  -0.59916  -1.21302  -0.30185
  31   34999.2    285.7   0.046819228   0.44039  -0.37745  -0.48785  -0.24479
  32   35748.8    279.7   0.000113864   0.00105   0.01884   0.00904  -0.02474
  33   36041.2    277.5   0.093647331   0.85541  -0.21739  -0.86696   0.23774
  34   37099.1    269.5   0.049012043   0.43493  -0.34257  -0.03442  -0.56248
  35   37365.4    267.6   0.007663522   0.06752   0.14154  -0.05967  -0.20959
  36   37490.0    266.7   0.004393540   0.03858  -0.10452  -0.06767  -0.15191
  37   38271.2    261.3   0.038097914   0.32772  -0.35674  -0.15996  -0.41818
  38   38329.2    260.9   0.120443722   1.03450   0.41771   0.04291   0.92638
  39   38496.2    259.8   0.106219439   0.90837   0.47782   0.01865   0.82445
  40   38829.0    257.5   0.012709563   0.10776   0.12910   0.14364   0.26544
  41   38840.8    257.5   0.008186990   0.06939  -0.22615   0.08269   0.10682
  42   38867.7    257.3   0.001215101   0.01029  -0.08513  -0.00024  -0.05518
  43   39042.8    256.1   0.052902460   0.44608   0.46600  -0.16980   0.44731
  44   39495.9    253.2   0.066985939   0.55835   0.29096  -0.24504   0.64316
  45   39775.5    251.4   0.002472528   0.02046  -0.11327   0.03869   0.07835
  46   40155.2    249.0   0.118716575   0.97330  -0.39786   0.15702  -0.88902
  47   40174.7    248.9   0.032184731   0.26374   0.39145  -0.12288   0.30888
  48   40299.9    248.1   0.074240239   0.60647  -0.38655  -0.63629  -0.22844

FINAL SINGLE POINT ENERGY     -4360.207884332895

DIPOLE MOMENT
-------------
                                X             Y             Z
Electronic contribution:     -1.36444       1.16120      -4.46024
Nuclear contribution   :      1.41920      -3.01033       5.95797
                        -----------------------------------------
Total Dipole Moment    :      0.05476      -1.84913       1.49773
                        -----------------------------------------
Magnitude (a.u.)       :      2.38023
Magnitude (Debye)      :      6.05006

Rotational constants in cm-1:     0.002934     0.000401     0.000353
Rotational constants in MHz :    87.963743    12.015235    10.574821

                             ****ORCA TERMINATED NORMALLY****
TOTAL RUN TIME: 0 days 0 hours 6 minutes 9 seconds 621 msec
