                         Program Version 4.2.0 -  RELEASE  -
|  1> # ORCA input file
|  2> # SCF done       -175.872061278541          0.000294788787
|  3> ! CAM-B3LYP def2-SVP def2/J RIJCOSX Grid4 TightSCF
|  4> %maxcore 5000
|  5> %tddft
|  6>     Mode sTDDFT
|  7>     Ethresh 5.0
|  8>     maxcore 5000
|  9> end
| 10>
| 11> %pal
| 12>   nprocs 6
| 13>   end
| 14> * xyz 0 1
| 15>    C       -0.40944        -2.54752        -7.93786
| 16>    C       -0.13291        -3.19622        -9.10875
| 17>    F        0.46340        -2.54459       -10.11442
| 18>    C       -0.47077        -4.55493        -9.27363
| 19>    F       -0.18758        -5.16450       -10.43146
| 20>    C       -1.08173        -5.24608        -8.26488
| 21>    C       -1.38096        -4.60497        -7.04714
| 22>    C       -1.03877        -3.23169        -6.87852
| 23>    C       -1.32968        -2.56632        -5.66541
| 24>    C       -1.94756        -3.25145        -4.65225
| 25>    C       -2.28878        -4.62150        -4.83266
| 26>    C       -2.01696        -5.29270        -5.99006
| 27>    C       -2.95145        -5.11757        -3.61600
| 28>    O       -3.36092        -6.24791        -3.42398
| 29>    C       -3.01774        -3.97737        -2.68996
| 30>    C       -2.37278        -2.83567        -3.31739
| 31>    C       -2.17750        -1.59175        -2.77866
| 32>    C       -2.57103        -1.17898        -1.48757
| 33>    N       -2.85751        -0.76357        -0.45611
| 34>    C       -1.53533        -0.53106        -3.45411
| 35>    N       -1.02365         0.37019        -3.94681
| 36>    C       -3.61726        -3.99295        -1.46043
| 37>    C       -4.28816        -5.03648        -0.79405
| 38>    C       -4.90809        -4.84328         0.43675
| 39>    C       -5.56389        -5.96277         0.93445
| 40>    S       -6.40138        -5.89085         2.48119
| 41>    C       -8.09231        -6.36904         2.01811
| 42>    C       -5.40596        -7.07135         0.09551
| 43>    S       -4.51192        -6.67724        -1.33900
| 44>    C       -5.81067        -8.40738         0.31131
| 45>    N       -6.54687        -8.82132         1.30560
| 46>    C       -6.72304       -10.13758         1.25502
| 47>    C       -6.10302       -10.81517         0.18667
| 48>    S       -5.25890        -9.69345        -0.80018
| 49>    N       -6.28954       -12.13184         0.13852
| 50>    C       -7.04177       -12.53231         1.11984
| 51>    S       -7.59055       -11.25038         2.23191
| 52>    C       -7.42969       -13.87753         1.32684
| 53>    C       -8.30992       -14.37457         2.26061
| 54>    C       -8.48525       -15.75882         2.15992
| 55>    S       -9.62924       -16.61382         3.17020
| 56>    C      -10.45644       -17.72253         1.97978
| 57>    C       -7.71008       -16.34489         1.16002
| 58>    S       -6.80784       -15.12144         0.29264
| 59>    C       -7.49708       -17.72721         0.96942
| 60>    C       -6.95039       -18.36196        -0.10477
| 61>    C       -6.31488       -19.69639         0.05185
| 62>    O       -6.43129       -20.45176         0.98869
| 63>    C       -5.47819       -19.86198        -1.15643
| 64>    C       -4.58653       -20.85127        -1.45429
| 65>    C       -3.86822       -20.78554        -2.66981
| 66>    C       -4.08869       -19.69155        -3.55681
| 67>    C       -3.36242       -19.63057        -4.76297
| 68>    C       -2.46187       -20.61000        -5.07544
| 69>    C       -2.24582       -21.69197        -4.19853
| 70>    C       -2.93397       -21.77929        -3.02082
| 71>    F       -1.35610       -22.63710        -4.52977
| 72>    F       -1.77308       -20.55015        -6.22241
| 73>    C       -5.02693       -18.68641        -3.22748
| 74>    C       -5.71232       -18.77334        -2.04610
| 75>    C       -6.74412       -17.92151        -1.46571
| 76>    C       -7.56528       -17.06463        -2.15314
| 77>    C       -8.74179       -16.55367        -1.57128
| 78>    N       -9.73303       -16.20169        -1.11002
| 79>    C       -7.38545       -16.71869        -3.50600
| 80>    N       -7.26231       -16.40560        -4.60321
| 81>    H       -0.14379        -1.50763        -7.82851
| 82>    H       -1.33446        -6.28516        -8.40669
| 83>    H       -1.05768        -1.52763        -5.57240
| 84>    H       -2.28689        -6.33220        -6.09754
| 85>    H       -3.60528        -3.07137        -0.89116
| 86>    H       -4.89546        -3.90040         0.95450
| 87>    H       -8.69425        -6.20788         2.90614
| 88>    H       -8.10830        -7.41529         1.73189
| 89>    H       -8.43309        -5.72868         1.21088
| 90>    H       -8.82371       -13.76257         2.97960
| 91>    H      -11.50040       -17.75189         2.27708
| 92>    H      -10.03342       -18.72045         2.02569
| 93>    H      -10.36309       -17.30126         0.98379
| 94>    H       -7.67888       -18.35079         1.84013
| 95>    H       -4.42890       -21.67288        -0.77229
| 96>    H       -3.51790       -18.81085        -5.44684
| 97>    H       -2.75676       -22.61362        -2.36034
| 98>    H       -5.17385       -17.86438        -3.91026
| 99> *
|100>
|101>                          ****END OF INPUT****

CARTESIAN COORDINATES (ANGSTROEM)
---------------------------------
  C     -0.409440   -2.547520   -7.937860
  C     -0.132910   -3.196220   -9.108750
  F      0.463400   -2.544590  -10.114420
  C     -0.470770   -4.554930   -9.273630
  F     -0.187580   -5.164500  -10.431460
  C     -1.081730   -5.246080   -8.264880
  C     -1.380960   -4.604970   -7.047140
  C     -1.038770   -3.231690   -6.878520
  C     -1.329680   -2.566320   -5.665410
  C     -1.947560   -3.251450   -4.652250
  C     -2.288780   -4.621500   -4.832660
  C     -2.016960   -5.292700   -5.990060
  C     -2.951450   -5.117570   -3.616000
  O     -3.360920   -6.247910   -3.423980
  C     -3.017740   -3.977370   -2.689960
  C     -2.372780   -2.835670   -3.317390
  C     -2.177500   -1.591750   -2.778660
  C     -2.571030   -1.178980   -1.487570
  N     -2.857510   -0.763570   -0.456110
  C     -1.535330   -0.531060   -3.454110
  N     -1.023650    0.370190   -3.946810
  C     -3.617260   -3.992950   -1.460430
  C     -4.288160   -5.036480   -0.794050
  C     -4.908090   -4.843280    0.436750
  C     -5.563890   -5.962770    0.934450
  S     -6.401380   -5.890850    2.481190
  C     -8.092310   -6.369040    2.018110
  C     -5.405960   -7.071350    0.095510
  S     -4.511920   -6.677240   -1.339000
  C     -5.810670   -8.407380    0.311310
  N     -6.546870   -8.821320    1.305600
  C     -6.723040  -10.137580    1.255020
  C     -6.103020  -10.815170    0.186670
  S     -5.258900   -9.693450   -0.800180
  N     -6.289540  -12.131840    0.138520
  C     -7.041770  -12.532310    1.119840
  S     -7.590550  -11.250380    2.231910
  C     -7.429690  -13.877530    1.326840
  C     -8.309920  -14.374570    2.260610
  C     -8.485250  -15.758820    2.159920
  S     -9.629240  -16.613820    3.170200
  C    -10.456440  -17.722530    1.979780
  C     -7.710080  -16.344890    1.160020
  S     -6.807840  -15.121440    0.292640
  C     -7.497080  -17.727210    0.969420
  C     -6.950390  -18.361960   -0.104770
  C     -6.314880  -19.696390    0.051850
  O     -6.431290  -20.451760    0.988690
  C     -5.478190  -19.861980   -1.156430
  C     -4.586530  -20.851270   -1.454290
  C     -3.868220  -20.785540   -2.669810
  C     -4.088690  -19.691550   -3.556810
  C     -3.362420  -19.630570   -4.762970
  C     -2.461870  -20.610000   -5.075440
  C     -2.245820  -21.691970   -4.198530
  C     -2.933970  -21.779290   -3.020820
  F     -1.356100  -22.637100   -4.529770
  F     -1.773080  -20.550150   -6.222410
  C     -5.026930  -18.686410   -3.227480
  C     -5.712320  -18.773340   -2.046100
  C     -6.744120  -17.921510   -1.465710
  C     -7.565280  -17.064630   -2.153140
  C     -8.741790  -16.553670   -1.571280
  N     -9.733030  -16.201690   -1.110020
  C     -7.385450  -16.718690   -3.506000
  N     -7.262310  -16.405600   -4.603210
  H     -0.143790   -1.507630   -7.828510
  H     -1.334460   -6.285160   -8.406690
  H     -1.057680   -1.527630   -5.572400
  H     -2.286890   -6.332200   -6.097540
  H     -3.605280   -3.071370   -0.891160
  H     -4.895460   -3.900400    0.954500
  H     -8.694250   -6.207880    2.906140
  H     -8.108300   -7.415290    1.731890
  H     -8.433090   -5.728680    1.210880
  H     -8.823710  -13.762570    2.979600
  H    -11.500400  -17.751890    2.277080
  H    -10.033420  -18.720450    2.025690
  H    -10.363090  -17.301260    0.983790
  H     -7.678880  -18.350790    1.840130
  H     -4.428900  -21.672880   -0.772290
  H     -3.517900  -18.810850   -5.446840
  H     -2.756760  -22.613620   -2.360340
  H     -5.173850  -17.864380   -3.910260

 Total Charge           Charge          ....    0
 Multiplicity           Mult            ....    1
 Number of Electrons    NEL             ....  496
 Basis Dimension        Dim             .... 1038

ORBITAL ENERGIES
----------------

  NO   OCC          E(Eh)            E(eV)
   0   2.0000     -88.986234     -2421.4385
   1   2.0000     -88.982929     -2421.3486
   2   2.0000     -88.978263     -2421.2216
   3   2.0000     -88.978255     -2421.2214
   4   2.0000     -88.941637     -2420.2250
   5   2.0000     -88.923602     -2419.7342
   6   2.0000     -24.802424      -674.9083
   7   2.0000     -24.801434      -674.8813
   8   2.0000     -24.800325      -674.8511
   9   2.0000     -24.799759      -674.8358
  10   2.0000     -19.231758      -523.3227
  11   2.0000     -19.218761      -522.9691
  12   2.0000     -14.441260      -392.9667
  13   2.0000     -14.439177      -392.9100
  14   2.0000     -14.424254      -392.5039
  15   2.0000     -14.421594      -392.4315
  16   2.0000     -14.421133      -392.4190
  17   2.0000     -14.420250      -392.3949
  18   2.0000     -10.386039      -282.6185
  19   2.0000     -10.385273      -282.5976
  20   2.0000     -10.383561      -282.5511
  21   2.0000     -10.383140      -282.5396
  22   2.0000     -10.379335      -282.4361
  23   2.0000     -10.370705      -282.2012
  24   2.0000     -10.367812      -282.1225
  25   2.0000     -10.365647      -282.0636
  26   2.0000     -10.350073      -281.6398
  27   2.0000     -10.349343      -281.6199
  28   2.0000     -10.347787      -281.5776
  29   2.0000     -10.347180      -281.5611
  30   2.0000     -10.346557      -281.5441
  31   2.0000     -10.346054      -281.5305
  32   2.0000     -10.336110      -281.2598
  33   2.0000     -10.333407      -281.1863
  34   2.0000     -10.327898      -281.0364
  35   2.0000     -10.327790      -281.0335
  36   2.0000     -10.326623      -281.0017
  37   2.0000     -10.326097      -280.9874
  38   2.0000     -10.326030      -280.9856
  39   2.0000     -10.324603      -280.9467
  40   2.0000     -10.323943      -280.9288
  41   2.0000     -10.323781      -280.9244
  42   2.0000     -10.322614      -280.8926
  43   2.0000     -10.315898      -280.7099
  44   2.0000     -10.315670      -280.7037
  45   2.0000     -10.315380      -280.6958
  46   2.0000     -10.313419      -280.6424
  47   2.0000     -10.313304      -280.6393
  48   2.0000     -10.312891      -280.6280
  49   2.0000     -10.311061      -280.5782
  50   2.0000     -10.308799      -280.5167
  51   2.0000     -10.308175      -280.4997
  52   2.0000     -10.307803      -280.4896
  53   2.0000     -10.305649      -280.4310
  54   2.0000     -10.305643      -280.4308
  55   2.0000     -10.305477      -280.4263
  56   2.0000     -10.304777      -280.4072
  57   2.0000     -10.303410      -280.3700
  58   2.0000     -10.302878      -280.3556
  59   2.0000     -10.302739      -280.3518
  60   2.0000     -10.302703      -280.3508
  61   2.0000     -10.301189      -280.3096
  62   2.0000     -10.299712      -280.2694
  63   2.0000     -10.297015      -280.1960
  64   2.0000     -10.295887      -280.1653
  65   2.0000     -10.282336      -279.7966
  66   2.0000      -8.082015      -219.9228
  67   2.0000      -8.078816      -219.8358
  68   2.0000      -8.072921      -219.6753
  69   2.0000      -8.071601      -219.6394
  70   2.0000      -8.036984      -218.6975
  71   2.0000      -8.018839      -218.2037
  72   2.0000      -6.051150      -164.6602
  73   2.0000      -6.047982      -164.5740
  74   2.0000      -6.047515      -164.5612
  75   2.0000      -6.044248      -164.4723
  76   2.0000      -6.043773      -164.4594
  77   2.0000      -6.042371      -164.4213
  78   2.0000      -6.041132      -164.3876
  79   2.0000      -6.040537      -164.3714
  80   2.0000      -6.038234      -164.3087
  81   2.0000      -6.036510      -164.2618
  82   2.0000      -6.034682      -164.2120
  83   2.0000      -6.033682      -164.1848
  84   2.0000      -6.007406      -163.4698
  85   2.0000      -6.003194      -163.3552
  86   2.0000      -5.996818      -163.1817
  87   2.0000      -5.989530      -162.9834
  88   2.0000      -5.985359      -162.8699
  89   2.0000      -5.978129      -162.6732
  90   2.0000      -1.325229       -36.0613
  91   2.0000      -1.323021       -36.0012
  92   2.0000      -1.310329       -35.6559
  93   2.0000      -1.308172       -35.5972
  94   2.0000      -1.147579       -31.2272
  95   2.0000      -1.134093       -30.8602
  96   2.0000      -1.111927       -30.2571
  97   2.0000      -1.072208       -29.1763
  98   2.0000      -1.027007       -27.9463
  99   2.0000      -1.026456       -27.9313
 100   2.0000      -1.011880       -27.5347
 101   2.0000      -1.010826       -27.5060
 102   2.0000      -1.008299       -27.4372
 103   2.0000      -1.007381       -27.4122
 104   2.0000      -1.001148       -27.2426
 105   2.0000      -0.999046       -27.1854
 106   2.0000      -0.987465       -26.8703
 107   2.0000      -0.984583       -26.7919
 108   2.0000      -0.940227       -25.5849
 109   2.0000      -0.938238       -25.5308
 110   2.0000      -0.933760       -25.4089
 111   2.0000      -0.922923       -25.1140
 112   2.0000      -0.916388       -24.9362
 113   2.0000      -0.907938       -24.7063
 114   2.0000      -0.903274       -24.5793
 115   2.0000      -0.897909       -24.4333
 116   2.0000      -0.896043       -24.3826
 117   2.0000      -0.893561       -24.3150
 118   2.0000      -0.891214       -24.2512
 119   2.0000      -0.885621       -24.0990
 120   2.0000      -0.866542       -23.5798
 121   2.0000      -0.848371       -23.0854
 122   2.0000      -0.846205       -23.0264
 123   2.0000      -0.843395       -22.9499
 124   2.0000      -0.840549       -22.8725
 125   2.0000      -0.829788       -22.5797
 126   2.0000      -0.820767       -22.3342
 127   2.0000      -0.804893       -21.9022
 128   2.0000      -0.782366       -21.2893
 129   2.0000      -0.775328       -21.0977
 130   2.0000      -0.768988       -20.9252
 131   2.0000      -0.761951       -20.7337
 132   2.0000      -0.748599       -20.3704
 133   2.0000      -0.740823       -20.1588
 134   2.0000      -0.731026       -19.8922
 135   2.0000      -0.726957       -19.7815
 136   2.0000      -0.721293       -19.6274
 137   2.0000      -0.718039       -19.5388
 138   2.0000      -0.713311       -19.4102
 139   2.0000      -0.703162       -19.1340
 140   2.0000      -0.693602       -18.8739
 141   2.0000      -0.690014       -18.7762
 142   2.0000      -0.688235       -18.7278
 143   2.0000      -0.683678       -18.6038
 144   2.0000      -0.670197       -18.2370
 145   2.0000      -0.664552       -18.0834
 146   2.0000      -0.660691       -17.9783
 147   2.0000      -0.658789       -17.9266
 148   2.0000      -0.652374       -17.7520
 149   2.0000      -0.647895       -17.6301
 150   2.0000      -0.644694       -17.5430
 151   2.0000      -0.638603       -17.3773
 152   2.0000      -0.626828       -17.0569
 153   2.0000      -0.618551       -16.8316
 154   2.0000      -0.617125       -16.7928
 155   2.0000      -0.610031       -16.5998
 156   2.0000      -0.603193       -16.4137
 157   2.0000      -0.593821       -16.1587
 158   2.0000      -0.591941       -16.1075
 159   2.0000      -0.589568       -16.0430
 160   2.0000      -0.587586       -15.9890
 161   2.0000      -0.586857       -15.9692
 162   2.0000      -0.583216       -15.8701
 163   2.0000      -0.580333       -15.7917
 164   2.0000      -0.569900       -15.5078
 165   2.0000      -0.565040       -15.3755
 166   2.0000      -0.563220       -15.3260
 167   2.0000      -0.558553       -15.1990
 168   2.0000      -0.557140       -15.1606
 169   2.0000      -0.552850       -15.0438
 170   2.0000      -0.551030       -14.9943
 171   2.0000      -0.549287       -14.9469
 172   2.0000      -0.549137       -14.9428
 173   2.0000      -0.544239       -14.8095
 174   2.0000      -0.541864       -14.7449
 175   2.0000      -0.540811       -14.7162
 176   2.0000      -0.538741       -14.6599
 177   2.0000      -0.536071       -14.5872
 178   2.0000      -0.534052       -14.5323
 179   2.0000      -0.532960       -14.5026
 180   2.0000      -0.531172       -14.4539
 181   2.0000      -0.527829       -14.3630
 182   2.0000      -0.522471       -14.2172
 183   2.0000      -0.521653       -14.1949
 184   2.0000      -0.518051       -14.0969
 185   2.0000      -0.516756       -14.0616
 186   2.0000      -0.512943       -13.9579
 187   2.0000      -0.509983       -13.8773
 188   2.0000      -0.507729       -13.8160
 189   2.0000      -0.505622       -13.7587
 190   2.0000      -0.505163       -13.7462
 191   2.0000      -0.504468       -13.7273
 192   2.0000      -0.502201       -13.6656
 193   2.0000      -0.500572       -13.6213
 194   2.0000      -0.496485       -13.5101
 195   2.0000      -0.495065       -13.4714
 196   2.0000      -0.489882       -13.3304
 197   2.0000      -0.485415       -13.2088
 198   2.0000      -0.483379       -13.1534
 199   2.0000      -0.476929       -12.9779
 200   2.0000      -0.475936       -12.9509
 201   2.0000      -0.471327       -12.8254
 202   2.0000      -0.469374       -12.7723
 203   2.0000      -0.465699       -12.6723
 204   2.0000      -0.463240       -12.6054
 205   2.0000      -0.459097       -12.4927
 206   2.0000      -0.456119       -12.4116
 207   2.0000      -0.455694       -12.4001
 208   2.0000      -0.452344       -12.3089
 209   2.0000      -0.452245       -12.3062
 210   2.0000      -0.449859       -12.2413
 211   2.0000      -0.449121       -12.2212
 212   2.0000      -0.445514       -12.1230
 213   2.0000      -0.443684       -12.0733
 214   2.0000      -0.439192       -11.9510
 215   2.0000      -0.435331       -11.8460
 216   2.0000      -0.434621       -11.8266
 217   2.0000      -0.433230       -11.7888
 218   2.0000      -0.432419       -11.7667
 219   2.0000      -0.429634       -11.6909
 220   2.0000      -0.422865       -11.5068
 221   2.0000      -0.421494       -11.4694
 222   2.0000      -0.417445       -11.3593
 223   2.0000      -0.413234       -11.2447
 224   2.0000      -0.411196       -11.1892
 225   2.0000      -0.404766       -11.0143
 226   2.0000      -0.403100       -10.9689
 227   2.0000      -0.397081       -10.8051
 228   2.0000      -0.393033       -10.6950
 229   2.0000      -0.389875       -10.6091
 230   2.0000      -0.389078       -10.5873
 231   2.0000      -0.378017       -10.2864
 232   2.0000      -0.364940        -9.9305
 233   2.0000      -0.361560        -9.8385
 234   2.0000      -0.359469        -9.7816
 235   2.0000      -0.350078        -9.5261
 236   2.0000      -0.344085        -9.3630
 237   2.0000      -0.342348        -9.3158
 238   2.0000      -0.339399        -9.2355
 239   2.0000      -0.331385        -9.0174
 240   2.0000      -0.323788        -8.8107
 241   2.0000      -0.319945        -8.7062
 242   2.0000      -0.312089        -8.4924
 243   2.0000      -0.304640        -8.2897
 244   2.0000      -0.302478        -8.2308
 245   2.0000      -0.294410        -8.0113
 246   2.0000      -0.287816        -7.8319
 247   2.0000      -0.262644        -7.1469
 248   0.0000      -0.113991        -3.1018
 249   0.0000      -0.099656        -2.7118
 250   0.0000      -0.069944        -1.9033
 251   0.0000      -0.063194        -1.7196
 252   0.0000      -0.055335        -1.5058

MULLIKEN ATOMIC CHARGES
-----------------------
   0 C :   -0.107745
   1 C :    0.242931
   2 F :   -0.169323
   3 C :    0.239022
   4 F :   -0.169744
   5 C :   -0.105007
   6 C :    0.117638
   7 C :    0.115490
   8 C :   -0.083900
   9 C :    0.044975
  10 C :    0.000796
  11 C :   -0.081359
  12 C :    0.172042
  13 O :   -0.176874
  14 C :   -0.093537
  15 C :    0.337241
  16 C :   -0.355857
  17 C :   -0.188756
  18 N :    0.152890
  19 C :   -0.183350
  20 N :    0.151620
  21 C :   -0.011251
  22 C :   -0.036469
  23 C :    0.006269
  24 C :   -0.024495
  25 S :   -0.002105
  26 C :   -0.077744
  27 C :   -0.053200
  28 S :    0.196599
  29 C :   -0.105653
  30 N :   -0.037809
  31 C :   -0.045665
  32 C :   -0.055823
  33 S :    0.148775
  34 N :   -0.026966
  35 C :   -0.088180
  36 S :    0.137856
  37 C :   -0.028533
  38 C :   -0.005078
  39 C :    0.038161
  40 S :   -0.005261
  41 C :   -0.103864
  42 C :   -0.161597
  43 S :    0.208609
  44 C :    0.027987
  45 C :   -0.137588
  46 C :    0.146701
  47 O :   -0.137568
  48 C :    0.008089
  49 C :   -0.084635
  50 C :    0.113380
  51 C :    0.114395
  52 C :   -0.109064
  53 C :    0.242270
  54 C :    0.240727
  55 C :   -0.105706
  56 F :   -0.171545
  57 F :   -0.170630
  58 C :   -0.082430
  59 C :    0.040746
  60 C :    0.245997
  61 C :   -0.316386
  62 C :   -0.163447
  63 N :    0.142374
  64 C :   -0.171726
  65 N :    0.154361
  66 H :    0.008828
  67 H :    0.001270
  68 H :   -0.006030
  69 H :   -0.008579
  70 H :    0.013655
  71 H :    0.007884
  72 H :    0.053783
  73 H :    0.066909
  74 H :    0.054986
  75 H :   -0.000532
  76 H :    0.067308
  77 H :    0.068228
  78 H :    0.089983
  79 H :    0.033383
  80 H :   -0.007462
  81 H :    0.006469
  82 H :    0.000344
  83 H :   -0.002496
Sum of atomic charges:   -0.0000000

LOEWDIN ATOMIC CHARGES
----------------------
   0 C :   -0.028629
   1 C :    0.067626
   2 F :   -0.047012
   3 C :    0.068386
   4 F :   -0.047338
   5 C :   -0.032625
   6 C :   -0.008572
   7 C :   -0.005862
   8 C :    0.019160
   9 C :   -0.022608
  10 C :   -0.053023
  11 C :    0.031893
  12 C :    0.085954
  13 O :   -0.162850
  14 C :   -0.103347
  15 C :    0.076162
  16 C :   -0.137370
  17 C :   -0.021679
  18 N :   -0.047888
  19 C :   -0.017176
  20 N :   -0.050501
  21 C :    0.061904
  22 C :   -0.180644
  23 C :   -0.020643
  24 C :   -0.188273
  25 S :    0.283334
  26 C :   -0.152656
  27 C :   -0.206207
  28 S :    0.508202
  29 C :   -0.129056
  30 N :   -0.081251
  31 C :   -0.206882
  32 C :   -0.206341
  33 S :    0.422915
  34 N :   -0.094487
  35 C :   -0.131218
  36 S :    0.423841
  37 C :   -0.171603
  38 C :   -0.061252
  39 C :   -0.157146
  40 S :    0.302402
  41 C :   -0.148249
  42 C :   -0.204081
  43 S :    0.494228
  44 C :    0.050636
  45 C :   -0.100902
  46 C :    0.082649
  47 O :   -0.141977
  48 C :   -0.053251
  49 C :    0.030472
  50 C :   -0.009114
  51 C :   -0.005727
  52 C :   -0.030389
  53 C :    0.067077
  54 C :    0.067225
  55 C :   -0.032614
  56 F :   -0.049076
  57 F :   -0.048520
  58 C :    0.014694
  59 C :   -0.019854
  60 C :    0.062455
  61 C :   -0.144247
  62 C :   -0.018462
  63 N :   -0.055273
  64 C :   -0.019867
  65 N :   -0.049304
  66 H :    0.048298
  67 H :    0.045403
  68 H :    0.040385
  69 H :    0.041033
  70 H :    0.052708
  71 H :    0.040725
  72 H :    0.029376
  73 H :    0.014302
  74 H :    0.023059
  75 H :    0.032303
  76 H :    0.033310
  77 H :    0.024366
  78 H :    0.035544
  79 H :    0.049526
  80 H :    0.041055
  81 H :    0.047279
  82 H :    0.045084
  83 H :    0.040074

  Mayer bond orders larger than 0.100000
B(  0-C ,  1-C ) :   1.4395 B(  0-C ,  5-C ) :   0.1083 B(  0-C ,  7-C ) :   1.1901
B(  0-C , 66-H ) :   1.0063 B(  1-C ,  2-F ) :   1.1363 B(  1-C ,  3-C ) :   1.1919
B(  3-C ,  4-F ) :   1.1357 B(  3-C ,  5-C ) :   1.4428 B(  5-C ,  6-C ) :   1.1915
B(  5-C , 67-H ) :   1.0067 B(  6-C ,  7-C ) :   1.2576 B(  6-C , 11-C ) :   1.1882
B(  7-C ,  8-C ) :   1.2152 B(  8-C ,  9-C ) :   1.4523 B(  8-C , 68-H ) :   0.9888
B(  9-C , 10-C ) :   1.2239 B(  9-C , 15-C ) :   0.9838 B( 10-C , 11-C ) :   1.4656
B( 10-C , 12-C ) :   0.9597 B( 11-C , 69-H ) :   1.0167 B( 12-C , 13-O ) :   2.1285
B( 12-C , 14-C ) :   0.9729 B( 14-C , 15-C ) :   1.0700 B( 14-C , 21-C ) :   1.5182
B( 15-C , 16-C ) :   1.6306 B( 16-C , 17-C ) :   1.1454 B( 16-C , 19-C ) :   1.1479
B( 17-C , 18-N ) :   2.9591 B( 19-C , 20-N ) :   2.9611 B( 21-C , 22-C ) :   1.2414
B( 21-C , 70-H ) :   0.9400 B( 22-C , 23-C ) :   1.3680 B( 22-C , 28-S ) :   1.0954
B( 23-C , 24-C ) :   1.3117 B( 23-C , 71-H ) :   1.0074 B( 24-C , 25-S ) :   1.0427
B( 24-C , 27-C ) :   1.4154 B( 25-S , 26-C ) :   1.0000 B( 26-C , 72-H ) :   0.9705
B( 26-C , 73-H ) :   0.9503 B( 26-C , 74-H ) :   0.9701 B( 27-C , 28-S ) :   1.1250
B( 27-C , 29-C ) :   1.1498 B( 29-C , 30-N ) :   1.6558 B( 29-C , 33-S ) :   1.0857
B( 30-N , 31-C ) :   1.3886 B( 30-N , 33-S ) :   0.1003 B( 31-C , 32-C ) :   1.2783
B( 31-C , 36-S ) :   1.1057 B( 32-C , 33-S ) :   1.1080 B( 32-C , 34-N ) :   1.4101
B( 34-N , 35-C ) :   1.7212 B( 34-N , 36-S ) :   0.1032 B( 35-C , 36-S ) :   1.0905
B( 35-C , 37-C ) :   1.1411 B( 37-C , 38-C ) :   1.4813 B( 37-C , 43-S ) :   1.1424
B( 38-C , 39-C ) :   1.2956 B( 38-C , 75-H ) :   0.9877 B( 39-C , 40-S ) :   1.0543
B( 39-C , 42-C ) :   1.4337 B( 40-S , 41-C ) :   0.9897 B( 41-C , 76-H ) :   0.9678
B( 41-C , 77-H ) :   0.9695 B( 41-C , 78-H ) :   0.9547 B( 42-C , 43-S ) :   1.1007
B( 42-C , 44-C ) :   1.1479 B( 44-C , 45-C ) :   1.6323 B( 44-C , 79-H ) :   0.9385
B( 45-C , 46-C ) :   0.9451 B( 45-C , 60-C ) :   1.0473 B( 46-C , 47-O ) :   2.2811
B( 46-C , 48-C ) :   0.9129 B( 48-C , 49-C ) :   1.4786 B( 48-C , 59-C ) :   1.2197
B( 49-C , 50-C ) :   1.1924 B( 49-C , 80-H ) :   1.0161 B( 50-C , 51-C ) :   1.2568
B( 50-C , 55-C ) :   1.1961 B( 51-C , 52-C ) :   1.1886 B( 51-C , 58-C ) :   1.2126
B( 52-C , 53-C ) :   1.4417 B( 52-C , 55-C ) :   0.1087 B( 52-C , 81-H ) :   1.0071
B( 53-C , 54-C ) :   1.1910 B( 53-C , 57-F ) :   1.1354 B( 54-C , 55-C ) :   1.4417
B( 54-C , 56-F ) :   1.1340 B( 55-C , 82-H ) :   1.0070 B( 58-C , 59-C ) :   1.4589
B( 58-C , 83-H ) :   0.9956 B( 59-C , 60-C ) :   1.0021 B( 60-C , 61-C ) :   1.6458
B( 61-C , 62-C ) :   1.1648 B( 61-C , 64-C ) :   1.1335 B( 62-C , 63-N ) :   2.9342
B( 64-C , 65-N ) :   2.9891

-----------------------------------------------------------------------------
         ABSORPTION SPECTRUM VIA TRANSITION ELECTRIC DIPOLE MOMENTS
-----------------------------------------------------------------------------
State   Energy  Wavelength   fosc         T2         TX        TY        TZ
        (cm-1)    (nm)                  (au**2)     (au)      (au)      (au)
-----------------------------------------------------------------------------
   0   17069.0    585.9   1.398759146  26.97812  -1.11342  -5.07147   0.13624
   1   20703.4    483.0   0.476981081   7.58465   1.37610   0.52537  -2.32701
   2   22571.7    443.0   0.399647323   5.82893   1.18463   1.07613  -1.80763
   3   23929.8    417.9   0.109607786   1.50792   0.76551   0.61722  -0.73549
   4   25813.6    387.4   0.038083829   0.48570   0.53358  -0.41167   0.17752
   5   26737.7    374.0   0.006661379   0.08202  -0.10926   0.12017  -0.23588
   6   27401.0    365.0   0.075344037   0.90523  -0.13182   0.70462  -0.62560
   7   27449.8    364.3   0.058686297   0.70384  -0.34751  -0.25755   0.71885
   8   27875.0    358.7   0.010184104   0.12028  -0.17472  -0.18798   0.23327
   9   28110.4    355.7   0.041117484   0.48154   0.19762  -0.44720  -0.49245
  10   28665.9    348.8   0.214138127   2.45925   0.76351  -0.98905  -0.94768
  11   29263.5    341.7   0.022539850   0.25357   0.30666   0.16017  -0.36589
  12   29410.7    340.0   0.130185370   1.45724   0.24052  -0.17974  -1.16922
  13   29520.6    338.7   0.251515771   2.80489  -0.87624   1.30356   0.58124
  14   30541.6    327.4   0.007205283   0.07767  -0.17778  -0.00820   0.21446
  15   31107.9    321.5   0.161700784   1.71126   0.64851   1.06727  -0.38942
  16   31704.1    315.4   0.102121851   1.06042   0.52710  -0.28909  -0.83607
  17   32878.0    304.2   0.059116044   0.59194  -0.14580   0.36363  -0.66215
  18   33543.7    298.1   0.343650159   3.37272  -0.98656   1.45329   0.53606
  19   33635.7    297.3   0.508677248   4.97871   0.92180  -1.25979  -1.59434
  20   33736.7    296.4   0.043749837   0.42692  -0.42911  -0.09955  -0.48257
  21   33929.6    294.7   0.037097032   0.35995   0.33098   0.12847   0.48362
  22   34227.7    292.2   0.151940801   1.46141  -0.35898  -0.56230  -1.00815
  23   34365.9    291.0   0.062053870   0.59445   0.73123  -0.17955  -0.16588
  24   34643.6    288.7   0.113385800   1.07749   0.60766  -0.77860  -0.31941
  25   34946.0    286.2   0.029223454   0.27530  -0.43347   0.22281   0.19433
  26   35186.6    284.2   0.095508136   0.89359   0.50524  -0.36026  -0.71311
  27   35460.2    282.0   0.030396080   0.28220  -0.15406   0.00628   0.50835
  28   35517.9    281.5   0.019598975   0.18166   0.26316  -0.15803  -0.29569
  29   35990.6    277.9   0.035349029   0.32334  -0.06365   0.44456  -0.34879
  30   36447.2    274.4   0.170912934   1.54378  -0.80311   0.00463   0.94804
  31   36736.1    272.2   0.021591053   0.19349   0.23751   0.31468   0.19507
  32   37117.8    269.4   0.039377717   0.34926  -0.45980   0.17539   0.32723
  33   37568.0    266.2   0.184529644   1.61705   0.75425  -0.69777  -0.74918
  34   37938.8    263.6   0.179100054   1.55413   0.02327  -1.02242   0.71291
  35   38255.7    261.4   0.054373111   0.46791  -0.68260   0.03839   0.02224
  36   38464.6    260.0   0.131343167   1.12414  -0.12010  -1.00397  -0.31901
  37   38703.6    258.4   0.055072391   0.46845  -0.10696   0.63614   0.22876
  38   38828.7    257.5   0.027073038   0.22954  -0.02445   0.18208  -0.44248
  39   39473.0    253.3   0.023711821   0.19776  -0.33050   0.08078  -0.28637
  40   39605.7    252.5   0.009707701   0.08069   0.24165   0.02358  -0.14745
  41   40064.6    249.6   0.004889309   0.04018  -0.19433   0.04606   0.01701
  42   40105.4    249.3   0.082330118   0.67582  -0.22490  -0.04468   0.78946

FINAL SINGLE POINT ENERGY     -5103.276158226173

DIPOLE MOMENT
-------------
                                X             Y             Z
Electronic contribution:     30.06030       0.95313     -31.45435
Nuclear contribution   :    -30.39856      -2.50543      31.80540
                        -----------------------------------------
Total Dipole Moment    :     -0.33826      -1.55230       0.35105
                        -----------------------------------------
Magnitude (a.u.)       :      1.62705
Magnitude (Debye)      :      4.13563

Rotational constants in cm-1:     0.001061     0.000334     0.000263
Rotational constants in MHz :    31.793841    10.025732     7.882498

                             ****ORCA TERMINATED NORMALLY****
TOTAL RUN TIME: 0 days 0 hours 7 minutes 51 seconds 704 msec
