                         Program Version 4.2.0 -  RELEASE  -
|  1> # ORCA input file
|  2> # SCF done       -209.364122416589          0.000655232327
|  3> ! CAM-B3LYP def2-SVP def2/J RIJCOSX Grid4 TightSCF
|  4> %maxcore 5000
|  5> %tddft
|  6>     Mode sTDDFT
|  7>     Ethresh 5.0
|  8>     maxcore 5000
|  9> end
| 10>
| 11> %pal
| 12>   nprocs 6
| 13>   end
| 14> * xyz 0 1
| 15>    C       -5.52703        -0.44703         8.69167
| 16>    C       -4.83909        -0.78637         9.82295
| 17>    F       -4.70888         0.09618        10.82233
| 18>    C       -4.26011        -2.06435         9.95377
| 19>    F       -3.59106        -2.37032        11.07399
| 20>    C       -4.37806        -2.98629         8.95153
| 21>    C       -5.08257        -2.66736         7.77464
| 22>    C       -5.66699        -1.37491         7.64026
| 23>    C       -6.38027        -1.03179         6.46834
| 24>    C       -6.50961        -1.95454         5.46445
| 25>    C       -5.92806        -3.24478         5.61117
| 26>    C       -5.22836        -3.60352         6.72648
| 27>    C       -6.23215        -4.04919         4.41372
| 28>    O       -5.86806        -5.19263         4.20257
| 29>    C       -7.05719        -3.19797         3.54933
| 30>    C       -7.18638        -1.89434         4.16988
| 31>    C       -7.80191        -0.78205         3.65509
| 32>    C       -8.43304        -0.69509         2.39668
| 33>    N       -8.96266        -0.53775         1.38929
| 34>    C       -7.87394         0.45928         4.32173
| 35>    N       -7.96644         1.49520         4.80792
| 36>    C       -7.65751        -3.59244         2.37876
| 37>    C       -7.63240        -4.82677         1.71709
| 38>    C       -8.38426        -5.06319         0.55848
| 39>    C       -8.26045        -6.34041         0.06135
| 40>    C       -7.39185        -7.12701         0.81611
| 41>    S       -6.73830        -6.25653         2.16589
| 42>    C       -7.06133        -8.47914         0.57547
| 43>    C       -6.13952        -9.25829         1.26088
| 44>    C       -6.05913       -10.55392         0.78035
| 45>    C       -6.92447       -10.80879        -0.27844
| 46>    S       -7.84448        -9.39355        -0.68355
| 47>    C       -7.10797       -12.03592        -0.97015
| 48>    C       -8.08602       -12.17580        -1.98001
| 49>    C       -8.32757       -13.41646        -2.65530
| 50>    N       -9.29010       -13.47644        -3.59670
| 51>    C       -9.97968       -12.42039        -3.88114
| 52>    C       -9.73777       -11.19055        -3.21494
| 53>    N       -8.82395       -11.09619        -2.30511
| 54>    F      -10.44080       -10.10089        -3.50770
| 55>    F      -10.91792       -12.52184        -4.81745
| 56>    C       -7.59710       -14.59223        -2.37506
| 57>    C       -6.58941       -14.45323        -1.39053
| 58>    C       -6.35437       -13.20358        -0.69815
| 59>    N       -5.36527       -13.31636         0.18914
| 60>    S       -4.79143       -14.81305         0.16179
| 61>    N       -5.75853       -15.40776        -0.96977
| 62>    C       -7.88657       -15.81906        -3.03084
| 63>    C       -7.23905       -17.03867        -2.87284
| 64>    C       -7.78656       -18.05800        -3.63423
| 65>    C       -8.87289       -17.64690        -4.39184
| 66>    S       -9.19867       -15.95248        -4.16036
| 67>    C       -9.68488       -18.43302        -5.24051
| 68>    C      -10.80977       -18.01920        -5.94151
| 69>    C      -11.44157       -19.04528        -6.62135
| 70>    C      -10.81019       -20.27595        -6.48478
| 71>    S       -9.38581       -20.12094        -5.49213
| 72>    C      -11.12420       -21.51870        -7.07137
| 73>    C      -12.31267       -21.94578        -7.59047
| 74>    C      -12.31598       -23.07995        -8.55299
| 75>    O      -11.39469       -23.82370        -8.79969
| 76>    C      -13.65765       -23.06036        -9.17241
| 77>    C      -14.14250       -23.82171       -10.19611
| 78>    C      -15.46563       -23.60783       -10.64446
| 79>    C      -16.25991       -22.60000       -10.02450
| 80>    C      -17.57637       -22.38733       -10.48028
| 81>    C      -18.08220       -23.14236       -11.50092
| 82>    C      -17.29662       -24.13991       -12.11234
| 83>    C      -16.01561       -24.36882       -11.69429
| 84>    F      -17.81810       -24.86443       -13.11169
| 85>    F      -19.33443       -22.94012       -11.93150
| 86>    C      -15.73235       -21.83101        -8.96182
| 87>    C      -14.45210       -22.06395        -8.53705
| 88>    C      -13.66907       -21.46683        -7.45680
| 89>    C      -14.19866       -20.80098        -6.38057
| 90>    C      -13.46463       -20.47872        -5.22199
| 91>    N      -12.91796       -20.23796        -4.24168
| 92>    C      -15.55794       -20.44569        -6.26946
| 93>    N      -16.65019       -20.11598        -6.14197
| 94>    H       -5.96385         0.53580         8.60728
| 95>    H       -3.92970        -3.96057         9.06759
| 96>    H       -6.81127        -0.04633         6.40025
| 97>    H       -4.79652        -4.58921         6.81026
| 98>    H       -8.27835        -2.85868         1.87867
| 99>    H       -9.00129        -4.29914         0.11892
|100>    H       -8.76463        -6.71033        -0.81385
|101>    H       -5.55468        -8.87567         2.07854
|102>    H       -5.40530       -11.31106         1.17134
|103>    H       -6.39942       -17.15300        -2.21293
|104>    H       -7.42523       -19.07130        -3.64014
|105>    H      -11.14820       -16.99863        -5.92887
|106>    H      -12.31188       -18.90410        -7.23764
|107>    H      -10.29862       -22.21337        -7.19414
|108>    H      -13.52606       -24.57798       -10.65768
|109>    H      -18.19235       -21.63044       -10.02030
|110>    H      -15.42751       -25.13620       -12.17280
|111>    H      -16.35275       -21.07044        -8.51517
|112> *
|113>
|114>                          ****END OF INPUT****

CARTESIAN COORDINATES (ANGSTROEM)
---------------------------------
  C     -5.527030   -0.447030    8.691670
  C     -4.839090   -0.786370    9.822950
  F     -4.708880    0.096180   10.822330
  C     -4.260110   -2.064350    9.953770
  F     -3.591060   -2.370320   11.073990
  C     -4.378060   -2.986290    8.951530
  C     -5.082570   -2.667360    7.774640
  C     -5.666990   -1.374910    7.640260
  C     -6.380270   -1.031790    6.468340
  C     -6.509610   -1.954540    5.464450
  C     -5.928060   -3.244780    5.611170
  C     -5.228360   -3.603520    6.726480
  C     -6.232150   -4.049190    4.413720
  O     -5.868060   -5.192630    4.202570
  C     -7.057190   -3.197970    3.549330
  C     -7.186380   -1.894340    4.169880
  C     -7.801910   -0.782050    3.655090
  C     -8.433040   -0.695090    2.396680
  N     -8.962660   -0.537750    1.389290
  C     -7.873940    0.459280    4.321730
  N     -7.966440    1.495200    4.807920
  C     -7.657510   -3.592440    2.378760
  C     -7.632400   -4.826770    1.717090
  C     -8.384260   -5.063190    0.558480
  C     -8.260450   -6.340410    0.061350
  C     -7.391850   -7.127010    0.816110
  S     -6.738300   -6.256530    2.165890
  C     -7.061330   -8.479140    0.575470
  C     -6.139520   -9.258290    1.260880
  C     -6.059130  -10.553920    0.780350
  C     -6.924470  -10.808790   -0.278440
  S     -7.844480   -9.393550   -0.683550
  C     -7.107970  -12.035920   -0.970150
  C     -8.086020  -12.175800   -1.980010
  C     -8.327570  -13.416460   -2.655300
  N     -9.290100  -13.476440   -3.596700
  C     -9.979680  -12.420390   -3.881140
  C     -9.737770  -11.190550   -3.214940
  N     -8.823950  -11.096190   -2.305110
  F    -10.440800  -10.100890   -3.507700
  F    -10.917920  -12.521840   -4.817450
  C     -7.597100  -14.592230   -2.375060
  C     -6.589410  -14.453230   -1.390530
  C     -6.354370  -13.203580   -0.698150
  N     -5.365270  -13.316360    0.189140
  S     -4.791430  -14.813050    0.161790
  N     -5.758530  -15.407760   -0.969770
  C     -7.886570  -15.819060   -3.030840
  C     -7.239050  -17.038670   -2.872840
  C     -7.786560  -18.058000   -3.634230
  C     -8.872890  -17.646900   -4.391840
  S     -9.198670  -15.952480   -4.160360
  C     -9.684880  -18.433020   -5.240510
  C    -10.809770  -18.019200   -5.941510
  C    -11.441570  -19.045280   -6.621350
  C    -10.810190  -20.275950   -6.484780
  S     -9.385810  -20.120940   -5.492130
  C    -11.124200  -21.518700   -7.071370
  C    -12.312670  -21.945780   -7.590470
  C    -12.315980  -23.079950   -8.552990
  O    -11.394690  -23.823700   -8.799690
  C    -13.657650  -23.060360   -9.172410
  C    -14.142500  -23.821710  -10.196110
  C    -15.465630  -23.607830  -10.644460
  C    -16.259910  -22.600000  -10.024500
  C    -17.576370  -22.387330  -10.480280
  C    -18.082200  -23.142360  -11.500920
  C    -17.296620  -24.139910  -12.112340
  C    -16.015610  -24.368820  -11.694290
  F    -17.818100  -24.864430  -13.111690
  F    -19.334430  -22.940120  -11.931500
  C    -15.732350  -21.831010   -8.961820
  C    -14.452100  -22.063950   -8.537050
  C    -13.669070  -21.466830   -7.456800
  C    -14.198660  -20.800980   -6.380570
  C    -13.464630  -20.478720   -5.221990
  N    -12.917960  -20.237960   -4.241680
  C    -15.557940  -20.445690   -6.269460
  N    -16.650190  -20.115980   -6.141970
  H     -5.963850    0.535800    8.607280
  H     -3.929700   -3.960570    9.067590
  H     -6.811270   -0.046330    6.400250
  H     -4.796520   -4.589210    6.810260
  H     -8.278350   -2.858680    1.878670
  H     -9.001290   -4.299140    0.118920
  H     -8.764630   -6.710330   -0.813850
  H     -5.554680   -8.875670    2.078540
  H     -5.405300  -11.311060    1.171340
  H     -6.399420  -17.153000   -2.212930
  H     -7.425230  -19.071300   -3.640140
  H    -11.148200  -16.998630   -5.928870
  H    -12.311880  -18.904100   -7.237640
  H    -10.298620  -22.213370   -7.194140
  H    -13.526060  -24.577980  -10.657680
  H    -18.192350  -21.630440  -10.020300
  H    -15.427510  -25.136200  -12.172800
  H    -16.352750  -21.070440   -8.515170

 Total Charge           Charge          ....    0
 Multiplicity           Mult            ....    1
 Number of Electrons    NEL             ....  572
 Basis Dimension        Dim             .... 1216

ORBITAL ENERGIES
----------------

  NO   OCC          E(Eh)            E(eV)
   0   2.0000     -89.049431     -2423.1582
   1   2.0000     -88.973031     -2421.0793
   2   2.0000     -88.966562     -2420.9032
   3   2.0000     -88.964910     -2420.8583
   4   2.0000     -88.964131     -2420.8371
   5   2.0000     -24.826272      -675.5572
   6   2.0000     -24.826077      -675.5519
   7   2.0000     -24.797675      -674.7790
   8   2.0000     -24.797313      -674.7692
   9   2.0000     -24.797104      -674.7635
  10   2.0000     -24.796122      -674.7368
  11   2.0000     -19.220335      -523.0119
  12   2.0000     -19.214275      -522.8470
  13   2.0000     -14.467166      -393.6716
  14   2.0000     -14.466897      -393.6643
  15   2.0000     -14.458901      -393.4467
  16   2.0000     -14.458767      -393.4431
  17   2.0000     -14.416115      -392.2824
  18   2.0000     -14.415550      -392.2670
  19   2.0000     -14.414371      -392.2350
  20   2.0000     -14.412269      -392.1778
  21   2.0000     -10.443086      -284.1708
  22   2.0000     -10.442761      -284.1620
  23   2.0000     -10.380717      -282.4737
  24   2.0000     -10.380321      -282.4629
  25   2.0000     -10.380180      -282.4591
  26   2.0000     -10.379405      -282.4380
  27   2.0000     -10.368794      -282.1492
  28   2.0000     -10.365985      -282.0728
  29   2.0000     -10.353396      -281.7302
  30   2.0000     -10.353094      -281.7220
  31   2.0000     -10.348866      -281.6070
  32   2.0000     -10.348614      -281.6001
  33   2.0000     -10.342707      -281.4394
  34   2.0000     -10.342122      -281.4235
  35   2.0000     -10.340041      -281.3668
  36   2.0000     -10.338863      -281.3348
  37   2.0000     -10.328464      -281.0518
  38   2.0000     -10.323544      -280.9179
  39   2.0000     -10.323238      -280.9096
  40   2.0000     -10.323060      -280.9048
  41   2.0000     -10.322815      -280.8981
  42   2.0000     -10.320025      -280.8221
  43   2.0000     -10.319049      -280.7956
  44   2.0000     -10.318707      -280.7863
  45   2.0000     -10.317970      -280.7662
  46   2.0000     -10.317648      -280.7575
  47   2.0000     -10.317333      -280.7489
  48   2.0000     -10.315732      -280.7053
  49   2.0000     -10.315682      -280.7040
  50   2.0000     -10.315307      -280.6938
  51   2.0000     -10.312604      -280.6202
  52   2.0000     -10.310239      -280.5559
  53   2.0000     -10.310048      -280.5507
  54   2.0000     -10.309682      -280.5407
  55   2.0000     -10.309009      -280.5224
  56   2.0000     -10.308602      -280.5113
  57   2.0000     -10.307376      -280.4780
  58   2.0000     -10.305324      -280.4221
  59   2.0000     -10.302073      -280.3337
  60   2.0000     -10.301692      -280.3233
  61   2.0000     -10.301164      -280.3089
  62   2.0000     -10.300560      -280.2925
  63   2.0000     -10.300192      -280.2825
  64   2.0000     -10.299982      -280.2767
  65   2.0000     -10.299874      -280.2738
  66   2.0000     -10.299183      -280.2550
  67   2.0000     -10.299012      -280.2504
  68   2.0000     -10.297272      -280.2030
  69   2.0000     -10.297013      -280.1960
  70   2.0000     -10.295126      -280.1446
  71   2.0000     -10.293136      -280.0905
  72   2.0000     -10.291749      -280.0527
  73   2.0000     -10.289670      -279.9962
  74   2.0000     -10.285755      -279.8896
  75   2.0000     -10.285266      -279.8763
  76   2.0000     -10.284125      -279.8453
  77   2.0000     -10.282870      -279.8111
  78   2.0000     -10.282007      -279.7876
  79   2.0000      -8.140888      -221.5248
  80   2.0000      -8.068692      -219.5603
  81   2.0000      -8.060157      -219.3280
  82   2.0000      -8.058746      -219.2896
  83   2.0000      -8.058125      -219.2727
  84   2.0000      -6.112038      -166.3170
  85   2.0000      -6.104084      -166.1006
  86   2.0000      -6.103643      -166.0886
  87   2.0000      -6.037937      -164.3006
  88   2.0000      -6.033862      -164.1897
  89   2.0000      -6.030783      -164.1059
  90   2.0000      -6.029618      -164.0742
  91   2.0000      -6.028285      -164.0380
  92   2.0000      -6.027632      -164.0202
  93   2.0000      -6.025027      -163.9493
  94   2.0000      -6.023693      -163.9130
  95   2.0000      -6.023046      -163.8954
  96   2.0000      -6.022301      -163.8751
  97   2.0000      -6.020860      -163.8359
  98   2.0000      -6.020253      -163.8194
  99   2.0000      -1.354607       -36.8607
 100   2.0000      -1.340650       -36.4809
 101   2.0000      -1.320284       -35.9267
 102   2.0000      -1.319589       -35.9079
 103   2.0000      -1.305445       -35.5230
 104   2.0000      -1.304713       -35.5030
 105   2.0000      -1.147516       -31.2255
 106   2.0000      -1.135628       -30.9020
 107   2.0000      -1.129789       -30.7431
 108   2.0000      -1.126605       -30.6565
 109   2.0000      -1.053163       -28.6580
 110   2.0000      -1.020486       -27.7688
 111   2.0000      -1.018210       -27.7069
 112   2.0000      -1.009843       -27.4792
 113   2.0000      -1.007188       -27.4070
 114   2.0000      -1.003504       -27.3067
 115   2.0000      -1.003137       -27.2967
 116   2.0000      -1.001537       -27.2532
 117   2.0000      -0.994934       -27.0735
 118   2.0000      -0.992614       -27.0104
 119   2.0000      -0.991961       -26.9926
 120   2.0000      -0.983142       -26.7526
 121   2.0000      -0.980248       -26.6739
 122   2.0000      -0.978777       -26.6339
 123   2.0000      -0.968435       -26.3525
 124   2.0000      -0.931966       -25.3601
 125   2.0000      -0.930728       -25.3264
 126   2.0000      -0.912207       -24.8224
 127   2.0000      -0.907135       -24.6844
 128   2.0000      -0.900935       -24.5157
 129   2.0000      -0.894642       -24.3444
 130   2.0000      -0.893080       -24.3020
 131   2.0000      -0.891751       -24.2658
 132   2.0000      -0.886401       -24.1202
 133   2.0000      -0.882551       -24.0154
 134   2.0000      -0.862518       -23.4703
 135   2.0000      -0.852229       -23.1903
 136   2.0000      -0.850262       -23.1368
 137   2.0000      -0.846688       -23.0395
 138   2.0000      -0.840024       -22.8582
 139   2.0000      -0.839194       -22.8356
 140   2.0000      -0.837512       -22.7899
 141   2.0000      -0.830480       -22.5985
 142   2.0000      -0.825991       -22.4764
 143   2.0000      -0.817337       -22.2409
 144   2.0000      -0.808267       -21.9941
 145   2.0000      -0.786902       -21.4127
 146   2.0000      -0.784816       -21.3559
 147   2.0000      -0.767646       -20.8887
 148   2.0000      -0.766706       -20.8631
 149   2.0000      -0.763992       -20.7893
 150   2.0000      -0.759900       -20.6779
 151   2.0000      -0.741985       -20.1904
 152   2.0000      -0.738006       -20.0822
 153   2.0000      -0.728661       -19.8279
 154   2.0000      -0.717864       -19.5341
 155   2.0000      -0.716928       -19.5086
 156   2.0000      -0.710997       -19.3472
 157   2.0000      -0.709013       -19.2932
 158   2.0000      -0.698472       -19.0064
 159   2.0000      -0.693638       -18.8749
 160   2.0000      -0.689713       -18.7680
 161   2.0000      -0.684034       -18.6135
 162   2.0000      -0.681325       -18.5398
 163   2.0000      -0.678844       -18.4723
 164   2.0000      -0.668911       -18.2020
 165   2.0000      -0.665550       -18.1105
 166   2.0000      -0.657985       -17.9047
 167   2.0000      -0.656017       -17.8511
 168   2.0000      -0.654234       -17.8026
 169   2.0000      -0.646963       -17.6048
 170   2.0000      -0.642205       -17.4753
 171   2.0000      -0.641679       -17.4610
 172   2.0000      -0.636818       -17.3287
 173   2.0000      -0.636448       -17.3186
 174   2.0000      -0.631946       -17.1961
 175   2.0000      -0.629782       -17.1372
 176   2.0000      -0.627952       -17.0874
 177   2.0000      -0.626208       -17.0400
 178   2.0000      -0.622046       -16.9267
 179   2.0000      -0.616157       -16.7665
 180   2.0000      -0.614085       -16.7101
 181   2.0000      -0.610601       -16.6153
 182   2.0000      -0.609236       -16.5782
 183   2.0000      -0.592189       -16.1143
 184   2.0000      -0.590070       -16.0566
 185   2.0000      -0.586569       -15.9614
 186   2.0000      -0.584855       -15.9147
 187   2.0000      -0.584182       -15.8964
 188   2.0000      -0.582626       -15.8541
 189   2.0000      -0.581647       -15.8274
 190   2.0000      -0.575978       -15.6731
 191   2.0000      -0.573565       -15.6075
 192   2.0000      -0.572241       -15.5715
 193   2.0000      -0.566975       -15.4282
 194   2.0000      -0.557892       -15.1810
 195   2.0000      -0.554802       -15.0969
 196   2.0000      -0.552680       -15.0392
 197   2.0000      -0.551120       -14.9967
 198   2.0000      -0.546547       -14.8723
 199   2.0000      -0.545843       -14.8531
 200   2.0000      -0.543927       -14.8010
 201   2.0000      -0.539743       -14.6872
 202   2.0000      -0.536529       -14.5997
 203   2.0000      -0.533892       -14.5279
 204   2.0000      -0.533149       -14.5077
 205   2.0000      -0.532165       -14.4810
 206   2.0000      -0.531928       -14.4745
 207   2.0000      -0.529437       -14.4067
 208   2.0000      -0.529197       -14.4002
 209   2.0000      -0.526321       -14.3219
 210   2.0000      -0.525733       -14.3059
 211   2.0000      -0.523733       -14.2515
 212   2.0000      -0.518209       -14.1012
 213   2.0000      -0.514732       -14.0066
 214   2.0000      -0.514103       -13.9894
 215   2.0000      -0.512810       -13.9543
 216   2.0000      -0.512512       -13.9462
 217   2.0000      -0.508241       -13.8299
 218   2.0000      -0.506252       -13.7758
 219   2.0000      -0.503889       -13.7115
 220   2.0000      -0.497542       -13.5388
 221   2.0000      -0.496196       -13.5022
 222   2.0000      -0.495778       -13.4908
 223   2.0000      -0.493072       -13.4172
 224   2.0000      -0.492870       -13.4117
 225   2.0000      -0.491347       -13.3702
 226   2.0000      -0.486283       -13.2324
 227   2.0000      -0.485631       -13.2147
 228   2.0000      -0.482802       -13.1377
 229   2.0000      -0.479885       -13.0583
 230   2.0000      -0.478564       -13.0224
 231   2.0000      -0.477270       -12.9872
 232   2.0000      -0.472491       -12.8571
 233   2.0000      -0.469277       -12.7697
 234   2.0000      -0.468896       -12.7593
 235   2.0000      -0.467069       -12.7096
 236   2.0000      -0.463729       -12.6187
 237   2.0000      -0.462616       -12.5884
 238   2.0000      -0.461214       -12.5503
 239   2.0000      -0.454404       -12.3650
 240   2.0000      -0.452475       -12.3125
 241   2.0000      -0.451129       -12.2758
 242   2.0000      -0.449761       -12.2386
 243   2.0000      -0.448194       -12.1960
 244   2.0000      -0.445504       -12.1228
 245   2.0000      -0.445232       -12.1154
 246   2.0000      -0.442534       -12.0420
 247   2.0000      -0.441868       -12.0238
 248   2.0000      -0.437643       -11.9089
 249   2.0000      -0.434059       -11.8114
 250   2.0000      -0.430872       -11.7246
 251   2.0000      -0.429524       -11.6879
 252   2.0000      -0.428014       -11.6468
 253   2.0000      -0.427846       -11.6423
 254   2.0000      -0.426460       -11.6046
 255   2.0000      -0.425518       -11.5789
 256   2.0000      -0.421778       -11.4772
 257   2.0000      -0.413309       -11.2467
 258   2.0000      -0.412166       -11.2156
 259   2.0000      -0.411294       -11.1919
 260   2.0000      -0.406627       -11.0649
 261   2.0000      -0.404353       -11.0030
 262   2.0000      -0.400706       -10.9038
 263   2.0000      -0.387203       -10.5363
 264   2.0000      -0.386729       -10.5234
 265   2.0000      -0.386145       -10.5075
 266   2.0000      -0.380953       -10.3663
 267   2.0000      -0.374146       -10.1810
 268   2.0000      -0.368368       -10.0238
 269   2.0000      -0.363687        -9.8964
 270   2.0000      -0.351797        -9.5729
 271   2.0000      -0.350320        -9.5327
 272   2.0000      -0.340984        -9.2786
 273   2.0000      -0.339277        -9.2322
 274   2.0000      -0.336753        -9.1635
 275   2.0000      -0.334229        -9.0948
 276   2.0000      -0.330908        -9.0045
 277   2.0000      -0.329698        -8.9715
 278   2.0000      -0.328079        -8.9275
 279   2.0000      -0.316719        -8.6184
 280   2.0000      -0.316419        -8.6102
 281   2.0000      -0.304873        -8.2960
 282   2.0000      -0.300370        -8.1735
 283   2.0000      -0.293941        -7.9986
 284   2.0000      -0.269219        -7.3258
 285   2.0000      -0.238476        -6.4893
 286   0.0000      -0.126075        -3.4307
 287   0.0000      -0.094884        -2.5819
 288   0.0000      -0.090524        -2.4633
 289   0.0000      -0.059716        -1.6250
 290   0.0000      -0.058406        -1.5893

MULLIKEN ATOMIC CHARGES
-----------------------
   0 C :   -0.106897
   1 C :    0.240983
   2 F :   -0.172043
   3 C :    0.238308
   4 F :   -0.172736
   5 C :   -0.104448
   6 C :    0.116455
   7 C :    0.112972
   8 C :   -0.083744
   9 C :    0.043884
  10 C :    0.001301
  11 C :   -0.084819
  12 C :    0.165883
  13 O :   -0.178843
  14 C :   -0.107204
  15 C :    0.336618
  16 C :   -0.360887
  17 C :   -0.190960
  18 N :    0.146495
  19 C :   -0.181428
  20 N :    0.140981
  21 C :   -0.007750
  22 C :   -0.062419
  23 C :    0.036254
  24 C :    0.008934
  25 C :   -0.028849
  26 S :    0.192613
  27 C :   -0.023105
  28 C :    0.007406
  29 C :    0.024889
  30 C :   -0.184729
  31 S :    0.151344
  32 C :    0.204503
  33 C :   -0.055006
  34 C :   -0.065417
  35 N :   -0.035832
  36 C :    0.148222
  37 C :    0.148877
  38 N :   -0.035975
  39 F :   -0.134964
  40 F :   -0.136477
  41 C :    0.208847
  42 C :   -0.012201
  43 C :   -0.022529
  44 N :   -0.289712
  45 S :    0.548685
  46 N :   -0.293644
  47 C :   -0.183933
  48 C :    0.023994
  49 C :    0.001156
  50 C :   -0.000750
  51 S :    0.151885
  52 C :   -0.035025
  53 C :   -0.015729
  54 C :    0.071692
  55 C :   -0.122865
  56 S :    0.162556
  57 C :    0.094547
  58 C :   -0.144905
  59 C :    0.137859
  60 O :   -0.145406
  61 C :    0.017947
  62 C :   -0.085501
  63 C :    0.114420
  64 C :    0.113952
  65 C :   -0.109344
  66 C :    0.241221
  67 C :    0.241991
  68 C :   -0.108459
  69 F :   -0.172690
  70 F :   -0.171658
  71 C :   -0.084814
  72 C :    0.032638
  73 C :    0.272319
  74 C :   -0.339487
  75 C :   -0.209074
  76 N :    0.175506
  77 C :   -0.173878
  78 N :    0.151114
  79 H :    0.006124
  80 H :   -0.002593
  81 H :   -0.007807
  82 H :   -0.013742
  83 H :    0.008191
  84 H :    0.009541
  85 H :   -0.001721
  86 H :   -0.002528
  87 H :   -0.001759
  88 H :   -0.001392
  89 H :   -0.010007
  90 H :    0.002017
  91 H :    0.005443
  92 H :    0.025067
  93 H :   -0.009295
  94 H :    0.005812
  95 H :   -0.000059
  96 H :   -0.004407
Sum of atomic charges:   -0.0000000

LOEWDIN ATOMIC CHARGES
----------------------
   0 C :   -0.028969
   1 C :    0.065808
   2 F :   -0.049524
   3 C :    0.066698
   4 F :   -0.050431
   5 C :   -0.033900
   6 C :   -0.009446
   7 C :   -0.007111
   8 C :    0.017137
   9 C :   -0.021615
  10 C :   -0.050797
  11 C :    0.027634
  12 C :    0.082901
  13 O :   -0.169338
  14 C :   -0.115761
  15 C :    0.077263
  16 C :   -0.146442
  17 C :   -0.021557
  18 N :   -0.056452
  19 C :   -0.017388
  20 N :   -0.058448
  21 C :    0.059109
  22 C :   -0.189310
  23 C :   -0.004438
  24 C :   -0.064944
  25 C :   -0.161265
  26 S :    0.510459
  27 C :   -0.190367
  28 C :   -0.046506
  29 C :   -0.033637
  30 C :   -0.165365
  31 S :    0.478300
  32 C :   -0.041893
  33 C :   -0.015158
  34 C :   -0.016145
  35 N :   -0.050967
  36 C :    0.063518
  37 C :    0.063466
  38 N :   -0.051124
  39 F :   -0.024901
  40 F :   -0.025190
  41 C :   -0.039850
  42 C :   -0.037571
  43 C :   -0.037360
  44 N :   -0.277503
  45 S :    0.673575
  46 N :   -0.277598
  47 C :   -0.166482
  48 C :   -0.031715
  49 C :   -0.051702
  50 C :   -0.186626
  51 S :    0.480192
  52 C :   -0.153028
  53 C :   -0.052017
  54 C :   -0.007643
  55 C :   -0.186846
  56 S :    0.466461
  57 C :    0.052692
  58 C :   -0.100437
  59 C :    0.081829
  60 O :   -0.145720
  61 C :   -0.053191
  62 C :    0.029277
  63 C :   -0.009748
  64 C :   -0.006137
  65 C :   -0.030661
  66 C :    0.066447
  67 C :    0.066639
  68 C :   -0.033263
  69 F :   -0.050119
  70 F :   -0.049346
  71 C :    0.012454
  72 C :   -0.020128
  73 C :    0.065111
  74 C :   -0.143037
  75 C :   -0.019706
  76 N :   -0.042441
  77 C :   -0.020342
  78 N :   -0.055179
  79 H :    0.047597
  80 H :    0.044074
  81 H :    0.039886
  82 H :    0.039135
  83 H :    0.051036
  84 H :    0.040155
  85 H :    0.029100
  86 H :    0.030111
  87 H :    0.030652
  88 H :    0.030827
  89 H :    0.027648
  90 H :    0.031947
  91 H :    0.036426
  92 H :    0.046548
  93 H :    0.040464
  94 H :    0.047159
  95 H :    0.044746
  96 H :    0.039304

  Mayer bond orders larger than 0.100000
B(  0-C ,  1-C ) :   1.4391 B(  0-C ,  5-C ) :   0.1089 B(  0-C ,  7-C ) :   1.1891
B(  0-C , 79-H ) :   1.0063 B(  1-C ,  2-F ) :   1.1338 B(  1-C ,  3-C ) :   1.1948
B(  3-C ,  4-F ) :   1.1325 B(  3-C ,  5-C ) :   1.4411 B(  5-C ,  6-C ) :   1.1931
B(  5-C , 80-H ) :   1.0064 B(  6-C ,  7-C ) :   1.2612 B(  6-C , 11-C ) :   1.1831
B(  7-C ,  8-C ) :   1.2128 B(  8-C ,  9-C ) :   1.4556 B(  8-C , 81-H ) :   0.9887
B(  9-C , 10-C ) :   1.2245 B(  9-C , 15-C ) :   0.9787 B( 10-C , 11-C ) :   1.4723
B( 10-C , 12-C ) :   0.9509 B( 11-C , 82-H ) :   1.0164 B( 12-C , 13-O ) :   2.1408
B( 12-C , 14-C ) :   0.9798 B( 14-C , 15-C ) :   1.0896 B( 14-C , 21-C ) :   1.4718
B( 15-C , 16-C ) :   1.6130 B( 16-C , 17-C ) :   1.1475 B( 16-C , 19-C ) :   1.1488
B( 17-C , 18-N ) :   2.9606 B( 19-C , 20-N ) :   2.9576 B( 21-C , 22-C ) :   1.2840
B( 21-C , 83-H ) :   0.9396 B( 22-C , 23-C ) :   1.3317 B( 22-C , 26-S ) :   1.0879
B( 23-C , 24-C ) :   1.3604 B( 23-C , 84-H ) :   1.0032 B( 24-C , 25-C ) :   1.3762
B( 24-C , 85-H ) :   0.9956 B( 25-C , 26-S ) :   1.1360 B( 25-C , 27-C ) :   1.1961
B( 27-C , 28-C ) :   1.4342 B( 27-C , 31-S ) :   1.0895 B( 28-C , 29-C ) :   1.2942
B( 28-C , 86-H ) :   0.9971 B( 29-C , 30-C ) :   1.4399 B( 29-C , 87-H ) :   0.9813
B( 30-C , 31-S ) :   1.1239 B( 30-C , 32-C ) :   1.1772 B( 32-C , 33-C ) :   1.2934
B( 32-C , 41-C ) :   0.1258 B( 32-C , 43-C ) :   1.1940 B( 33-C , 34-C ) :   1.1194
B( 33-C , 38-N ) :   1.3796 B( 34-C , 35-N ) :   1.3835 B( 34-C , 41-C ) :   1.2913
B( 35-N , 36-C ) :   1.6565 B( 36-C , 37-C ) :   1.1076 B( 36-C , 40-F ) :   1.1842
B( 37-C , 38-N ) :   1.6608 B( 37-C , 39-F ) :   1.1870 B( 41-C , 42-C ) :   1.1951
B( 41-C , 47-C ) :   1.1778 B( 42-C , 43-C ) :   1.1010 B( 42-C , 46-N ) :   1.5106
B( 43-C , 44-N ) :   1.5163 B( 44-N , 45-S ) :   1.2779 B( 44-N , 46-N ) :   0.1510
B( 45-S , 46-N ) :   1.2794 B( 47-C , 48-C ) :   1.4477 B( 47-C , 51-S ) :   1.1199
B( 48-C , 49-C ) :   1.2925 B( 48-C , 88-H ) :   0.9812 B( 49-C , 50-C ) :   1.4402
B( 49-C , 89-H ) :   0.9950 B( 50-C , 51-S ) :   1.0928 B( 50-C , 52-C ) :   1.1810
B( 52-C , 53-C ) :   1.4339 B( 52-C , 56-S ) :   1.1606 B( 53-C , 54-C ) :   1.3415
B( 53-C , 90-H ) :   0.9921 B( 54-C , 55-C ) :   1.4194 B( 54-C , 91-H ) :   0.9894
B( 55-C , 56-S ) :   1.1010 B( 55-C , 57-C ) :   1.1489 B( 57-C , 58-C ) :   1.6356
B( 57-C , 92-H ) :   0.9309 B( 58-C , 59-C ) :   0.9497 B( 58-C , 73-C ) :   1.0531
B( 59-C , 60-O ) :   2.2675 B( 59-C , 61-C ) :   0.9144 B( 61-C , 62-C ) :   1.4756
B( 61-C , 72-C ) :   1.2242 B( 62-C , 63-C ) :   1.1896 B( 62-C , 93-H ) :   1.0168
B( 63-C , 64-C ) :   1.2596 B( 63-C , 68-C ) :   1.1934 B( 64-C , 65-C ) :   1.1875
B( 64-C , 71-C ) :   1.2133 B( 65-C , 66-C ) :   1.4408 B( 65-C , 68-C ) :   0.1094
B( 65-C , 94-H ) :   1.0075 B( 66-C , 67-C ) :   1.1926 B( 66-C , 70-F ) :   1.1341
B( 67-C , 68-C ) :   1.4409 B( 67-C , 69-F ) :   1.1326 B( 68-C , 95-H ) :   1.0079
B( 71-C , 72-C ) :   1.4561 B( 71-C , 96-H ) :   0.9943 B( 72-C , 73-C ) :   0.9951
B( 73-C , 74-C ) :   1.6398 B( 74-C , 75-C ) :   1.1648 B( 74-C , 77-C ) :   1.1320
B( 75-C , 76-N ) :   3.0083 B( 77-C , 78-N ) :   2.9837

-----------------------------------------------------------------------------
         ABSORPTION SPECTRUM VIA TRANSITION ELECTRIC DIPOLE MOMENTS
-----------------------------------------------------------------------------
State   Energy  Wavelength   fosc         T2         TX        TY        TZ
        (cm-1)    (nm)                  (au**2)     (au)      (au)      (au)
-----------------------------------------------------------------------------
   0    9737.0   1027.0   1.196275900  40.44671   1.53889   5.29689   3.16567
   1   17453.5    573.0   0.181001404   3.41408   1.83088   0.09856   0.22858
   2   18222.2    548.8   0.609661967  11.01450  -1.46531  -2.49878  -1.61970
   3   19094.0    523.7   0.581853059  10.03211   0.08456  -2.69734  -1.65811
   4   24031.2    416.1   0.083507273   1.14399  -0.52476  -0.81796  -0.44673
   5   25676.2    389.5   0.075860255   0.97266  -0.10181  -0.54330  -0.81677
   6   25802.0    387.6   0.085993361   1.09720  -0.32620   0.93612   0.33835
   7   26162.1    382.2   0.003518837   0.04428   0.04629  -0.00200  -0.20526
   8   26455.4    378.0   0.030512206   0.37969   0.57088  -0.10025  -0.20914
   9   26742.8    373.9   0.022962479   0.28268   0.18637  -0.49455   0.05795
  10   26989.4    370.5   0.002177293   0.02656   0.00435  -0.16290   0.00142
  11   27132.0    368.6   0.011002743   0.13350  -0.16367  -0.13386  -0.29799
  12   27669.5    361.4   0.474574128   5.64648   1.13823   1.31872   1.61613
  13   27896.0    358.5   0.092015798   1.08592  -0.19634  -0.24422  -0.99384
  14   27947.5    357.8   0.004487492   0.05286  -0.16208  -0.07844  -0.14296
  15   28644.3    349.1   0.052352891   0.60170   0.04731  -0.58948  -0.50197
  16   29360.9    340.6   0.047331133   0.53071  -0.51571   0.31901  -0.40371
  17   29664.4    337.1   0.024312871   0.26982  -0.04899  -0.29726  -0.42315
  18   29717.1    336.5   0.008652908   0.09586   0.25081  -0.04092   0.17687
  19   29867.4    334.8   0.081402364   0.89725  -0.79733   0.14751  -0.48965
  20   30251.3    330.6   0.281916099   3.06797   0.11673   1.61701   0.66303
  21   30829.5    324.4   0.024814029   0.26498  -0.22414   0.36195  -0.28935
  22   31675.9    315.7   0.199678045   2.07528  -0.67853   0.08762  -1.26775
  23   31825.6    314.2   0.014778037   0.15287  -0.25519   0.23508  -0.18023
  24   32239.3    310.2   0.022660944   0.23140   0.23024   0.12963   0.40198
  25   32363.7    309.0   0.004564217   0.04643  -0.15846   0.12922  -0.06798
  26   32404.3    308.6   0.008761807   0.08902   0.15463  -0.22546  -0.11947
  27   32520.1    307.5   0.017759184   0.17978   0.14428  -0.30901  -0.25195
  28   33115.3    302.0   0.180150674   1.79095   0.42325   0.04432   1.26880
  29   33254.3    300.7   0.049486874   0.48991   0.11068   0.20715   0.65935
  30   33502.3    298.5   0.141437533   1.38984  -0.81314   0.08180  -0.84968
  31   33617.6    297.5   0.079948535   0.78292  -0.32822  -0.75024  -0.33516
  32   34094.8    293.3   0.229408837   2.21512  -0.57874  -0.19036  -1.35792
  33   34181.3    292.6   0.139720806   1.34570  -0.73019  -0.02889  -0.90094
  34   34573.6    289.2   0.058387343   0.55597   0.31477   0.11276   0.66646
  35   34700.8    288.2   0.063215535   0.59974   0.43127   0.13041   0.62987
  36   34977.5    285.9   0.144546068   1.36048  -0.67877  -0.40553  -0.85749
  37   35188.3    284.2   0.054781145   0.51252   0.28392   0.47040   0.45895
  38   35583.9    281.0   0.031114091   0.28786   0.02109   0.16186   0.51109
  39   35693.9    280.2   0.124777129   1.15085   0.68723   0.28496   0.77289
  40   35812.9    279.2   0.221425109   2.03546   0.90910  -0.54811   0.95320
  41   36066.7    277.3   0.094004571   0.85806  -0.15983   0.83231   0.37387
  42   36365.8    275.0   0.108464156   0.98190  -0.30084  -0.47895  -0.81364
  43   36518.3    273.8   0.219404463   1.97793   0.85152  -1.10685  -0.16651
  44   36624.5    273.0   0.453234619   4.07406  -1.25804   0.73997  -1.39422
  45   36766.5    272.0   0.230721493   2.06591   0.82129  -0.58418   1.02475
  46   36872.3    271.2   0.010929802   0.09759  -0.04454   0.13008  -0.28050
  47   37661.4    265.5   0.112089428   0.97981  -0.60435   0.18267  -0.76237
  48   38013.9    263.1   0.020452020   0.17712  -0.20257  -0.07989  -0.36014
  49   38281.0    261.2   0.001947165   0.01675  -0.06057   0.08203   0.07968
  50   38466.6    260.0   0.031220632   0.26720   0.34580   0.06008   0.37949
  51   38897.7    257.1   0.040774814   0.34510  -0.15695  -0.43224  -0.36556
  52   39111.1    255.7   0.198560962   1.67136   0.86390  -0.93071   0.24250
  53   39355.6    254.1   0.086945672   0.72731  -0.34504   0.77418   0.09430
  54   39611.1    252.5   0.036692680   0.30496  -0.18206  -0.49456   0.16500
  55   40234.2    248.5   0.093766293   0.76723   0.37291   0.38863   0.69075

FINAL SINGLE POINT ENERGY     -5394.627514948980

DIPOLE MOMENT
-------------
                                X             Y             Z
Electronic contribution:     -6.66245       3.00010      -0.23788
Nuclear contribution   :      8.95413      -5.15663      -0.34646
                        -----------------------------------------
Total Dipole Moment    :      2.29168      -2.15653      -0.58434
                        -----------------------------------------
Magnitude (a.u.)       :      3.20061
Magnitude (Debye)      :      8.13530

Rotational constants in cm-1:     0.001947     0.000133     0.000128
Rotational constants in MHz :    58.358056     4.001699     3.843411

                             ****ORCA TERMINATED NORMALLY****
TOTAL RUN TIME: 0 days 0 hours 9 minutes 52 seconds 726 msec
