                         Program Version 4.2.0 -  RELEASE  -
|  1> # ORCA input file
|  2> # SCF done       -208.900112894842          0.000960432432
|  3> ! CAM-B3LYP def2-SVP def2/J RIJCOSX Grid4 TightSCF
|  4> %maxcore 5000
|  5> %tddft
|  6>     Mode sTDDFT
|  7>     Ethresh 5.0
|  8>     maxcore 5000
|  9> end
| 10>
| 11> %pal
| 12>   nprocs 6
| 13>   end
| 14> * xyz 0 1
| 15>    C        1.40370        -0.49200        -7.37819
| 16>    C        1.67940         0.83643        -7.21471
| 17>    F        2.64348         1.41931        -7.94149
| 18>    C        0.95769         1.60939        -6.28400
| 19>    F        1.24878         2.91129        -6.14474
| 20>    C       -0.02944         1.04258        -5.52778
| 21>    C       -0.33590        -0.32429        -5.67206
| 22>    C        0.39098        -1.10680        -6.61469
| 23>    C        0.09791        -2.48023        -6.78059
| 24>    C       -0.88972        -3.05411        -6.02430
| 25>    C       -1.60021        -2.26759        -5.07914
| 26>    C       -1.34567        -0.93925        -4.89930
| 27>    C       -2.58657        -3.11243        -4.37508
| 28>    O       -3.35667        -2.71557        -3.52181
| 29>    C       -2.41176        -4.47347        -4.91806
| 30>    C       -1.41631        -4.41664        -5.97352
| 31>    C       -1.04560        -5.42175        -6.83187
| 32>    C       -1.58004        -6.72632        -6.88136
| 33>    N       -1.96038        -7.80291        -7.01083
| 34>    C       -0.06883        -5.27565        -7.83907
| 35>    N        0.71184        -5.22666        -8.67985
| 36>    C       -2.99665        -5.64716        -4.50052
| 37>    C       -3.97360        -5.91475        -3.53295
| 38>    C       -4.74033        -5.10187        -2.69788
| 39>    C       -5.61882        -5.80054        -1.89537
| 40>    C       -5.54217        -7.18586        -2.10367
| 41>    S       -4.38599        -7.61478        -3.28890
| 42>    C       -6.41974        -7.97678        -1.33220
| 43>    C       -7.26647        -7.29793        -0.45751
| 44>   Si       -6.92602        -5.43608        -0.57281
| 45>    C       -6.17201        -4.72919         1.02045
| 46>    C       -8.40331        -4.44410        -1.23281
| 47>    C       -8.10344        -8.16657         0.23411
| 48>    C       -7.91221        -9.49840        -0.08477
| 49>    S       -6.64753        -9.68129        -1.28194
| 50>    C       -8.57923       -10.66275         0.42644
| 51>    C       -8.04050       -11.92790         0.23326
| 52>    C       -8.64987       -13.07507         0.71189
| 53>    C       -9.85056       -13.04652         1.40961
| 54>    C      -10.44680       -11.76605         1.62767
| 55>    N      -11.59772       -11.67156         2.31714
| 56>    C      -12.13083       -10.49234         2.49491
| 57>    C      -11.53449        -9.33454         1.97325
| 58>    N      -10.40455        -9.38675         1.32001
| 59>    C       -9.81641       -10.58237         1.13662
| 60>    C      -10.44456       -14.26280         1.88802
| 61>    C      -11.72164       -14.48891         2.36845
| 62>    C      -11.95657       -15.80804         2.74027
| 63>    C      -10.83403       -16.61062         2.54656
| 64>    S       -9.50274       -15.74024         1.89410
| 65>    C      -10.96145       -17.96872         2.90407
| 66>    C      -12.19941       -18.36249         3.42094
| 67>   Si      -13.36750       -16.86897         3.42937
| 68>    C      -13.89789       -16.35636         5.17973
| 69>    C      -14.80843       -17.06619         2.20978
| 70>    C      -12.20548       -19.70061         3.76917
| 71>    C      -11.00946       -20.36156         3.49899
| 72>    S       -9.82684       -19.25223         2.82838
| 73>    C      -10.72098       -21.70000         3.81858
| 74>    C       -9.66855       -22.48193         3.43118
| 75>    C       -9.26528       -23.63420         4.27331
| 76>    O       -9.89995       -24.14049         5.17145
| 77>    C       -7.89948       -23.98119         3.82172
| 78>    C       -7.02218       -24.88197         4.35129
| 79>    C       -5.74151       -25.01745         3.76853
| 80>    C       -5.39476       -24.21282         2.64474
| 81>    C       -4.11316       -24.34829         2.07470
| 82>    C       -3.21880       -25.24134         2.59427
| 83>    C       -3.56277       -26.03666         3.70503
| 84>    C       -4.79763       -25.92872         4.28048
| 85>    F       -2.66443       -26.90291         4.19579
| 86>    F       -2.00023       -25.36853         2.05033
| 87>    C       -6.32884       -23.29490         2.11104
| 88>    C       -7.56358       -23.18471         2.68996
| 89>    C       -8.72181       -22.36208         2.34900
| 90>    C       -8.97336       -21.82504         1.11146
| 91>    C      -10.23548       -21.31937         0.74020
| 92>    N      -11.26490       -20.94840         0.39180
| 93>    C       -8.04057       -21.81813         0.05711
| 94>    N       -7.30708       -21.77623        -0.82529
| 95>    H        1.96492        -1.06917        -8.09630
| 96>    H       -0.57275         1.64754        -4.81892
| 97>    H        0.66911        -3.04174        -7.50133
| 98>    H       -1.90614        -0.36695        -4.17565
| 99>    H       -2.63883        -6.54337        -4.99344
|100>    H       -4.63599        -4.03298        -2.69869
|101>    H       -5.34864        -5.33837         1.38056
|102>    H       -6.91634        -4.67399         1.80810
|103>    H       -5.79465        -3.72612         0.85027
|104>    H       -8.81983        -4.89061        -2.13018
|105>    H       -8.10339        -3.42947        -1.47299
|106>    H       -9.19199        -4.38943        -0.48962
|107>    H       -8.83751        -7.85745         0.95329
|108>    H       -7.10794       -12.02183        -0.30413
|109>    H       -8.17478       -14.02808         0.52955
|110>    H      -13.05290       -10.45683         3.05946
|111>    H      -11.98186        -8.35689         2.09214
|112>    H      -12.44632       -13.70036         2.43709
|113>    H      -13.04752       -16.25979         5.84759
|114>    H      -14.57573       -17.08895         5.60545
|115>    H      -14.41490       -15.40274         5.15794
|116>    H      -14.46434       -17.41102         1.23952
|117>    H      -15.32508       -16.12258         2.06671
|118>    H      -15.53082       -17.78553         2.58179
|119>    H      -13.05256       -20.21455         4.18755
|120>    H      -11.37671       -22.15086         4.55812
|121>    H       -7.29885       -25.48246         5.20437
|122>    H       -3.83506       -23.74924         1.22171
|123>    H       -5.04587       -26.54474         5.13055
|124>    H       -6.04115       -22.69216         1.26425
|125> *
|126>
|127>                          ****END OF INPUT****

CARTESIAN COORDINATES (ANGSTROEM)
---------------------------------
  C      1.403700   -0.492000   -7.378190
  C      1.679400    0.836430   -7.214710
  F      2.643480    1.419310   -7.941490
  C      0.957690    1.609390   -6.284000
  F      1.248780    2.911290   -6.144740
  C     -0.029440    1.042580   -5.527780
  C     -0.335900   -0.324290   -5.672060
  C      0.390980   -1.106800   -6.614690
  C      0.097910   -2.480230   -6.780590
  C     -0.889720   -3.054110   -6.024300
  C     -1.600210   -2.267590   -5.079140
  C     -1.345670   -0.939250   -4.899300
  C     -2.586570   -3.112430   -4.375080
  O     -3.356670   -2.715570   -3.521810
  C     -2.411760   -4.473470   -4.918060
  C     -1.416310   -4.416640   -5.973520
  C     -1.045600   -5.421750   -6.831870
  C     -1.580040   -6.726320   -6.881360
  N     -1.960380   -7.802910   -7.010830
  C     -0.068830   -5.275650   -7.839070
  N      0.711840   -5.226660   -8.679850
  C     -2.996650   -5.647160   -4.500520
  C     -3.973600   -5.914750   -3.532950
  C     -4.740330   -5.101870   -2.697880
  C     -5.618820   -5.800540   -1.895370
  C     -5.542170   -7.185860   -2.103670
  S     -4.385990   -7.614780   -3.288900
  C     -6.419740   -7.976780   -1.332200
  C     -7.266470   -7.297930   -0.457510
  Si    -6.926020   -5.436080   -0.572810
  C     -6.172010   -4.729190    1.020450
  C     -8.403310   -4.444100   -1.232810
  C     -8.103440   -8.166570    0.234110
  C     -7.912210   -9.498400   -0.084770
  S     -6.647530   -9.681290   -1.281940
  C     -8.579230  -10.662750    0.426440
  C     -8.040500  -11.927900    0.233260
  C     -8.649870  -13.075070    0.711890
  C     -9.850560  -13.046520    1.409610
  C    -10.446800  -11.766050    1.627670
  N    -11.597720  -11.671560    2.317140
  C    -12.130830  -10.492340    2.494910
  C    -11.534490   -9.334540    1.973250
  N    -10.404550   -9.386750    1.320010
  C     -9.816410  -10.582370    1.136620
  C    -10.444560  -14.262800    1.888020
  C    -11.721640  -14.488910    2.368450
  C    -11.956570  -15.808040    2.740270
  C    -10.834030  -16.610620    2.546560
  S     -9.502740  -15.740240    1.894100
  C    -10.961450  -17.968720    2.904070
  C    -12.199410  -18.362490    3.420940
  Si   -13.367500  -16.868970    3.429370
  C    -13.897890  -16.356360    5.179730
  C    -14.808430  -17.066190    2.209780
  C    -12.205480  -19.700610    3.769170
  C    -11.009460  -20.361560    3.498990
  S     -9.826840  -19.252230    2.828380
  C    -10.720980  -21.700000    3.818580
  C     -9.668550  -22.481930    3.431180
  C     -9.265280  -23.634200    4.273310
  O     -9.899950  -24.140490    5.171450
  C     -7.899480  -23.981190    3.821720
  C     -7.022180  -24.881970    4.351290
  C     -5.741510  -25.017450    3.768530
  C     -5.394760  -24.212820    2.644740
  C     -4.113160  -24.348290    2.074700
  C     -3.218800  -25.241340    2.594270
  C     -3.562770  -26.036660    3.705030
  C     -4.797630  -25.928720    4.280480
  F     -2.664430  -26.902910    4.195790
  F     -2.000230  -25.368530    2.050330
  C     -6.328840  -23.294900    2.111040
  C     -7.563580  -23.184710    2.689960
  C     -8.721810  -22.362080    2.349000
  C     -8.973360  -21.825040    1.111460
  C    -10.235480  -21.319370    0.740200
  N    -11.264900  -20.948400    0.391800
  C     -8.040570  -21.818130    0.057110
  N     -7.307080  -21.776230   -0.825290
  H      1.964920   -1.069170   -8.096300
  H     -0.572750    1.647540   -4.818920
  H      0.669110   -3.041740   -7.501330
  H     -1.906140   -0.366950   -4.175650
  H     -2.638830   -6.543370   -4.993440
  H     -4.635990   -4.032980   -2.698690
  H     -5.348640   -5.338370    1.380560
  H     -6.916340   -4.673990    1.808100
  H     -5.794650   -3.726120    0.850270
  H     -8.819830   -4.890610   -2.130180
  H     -8.103390   -3.429470   -1.472990
  H     -9.191990   -4.389430   -0.489620
  H     -8.837510   -7.857450    0.953290
  H     -7.107940  -12.021830   -0.304130
  H     -8.174780  -14.028080    0.529550
  H    -13.052900  -10.456830    3.059460
  H    -11.981860   -8.356890    2.092140
  H    -12.446320  -13.700360    2.437090
  H    -13.047520  -16.259790    5.847590
  H    -14.575730  -17.088950    5.605450
  H    -14.414900  -15.402740    5.157940
  H    -14.464340  -17.411020    1.239520
  H    -15.325080  -16.122580    2.066710
  H    -15.530820  -17.785530    2.581790
  H    -13.052560  -20.214550    4.187550
  H    -11.376710  -22.150860    4.558120
  H     -7.298850  -25.482460    5.204370
  H     -3.835060  -23.749240    1.221710
  H     -5.045870  -26.544740    5.130550
  H     -6.041150  -22.692160    1.264250

 Total Charge           Charge          ....    0
 Multiplicity           Mult            ....    1
 Number of Electrons    NEL             ....  588
 Basis Dimension        Dim             .... 1294

ORBITAL ENERGIES
----------------

  NO   OCC          E(Eh)            E(eV)
   0   2.0000     -88.972870     -2421.0749
   1   2.0000     -88.972362     -2421.0610
   2   2.0000     -88.969830     -2420.9922
   3   2.0000     -88.968897     -2420.9668
   4   2.0000     -66.208914     -1801.6361
   5   2.0000     -66.208080     -1801.6135
   6   2.0000     -24.793907      -674.6765
   7   2.0000     -24.793800      -674.6736
   8   2.0000     -24.793103      -674.6546
   9   2.0000     -24.792619      -674.6415
  10   2.0000     -19.212681      -522.8036
  11   2.0000     -19.207597      -522.6653
  12   2.0000     -14.437859      -392.8741
  13   2.0000     -14.437699      -392.8698
  14   2.0000     -14.410211      -392.1218
  15   2.0000     -14.410009      -392.1163
  16   2.0000     -14.407225      -392.0405
  17   2.0000     -14.407065      -392.0362
  18   2.0000     -10.376565      -282.3607
  19   2.0000     -10.376327      -282.3542
  20   2.0000     -10.375913      -282.3429
  21   2.0000     -10.375540      -282.3328
  22   2.0000     -10.364210      -282.0245
  23   2.0000     -10.359990      -281.9097
  24   2.0000     -10.335961      -281.2558
  25   2.0000     -10.335389      -281.2402
  26   2.0000     -10.335075      -281.2317
  27   2.0000     -10.333743      -281.1954
  28   2.0000     -10.333436      -281.1871
  29   2.0000     -10.333069      -281.1771
  30   2.0000     -10.332704      -281.1672
  31   2.0000     -10.332400      -281.1589
  32   2.0000     -10.328281      -281.0468
  33   2.0000     -10.326513      -280.9987
  34   2.0000     -10.318949      -280.7929
  35   2.0000     -10.317270      -280.7472
  36   2.0000     -10.314753      -280.6787
  37   2.0000     -10.314373      -280.6684
  38   2.0000     -10.314160      -280.6626
  39   2.0000     -10.313391      -280.6416
  40   2.0000     -10.313131      -280.6346
  41   2.0000     -10.312962      -280.6300
  42   2.0000     -10.312272      -280.6112
  43   2.0000     -10.311689      -280.5953
  44   2.0000     -10.310951      -280.5752
  45   2.0000     -10.309563      -280.5375
  46   2.0000     -10.307652      -280.4855
  47   2.0000     -10.307317      -280.4764
  48   2.0000     -10.305242      -280.4199
  49   2.0000     -10.304872      -280.4098
  50   2.0000     -10.304834      -280.4088
  51   2.0000     -10.304387      -280.3966
  52   2.0000     -10.301897      -280.3289
  53   2.0000     -10.300420      -280.2887
  54   2.0000     -10.297319      -280.2043
  55   2.0000     -10.296895      -280.1928
  56   2.0000     -10.296557      -280.1836
  57   2.0000     -10.296516      -280.1824
  58   2.0000     -10.296447      -280.1806
  59   2.0000     -10.296395      -280.1791
  60   2.0000     -10.296053      -280.1699
  61   2.0000     -10.296025      -280.1691
  62   2.0000     -10.295673      -280.1595
  63   2.0000     -10.295559      -280.1564
  64   2.0000     -10.295340      -280.1504
  65   2.0000     -10.291634      -280.0496
  66   2.0000     -10.288241      -279.9573
  67   2.0000     -10.287853      -279.9467
  68   2.0000     -10.286265      -279.9035
  69   2.0000     -10.286186      -279.9013
  70   2.0000     -10.277326      -279.6603
  71   2.0000     -10.276704      -279.6433
  72   2.0000     -10.267316      -279.3879
  73   2.0000     -10.266748      -279.3724
  74   2.0000     -10.266229      -279.3583
  75   2.0000     -10.265581      -279.3406
  76   2.0000     -10.259581      -279.1774
  77   2.0000     -10.258634      -279.1516
  78   2.0000     -10.258154      -279.1386
  79   2.0000     -10.257033      -279.1081
  80   2.0000      -8.067843      -219.5372
  81   2.0000      -8.067825      -219.5367
  82   2.0000      -8.065059      -219.4614
  83   2.0000      -8.064249      -219.4394
  84   2.0000      -6.036997      -164.2750
  85   2.0000      -6.036861      -164.2713
  86   2.0000      -6.034216      -164.1994
  87   2.0000      -6.033375      -164.1765
  88   2.0000      -6.033001      -164.1663
  89   2.0000      -6.032928      -164.1643
  90   2.0000      -6.030239      -164.0911
  91   2.0000      -6.030235      -164.0910
  92   2.0000      -6.030056      -164.0862
  93   2.0000      -6.029433      -164.0692
  94   2.0000      -6.027345      -164.0124
  95   2.0000      -6.026506      -163.9896
  96   2.0000      -5.373600      -146.2231
  97   2.0000      -5.373029      -146.2075
  98   2.0000      -3.737240      -101.6955
  99   2.0000      -3.736655      -101.6795
 100   2.0000      -3.735858      -101.6579
 101   2.0000      -3.735211      -101.6403
 102   2.0000      -3.734553      -101.6224
 103   2.0000      -3.734009      -101.6075
 104   2.0000      -1.315960       -35.8091
 105   2.0000      -1.315759       -35.8036
 106   2.0000      -1.301146       -35.4060
 107   2.0000      -1.300922       -35.3999
 108   2.0000      -1.127058       -30.6688
 109   2.0000      -1.122768       -30.5521
 110   2.0000      -1.095391       -29.8071
 111   2.0000      -1.019398       -27.7392
 112   2.0000      -1.015276       -27.6271
 113   2.0000      -1.013547       -27.5800
 114   2.0000      -1.008811       -27.4511
 115   2.0000      -1.007165       -27.4064
 116   2.0000      -0.998516       -27.1710
 117   2.0000      -0.997946       -27.1555
 118   2.0000      -0.989811       -26.9341
 119   2.0000      -0.987451       -26.8699
 120   2.0000      -0.986450       -26.8427
 121   2.0000      -0.982340       -26.7308
 122   2.0000      -0.975142       -26.5350
 123   2.0000      -0.974533       -26.5184
 124   2.0000      -0.961705       -26.1693
 125   2.0000      -0.927299       -25.2331
 126   2.0000      -0.926576       -25.2134
 127   2.0000      -0.910845       -24.7853
 128   2.0000      -0.903251       -24.5787
 129   2.0000      -0.894851       -24.3501
 130   2.0000      -0.889292       -24.1989
 131   2.0000      -0.886888       -24.1335
 132   2.0000      -0.883277       -24.0352
 133   2.0000      -0.876438       -23.8491
 134   2.0000      -0.873805       -23.7774
 135   2.0000      -0.857730       -23.3400
 136   2.0000      -0.851480       -23.1700
 137   2.0000      -0.849878       -23.1264
 138   2.0000      -0.844101       -22.9691
 139   2.0000      -0.835137       -22.7252
 140   2.0000      -0.834649       -22.7120
 141   2.0000      -0.831841       -22.6355
 142   2.0000      -0.829821       -22.5806
 143   2.0000      -0.814953       -22.1760
 144   2.0000      -0.806277       -21.9399
 145   2.0000      -0.798291       -21.7226
 146   2.0000      -0.797850       -21.7106
 147   2.0000      -0.784107       -21.3366
 148   2.0000      -0.775120       -21.0921
 149   2.0000      -0.775005       -21.0890
 150   2.0000      -0.768857       -20.9217
 151   2.0000      -0.764541       -20.8042
 152   2.0000      -0.761496       -20.7214
 153   2.0000      -0.759582       -20.6693
 154   2.0000      -0.755499       -20.5582
 155   2.0000      -0.742682       -20.2094
 156   2.0000      -0.731255       -19.8985
 157   2.0000      -0.721432       -19.6312
 158   2.0000      -0.712896       -19.3989
 159   2.0000      -0.710213       -19.3259
 160   2.0000      -0.704533       -19.1713
 161   2.0000      -0.695070       -18.9138
 162   2.0000      -0.685135       -18.6435
 163   2.0000      -0.682963       -18.5844
 164   2.0000      -0.678937       -18.4748
 165   2.0000      -0.675559       -18.3829
 166   2.0000      -0.666784       -18.1441
 167   2.0000      -0.661199       -17.9921
 168   2.0000      -0.654434       -17.8080
 169   2.0000      -0.650930       -17.7127
 170   2.0000      -0.647739       -17.6259
 171   2.0000      -0.645398       -17.5622
 172   2.0000      -0.636882       -17.3304
 173   2.0000      -0.636259       -17.3135
 174   2.0000      -0.635292       -17.2872
 175   2.0000      -0.631688       -17.1891
 176   2.0000      -0.623361       -16.9625
 177   2.0000      -0.622224       -16.9316
 178   2.0000      -0.614173       -16.7125
 179   2.0000      -0.610604       -16.6154
 180   2.0000      -0.609043       -16.5729
 181   2.0000      -0.606804       -16.5120
 182   2.0000      -0.604430       -16.4474
 183   2.0000      -0.596306       -16.2263
 184   2.0000      -0.590466       -16.0674
 185   2.0000      -0.581876       -15.8336
 186   2.0000      -0.580863       -15.8061
 187   2.0000      -0.580670       -15.8008
 188   2.0000      -0.580563       -15.7979
 189   2.0000      -0.573817       -15.6144
 190   2.0000      -0.572070       -15.5668
 191   2.0000      -0.567849       -15.4520
 192   2.0000      -0.561971       -15.2920
 193   2.0000      -0.557998       -15.1839
 194   2.0000      -0.549400       -14.9499
 195   2.0000      -0.548951       -14.9377
 196   2.0000      -0.546555       -14.8725
 197   2.0000      -0.546061       -14.8591
 198   2.0000      -0.542541       -14.7633
 199   2.0000      -0.542456       -14.7610
 200   2.0000      -0.542349       -14.7581
 201   2.0000      -0.535077       -14.5602
 202   2.0000      -0.534067       -14.5327
 203   2.0000      -0.532801       -14.4983
 204   2.0000      -0.532044       -14.4777
 205   2.0000      -0.529768       -14.4157
 206   2.0000      -0.525861       -14.3094
 207   2.0000      -0.525643       -14.3035
 208   2.0000      -0.522622       -14.2213
 209   2.0000      -0.519569       -14.1382
 210   2.0000      -0.517479       -14.0813
 211   2.0000      -0.516369       -14.0511
 212   2.0000      -0.513654       -13.9772
 213   2.0000      -0.512070       -13.9341
 214   2.0000      -0.509711       -13.8699
 215   2.0000      -0.507688       -13.8149
 216   2.0000      -0.507397       -13.8070
 217   2.0000      -0.504939       -13.7401
 218   2.0000      -0.498027       -13.5520
 219   2.0000      -0.496284       -13.5046
 220   2.0000      -0.495734       -13.4896
 221   2.0000      -0.495196       -13.4750
 222   2.0000      -0.493905       -13.4398
 223   2.0000      -0.493287       -13.4230
 224   2.0000      -0.491434       -13.3726
 225   2.0000      -0.490540       -13.3483
 226   2.0000      -0.486754       -13.2453
 227   2.0000      -0.483967       -13.1694
 228   2.0000      -0.483405       -13.1541
 229   2.0000      -0.480477       -13.0745
 230   2.0000      -0.479922       -13.0593
 231   2.0000      -0.479657       -13.0521
 232   2.0000      -0.478017       -13.0075
 233   2.0000      -0.477503       -12.9935
 234   2.0000      -0.475926       -12.9506
 235   2.0000      -0.473432       -12.8828
 236   2.0000      -0.471542       -12.8313
 237   2.0000      -0.469756       -12.7827
 238   2.0000      -0.465201       -12.6588
 239   2.0000      -0.463553       -12.6139
 240   2.0000      -0.460082       -12.5195
 241   2.0000      -0.459522       -12.5042
 242   2.0000      -0.458431       -12.4745
 243   2.0000      -0.456820       -12.4307
 244   2.0000      -0.449883       -12.2419
 245   2.0000      -0.444399       -12.0927
 246   2.0000      -0.443674       -12.0730
 247   2.0000      -0.442323       -12.0362
 248   2.0000      -0.441252       -12.0071
 249   2.0000      -0.440116       -11.9762
 250   2.0000      -0.439505       -11.9595
 251   2.0000      -0.438708       -11.9379
 252   2.0000      -0.437231       -11.8977
 253   2.0000      -0.435086       -11.8393
 254   2.0000      -0.432700       -11.7744
 255   2.0000      -0.426630       -11.6092
 256   2.0000      -0.425116       -11.5680
 257   2.0000      -0.422241       -11.4898
 258   2.0000      -0.420952       -11.4547
 259   2.0000      -0.420633       -11.4460
 260   2.0000      -0.418231       -11.3806
 261   2.0000      -0.415342       -11.3020
 262   2.0000      -0.411119       -11.1871
 263   2.0000      -0.407773       -11.0961
 264   2.0000      -0.400516       -10.8986
 265   2.0000      -0.400127       -10.8880
 266   2.0000      -0.397299       -10.8111
 267   2.0000      -0.394738       -10.7414
 268   2.0000      -0.392740       -10.6870
 269   2.0000      -0.389439       -10.5972
 270   2.0000      -0.389154       -10.5894
 271   2.0000      -0.384126       -10.4526
 272   2.0000      -0.383053       -10.4234
 273   2.0000      -0.381729       -10.3874
 274   2.0000      -0.381120       -10.3708
 275   2.0000      -0.373738       -10.1699
 276   2.0000      -0.365220        -9.9381
 277   2.0000      -0.349691        -9.5156
 278   2.0000      -0.346320        -9.4239
 279   2.0000      -0.336242        -9.1496
 280   2.0000      -0.335523        -9.1300
 281   2.0000      -0.334281        -9.0962
 282   2.0000      -0.334059        -9.0902
 283   2.0000      -0.331294        -9.0150
 284   2.0000      -0.330320        -8.9885
 285   2.0000      -0.328265        -8.9325
 286   2.0000      -0.323832        -8.8119
 287   2.0000      -0.312604        -8.5064
 288   2.0000      -0.311487        -8.4760
 289   2.0000      -0.302513        -8.2318
 290   2.0000      -0.295627        -8.0444
 291   2.0000      -0.291047        -7.9198
 292   2.0000      -0.262063        -7.1311
 293   2.0000      -0.240234        -6.5371
 294   0.0000      -0.101247        -2.7551
 295   0.0000      -0.090909        -2.4738
 296   0.0000      -0.068203        -1.8559
 297   0.0000      -0.054649        -1.4871
 298   0.0000      -0.051210        -1.3935

MULLIKEN ATOMIC CHARGES
-----------------------
   0 C :   -0.112185
   1 C :    0.243302
   2 F :   -0.173684
   3 C :    0.237980
   4 F :   -0.175286
   5 C :   -0.107974
   6 C :    0.121055
   7 C :    0.114325
   8 C :   -0.085621
   9 C :    0.047893
  10 C :    0.003576
  11 C :   -0.090378
  12 C :    0.157440
  13 O :   -0.166542
  14 C :   -0.103443
  15 C :    0.319567
  16 C :   -0.364882
  17 C :   -0.191625
  18 N :    0.147175
  19 C :   -0.182885
  20 N :    0.139517
  21 C :    0.058104
  22 C :   -0.115646
  23 C :   -0.007167
  24 C :   -0.140010
  25 C :   -0.057600
  26 S :    0.169855
  27 C :   -0.083446
  28 C :   -0.109083
  29 Si:    0.557739
  30 C :   -0.206068
  31 C :   -0.209390
  32 C :   -0.027013
  33 C :   -0.106948
  34 S :    0.135817
  35 C :    0.153914
  36 C :   -0.055970
  37 C :   -0.064268
  38 C :    0.168712
  39 C :   -0.047680
  40 N :   -0.027544
  41 C :    0.034926
  42 C :    0.034525
  43 N :   -0.028905
  44 C :   -0.046641
  45 C :   -0.109661
  46 C :   -0.031145
  47 C :   -0.114305
  48 C :   -0.073798
  49 S :    0.132635
  50 C :   -0.064005
  51 C :   -0.119940
  52 Si:    0.548467
  53 C :   -0.205047
  54 C :   -0.202758
  55 C :    0.015212
  56 C :   -0.088763
  57 S :    0.170252
  58 C :    0.051525
  59 C :   -0.147006
  60 C :    0.142450
  61 O :   -0.150103
  62 C :    0.011228
  63 C :   -0.087012
  64 C :    0.114114
  65 C :    0.113138
  66 C :   -0.109666
  67 C :    0.242672
  68 C :    0.240897
  69 C :   -0.108969
  70 F :   -0.174471
  71 F :   -0.173287
  72 C :   -0.084842
  73 C :    0.041216
  74 C :    0.252758
  75 C :   -0.327994
  76 C :   -0.214113
  77 N :    0.169049
  78 C :   -0.171810
  79 N :    0.148545
  80 H :    0.007406
  81 H :   -0.003440
  82 H :   -0.006990
  83 H :   -0.014810
  84 H :    0.002983
  85 H :    0.012736
  86 H :    0.056423
  87 H :    0.044748
  88 H :    0.050393
  89 H :    0.057419
  90 H :    0.050683
  91 H :    0.045303
  92 H :   -0.010690
  93 H :   -0.002486
  94 H :   -0.000864
  95 H :    0.012037
  96 H :    0.012088
  97 H :   -0.010229
  98 H :    0.056610
  99 H :    0.045953
 100 H :    0.044825
 101 H :    0.065241
 102 H :    0.044411
 103 H :    0.045916
 104 H :   -0.008156
 105 H :    0.023736
 106 H :   -0.011452
 107 H :    0.004084
 108 H :   -0.002094
 109 H :   -0.004790
Sum of atomic charges:   -0.0000000

LOEWDIN ATOMIC CHARGES
----------------------
   0 C :   -0.029492
   1 C :    0.065045
   2 F :   -0.051368
   3 C :    0.066437
   4 F :   -0.052356
   5 C :   -0.034866
   6 C :   -0.009511
   7 C :   -0.007592
   8 C :    0.015783
   9 C :   -0.022256
  10 C :   -0.049791
  11 C :    0.024980
  12 C :    0.086501
  13 O :   -0.154253
  14 C :   -0.112366
  15 C :    0.077492
  16 C :   -0.150139
  17 C :   -0.025319
  18 N :   -0.056955
  19 C :   -0.016962
  20 N :   -0.062023
  21 C :    0.049063
  22 C :   -0.184912
  23 C :   -0.000183
  24 C :   -0.210181
  25 C :   -0.159914
  26 S :    0.460783
  27 C :   -0.202575
  28 C :   -0.187629
  29 Si:    0.682902
  30 C :   -0.241177
  31 C :   -0.241691
  32 C :   -0.044353
  33 C :   -0.152196
  34 S :    0.444260
  35 C :   -0.037167
  36 C :   -0.014472
  37 C :   -0.015613
  38 C :   -0.034697
  39 C :    0.001149
  40 N :   -0.026725
  41 C :    0.006175
  42 C :    0.006075
  43 N :   -0.027051
  44 C :    0.001517
  45 C :   -0.154321
  46 C :   -0.043014
  47 C :   -0.190191
  48 C :   -0.198474
  49 S :    0.443797
  50 C :   -0.155526
  51 C :   -0.208659
  52 Si:    0.681766
  53 C :   -0.242303
  54 C :   -0.239890
  55 C :   -0.003066
  56 C :   -0.187212
  57 S :    0.475121
  58 C :    0.055554
  59 C :   -0.114231
  60 C :    0.081511
  61 O :   -0.151527
  62 C :   -0.052023
  63 C :    0.027392
  64 C :   -0.010354
  65 C :   -0.006636
  66 C :   -0.030982
  67 C :    0.065713
  68 C :    0.065648
  69 C :   -0.033646
  70 F :   -0.051952
  71 F :   -0.051021
  72 C :    0.011386
  73 C :   -0.018394
  74 C :    0.061073
  75 C :   -0.150250
  76 C :   -0.036414
  77 N :   -0.053250
  78 C :   -0.019647
  79 N :   -0.057959
  80 H :    0.047483
  81 H :    0.043586
  82 H :    0.039511
  83 H :    0.038006
  84 H :    0.042428
  85 H :    0.032927
  86 H :    0.041295
  87 H :    0.035400
  88 H :    0.038038
  89 H :    0.041735
  90 H :    0.038163
  91 H :    0.035867
  92 H :    0.026844
  93 H :    0.026581
  94 H :    0.026392
  95 H :    0.026509
  96 H :    0.026559
  97 H :    0.026653
  98 H :    0.041082
  99 H :    0.035896
 100 H :    0.035843
 101 H :    0.045158
 102 H :    0.035733
 103 H :    0.036464
 104 H :    0.034793
 105 H :    0.051190
 106 H :    0.039634
 107 H :    0.046593
 108 H :    0.044135
 109 H :    0.039105

  Mayer bond orders larger than 0.100000
B(  0-C ,  1-C ) :   1.4385 B(  0-C ,  5-C ) :   0.1093 B(  0-C ,  7-C ) :   1.1888
B(  0-C , 80-H ) :   1.0079 B(  1-C ,  2-F ) :   1.1327 B(  1-C ,  3-C ) :   1.1936
B(  3-C ,  4-F ) :   1.1296 B(  3-C ,  5-C ) :   1.4421 B(  5-C ,  6-C ) :   1.1911
B(  5-C , 81-H ) :   1.0077 B(  6-C ,  7-C ) :   1.2601 B(  6-C , 11-C ) :   1.1831
B(  7-C ,  8-C ) :   1.2124 B(  8-C ,  9-C ) :   1.4521 B(  8-C , 82-H ) :   0.9902
B(  9-C , 10-C ) :   1.2262 B(  9-C , 15-C ) :   0.9722 B( 10-C , 11-C ) :   1.4720
B( 10-C , 12-C ) :   0.9511 B( 11-C , 83-H ) :   1.0169 B( 12-C , 13-O ) :   2.1538
B( 12-C , 14-C ) :   0.9547 B( 14-C , 15-C ) :   1.1053 B( 14-C , 21-C ) :   1.5268
B( 15-C , 16-C ) :   1.6026 B( 16-C , 17-C ) :   1.1406 B( 16-C , 19-C ) :   1.1524
B( 17-C , 18-N ) :   2.9688 B( 19-C , 20-N ) :   2.9585 B( 21-C , 22-C ) :   1.2765
B( 21-C , 84-H ) :   0.9082 B( 22-C , 23-C ) :   1.3757 B( 22-C , 26-S ) :   1.0667
B( 23-C , 24-C ) :   1.3166 B( 23-C , 85-H ) :   0.9787 B( 24-C , 25-C ) :   1.4323
B( 24-C , 29-Si) :   0.8655 B( 25-C , 26-S ) :   1.1648 B( 25-C , 27-C ) :   1.1722
B( 27-C , 28-C ) :   1.4961 B( 27-C , 34-S ) :   1.1052 B( 28-C , 29-Si) :   0.8707
B( 28-C , 32-C ) :   1.2365 B( 29-Si, 30-C ) :   1.0545 B( 29-Si, 31-C ) :   1.0521
B( 30-C , 86-H ) :   0.9504 B( 30-C , 87-H ) :   0.9556 B( 30-C , 88-H ) :   0.9558
B( 31-C , 89-H ) :   0.9522 B( 31-C , 90-H ) :   0.9551 B( 31-C , 91-H ) :   0.9553
B( 32-C , 33-C ) :   1.4944 B( 32-C , 92-H ) :   0.9918 B( 33-C , 34-S ) :   1.1130
B( 33-C , 35-C ) :   1.0971 B( 35-C , 36-C ) :   1.3928 B( 35-C , 38-C ) :   0.1144
B( 35-C , 44-C ) :   1.2221 B( 36-C , 37-C ) :   1.2984 B( 36-C , 93-H ) :   0.9873
B( 37-C , 38-C ) :   1.3870 B( 37-C , 94-H ) :   0.9878 B( 38-C , 39-C ) :   1.2207
B( 38-C , 45-C ) :   1.1025 B( 39-C , 40-N ) :   1.4754 B( 39-C , 44-C ) :   1.2282
B( 40-N , 41-C ) :   1.6357 B( 41-C , 42-C ) :   1.2389 B( 41-C , 95-H ) :   0.9740
B( 42-C , 43-N ) :   1.6363 B( 42-C , 96-H ) :   0.9746 B( 43-N , 44-C ) :   1.4740
B( 45-C , 46-C ) :   1.4960 B( 45-C , 49-S ) :   1.1098 B( 46-C , 47-C ) :   1.2295
B( 46-C , 97-H ) :   0.9914 B( 47-C , 48-C ) :   1.4987 B( 47-C , 52-Si) :   0.8740
B( 48-C , 49-S ) :   1.1089 B( 48-C , 50-C ) :   1.1733 B( 50-C , 51-C ) :   1.4612
B( 50-C , 57-S ) :   1.1543 B( 51-C , 52-Si) :   0.8641 B( 51-C , 55-C ) :   1.3125
B( 52-Si, 53-C ) :   1.0503 B( 52-Si, 54-C ) :   1.0573 B( 53-C , 98-H ) :   0.9514
B( 53-C , 99-H ) :   0.9548 B( 53-C ,100-H ) :   0.9560 B( 54-C ,101-H ) :   0.9505
B( 54-C ,102-H ) :   0.9549 B( 54-C ,103-H ) :   0.9542 B( 55-C , 56-C ) :   1.3820
B( 55-C ,104-H ) :   1.0027 B( 56-C , 57-S ) :   1.0783 B( 56-C , 58-C ) :   1.1993
B( 58-C , 59-C ) :   1.5695 B( 58-C ,105-H ) :   0.9490 B( 59-C , 60-C ) :   0.9559
B( 59-C , 74-C ) :   1.0571 B( 60-C , 61-O ) :   2.2644 B( 60-C , 62-C ) :   0.9149
B( 62-C , 63-C ) :   1.4786 B( 62-C , 73-C ) :   1.2224 B( 63-C , 64-C ) :   1.1883
B( 63-C ,106-H ) :   1.0174 B( 64-C , 65-C ) :   1.2610 B( 64-C , 69-C ) :   1.1928
B( 65-C , 66-C ) :   1.1881 B( 65-C , 72-C ) :   1.2081 B( 66-C , 67-C ) :   1.4390
B( 66-C , 69-C ) :   0.1095 B( 66-C ,107-H ) :   1.0087 B( 67-C , 68-C ) :   1.1935
B( 67-C , 71-F ) :   1.1326 B( 68-C , 69-C ) :   1.4410 B( 68-C , 70-F ) :   1.1301
B( 69-C ,108-H ) :   1.0085 B( 72-C , 73-C ) :   1.4598 B( 72-C ,109-H ) :   0.9960
B( 73-C , 74-C ) :   0.9984 B( 74-C , 75-C ) :   1.6398 B( 75-C , 76-C ) :   1.1552
B( 75-C , 78-C ) :   1.1380 B( 76-C , 77-N ) :   3.0273 B( 78-C , 79-N ) :   2.9866

-----------------------------------------------------------------------------
         ABSORPTION SPECTRUM VIA TRANSITION ELECTRIC DIPOLE MOMENTS
-----------------------------------------------------------------------------
State   Energy  Wavelength   fosc         T2         TX        TY        TZ
        (cm-1)    (nm)                  (au**2)     (au)      (au)      (au)
-----------------------------------------------------------------------------
   0   15596.7    641.2   1.956987473  41.30775  -1.65603  -5.81102   2.19030
   1   18727.9    534.0   1.125251640  19.78048  -3.55625  -0.12132   2.66812
   2   22660.0    441.3   0.019195895   0.27888  -0.08213   0.46602   0.23445
   3   23570.9    424.3   0.032716095   0.45694  -0.52062   0.07729   0.42418
   4   26352.1    379.5   0.009210724   0.11507   0.09929  -0.24115   0.21692
   5   26521.0    377.1   0.030713896   0.38126  -0.21022  -0.42878   0.39143
   6   26578.0    376.3   0.111095214   1.37609  -0.21678  -1.15121   0.06174
   7   28014.9    357.0   0.202828521   2.38350  -1.13614   0.72851  -0.74964
   8   28406.4    352.0   0.340998922   3.95196  -0.16960  -1.92405   0.47035
   9   28898.3    346.0   0.046431535   0.52895   0.19714   0.55606  -0.42531
  10   29231.7    342.1   0.002196174   0.02473  -0.13467  -0.00862   0.08077
  11   29777.2    335.8   0.013244556   0.14643   0.19167   0.09144  -0.31833
  12   29793.4    335.6   0.042896244   0.47400   0.61967   0.23582  -0.18545
  13   29956.2    333.8   0.028742548   0.31587  -0.12678  -0.54749  -0.00727
  14   30069.9    332.6   0.055628177   0.60903  -0.69214   0.20353  -0.29757
  15   30580.1    327.0   0.169990219   1.83004   0.44495   1.19343  -0.45582
  16   31196.3    320.6   0.050622737   0.53422  -0.58647  -0.17511   0.39951
  17   31695.5    315.5   0.013800809   0.14335  -0.28738  -0.00499   0.24644
  18   32433.0    308.3   0.012538829   0.12728  -0.26708   0.13542   0.19392
  19   32853.1    304.4   0.045812538   0.45908   0.37273  -0.46530   0.32194
  20   33530.8    298.2   0.074062946   0.72716  -0.30143   0.00687   0.79766
  21   33897.0    295.0   0.325744262   3.16367  -0.70708   1.56942  -0.44791
  22   34240.1    292.1   0.483105234   4.64497  -0.90958  -1.95072  -0.11106
  23   34644.3    288.6   0.084699538   0.80487  -0.03510  -0.88942   0.11213
  24   34776.2    287.6   0.125081469   1.18410  -1.07741   0.14648  -0.04274
  25   35009.5    285.6   0.376402434   3.53951  -1.63855   0.61929  -0.68639
  26   35088.4    285.0   0.068650240   0.64410  -0.53599   0.57534  -0.16063
  27   35452.9    282.1   0.021674618   0.20127  -0.22913  -0.33709  -0.18746
  28   35730.4    279.9   0.090929481   0.83781  -0.26450   0.81625   0.31872
  29   35798.0    279.3   0.009974337   0.09173   0.21094  -0.13526  -0.17012
  30   35989.5    277.9   0.052170002   0.47722  -0.46604  -0.46728  -0.20413
  31   36632.6    273.0   0.046102639   0.41432  -0.02781  -0.63411   0.10700
  32   36966.4    270.5   0.024701622   0.21999  -0.37819  -0.26148   0.09264
  33   37618.9    265.8   0.074613945   0.65296   0.26737  -0.69902  -0.30471
  34   37788.4    264.6   0.021040850   0.18331  -0.06283   0.36965  -0.20669
  35   38223.5    261.6   0.053621267   0.46183   0.19253  -0.62711   0.17748
  36   38461.1    260.0   0.102074359   0.87372   0.69203  -0.58797  -0.22159
  37   38763.8    258.0   0.037754250   0.32064  -0.11211  -0.15196  -0.53383
  38   38963.6    256.6   0.084929575   0.71759  -0.43743   0.62449   0.36912
  39   39086.4    255.8   0.174446009   1.46930   0.22183  -0.13495  -1.18401
  40   39216.9    255.0   0.129677346   1.08859   0.67635  -0.22007  -0.76335
  41   39708.1    251.8   0.222438998   1.84420   0.80721  -1.03361  -0.35251
  42   40115.6    249.3   0.041870540   0.34361  -0.10690  -0.49017   0.30318
  43   40167.6    249.0   0.137757345   1.12905  -0.77259   0.71159   0.16062

FINAL SINGLE POINT ENERGY     -5426.031492504469

DIPOLE MOMENT
-------------
                                X             Y             Z
Electronic contribution:     70.58379     -20.45666     -32.63005
Nuclear contribution   :    -74.06088      22.87909      37.03547
                        -----------------------------------------
Total Dipole Moment    :     -3.47710       2.42244       4.40542
                        -----------------------------------------
Magnitude (a.u.)       :      6.11278
Magnitude (Debye)      :     15.53746

Rotational constants in cm-1:     0.000967     0.000156     0.000138
Rotational constants in MHz :    28.986951     4.666212     4.126235

                             ****ORCA TERMINATED NORMALLY****
TOTAL RUN TIME: 0 days 0 hours 11 minutes 28 seconds 912 msec
