                         Program Version 4.2.0 -  RELEASE  -
|  1> # ORCA input file
|  2> # SCF done       -216.725908726974          0.000536997882
|  3> ! CAM-B3LYP def2-SVP def2/J RIJCOSX Grid4 TightSCF
|  4> %maxcore 5000
|  5> %tddft
|  6>     Mode sTDDFT
|  7>     Ethresh 5.0
|  8>     maxcore 5000
|  9> end
| 10>
| 11> %pal
| 12>   nprocs 6
| 13>   end
| 14> * xyz 0 1
| 15>    C        1.64128         1.02755         0.31840
| 16>    C        3.00678         1.00661         0.36588
| 17>    F        3.70073         2.15073         0.30238
| 18>    C        3.70206        -0.21407         0.48050
| 19>    F        5.04155        -0.20477         0.52176
| 20>    C        3.02147        -1.39717         0.54826
| 21>    C        1.61373        -1.40876         0.50270
| 22>    C        0.90934        -0.17535         0.38505
| 23>    C       -0.50306        -0.16278         0.33426
| 24>    C       -1.18888        -1.34750         0.39956
| 25>    C       -0.47816        -2.57312         0.51567
| 26>    C        0.88532        -2.61706         0.56763
| 27>    C       -1.43092        -3.70244         0.55768
| 28>    O       -1.13193        -4.86995         0.68896
| 29>    C       -2.77162        -3.09488         0.35428
| 30>    C       -2.61518        -1.64721         0.36236
| 31>    C       -3.62467        -0.72410         0.40781
| 32>    C       -5.00304        -1.02510         0.47243
| 33>    N       -6.13835        -1.17548         0.55296
| 34>    C       -3.41305         0.67065         0.43952
| 35>    N       -3.30110         1.81282         0.46258
| 36>    C       -3.91672        -3.72847        -0.02472
| 37>    C       -4.22134        -5.12697        -0.04533
| 38>    C       -5.15598        -5.58880        -1.00736
| 39>    O       -5.63994        -4.66412        -1.86947
| 40>    C       -6.59175        -5.06082        -2.82991
| 41>    C       -5.48320        -6.93434        -1.03536
| 42>    C       -4.92636        -7.83483        -0.13432
| 43>    C       -3.99164        -7.38522         0.82355
| 44>    C       -3.67630        -6.03822         0.86278
| 45>    O       -3.41339        -8.32343         1.60800
| 46>    C       -2.42104        -7.91237         2.52303
| 47>    C       -5.27285        -9.25022        -0.21928
| 48>    C       -5.62726       -10.00716         0.90444
| 49>    C       -5.82661       -11.43194         0.83556
| 50>    N       -6.13791       -12.11510         1.96722
| 51>    C       -6.26301       -11.46687         3.07177
| 52>    C       -6.11664       -10.04710         3.12675
| 53>    N       -5.82099        -9.35959         2.08105
| 54>    F       -6.32094        -9.39374         4.26884
| 55>    F       -6.57991       -12.15571         4.16593
| 56>    C       -5.67639       -12.14079        -0.36412
| 57>    C       -5.43349       -11.36921        -1.51021
| 58>    C       -5.24119        -9.93666        -1.44180
| 59>    N       -5.01933        -9.41059        -2.65361
| 60>    S       -5.07249       -10.58332        -3.74196
| 61>    N       -5.37138       -11.81403        -2.77084
| 62>    C       -5.73938       -13.59809        -0.43368
| 63>    C       -4.73362       -14.31027        -1.12595
| 64>    O       -3.68958       -13.58769        -1.59888
| 65>    C       -2.64441       -14.26315        -2.25782
| 66>    C       -4.85502       -15.68003        -1.23906
| 67>    C       -5.89224       -16.39561        -0.62260
| 68>    C       -6.86542       -15.67614         0.10869
| 69>    C       -6.77487       -14.29208         0.17190
| 70>    O       -7.87536       -16.38704         0.66405
| 71>    C       -8.86641       -15.70641         1.40269
| 72>    C       -5.92932       -17.81049        -0.84954
| 73>    C       -6.47693       -18.84947        -0.16645
| 74>    C       -6.65355       -20.14321        -0.88800
| 75>    O       -6.17678       -20.44635        -1.95743
| 76>    C       -7.56538       -20.94141        -0.04446
| 77>    C       -8.13288       -22.15509        -0.30436
| 78>    C       -9.01068       -22.72059         0.64761
| 79>    C       -9.28471       -22.01120         1.85285
| 80>    C      -10.16900       -22.57656         2.79354
| 81>    C      -10.75055       -23.78918         2.55086
| 82>    C      -10.47616       -24.49095         1.36015
| 83>    C       -9.62437       -23.96904         0.42756
| 84>    F      -11.06089       -25.67849         1.14844
| 85>    F      -11.59149       -24.32399         3.44666
| 86>    C       -8.67253       -20.76060         2.09891
| 87>    C       -7.82028       -20.23457         1.16514
| 88>    C       -7.03617       -19.00240         1.15691
| 89>    C       -6.72545       -18.24968         2.25811
| 90>    C       -5.75022       -17.23298         2.24316
| 91>    N       -4.93939       -16.42149         2.26455
| 92>    C       -7.29211       -18.45067         3.53218
| 93>    N       -7.74885       -18.56009         4.57969
| 94>    H        1.12473         1.97065         0.23119
| 95>    H        3.56820        -2.32302         0.63561
| 96>    H       -1.00724         0.78500         0.23651
| 97>    H        1.40073        -3.56155         0.65467
| 98>    H       -4.70668        -3.11083        -0.43657
| 99>    H       -6.84048        -4.15661        -3.38299
|100>    H       -7.49544        -5.45612        -2.35720
|101>    H       -6.17896        -5.80667        -3.51556
|102>    H       -6.18712        -7.31657        -1.75526
|103>    H       -3.00640        -5.66122         1.61363
|104>    H       -2.03138        -8.82960         2.96190
|105>    H       -2.84626        -7.28685         3.31363
|106>    H       -1.61315        -7.37271         2.02081
|107>    H       -1.91559       -13.49540        -2.51293
|108>    H       -2.99496       -14.74702        -3.17451
|109>    H       -2.17392       -15.00540        -1.60581
|110>    H       -4.11767       -16.25046        -1.78084
|111>    H       -7.51829       -13.72078         0.69991
|112>    H       -9.53155       -16.48132         1.78203
|113>    H       -9.43585       -15.02009         0.76958
|114>    H       -8.43058       -15.15879         2.24298
|115>    H       -5.47164       -18.11831        -1.78762
|116>    H       -7.91752       -22.67647        -1.22465
|117>    H      -10.38732       -22.05467         3.71214
|118>    H       -9.42461       -24.51833        -0.47914
|119>    H       -8.89973       -20.24511         3.01845
|120> *
|121>
|122>                          ****END OF INPUT****

CARTESIAN COORDINATES (ANGSTROEM)
---------------------------------
  C      1.641280    1.027550    0.318400
  C      3.006780    1.006610    0.365880
  F      3.700730    2.150730    0.302380
  C      3.702060   -0.214070    0.480500
  F      5.041550   -0.204770    0.521760
  C      3.021470   -1.397170    0.548260
  C      1.613730   -1.408760    0.502700
  C      0.909340   -0.175350    0.385050
  C     -0.503060   -0.162780    0.334260
  C     -1.188880   -1.347500    0.399560
  C     -0.478160   -2.573120    0.515670
  C      0.885320   -2.617060    0.567630
  C     -1.430920   -3.702440    0.557680
  O     -1.131930   -4.869950    0.688960
  C     -2.771620   -3.094880    0.354280
  C     -2.615180   -1.647210    0.362360
  C     -3.624670   -0.724100    0.407810
  C     -5.003040   -1.025100    0.472430
  N     -6.138350   -1.175480    0.552960
  C     -3.413050    0.670650    0.439520
  N     -3.301100    1.812820    0.462580
  C     -3.916720   -3.728470   -0.024720
  C     -4.221340   -5.126970   -0.045330
  C     -5.155980   -5.588800   -1.007360
  O     -5.639940   -4.664120   -1.869470
  C     -6.591750   -5.060820   -2.829910
  C     -5.483200   -6.934340   -1.035360
  C     -4.926360   -7.834830   -0.134320
  C     -3.991640   -7.385220    0.823550
  C     -3.676300   -6.038220    0.862780
  O     -3.413390   -8.323430    1.608000
  C     -2.421040   -7.912370    2.523030
  C     -5.272850   -9.250220   -0.219280
  C     -5.627260  -10.007160    0.904440
  C     -5.826610  -11.431940    0.835560
  N     -6.137910  -12.115100    1.967220
  C     -6.263010  -11.466870    3.071770
  C     -6.116640  -10.047100    3.126750
  N     -5.820990   -9.359590    2.081050
  F     -6.320940   -9.393740    4.268840
  F     -6.579910  -12.155710    4.165930
  C     -5.676390  -12.140790   -0.364120
  C     -5.433490  -11.369210   -1.510210
  C     -5.241190   -9.936660   -1.441800
  N     -5.019330   -9.410590   -2.653610
  S     -5.072490  -10.583320   -3.741960
  N     -5.371380  -11.814030   -2.770840
  C     -5.739380  -13.598090   -0.433680
  C     -4.733620  -14.310270   -1.125950
  O     -3.689580  -13.587690   -1.598880
  C     -2.644410  -14.263150   -2.257820
  C     -4.855020  -15.680030   -1.239060
  C     -5.892240  -16.395610   -0.622600
  C     -6.865420  -15.676140    0.108690
  C     -6.774870  -14.292080    0.171900
  O     -7.875360  -16.387040    0.664050
  C     -8.866410  -15.706410    1.402690
  C     -5.929320  -17.810490   -0.849540
  C     -6.476930  -18.849470   -0.166450
  C     -6.653550  -20.143210   -0.888000
  O     -6.176780  -20.446350   -1.957430
  C     -7.565380  -20.941410   -0.044460
  C     -8.132880  -22.155090   -0.304360
  C     -9.010680  -22.720590    0.647610
  C     -9.284710  -22.011200    1.852850
  C    -10.169000  -22.576560    2.793540
  C    -10.750550  -23.789180    2.550860
  C    -10.476160  -24.490950    1.360150
  C     -9.624370  -23.969040    0.427560
  F    -11.060890  -25.678490    1.148440
  F    -11.591490  -24.323990    3.446660
  C     -8.672530  -20.760600    2.098910
  C     -7.820280  -20.234570    1.165140
  C     -7.036170  -19.002400    1.156910
  C     -6.725450  -18.249680    2.258110
  C     -5.750220  -17.232980    2.243160
  N     -4.939390  -16.421490    2.264550
  C     -7.292110  -18.450670    3.532180
  N     -7.748850  -18.560090    4.579690
  H      1.124730    1.970650    0.231190
  H      3.568200   -2.323020    0.635610
  H     -1.007240    0.785000    0.236510
  H      1.400730   -3.561550    0.654670
  H     -4.706680   -3.110830   -0.436570
  H     -6.840480   -4.156610   -3.382990
  H     -7.495440   -5.456120   -2.357200
  H     -6.178960   -5.806670   -3.515560
  H     -6.187120   -7.316570   -1.755260
  H     -3.006400   -5.661220    1.613630
  H     -2.031380   -8.829600    2.961900
  H     -2.846260   -7.286850    3.313630
  H     -1.613150   -7.372710    2.020810
  H     -1.915590  -13.495400   -2.512930
  H     -2.994960  -14.747020   -3.174510
  H     -2.173920  -15.005400   -1.605810
  H     -4.117670  -16.250460   -1.780840
  H     -7.518290  -13.720780    0.699910
  H     -9.531550  -16.481320    1.782030
  H     -9.435850  -15.020090    0.769580
  H     -8.430580  -15.158790    2.242980
  H     -5.471640  -18.118310   -1.787620
  H     -7.917520  -22.676470   -1.224650
  H    -10.387320  -22.054670    3.712140
  H     -9.424610  -24.518330   -0.479140
  H     -8.899730  -20.245110    3.018450

 Total Charge           Charge          ....    0
 Multiplicity           Mult            ....    1
 Number of Electrons    NEL             ....  548
 Basis Dimension        Dim             .... 1240

ORBITAL ENERGIES
----------------

  NO   OCC          E(Eh)            E(eV)
   0   2.0000     -89.038284     -2422.8549
   1   2.0000     -24.809528      -675.1016
   2   2.0000     -24.808153      -675.0642
   3   2.0000     -24.798647      -674.8055
   4   2.0000     -24.797376      -674.7709
   5   2.0000     -24.795695      -674.7251
   6   2.0000     -24.795328      -674.7152
   7   2.0000     -19.261844      -524.1414
   8   2.0000     -19.256675      -524.0008
   9   2.0000     -19.248719      -523.7843
  10   2.0000     -19.243870      -523.6523
  11   2.0000     -19.218254      -522.9553
  12   2.0000     -19.212713      -522.8045
  13   2.0000     -14.446799      -393.1174
  14   2.0000     -14.444998      -393.0684
  15   2.0000     -14.444077      -393.0433
  16   2.0000     -14.443660      -393.0320
  17   2.0000     -14.414425      -392.2364
  18   2.0000     -14.414352      -392.2345
  19   2.0000     -14.412064      -392.1722
  20   2.0000     -14.408855      -392.0849
  21   2.0000     -10.425361      -283.6885
  22   2.0000     -10.423019      -283.6248
  23   2.0000     -10.381498      -282.4949
  24   2.0000     -10.380751      -282.4746
  25   2.0000     -10.378351      -282.4093
  26   2.0000     -10.378030      -282.4005
  27   2.0000     -10.370663      -282.2001
  28   2.0000     -10.362645      -281.9819
  29   2.0000     -10.344368      -281.4846
  30   2.0000     -10.342241      -281.4267
  31   2.0000     -10.340968      -281.3920
  32   2.0000     -10.340398      -281.3765
  33   2.0000     -10.339076      -281.3406
  34   2.0000     -10.338039      -281.3123
  35   2.0000     -10.338018      -281.3118
  36   2.0000     -10.337148      -281.2881
  37   2.0000     -10.333698      -281.1942
  38   2.0000     -10.333406      -281.1863
  39   2.0000     -10.332304      -281.1563
  40   2.0000     -10.331941      -281.1464
  41   2.0000     -10.331296      -281.1288
  42   2.0000     -10.329077      -281.0685
  43   2.0000     -10.327081      -281.0142
  44   2.0000     -10.318716      -280.7865
  45   2.0000     -10.317253      -280.7467
  46   2.0000     -10.317045      -280.7411
  47   2.0000     -10.314906      -280.6829
  48   2.0000     -10.314077      -280.6603
  49   2.0000     -10.310404      -280.5603
  50   2.0000     -10.310092      -280.5519
  51   2.0000     -10.309902      -280.5467
  52   2.0000     -10.309653      -280.5399
  53   2.0000     -10.308175      -280.4997
  54   2.0000     -10.307391      -280.4784
  55   2.0000     -10.306808      -280.4625
  56   2.0000     -10.306783      -280.4618
  57   2.0000     -10.306399      -280.4514
  58   2.0000     -10.303536      -280.3735
  59   2.0000     -10.302150      -280.3357
  60   2.0000     -10.301753      -280.3250
  61   2.0000     -10.301204      -280.3100
  62   2.0000     -10.300228      -280.2834
  63   2.0000     -10.299603      -280.2664
  64   2.0000     -10.298535      -280.2374
  65   2.0000     -10.297693      -280.2145
  66   2.0000     -10.297518      -280.2097
  67   2.0000     -10.297034      -280.1966
  68   2.0000     -10.296730      -280.1883
  69   2.0000     -10.296481      -280.1815
  70   2.0000     -10.293146      -280.0907
  71   2.0000     -10.292666      -280.0777
  72   2.0000     -10.291281      -280.0400
  73   2.0000     -10.289528      -279.9923
  74   2.0000     -10.288923      -279.9758
  75   2.0000     -10.280957      -279.7591
  76   2.0000     -10.280317      -279.7416
  77   2.0000     -10.278117      -279.6818
  78   2.0000     -10.276733      -279.6441
  79   2.0000      -8.129680      -221.2198
  80   2.0000      -6.100579      -166.0052
  81   2.0000      -6.092892      -165.7960
  82   2.0000      -6.092789      -165.7932
  83   2.0000      -1.337029       -36.3824
  84   2.0000      -1.322736       -35.9935
  85   2.0000      -1.320829       -35.9416
  86   2.0000      -1.318200       -35.8701
  87   2.0000      -1.305960       -35.5370
  88   2.0000      -1.303389       -35.4670
  89   2.0000      -1.166460       -31.7410
  90   2.0000      -1.161832       -31.6151
  91   2.0000      -1.155876       -31.4530
  92   2.0000      -1.150895       -31.3174
  93   2.0000      -1.133608       -30.8470
  94   2.0000      -1.133488       -30.8438
  95   2.0000      -1.127792       -30.6888
  96   2.0000      -1.105156       -30.0728
  97   2.0000      -1.031249       -28.0617
  98   2.0000      -1.018089       -27.7036
  99   2.0000      -1.014728       -27.6122
 100   2.0000      -1.003114       -27.2961
 101   2.0000      -1.000356       -27.2211
 102   2.0000      -0.991793       -26.9881
 103   2.0000      -0.990756       -26.9598
 104   2.0000      -0.988325       -26.8937
 105   2.0000      -0.980769       -26.6881
 106   2.0000      -0.977478       -26.5985
 107   2.0000      -0.976191       -26.5635
 108   2.0000      -0.961812       -26.1722
 109   2.0000      -0.953465       -25.9451
 110   2.0000      -0.930748       -25.3269
 111   2.0000      -0.927045       -25.2262
 112   2.0000      -0.911479       -24.8026
 113   2.0000      -0.902477       -24.5577
 114   2.0000      -0.894921       -24.3520
 115   2.0000      -0.891484       -24.2585
 116   2.0000      -0.888153       -24.1679
 117   2.0000      -0.883658       -24.0456
 118   2.0000      -0.876266       -23.8444
 119   2.0000      -0.865415       -23.5491
 120   2.0000      -0.853810       -23.2334
 121   2.0000      -0.851004       -23.1570
 122   2.0000      -0.844195       -22.9717
 123   2.0000      -0.839931       -22.8557
 124   2.0000      -0.837025       -22.7766
 125   2.0000      -0.830243       -22.5921
 126   2.0000      -0.815341       -22.1866
 127   2.0000      -0.810209       -22.0469
 128   2.0000      -0.805476       -21.9181
 129   2.0000      -0.797416       -21.6988
 130   2.0000      -0.792785       -21.5728
 131   2.0000      -0.770355       -20.9624
 132   2.0000      -0.766218       -20.8499
 133   2.0000      -0.764904       -20.8141
 134   2.0000      -0.761704       -20.7270
 135   2.0000      -0.756168       -20.5764
 136   2.0000      -0.752418       -20.4743
 137   2.0000      -0.737577       -20.0705
 138   2.0000      -0.734965       -19.9994
 139   2.0000      -0.725256       -19.7352
 140   2.0000      -0.717518       -19.5247
 141   2.0000      -0.713723       -19.4214
 142   2.0000      -0.712879       -19.3984
 143   2.0000      -0.695825       -18.9344
 144   2.0000      -0.693299       -18.8656
 145   2.0000      -0.687351       -18.7038
 146   2.0000      -0.680666       -18.5219
 147   2.0000      -0.678458       -18.4618
 148   2.0000      -0.675657       -18.3856
 149   2.0000      -0.670545       -18.2464
 150   2.0000      -0.669033       -18.2053
 151   2.0000      -0.658750       -17.9255
 152   2.0000      -0.657383       -17.8883
 153   2.0000      -0.652970       -17.7682
 154   2.0000      -0.651295       -17.7226
 155   2.0000      -0.644663       -17.5422
 156   2.0000      -0.643644       -17.5144
 157   2.0000      -0.639916       -17.4130
 158   2.0000      -0.637926       -17.3589
 159   2.0000      -0.629504       -17.1297
 160   2.0000      -0.619733       -16.8638
 161   2.0000      -0.617107       -16.7923
 162   2.0000      -0.614928       -16.7330
 163   2.0000      -0.612623       -16.6703
 164   2.0000      -0.610554       -16.6140
 165   2.0000      -0.607120       -16.5206
 166   2.0000      -0.606146       -16.4941
 167   2.0000      -0.604552       -16.4507
 168   2.0000      -0.601349       -16.3635
 169   2.0000      -0.590959       -16.0808
 170   2.0000      -0.585395       -15.9294
 171   2.0000      -0.584918       -15.9164
 172   2.0000      -0.582824       -15.8594
 173   2.0000      -0.581343       -15.8191
 174   2.0000      -0.574163       -15.6238
 175   2.0000      -0.571465       -15.5503
 176   2.0000      -0.570615       -15.5272
 177   2.0000      -0.568207       -15.4617
 178   2.0000      -0.564891       -15.3715
 179   2.0000      -0.562735       -15.3128
 180   2.0000      -0.561819       -15.2879
 181   2.0000      -0.559024       -15.2118
 182   2.0000      -0.554737       -15.0952
 183   2.0000      -0.553731       -15.0678
 184   2.0000      -0.551478       -15.0065
 185   2.0000      -0.551248       -15.0002
 186   2.0000      -0.547048       -14.8859
 187   2.0000      -0.545237       -14.8367
 188   2.0000      -0.544580       -14.8188
 189   2.0000      -0.541675       -14.7397
 190   2.0000      -0.539805       -14.6888
 191   2.0000      -0.538521       -14.6539
 192   2.0000      -0.535822       -14.5805
 193   2.0000      -0.534693       -14.5497
 194   2.0000      -0.531900       -14.4737
 195   2.0000      -0.531404       -14.4602
 196   2.0000      -0.529792       -14.4164
 197   2.0000      -0.528298       -14.3757
 198   2.0000      -0.524982       -14.2855
 199   2.0000      -0.520518       -14.1640
 200   2.0000      -0.518927       -14.1207
 201   2.0000      -0.517043       -14.0694
 202   2.0000      -0.513512       -13.9734
 203   2.0000      -0.513338       -13.9686
 204   2.0000      -0.509971       -13.8770
 205   2.0000      -0.508877       -13.8473
 206   2.0000      -0.507305       -13.8045
 207   2.0000      -0.505454       -13.7541
 208   2.0000      -0.501529       -13.6473
 209   2.0000      -0.499398       -13.5893
 210   2.0000      -0.495648       -13.4873
 211   2.0000      -0.494275       -13.4499
 212   2.0000      -0.491555       -13.3759
 213   2.0000      -0.490366       -13.3435
 214   2.0000      -0.486941       -13.2503
 215   2.0000      -0.484983       -13.1970
 216   2.0000      -0.483970       -13.1695
 217   2.0000      -0.482685       -13.1345
 218   2.0000      -0.478249       -13.0138
 219   2.0000      -0.474933       -12.9236
 220   2.0000      -0.473739       -12.8911
 221   2.0000      -0.468285       -12.7427
 222   2.0000      -0.466247       -12.6872
 223   2.0000      -0.463075       -12.6009
 224   2.0000      -0.461320       -12.5532
 225   2.0000      -0.455882       -12.4052
 226   2.0000      -0.454412       -12.3652
 227   2.0000      -0.448545       -12.2055
 228   2.0000      -0.447651       -12.1812
 229   2.0000      -0.445412       -12.1203
 230   2.0000      -0.443833       -12.0773
 231   2.0000      -0.442732       -12.0474
 232   2.0000      -0.441159       -12.0045
 233   2.0000      -0.439963       -11.9720
 234   2.0000      -0.438627       -11.9356
 235   2.0000      -0.435760       -11.8576
 236   2.0000      -0.430540       -11.7156
 237   2.0000      -0.428905       -11.6711
 238   2.0000      -0.425061       -11.5665
 239   2.0000      -0.423331       -11.5194
 240   2.0000      -0.422903       -11.5078
 241   2.0000      -0.422053       -11.4847
 242   2.0000      -0.420811       -11.4509
 243   2.0000      -0.418661       -11.3923
 244   2.0000      -0.415931       -11.3180
 245   2.0000      -0.415513       -11.3067
 246   2.0000      -0.410185       -11.1617
 247   2.0000      -0.409063       -11.1312
 248   2.0000      -0.407589       -11.0911
 249   2.0000      -0.406566       -11.0632
 250   2.0000      -0.401308       -10.9201
 251   2.0000      -0.400852       -10.9077
 252   2.0000      -0.396503       -10.7894
 253   2.0000      -0.394985       -10.7481
 254   2.0000      -0.386406       -10.5146
 255   2.0000      -0.384149       -10.4532
 256   2.0000      -0.377847       -10.2817
 257   2.0000      -0.374714       -10.1965
 258   2.0000      -0.367472        -9.9994
 259   2.0000      -0.362149        -9.8546
 260   2.0000      -0.356606        -9.7037
 261   2.0000      -0.352009        -9.5786
 262   2.0000      -0.341924        -9.3042
 263   2.0000      -0.334842        -9.1115
 264   2.0000      -0.333013        -9.0617
 265   2.0000      -0.318766        -8.6741
 266   2.0000      -0.316715        -8.6183
 267   2.0000      -0.312388        -8.5005
 268   2.0000      -0.307955        -8.3799
 269   2.0000      -0.298130        -8.1125
 270   2.0000      -0.294699        -8.0192
 271   2.0000      -0.287332        -7.8187
 272   2.0000      -0.273383        -7.4391
 273   2.0000      -0.261166        -7.1067
 274   0.0000      -0.102653        -2.7933
 275   0.0000      -0.085604        -2.3294
 276   0.0000      -0.079987        -2.1766
 277   0.0000      -0.058429        -1.5899
 278   0.0000      -0.052744        -1.4352

MULLIKEN ATOMIC CHARGES
-----------------------
   0 C :   -0.105572
   1 C :    0.240531
   2 F :   -0.171365
   3 C :    0.238469
   4 F :   -0.172841
   5 C :   -0.103299
   6 C :    0.115375
   7 C :    0.110450
   8 C :   -0.081447
   9 C :    0.057018
  10 C :   -0.010897
  11 C :   -0.080760
  12 C :    0.153021
  13 O :   -0.150732
  14 C :   -0.078045
  15 C :    0.290695
  16 C :   -0.336636
  17 C :   -0.204763
  18 N :    0.162085
  19 C :   -0.184526
  20 N :    0.145179
  21 C :   -0.006192
  22 C :    0.014498
  23 C :    0.240868
  24 O :   -0.309079
  25 C :    0.178181
  26 C :   -0.110854
  27 C :   -0.033131
  28 C :    0.239875
  29 C :   -0.104263
  30 O :   -0.313719
  31 C :    0.173200
  32 C :    0.078109
  33 C :   -0.062566
  34 C :   -0.042836
  35 N :    0.018720
  36 C :    0.128886
  37 C :    0.119475
  38 N :    0.042993
  39 F :   -0.142913
  40 F :   -0.140558
  41 C :    0.072923
  42 C :   -0.001154
  43 C :    0.002390
  44 N :   -0.279022
  45 S :    0.524269
  46 N :   -0.259108
  47 C :   -0.022246
  48 C :    0.265749
  49 O :   -0.308205
  50 C :    0.179126
  51 C :   -0.170114
  52 C :    0.088426
  53 C :    0.212542
  54 C :   -0.083518
  55 O :   -0.313203
  56 C :    0.173325
  57 C :   -0.001842
  58 C :   -0.105306
  59 C :    0.133734
  60 O :   -0.144600
  61 C :    0.011453
  62 C :   -0.084547
  63 C :    0.111806
  64 C :    0.114943
  65 C :   -0.109121
  66 C :    0.242618
  67 C :    0.238424
  68 C :   -0.106039
  69 F :   -0.173363
  70 F :   -0.173061
  71 C :   -0.093928
  72 C :    0.047698
  73 C :    0.310888
  74 C :   -0.334761
  75 C :   -0.212148
  76 N :    0.177835
  77 C :   -0.189580
  78 N :    0.148364
  79 H :    0.007563
  80 H :   -0.002249
  81 H :   -0.005924
  82 H :   -0.013017
  83 H :    0.039517
  84 H :    0.043391
  85 H :    0.028268
  86 H :    0.030656
  87 H :   -0.033400
  88 H :   -0.024189
  89 H :    0.032133
  90 H :    0.024812
  91 H :    0.041480
  92 H :    0.035235
  93 H :    0.024058
  94 H :    0.030258
  95 H :   -0.032586
  96 H :   -0.036180
  97 H :    0.041799
  98 H :    0.030561
  99 H :    0.045186
 100 H :    0.020358
 101 H :   -0.011703
 102 H :    0.003622
 103 H :   -0.002050
 104 H :   -0.009880
Sum of atomic charges:   -0.0000000

LOEWDIN ATOMIC CHARGES
----------------------
   0 C :   -0.029387
   1 C :    0.066239
   2 F :   -0.049183
   3 C :    0.067196
   4 F :   -0.050093
   5 C :   -0.033626
   6 C :   -0.009089
   7 C :   -0.006726
   8 C :    0.017135
   9 C :   -0.022842
  10 C :   -0.051945
  11 C :    0.028233
  12 C :    0.085116
  13 O :   -0.143854
  14 C :   -0.099184
  15 C :    0.075932
  16 C :   -0.137636
  17 C :   -0.026306
  18 N :   -0.047874
  19 C :   -0.016766
  20 N :   -0.055229
  21 C :    0.096446
  22 C :   -0.057803
  23 C :    0.065766
  24 O :   -0.093943
  25 C :    0.080565
  26 C :   -0.047655
  27 C :   -0.007739
  28 C :    0.050090
  29 C :   -0.018010
  30 O :   -0.098755
  31 C :    0.077504
  32 C :   -0.011878
  33 C :   -0.003688
  34 C :   -0.004997
  35 N :   -0.037389
  36 C :    0.056779
  37 C :    0.052590
  38 N :   -0.025596
  39 F :   -0.032664
  40 F :   -0.030192
  41 C :   -0.010759
  42 C :   -0.042657
  43 C :   -0.041923
  44 N :   -0.297147
  45 S :    0.669375
  46 N :   -0.278423
  47 C :   -0.008550
  48 C :    0.057976
  49 O :   -0.094706
  50 C :    0.078025
  51 C :   -0.041471
  52 C :   -0.048054
  53 C :    0.060127
  54 C :   -0.031887
  55 O :   -0.078905
  56 C :    0.079113
  57 C :    0.075675
  58 C :   -0.088825
  59 C :    0.085146
  60 O :   -0.143944
  61 C :   -0.054792
  62 C :    0.029924
  63 C :   -0.011505
  64 C :   -0.005664
  65 C :   -0.031763
  66 C :    0.066174
  67 C :    0.064928
  68 C :   -0.033195
  69 F :   -0.051324
  70 F :   -0.050418
  71 C :    0.007699
  72 C :   -0.016437
  73 C :    0.068326
  74 C :   -0.133086
  75 C :   -0.020176
  76 N :   -0.046341
  77 C :   -0.019718
  78 N :   -0.058671
  79 H :    0.047683
  80 H :    0.044215
  81 H :    0.039821
  82 H :    0.038886
  83 H :    0.046267
  84 H :    0.032042
  85 H :    0.018329
  86 H :    0.019015
  87 H :    0.030433
  88 H :    0.032064
  89 H :    0.027165
  90 H :    0.016966
  91 H :    0.022715
  92 H :    0.028876
  93 H :    0.015737
  94 H :    0.018468
  95 H :    0.031767
  96 H :    0.030301
  97 H :    0.030751
  98 H :    0.018938
  99 H :    0.024258
 100 H :    0.045625
 101 H :    0.039701
 102 H :    0.046328
 103 H :    0.044206
 104 H :    0.037755

  Mayer bond orders larger than 0.100000
B(  0-C ,  1-C ) :   1.4425 B(  0-C ,  5-C ) :   0.1084 B(  0-C ,  7-C ) :   1.1866
B(  0-C , 79-H ) :   1.0075 B(  1-C ,  2-F ) :   1.1353 B(  1-C ,  3-C ) :   1.1897
B(  3-C ,  4-F ) :   1.1319 B(  3-C ,  5-C ) :   1.4438 B(  5-C ,  6-C ) :   1.1926
B(  5-C , 80-H ) :   1.0076 B(  6-C ,  7-C ) :   1.2556 B(  6-C , 11-C ) :   1.1895
B(  7-C ,  8-C ) :   1.2183 B(  8-C ,  9-C ) :   1.4470 B(  8-C , 81-H ) :   0.9913
B(  9-C , 10-C ) :   1.2178 B(  9-C , 15-C ) :   0.9902 B( 10-C , 11-C ) :   1.4746
B( 10-C , 12-C ) :   0.9437 B( 11-C , 82-H ) :   1.0162 B( 12-C , 13-O ) :   2.2036
B( 12-C , 14-C ) :   0.9401 B( 14-C , 15-C ) :   1.0558 B( 14-C , 21-C ) :   1.5924
B( 15-C , 16-C ) :   1.6499 B( 16-C , 17-C ) :   1.1341 B( 16-C , 19-C ) :   1.1425
B( 17-C , 18-N ) :   3.0016 B( 19-C , 20-N ) :   2.9671 B( 21-C , 22-C ) :   1.1383
B( 21-C , 83-H ) :   0.9359 B( 22-C , 23-C ) :   1.2966 B( 22-C , 29-C ) :   1.3093
B( 23-C , 24-O ) :   1.1708 B( 23-C , 26-C ) :   1.2902 B( 24-O , 25-C ) :   0.9533
B( 25-C , 84-H ) :   0.9781 B( 25-C , 85-H ) :   0.9694 B( 25-C , 86-H ) :   0.9694
B( 26-C , 27-C ) :   1.3620 B( 26-C , 87-H ) :   0.9989 B( 27-C , 28-C ) :   1.3678
B( 27-C , 32-C ) :   0.9406 B( 28-C , 29-C ) :   1.3143 B( 28-C , 30-O ) :   1.1644
B( 29-C , 88-H ) :   0.9847 B( 30-O , 31-C ) :   0.9532 B( 31-C , 89-H ) :   0.9775
B( 31-C , 90-H ) :   0.9687 B( 31-C , 91-H ) :   0.9671 B( 32-C , 33-C ) :   1.3900
B( 32-C , 41-C ) :   0.1441 B( 32-C , 43-C ) :   1.2774 B( 33-C , 34-C ) :   1.0937
B( 33-C , 38-N ) :   1.3944 B( 34-C , 35-N ) :   1.3870 B( 34-C , 41-C ) :   1.4053
B( 35-N , 36-C ) :   1.7183 B( 36-C , 37-C ) :   1.0728 B( 36-C , 40-F ) :   1.1739
B( 37-C , 38-N ) :   1.7261 B( 37-C , 39-F ) :   1.1736 B( 41-C , 42-C ) :   1.2531
B( 41-C , 47-C ) :   0.9451 B( 42-C , 43-C ) :   1.1059 B( 42-C , 46-N ) :   1.4984
B( 43-C , 44-N ) :   1.4875 B( 44-N , 45-S ) :   1.2867 B( 44-N , 46-N ) :   0.1629
B( 45-S , 46-N ) :   1.3064 B( 47-C , 48-C ) :   1.3471 B( 47-C , 54-C ) :   1.3957
B( 48-C , 49-O ) :   1.1671 B( 48-C , 51-C ) :   1.2997 B( 49-O , 50-C ) :   0.9623
B( 50-C , 92-H ) :   0.9782 B( 50-C , 93-H ) :   0.9680 B( 50-C , 94-H ) :   0.9686
B( 51-C , 52-C ) :   1.2672 B( 51-C , 95-H ) :   1.0045 B( 52-C , 53-C ) :   1.3224
B( 52-C , 57-C ) :   1.0911 B( 53-C , 54-C ) :   1.2755 B( 53-C , 55-O ) :   1.1619
B( 54-C , 96-H ) :   0.9902 B( 55-O , 56-C ) :   0.9405 B( 56-C , 97-H ) :   0.9757
B( 56-C , 98-H ) :   0.9706 B( 56-C , 99-H ) :   0.9689 B( 57-C , 58-C ) :   1.6591
B( 57-C ,100-H ) :   0.9328 B( 58-C , 59-C ) :   0.9379 B( 58-C , 73-C ) :   1.0418
B( 59-C , 60-O ) :   2.2583 B( 59-C , 61-C ) :   0.9201 B( 61-C , 62-C ) :   1.4734
B( 61-C , 72-C ) :   1.2173 B( 62-C , 63-C ) :   1.1921 B( 62-C ,101-H ) :   1.0168
B( 63-C , 64-C ) :   1.2596 B( 63-C , 68-C ) :   1.1910 B( 64-C , 65-C ) :   1.1904
B( 64-C , 71-C ) :   1.2094 B( 65-C , 66-C ) :   1.4392 B( 65-C , 68-C ) :   0.1092
B( 65-C ,102-H ) :   1.0076 B( 66-C , 67-C ) :   1.1917 B( 66-C , 70-F ) :   1.1327
B( 67-C , 68-C ) :   1.4440 B( 67-C , 69-F ) :   1.1315 B( 68-C ,103-H ) :   1.0072
B( 71-C , 72-C ) :   1.4548 B( 71-C ,104-H ) :   0.9946 B( 72-C , 73-C ) :   0.9994
B( 73-C , 74-C ) :   1.6469 B( 74-C , 75-C ) :   1.1665 B( 74-C , 77-C ) :   1.1413
B( 75-C , 76-N ) :   3.0076 B( 77-C , 78-N ) :   2.9757

-----------------------------------------------------------------------------
         ABSORPTION SPECTRUM VIA TRANSITION ELECTRIC DIPOLE MOMENTS
-----------------------------------------------------------------------------
State   Energy  Wavelength   fosc         T2         TX        TY        TZ
        (cm-1)    (nm)                  (au**2)     (au)      (au)      (au)
-----------------------------------------------------------------------------
   0   16891.4    592.0   0.602951945  11.75149  -1.02391  -3.26559  -0.19753
   1   19262.9    519.1   0.045796127   0.78268  -0.35641   0.75729  -0.28663
   2   21924.7    456.1   0.409759093   6.15276   1.08592   2.21016   0.29788
   3   22840.0    437.8   0.319744149   4.60875   0.34480   2.01297  -0.66166
   4   23325.4    428.7   0.213845068   3.01819   0.39770   1.67166  -0.25609
   5   25967.4    385.1   0.023547428   0.29853  -0.00719  -0.52615  -0.14714
   6   27370.2    365.4   0.041632443   0.50076   0.01327   0.50501  -0.49553
   7   27621.5    362.0   0.025577693   0.30485  -0.48933   0.20710  -0.15007
   8   27996.7    357.2   0.006868958   0.08077  -0.09946  -0.09571  -0.24843
   9   28579.7    349.9   0.082305246   0.94808  -0.74418  -0.62783  -0.01063
  10   29264.8    341.7   0.102471099   1.15274   1.06090   0.16486   0.00679
  11   29321.6    341.0   0.010131261   0.11375  -0.10893  -0.20300  -0.24633
  12   29543.3    338.5   0.024254810   0.27028  -0.34406   0.22417   0.31883
  13   30090.5    332.3   0.021519108   0.23543  -0.48314   0.04194   0.01598
  14   30387.2    329.1   0.035173276   0.38106   0.08914   0.60832   0.05534
  15   30668.4    326.1   0.014473524   0.15537   0.04320   0.36618   0.13934
  16   30954.0    323.1   0.097164483   1.03340  -0.39039  -0.92022  -0.18490
  17   31250.8    320.0   0.044518363   0.46898   0.53786  -0.38104   0.18572
  18   31432.9    318.1   0.022472859   0.23537  -0.22009  -0.12808   0.41295
  19   31839.2    314.1   0.333061742   3.44380   0.33319   0.19569  -1.81507
  20   32699.4    305.8   0.103256473   1.03957   0.02482  -0.17136  -1.00478
  21   32835.7    304.5   0.102110810   1.02377  -0.86435  -0.49350   0.18201
  22   33152.3    301.6   0.103283184   1.02563  -0.69855  -0.50909   0.52771
  23   33738.5    296.4   0.184259149   1.79796   0.46417   1.04237   0.70425
  24   33811.6    295.8   0.006664286   0.06489   0.03569   0.25219   0.00385
  25   34180.2    292.6   0.286591799   2.76035  -0.75114  -1.43886  -0.35472
  26   34364.9    291.0   0.075975774   0.72784   0.72542  -0.44733  -0.03874
  27   34799.0    287.4   1.064392435  10.06956  -3.02402  -0.95737  -0.09108
  28   34903.7    286.5   0.066213381   0.62453  -0.18598   0.69188   0.33351
  29   35235.9    283.8   0.671118135   6.27031  -1.13723  -2.22721   0.12877
  30   35566.1    281.2   0.029531037   0.27335   0.19407   0.48407   0.03692
  31   35770.6    279.6   0.010934935   0.10064   0.27913  -0.09490   0.11713
  32   36056.3    277.3   0.003998469   0.03651   0.05118   0.11255  -0.14568
  33   36627.9    273.0   0.129245131   1.16166  -0.09087   1.06900   0.10319
  34   37335.1    267.8   0.002992060   0.02638   0.14535   0.01335   0.07127
  35   37542.6    266.4   0.239853110   2.10328  -0.28356  -1.33552  -0.48915
  36   37669.3    265.5   0.087935391   0.76851   0.83729   0.22866   0.12322
  37   37884.1    264.0   0.120636951   1.04833   1.00649  -0.18788  -0.00076
  38   38030.6    262.9   0.076113585   0.65888  -0.23149   0.77440  -0.07482
  39   38223.9    261.6   0.022709401   0.19559  -0.11386  -0.42730  -0.00604
  40   38679.8    258.5   0.026516063   0.22568  -0.00419   0.33795   0.33385
  41   39170.4    255.3   0.047953579   0.40303  -0.32113   0.54671  -0.03179
  42   39242.9    254.8   0.020156108   0.16909   0.20852  -0.28104  -0.21593
  43   39610.8    252.5   0.002923537   0.02430  -0.07689  -0.03505   0.13098
  44   39877.4    250.8   0.146768939   1.21167  -0.46821  -0.99057   0.10592
  45   39936.5    250.4   0.038037394   0.31356  -0.02002   0.40200   0.38929
  46   40052.2    249.7   0.053098533   0.43645  -0.32448  -0.40388   0.40993
  47   40128.3    249.2   0.005837721   0.04789  -0.03657  -0.04004  -0.21202

FINAL SINGLE POINT ENERGY     -4107.692539515704

DIPOLE MOMENT
-------------
                                X             Y             Z
Electronic contribution:      1.39287      -2.49716      19.47485
Nuclear contribution   :     -0.95681       1.34235     -21.83403
                        -----------------------------------------
Total Dipole Moment    :      0.43606      -1.15481      -2.35918
                        -----------------------------------------
Magnitude (a.u.)       :      2.66260
Magnitude (Debye)      :      6.76780

Rotational constants in cm-1:     0.002329     0.000209     0.000207
Rotational constants in MHz :    69.819621     6.258023     6.201302

                             ****ORCA TERMINATED NORMALLY****
TOTAL RUN TIME: 0 days 0 hours 11 minutes 21 seconds 486 msec
