                         Program Version 4.2.0 -  RELEASE  -
|  1> # ORCA input file
|  2> # SCF done       -179.167308996774          0.000812886740
|  3> ! CAM-B3LYP def2-SVP def2/J RIJCOSX Grid4 TightSCF
|  4> %maxcore 5000
|  5> %tddft
|  6>     Mode sTDDFT
|  7>     Ethresh 5.0
|  8>     maxcore 5000
|  9> end
| 10>
| 11> %pal
| 12>   nprocs 6
| 13>   end
| 14> * xyz 0 1
| 15>    C      -14.10924         2.27479         0.08715
| 16>    C      -15.46066         2.37324        -0.09117
| 17>    F      -16.04418         3.57644        -0.16527
| 18>    C      -16.25687         1.21511        -0.19907
| 19>    F      -17.57913         1.34193        -0.37367
| 20>    C      -15.68997        -0.02628        -0.12649
| 21>    C      -14.30016        -0.16039         0.05766
| 22>    C      -13.49341         1.00932         0.16615
| 23>    C      -12.09601         0.89905         0.35142
| 24>    C      -11.52199        -0.34311         0.42706
| 25>    C      -12.33655        -1.50376         0.31957
| 26>    C      -13.68746        -1.43002         0.13908
| 27>    C      -11.49414        -2.70914         0.43777
| 28>    O      -11.88007        -3.85812         0.38699
| 29>    C      -10.10729        -2.21270         0.62844
| 30>    C      -10.13456        -0.76354         0.61653
| 31>    C       -9.06645         0.08597         0.75440
| 32>    C       -7.72439        -0.30133         0.95150
| 33>    N       -6.61083        -0.52966         1.11511
| 34>    C       -9.16610         1.49291         0.71694
| 35>    N       -9.17684         2.64071         0.69317
| 36>    C       -9.00719        -3.01643         0.78590
| 37>    C       -9.04716        -4.42353         0.78769
| 38>    C       -7.93630        -5.20306         0.95475
| 39>    C       -8.01801        -6.60977         0.95883
| 40>    C       -6.94540        -7.43357         1.13695
| 41>    C       -7.00225        -8.85114         1.15772
| 42>    C       -5.81782        -9.60396         1.37451
| 43>    C       -5.81250       -11.03323         1.41958
| 44>    N       -4.65082       -11.68965         1.64165
| 45>    C       -3.56535       -11.00913         1.80444
| 46>    C       -3.56948        -9.58808         1.75367
| 47>    N       -4.65980        -8.92706         1.54783
| 48>    F       -2.44612        -8.89740         1.91954
| 49>    F       -2.43901       -11.67967         2.02486
| 50>    C       -6.98947       -11.80669         1.24337
| 51>    C       -8.17423       -11.06186         1.02233
| 52>    C       -8.18102        -9.61713         0.98175
| 53>    N       -9.41033        -9.14303         0.76551
| 54>    S      -10.44107       -10.35976         0.62906
| 55>    N       -9.40000       -11.55783         0.83437
| 56>    C       -6.92395       -13.22377         1.30713
| 57>    C       -7.99489       -14.05211         1.14906
| 58>    C       -7.91948       -15.45660         1.25554
| 59>    C       -8.97772       -16.31102         1.09526
| 60>    C      -10.30799       -15.89745         0.87493
| 61>    C      -11.40346       -16.66597         0.60000
| 62>    C      -12.75601       -16.07939         0.79777
| 63>    O      -13.01865       -14.90838         0.95621
| 64>    C      -13.68154       -17.22880         0.81153
| 65>    C      -15.02370       -17.24579         1.05905
| 66>    C      -15.70809       -18.48158         1.05062
| 67>    C      -14.98150       -19.68056         0.79434
| 68>    C      -15.66836       -20.91115         0.79800
| 69>    C      -17.01321       -20.94883         1.03889
| 70>    C      -17.73131       -19.76179         1.28772
| 71>    C      -17.09343       -18.55313         1.29438
| 72>    F      -19.04902       -19.82846         1.51954
| 73>    F      -17.66410       -22.11907         1.04074
| 74>    C      -13.59255       -19.63076         0.53307
| 75>    C      -12.95250       -18.42052         0.53207
| 76>    C      -11.56236       -18.05958         0.25337
| 77>    C      -10.66128       -18.84622        -0.41634
| 78>    C       -9.44382       -18.37297        -0.95036
| 79>    N       -8.47341       -18.02778        -1.45632
| 80>    C      -10.90084       -20.19403        -0.75578
| 81>    N      -11.04011       -21.29850        -1.03473
| 82>    H      -13.51504         3.17164         0.16750
| 83>    H      -16.31240        -0.90335        -0.21059
| 84>    H      -11.51674         1.80451         0.42977
| 85>    H      -14.27915        -2.32944         0.06083
| 86>    H       -8.03700        -2.55571         0.92092
| 87>    H      -10.00633        -4.90252         0.65288
| 88>    H       -6.96734        -4.73848         1.09198
| 89>    H       -8.99494        -7.04947         0.81616
| 90>    H       -5.95967        -7.01302         1.28318
| 91>    H       -5.94071       -13.63170         1.49751
| 92>    H       -8.95067       -13.59920         0.93720
| 93>    H       -6.94797       -15.88463         1.46613
| 94>    H       -8.78579       -17.37157         1.17637
| 95>    H      -10.54133       -14.84895         1.02308
| 96>    H      -15.55645       -16.32851         1.25867
| 97>    H      -15.13520       -21.82904         0.60552
| 98>    H      -17.65671       -17.65348         1.48697
| 99>    H      -13.06825       -20.55448         0.34711
|100> *
|101>
|102>                          ****END OF INPUT****

CARTESIAN COORDINATES (ANGSTROEM)
---------------------------------
  C    -14.109240    2.274790    0.087150
  C    -15.460660    2.373240   -0.091170
  F    -16.044180    3.576440   -0.165270
  C    -16.256870    1.215110   -0.199070
  F    -17.579130    1.341930   -0.373670
  C    -15.689970   -0.026280   -0.126490
  C    -14.300160   -0.160390    0.057660
  C    -13.493410    1.009320    0.166150
  C    -12.096010    0.899050    0.351420
  C    -11.521990   -0.343110    0.427060
  C    -12.336550   -1.503760    0.319570
  C    -13.687460   -1.430020    0.139080
  C    -11.494140   -2.709140    0.437770
  O    -11.880070   -3.858120    0.386990
  C    -10.107290   -2.212700    0.628440
  C    -10.134560   -0.763540    0.616530
  C     -9.066450    0.085970    0.754400
  C     -7.724390   -0.301330    0.951500
  N     -6.610830   -0.529660    1.115110
  C     -9.166100    1.492910    0.716940
  N     -9.176840    2.640710    0.693170
  C     -9.007190   -3.016430    0.785900
  C     -9.047160   -4.423530    0.787690
  C     -7.936300   -5.203060    0.954750
  C     -8.018010   -6.609770    0.958830
  C     -6.945400   -7.433570    1.136950
  C     -7.002250   -8.851140    1.157720
  C     -5.817820   -9.603960    1.374510
  C     -5.812500  -11.033230    1.419580
  N     -4.650820  -11.689650    1.641650
  C     -3.565350  -11.009130    1.804440
  C     -3.569480   -9.588080    1.753670
  N     -4.659800   -8.927060    1.547830
  F     -2.446120   -8.897400    1.919540
  F     -2.439010  -11.679670    2.024860
  C     -6.989470  -11.806690    1.243370
  C     -8.174230  -11.061860    1.022330
  C     -8.181020   -9.617130    0.981750
  N     -9.410330   -9.143030    0.765510
  S    -10.441070  -10.359760    0.629060
  N     -9.400000  -11.557830    0.834370
  C     -6.923950  -13.223770    1.307130
  C     -7.994890  -14.052110    1.149060
  C     -7.919480  -15.456600    1.255540
  C     -8.977720  -16.311020    1.095260
  C    -10.307990  -15.897450    0.874930
  C    -11.403460  -16.665970    0.600000
  C    -12.756010  -16.079390    0.797770
  O    -13.018650  -14.908380    0.956210
  C    -13.681540  -17.228800    0.811530
  C    -15.023700  -17.245790    1.059050
  C    -15.708090  -18.481580    1.050620
  C    -14.981500  -19.680560    0.794340
  C    -15.668360  -20.911150    0.798000
  C    -17.013210  -20.948830    1.038890
  C    -17.731310  -19.761790    1.287720
  C    -17.093430  -18.553130    1.294380
  F    -19.049020  -19.828460    1.519540
  F    -17.664100  -22.119070    1.040740
  C    -13.592550  -19.630760    0.533070
  C    -12.952500  -18.420520    0.532070
  C    -11.562360  -18.059580    0.253370
  C    -10.661280  -18.846220   -0.416340
  C     -9.443820  -18.372970   -0.950360
  N     -8.473410  -18.027780   -1.456320
  C    -10.900840  -20.194030   -0.755780
  N    -11.040110  -21.298500   -1.034730
  H    -13.515040    3.171640    0.167500
  H    -16.312400   -0.903350   -0.210590
  H    -11.516740    1.804510    0.429770
  H    -14.279150   -2.329440    0.060830
  H     -8.037000   -2.555710    0.920920
  H    -10.006330   -4.902520    0.652880
  H     -6.967340   -4.738480    1.091980
  H     -8.994940   -7.049470    0.816160
  H     -5.959670   -7.013020    1.283180
  H     -5.940710  -13.631700    1.497510
  H     -8.950670  -13.599200    0.937200
  H     -6.947970  -15.884630    1.466130
  H     -8.785790  -17.371570    1.176370
  H    -10.541330  -14.848950    1.023080
  H    -15.556450  -16.328510    1.258670
  H    -15.135200  -21.829040    0.605520
  H    -17.656710  -17.653480    1.486970
  H    -13.068250  -20.554480    0.347110

 Total Charge           Charge          ....    0
 Multiplicity           Mult            ....    1
 Number of Electrons    NEL             ....  460
 Basis Dimension        Dim             .... 1032

ORBITAL ENERGIES
----------------

  NO   OCC          E(Eh)            E(eV)
   0   2.0000     -89.053538     -2423.2700
   1   2.0000     -24.823355      -675.4778
   2   2.0000     -24.823145      -675.4721
   3   2.0000     -24.800511      -674.8562
   4   2.0000     -24.799734      -674.8351
   5   2.0000     -24.799608      -674.8316
   6   2.0000     -24.798498      -674.8014
   7   2.0000     -19.219984      -523.0024
   8   2.0000     -19.219534      -522.9901
   9   2.0000     -14.463655      -393.5761
  10   2.0000     -14.463501      -393.5719
  11   2.0000     -14.462004      -393.5311
  12   2.0000     -14.461688      -393.5225
  13   2.0000     -14.420148      -392.3922
  14   2.0000     -14.419024      -392.3616
  15   2.0000     -14.416951      -392.3052
  16   2.0000     -14.416568      -392.2948
  17   2.0000     -10.440318      -284.0955
  18   2.0000     -10.440027      -284.0876
  19   2.0000     -10.383706      -282.5550
  20   2.0000     -10.383200      -282.5412
  21   2.0000     -10.382734      -282.5285
  22   2.0000     -10.381900      -282.5059
  23   2.0000     -10.370668      -282.2002
  24   2.0000     -10.369826      -282.1773
  25   2.0000     -10.356731      -281.8210
  26   2.0000     -10.356452      -281.8134
  27   2.0000     -10.350663      -281.6559
  28   2.0000     -10.350394      -281.6485
  29   2.0000     -10.348581      -281.5992
  30   2.0000     -10.345424      -281.5133
  31   2.0000     -10.344625      -281.4916
  32   2.0000     -10.343433      -281.4591
  33   2.0000     -10.323072      -280.9051
  34   2.0000     -10.322871      -280.8996
  35   2.0000     -10.322354      -280.8855
  36   2.0000     -10.321722      -280.8683
  37   2.0000     -10.319973      -280.8208
  38   2.0000     -10.318701      -280.7861
  39   2.0000     -10.316927      -280.7379
  40   2.0000     -10.316805      -280.7345
  41   2.0000     -10.313174      -280.6357
  42   2.0000     -10.312804      -280.6257
  43   2.0000     -10.311678      -280.5950
  44   2.0000     -10.311409      -280.5877
  45   2.0000     -10.311061      -280.5782
  46   2.0000     -10.308706      -280.5141
  47   2.0000     -10.307012      -280.4681
  48   2.0000     -10.305632      -280.4305
  49   2.0000     -10.305620      -280.4302
  50   2.0000     -10.304832      -280.4087
  51   2.0000     -10.303562      -280.3742
  52   2.0000     -10.303463      -280.3715
  53   2.0000     -10.303304      -280.3672
  54   2.0000     -10.302585      -280.3476
  55   2.0000     -10.302347      -280.3411
  56   2.0000     -10.301477      -280.3174
  57   2.0000     -10.301455      -280.3168
  58   2.0000     -10.301425      -280.3160
  59   2.0000     -10.301029      -280.3053
  60   2.0000     -10.300865      -280.3008
  61   2.0000     -10.297367      -280.2056
  62   2.0000     -10.296603      -280.1848
  63   2.0000     -10.293807      -280.1087
  64   2.0000     -10.290947      -280.0309
  65   2.0000     -10.290808      -280.0271
  66   2.0000     -10.288519      -279.9648
  67   2.0000      -8.144683      -221.6281
  68   2.0000      -6.115813      -166.4197
  69   2.0000      -6.107832      -166.2026
  70   2.0000      -6.107584      -166.1958
  71   2.0000      -1.351989       -36.7895
  72   2.0000      -1.337818       -36.4039
  73   2.0000      -1.323187       -36.0058
  74   2.0000      -1.322036       -35.9744
  75   2.0000      -1.308329       -35.6014
  76   2.0000      -1.307158       -35.5696
  77   2.0000      -1.150919       -31.3181
  78   2.0000      -1.134750       -30.8781
  79   2.0000      -1.134209       -30.8634
  80   2.0000      -1.122806       -30.5531
  81   2.0000      -1.047604       -28.5068
  82   2.0000      -1.022629       -27.8271
  83   2.0000      -1.021428       -27.7945
  84   2.0000      -1.006722       -27.3943
  85   2.0000      -1.005978       -27.3741
  86   2.0000      -1.004777       -27.3414
  87   2.0000      -0.996936       -27.1280
  88   2.0000      -0.996475       -27.1155
  89   2.0000      -0.985004       -26.8033
  90   2.0000      -0.983952       -26.7747
  91   2.0000      -0.982612       -26.7382
  92   2.0000      -0.943528       -25.6747
  93   2.0000      -0.940321       -25.5874
  94   2.0000      -0.931835       -25.3565
  95   2.0000      -0.927936       -25.2504
  96   2.0000      -0.915128       -24.9019
  97   2.0000      -0.903740       -24.5920
  98   2.0000      -0.898334       -24.4449
  99   2.0000      -0.894762       -24.3477
 100   2.0000      -0.893646       -24.3173
 101   2.0000      -0.892498       -24.2861
 102   2.0000      -0.883539       -24.0423
 103   2.0000      -0.868739       -23.6396
 104   2.0000      -0.847158       -23.0524
 105   2.0000      -0.843131       -22.9428
 106   2.0000      -0.841629       -22.9019
 107   2.0000      -0.828788       -22.5525
 108   2.0000      -0.820948       -22.3391
 109   2.0000      -0.803145       -21.8547
 110   2.0000      -0.793023       -21.5793
 111   2.0000      -0.772025       -21.0079
 112   2.0000      -0.769058       -20.9271
 113   2.0000      -0.768809       -20.9203
 114   2.0000      -0.765144       -20.8206
 115   2.0000      -0.748731       -20.3740
 116   2.0000      -0.741749       -20.1840
 117   2.0000      -0.733167       -19.9505
 118   2.0000      -0.722896       -19.6710
 119   2.0000      -0.720480       -19.6052
 120   2.0000      -0.714651       -19.4466
 121   2.0000      -0.704248       -19.1636
 122   2.0000      -0.699018       -19.0213
 123   2.0000      -0.688950       -18.7473
 124   2.0000      -0.687467       -18.7069
 125   2.0000      -0.683831       -18.6080
 126   2.0000      -0.680480       -18.5168
 127   2.0000      -0.676192       -18.4001
 128   2.0000      -0.664678       -18.0868
 129   2.0000      -0.662035       -18.0149
 130   2.0000      -0.657107       -17.8808
 131   2.0000      -0.655661       -17.8414
 132   2.0000      -0.653842       -17.7919
 133   2.0000      -0.645056       -17.5529
 134   2.0000      -0.644818       -17.5464
 135   2.0000      -0.641153       -17.4467
 136   2.0000      -0.638003       -17.3610
 137   2.0000      -0.626977       -17.0609
 138   2.0000      -0.626669       -17.0525
 139   2.0000      -0.618859       -16.8400
 140   2.0000      -0.616494       -16.7757
 141   2.0000      -0.609887       -16.5959
 142   2.0000      -0.600646       -16.3444
 143   2.0000      -0.597038       -16.2462
 144   2.0000      -0.589992       -16.0545
 145   2.0000      -0.587626       -15.9901
 146   2.0000      -0.586535       -15.9604
 147   2.0000      -0.583966       -15.8905
 148   2.0000      -0.581899       -15.8343
 149   2.0000      -0.578743       -15.7484
 150   2.0000      -0.575175       -15.6513
 151   2.0000      -0.574993       -15.6463
 152   2.0000      -0.566444       -15.4137
 153   2.0000      -0.562458       -15.3053
 154   2.0000      -0.560096       -15.2410
 155   2.0000      -0.556319       -15.1382
 156   2.0000      -0.554309       -15.0835
 157   2.0000      -0.549246       -14.9457
 158   2.0000      -0.548166       -14.9163
 159   2.0000      -0.543719       -14.7953
 160   2.0000      -0.540502       -14.7078
 161   2.0000      -0.540158       -14.6984
 162   2.0000      -0.539557       -14.6821
 163   2.0000      -0.535698       -14.5771
 164   2.0000      -0.533524       -14.5179
 165   2.0000      -0.531688       -14.4680
 166   2.0000      -0.529356       -14.4045
 167   2.0000      -0.529016       -14.3952
 168   2.0000      -0.524806       -14.2807
 169   2.0000      -0.521376       -14.1874
 170   2.0000      -0.519398       -14.1335
 171   2.0000      -0.518462       -14.1081
 172   2.0000      -0.515036       -14.0148
 173   2.0000      -0.513470       -13.9722
 174   2.0000      -0.506408       -13.7801
 175   2.0000      -0.505385       -13.7522
 176   2.0000      -0.501863       -13.6564
 177   2.0000      -0.500361       -13.6155
 178   2.0000      -0.499521       -13.5927
 179   2.0000      -0.491850       -13.3839
 180   2.0000      -0.488104       -13.2820
 181   2.0000      -0.487892       -13.2762
 182   2.0000      -0.486654       -13.2425
 183   2.0000      -0.481909       -13.1134
 184   2.0000      -0.479621       -13.0512
 185   2.0000      -0.478277       -13.0146
 186   2.0000      -0.473185       -12.8760
 187   2.0000      -0.469652       -12.7799
 188   2.0000      -0.466642       -12.6980
 189   2.0000      -0.465335       -12.6624
 190   2.0000      -0.463116       -12.6020
 191   2.0000      -0.457311       -12.4441
 192   2.0000      -0.453967       -12.3531
 193   2.0000      -0.451654       -12.2901
 194   2.0000      -0.451425       -12.2839
 195   2.0000      -0.448756       -12.2113
 196   2.0000      -0.447501       -12.1771
 197   2.0000      -0.445616       -12.1258
 198   2.0000      -0.444973       -12.1083
 199   2.0000      -0.443796       -12.0763
 200   2.0000      -0.437534       -11.9059
 201   2.0000      -0.432206       -11.7609
 202   2.0000      -0.430532       -11.7154
 203   2.0000      -0.429992       -11.7007
 204   2.0000      -0.428323       -11.6553
 205   2.0000      -0.426614       -11.6088
 206   2.0000      -0.425832       -11.5875
 207   2.0000      -0.423214       -11.5163
 208   2.0000      -0.421265       -11.4632
 209   2.0000      -0.414563       -11.2808
 210   2.0000      -0.411265       -11.1911
 211   2.0000      -0.409775       -11.1506
 212   2.0000      -0.400615       -10.9013
 213   2.0000      -0.397944       -10.8286
 214   2.0000      -0.387929       -10.5561
 215   2.0000      -0.386373       -10.5137
 216   2.0000      -0.382435       -10.4066
 217   2.0000      -0.381034       -10.3685
 218   2.0000      -0.369254       -10.0479
 219   2.0000      -0.359778        -9.7901
 220   2.0000      -0.351994        -9.5782
 221   2.0000      -0.342318        -9.3149
 222   2.0000      -0.338620        -9.2143
 223   2.0000      -0.328613        -8.9420
 224   2.0000      -0.319874        -8.7042
 225   2.0000      -0.318566        -8.6686
 226   2.0000      -0.306526        -8.3410
 227   2.0000      -0.302627        -8.2349
 228   2.0000      -0.293399        -7.9838
 229   2.0000      -0.255498        -6.9525
 230   0.0000      -0.136045        -3.7020
 231   0.0000      -0.096559        -2.6275
 232   0.0000      -0.089473        -2.4347
 233   0.0000      -0.061924        -1.6850
 234   0.0000      -0.061369        -1.6699

MULLIKEN ATOMIC CHARGES
-----------------------
   0 C :   -0.107553
   1 C :    0.241423
   2 F :   -0.170865
   3 C :    0.237836
   4 F :   -0.171939
   5 C :   -0.104352
   6 C :    0.116653
   7 C :    0.112109
   8 C :   -0.084560
   9 C :    0.053339
  10 C :   -0.004574
  11 C :   -0.080366
  12 C :    0.147161
  13 O :   -0.151470
  14 C :   -0.076686
  15 C :    0.331823
  16 C :   -0.350829
  17 C :   -0.187674
  18 N :    0.147810
  19 C :   -0.183578
  20 N :    0.146107
  21 C :   -0.020514
  22 C :   -0.006100
  23 C :    0.056187
  24 C :    0.034017
  25 C :   -0.068060
  26 C :    0.089277
  27 C :   -0.040073
  28 C :   -0.038439
  29 N :    0.010550
  30 C :    0.133483
  31 C :    0.133877
  32 N :    0.011350
  33 F :   -0.134482
  34 F :   -0.135009
  35 C :    0.078135
  36 C :    0.034252
  37 C :    0.023066
  38 N :   -0.292460
  39 S :    0.570245
  40 N :   -0.301879
  41 C :   -0.065116
  42 C :    0.026149
  43 C :    0.056442
  44 C :    0.016448
  45 C :    0.025286
  46 C :   -0.104552
  47 C :    0.142965
  48 O :   -0.149844
  49 C :    0.006500
  50 C :   -0.080737
  51 C :    0.113042
  52 C :    0.111873
  53 C :   -0.106086
  54 C :    0.241992
  55 C :    0.237122
  56 C :   -0.102708
  57 F :   -0.171579
  58 F :   -0.170587
  59 C :   -0.082592
  60 C :    0.042237
  61 C :    0.279486
  62 C :   -0.331254
  63 C :   -0.217301
  64 N :    0.176645
  65 C :   -0.174149
  66 N :    0.148202
  67 H :    0.008729
  68 H :   -0.001282
  69 H :   -0.007108
  70 H :   -0.011693
  71 H :    0.010308
  72 H :    0.030119
  73 H :    0.011512
  74 H :    0.025508
  75 H :    0.004701
  76 H :    0.001705
  77 H :    0.035911
  78 H :    0.004701
  79 H :    0.014567
  80 H :    0.016306
  81 H :   -0.010673
  82 H :    0.007304
  83 H :   -0.001551
  84 H :   -0.004184
Sum of atomic charges:   -0.0000000

LOEWDIN ATOMIC CHARGES
----------------------
   0 C :   -0.029188
   1 C :    0.066361
   2 F :   -0.048671
   3 C :    0.067578
   4 F :   -0.049381
   5 C :   -0.033582
   6 C :   -0.008692
   7 C :   -0.006512
   8 C :    0.017061
   9 C :   -0.022210
  10 C :   -0.052272
  11 C :    0.029130
  12 C :    0.084388
  13 O :   -0.144827
  14 C :   -0.091040
  15 C :    0.073449
  16 C :   -0.138270
  17 C :   -0.020304
  18 N :   -0.051644
  19 C :   -0.017111
  20 N :   -0.053970
  21 C :    0.066682
  22 C :   -0.023328
  23 C :    0.033390
  24 C :   -0.005251
  25 C :    0.004733
  26 C :   -0.024439
  27 C :   -0.004691
  28 C :   -0.004702
  29 N :   -0.037318
  30 C :    0.059047
  31 C :    0.059014
  32 N :   -0.037013
  33 F :   -0.024720
  34 F :   -0.025132
  35 C :   -0.024872
  36 C :   -0.035572
  37 C :   -0.036315
  38 N :   -0.275014
  39 S :    0.691456
  40 N :   -0.277664
  41 C :    0.007325
  42 C :   -0.009208
  43 C :    0.035435
  44 C :   -0.025186
  45 C :    0.066095
  46 C :   -0.088162
  47 C :    0.082132
  48 O :   -0.147895
  49 C :   -0.054101
  50 C :    0.029974
  51 C :   -0.009676
  52 C :   -0.005561
  53 C :   -0.030036
  54 C :    0.067112
  55 C :    0.066997
  56 C :   -0.033015
  57 F :   -0.049181
  58 F :   -0.048277
  59 C :    0.013828
  60 C :   -0.019247
  61 C :    0.068014
  62 C :   -0.134630
  63 C :   -0.026043
  64 N :   -0.044897
  65 C :   -0.018355
  66 N :   -0.049880
  67 H :    0.047953
  68 H :    0.044526
  69 H :    0.039810
  70 H :    0.039585
  71 H :    0.042304
  72 H :    0.036051
  73 H :    0.035304
  74 H :    0.032233
  75 H :    0.036079
  76 H :    0.035721
  77 H :    0.027083
  78 H :    0.039059
  79 H :    0.037022
  80 H :    0.043186
  81 H :    0.040109
  82 H :    0.047585
  83 H :    0.044553
  84 H :    0.039694

  Mayer bond orders larger than 0.100000
B(  0-C ,  1-C ) :   1.4413 B(  0-C ,  5-C ) :   0.1083 B(  0-C ,  7-C ) :   1.1881
B(  0-C , 67-H ) :   1.0072 B(  1-C ,  2-F ) :   1.1356 B(  1-C ,  3-C ) :   1.1905
B(  3-C ,  4-F ) :   1.1328 B(  3-C ,  5-C ) :   1.4437 B(  5-C ,  6-C ) :   1.1913
B(  5-C , 68-H ) :   1.0075 B(  6-C ,  7-C ) :   1.2553 B(  6-C , 11-C ) :   1.1886
B(  7-C ,  8-C ) :   1.2178 B(  8-C ,  9-C ) :   1.4493 B(  8-C , 69-H ) :   0.9894
B(  9-C , 10-C ) :   1.2221 B(  9-C , 15-C ) :   0.9838 B( 10-C , 11-C ) :   1.4728
B( 10-C , 12-C ) :   0.9435 B( 11-C , 70-H ) :   1.0163 B( 12-C , 13-O ) :   2.1966
B( 12-C , 14-C ) :   0.9462 B( 14-C , 15-C ) :   1.0710 B( 14-C , 21-C ) :   1.5261
B( 15-C , 16-C ) :   1.6234 B( 16-C , 17-C ) :   1.1455 B( 16-C , 19-C ) :   1.1475
B( 17-C , 18-N ) :   2.9595 B( 19-C , 20-N ) :   2.9580 B( 21-C , 22-C ) :   1.1625
B( 21-C , 71-H ) :   0.9598 B( 22-C , 23-C ) :   1.5131 B( 22-C , 72-H ) :   0.9844
B( 23-C , 24-C ) :   1.1437 B( 23-C , 73-H ) :   0.9972 B( 24-C , 25-C ) :   1.5243
B( 24-C , 74-H ) :   0.9650 B( 25-C , 26-C ) :   1.1967 B( 25-C , 75-H ) :   0.9717
B( 26-C , 27-C ) :   1.2673 B( 26-C , 35-C ) :   0.1363 B( 26-C , 37-C ) :   1.1689
B( 27-C , 28-C ) :   1.1326 B( 27-C , 32-N ) :   1.4281 B( 28-C , 29-N ) :   1.4273
B( 28-C , 35-C ) :   1.2696 B( 29-N , 30-C ) :   1.6959 B( 30-C , 31-C ) :   1.0911
B( 30-C , 34-F ) :   1.1834 B( 31-C , 32-N ) :   1.6952 B( 31-C , 33-F ) :   1.1844
B( 35-C , 36-C ) :   1.1690 B( 35-C , 41-C ) :   1.1886 B( 36-C , 37-C ) :   1.1298
B( 36-C , 40-N ) :   1.4865 B( 37-C , 38-N ) :   1.4932 B( 38-N , 39-S ) :   1.2857
B( 38-N , 40-N ) :   0.1504 B( 39-S , 40-N ) :   1.2848 B( 41-C , 42-C ) :   1.5594
B( 41-C , 76-H ) :   0.9748 B( 42-C , 43-C ) :   1.1638 B( 42-C , 77-H ) :   0.9422
B( 43-C , 44-C ) :   1.6033 B( 43-C , 78-H ) :   0.9841 B( 44-C , 45-C ) :   1.1447
B( 44-C , 79-H ) :   0.9655 B( 45-C , 46-C ) :   1.6278 B( 45-C , 80-H ) :   0.9309
B( 46-C , 47-C ) :   0.9457 B( 46-C , 61-C ) :   1.0341 B( 47-C , 48-O ) :   2.2375
B( 47-C , 49-C ) :   0.9276 B( 49-C , 50-C ) :   1.4772 B( 49-C , 60-C ) :   1.2187
B( 50-C , 51-C ) :   1.1930 B( 50-C , 81-H ) :   1.0159 B( 51-C , 52-C ) :   1.2579
B( 51-C , 56-C ) :   1.1923 B( 52-C , 53-C ) :   1.1901 B( 52-C , 59-C ) :   1.2128
B( 53-C , 54-C ) :   1.4409 B( 53-C , 56-C ) :   0.1085 B( 53-C , 82-H ) :   1.0070
B( 54-C , 55-C ) :   1.1922 B( 54-C , 58-F ) :   1.1352 B( 55-C , 56-C ) :   1.4437
B( 55-C , 57-F ) :   1.1334 B( 56-C , 83-H ) :   1.0070 B( 59-C , 60-C ) :   1.4580
B( 59-C , 84-H ) :   0.9932 B( 60-C , 61-C ) :   0.9967 B( 61-C , 62-C ) :   1.6476
B( 62-C , 63-C ) :   1.1587 B( 62-C , 65-C ) :   1.1315 B( 63-C , 64-N ) :   3.0179
B( 65-C , 66-N ) :   2.9795

-----------------------------------------------------------------------------
         ABSORPTION SPECTRUM VIA TRANSITION ELECTRIC DIPOLE MOMENTS
-----------------------------------------------------------------------------
State   Energy  Wavelength   fosc         T2         TX        TY        TZ
        (cm-1)    (nm)                  (au**2)     (au)      (au)      (au)
-----------------------------------------------------------------------------
   0   11906.3    839.9   1.284061075  35.50459  -0.26112  -5.95285  -0.00065
   1   20285.6    493.0   0.047784471   0.77549   0.41357  -0.77430   0.07005
   2   20625.9    484.8   0.535136623   8.54136  -1.10356  -2.68707  -0.32119
   3   21191.5    471.9   0.613599690   9.53235  -2.70511   1.36290  -0.59768
   4   24337.5    410.9   0.018879978   0.25539  -0.40416  -0.09222  -0.28903
   5   24824.1    402.8   0.099089046   1.31410   1.12757  -0.18734  -0.08715
   6   25792.9    387.7   0.000000744   0.00001   0.00186  -0.00245   0.00013
   7   26747.4    373.9   0.029148464   0.35876  -0.05020   0.58549   0.11594
   8   27228.3    367.3   0.029442938   0.35599  -0.53254  -0.26543  -0.04408
   9   27681.2    361.3   0.020164434   0.23982   0.14062   0.40156   0.24247
  10   28128.9    355.5   0.005605077   0.06560  -0.00910   0.25461  -0.02628
  11   28465.7    351.3   0.348517721   4.03068  -2.00491  -0.00625   0.10474
  12   28619.2    349.4   0.104767786   1.20517   0.31601  -0.99109   0.35078
  13   29584.4    338.0   0.021003901   0.23373   0.04937   0.47662  -0.06419
  14   29800.9    335.6   0.270397096   2.98709  -1.70355  -0.02060  -0.29086
  15   30629.2    326.5   0.000381848   0.00410   0.05949  -0.02272  -0.00697
  16   30752.1    325.2   0.021961000   0.23510   0.00849  -0.10300  -0.47373
  17   31088.0    321.7   0.135416872   1.43402  -1.17187   0.11198   0.21955
  18   31794.8    314.5   0.002025491   0.02097   0.04114  -0.00623  -0.13871
  19   32026.9    312.2   0.251755185   2.58785  -1.45434  -0.68418   0.06815
  20   32347.2    309.1   0.109509894   1.11453   1.03185  -0.10602   0.19642
  21   32381.3    308.8   0.180887922   1.83904   1.18677  -0.63561   0.16315
  22   33146.0    301.7   0.068895677   0.68428   0.73518  -0.36793   0.09180
  23   33378.7    299.6   0.000015986   0.00016  -0.00283   0.00074   0.01221
  24   33783.7    296.0   0.197172212   1.92138  -0.33299  -1.34501  -0.03816
  25   34246.2    292.0   0.082953703   0.79744   0.81997  -0.14992  -0.32034
  26   34686.5    288.3   0.237463085   2.25378   1.45088  -0.37936   0.06925
  27   35085.6    285.0   0.043198360   0.40534  -0.59959  -0.04971  -0.20822
  28   35233.8    283.8   0.000064795   0.00061   0.02322   0.00249  -0.00775
  29   35919.8    278.4   0.873133138   8.00243  -2.82463  -0.15088   0.03397
  30   36044.3    277.4   0.081082778   0.74057  -0.46029   0.27019   0.67506
  31   36450.3    274.3   0.257126457   2.32232   1.46121   0.06970  -0.42701
  32   36696.6    272.5   0.048956171   0.43920   0.21713  -0.62614  -0.00038
  33   37443.7    267.1   0.079286866   0.69711   0.83367  -0.02852   0.03582
  34   38011.6    263.1   0.008347354   0.07229   0.23997  -0.11198   0.04655
  35   38302.0    261.1   0.057213290   0.49176   0.64435   0.26628   0.07526
  36   38651.9    258.7   0.004643958   0.03955   0.09472   0.17339  -0.02281
  37   39296.3    254.5   0.221323365   1.85418  -1.33290  -0.13944  -0.24104
  38   39310.8    254.4   0.117926898   0.98759  -0.42185  -0.89726  -0.06747
  39   39449.1    253.5   0.333802022   2.78565  -1.63632   0.28656  -0.16123
  40   39862.1    250.9   0.002762892   0.02282  -0.03819  -0.11499  -0.09020
  41   40179.0    248.9   0.012723599   0.10425   0.28868  -0.02828   0.14184
  42   40322.6    248.0   0.240822404   1.96618  -0.09844   1.39871   0.01059

FINAL SINGLE POINT ENERGY     -3497.841882240343

DIPOLE MOMENT
-------------
                                X             Y             Z
Electronic contribution:     -7.67332       1.36470       0.64097
Nuclear contribution   :      6.55294      -2.10719       0.46618
                        -----------------------------------------
Total Dipole Moment    :     -1.12037      -0.74249       1.10715
                        -----------------------------------------
Magnitude (a.u.)       :      1.74136
Magnitude (Debye)      :      4.42618

Rotational constants in cm-1:     0.001054     0.000295     0.000233
Rotational constants in MHz :    31.588783     8.850472     6.981472

                             ****ORCA TERMINATED NORMALLY****
TOTAL RUN TIME: 0 days 0 hours 7 minutes 52 seconds 884 msec
