                         Program Version 4.2.0 -  RELEASE  -
|  1> # ORCA input file
|  2> # SCF done       -214.414369256052          0.000464749113
|  3> ! CAM-B3LYP def2-SVP def2/J RIJCOSX Grid4 TightSCF
|  4> %maxcore 5000
|  5> %tddft
|  6>     Mode sTDDFT
|  7>     Ethresh 5.0
|  8>     maxcore 5000
|  9> end
| 10>
| 11> %pal
| 12>   nprocs 6
| 13>   end
| 14> * xyz 0 1
| 15>    C        0.96515        -0.90975        -6.57267
| 16>    C        1.71919        -1.35036        -7.62412
| 17>    F        2.49660        -0.49518        -8.30020
| 18>    C        1.68982        -2.70571        -8.00972
| 19>    F        2.44014        -3.11004        -9.04310
| 20>    C        0.90563        -3.60194        -7.33878
| 21>    C        0.11782        -3.17857        -6.25096
| 22>    C        0.14730        -1.80877        -5.85920
| 23>    C       -0.63193        -1.36079        -4.76753
| 24>    C       -1.41504        -2.25532        -4.08685
| 25>    C       -1.43719        -3.62094        -4.48632
| 26>    C       -0.69887        -4.08341        -5.53703
| 27>    C       -2.34081        -4.36890        -3.59583
| 28>    O       -2.60509        -5.55564        -3.66738
| 29>    C       -2.84373        -3.39957        -2.61433
| 30>    C       -2.30251        -2.09202        -2.93675
| 31>    C       -2.57150        -0.90160        -2.31268
| 32>    C       -3.44318        -0.72058        -1.21809
| 33>    N       -4.13843        -0.48804        -0.33391
| 34>    C       -2.01132         0.33537        -2.69761
| 35>    N       -1.59191         1.37211        -2.95581
| 36>    C       -3.65368        -3.69383        -1.54761
| 37>    C       -4.22605        -4.91129        -1.14687
| 38>    C       -5.00382        -5.00105         0.01265
| 39>    C       -5.48312        -6.27654         0.22781
| 40>    C       -5.08858        -7.19147        -0.77182
| 41>    S       -4.09921        -6.45820        -1.97527
| 42>    C       -5.59560        -8.46796        -0.53277
| 43>    C       -6.36735        -8.52882         0.64217
| 44>    S       -6.47655        -6.99824         1.46745
| 45>    C       -6.89181        -9.78590         0.90201
| 46>    C       -6.53570       -10.70918        -0.07204
| 47>    S       -5.53123        -9.99742        -1.32552
| 48>    C       -6.89667       -12.08184        -0.16222
| 49>    C       -7.67478       -12.77340         0.79997
| 50>    C       -8.03982       -14.15727         0.61274
| 51>    N       -8.78209       -14.78014         1.53488
| 52>    C       -9.17443       -14.14504         2.60995
| 53>    C       -8.80390       -12.77469         2.80013
| 54>    N       -8.08251       -12.14051         1.90910
| 55>    C       -9.21499       -12.07829         3.96509
| 56>    N       -9.56033       -11.53174         4.91025
| 57>    C       -9.96122       -14.82110         3.57482
| 58>    N      -10.59843       -15.33296         4.37687
| 59>    C       -7.66071       -14.91896        -0.51762
| 60>    C       -6.85812       -14.23922        -1.46000
| 61>    C       -6.49020       -12.85673        -1.27249
| 62>    N       -5.73574       -12.40950        -2.27604
| 63>    S       -5.50726       -13.58742        -3.33867
| 64>    N       -6.35174       -14.72842        -2.59371
| 65>    C       -8.08979       -16.26339        -0.66752
| 66>    C       -7.81681       -17.10691        -1.73569
| 67>    C       -8.41686       -18.34763        -1.57920
| 68>    C       -9.15212       -18.46968        -0.38714
| 69>    S       -9.09589       -17.01952         0.55196
| 70>    C       -9.75493       -19.72044        -0.27249
| 71>    C       -9.48033       -20.55267        -1.37557
| 72>    S       -8.46745       -19.78496        -2.56464
| 73>    C      -10.06288       -21.80797        -1.28694
| 74>    C      -10.79658       -21.96072        -0.11821
| 75>    S      -10.76894       -20.50524         0.86812
| 76>    C      -11.58954       -23.04127         0.32053
| 77>    C      -11.62586       -24.33830        -0.09952
| 78>    C      -12.84532       -25.14183         0.20078
| 79>    O      -13.73095       -24.84997         0.96928
| 80>    C      -12.75790       -26.32337        -0.68008
| 81>    C      -13.67852       -27.31003        -0.88433
| 82>    C      -13.38962       -28.33707        -1.81070
| 83>    C      -12.14928       -28.31708        -2.51252
| 84>    C      -11.87154       -29.33982        -3.44153
| 85>    C      -12.78047       -30.33663        -3.66092
| 86>    C      -14.00596       -30.35633        -2.96486
| 87>    C      -14.30537       -29.37809        -2.05852
| 88>    F      -14.87839       -31.34480        -3.20129
| 89>    F      -12.51428       -31.30765        -4.54387
| 90>    C      -11.21161       -27.28595        -2.27355
| 91>    C      -11.50942       -26.30638        -1.36470
| 92>    C      -10.73919       -25.15525        -0.89577
| 93>    C       -9.37651       -25.03164        -0.98955
| 94>    C       -8.63486       -24.04991        -0.30336
| 95>    N       -7.99518       -23.28246         0.26156
| 96>    C       -8.55688       -25.92090        -1.71400
| 97>    N       -7.85170       -26.60470        -2.30769
| 98>    H        0.99928         0.13104        -6.29075
| 99>    H        0.89428        -4.63589        -7.64621
|100>    H       -0.58391        -0.31874        -4.49671
|101>    H       -0.73558        -5.12516        -5.81713
|102>    H       -3.90131        -2.87497        -0.88300
|103>    H       -5.19472        -4.15685         0.65020
|104>    H       -7.50355       -10.03469         1.74766
|105>    H       -7.21366       -16.80600        -2.57135
|106>    H       -9.99896       -22.55629        -2.05530
|107>    H      -12.34655       -22.79203         1.05914
|108>    H      -14.61475       -27.30672        -0.34733
|109>    H      -10.93682       -29.34240        -3.98019
|110>    H      -15.24749       -29.40688        -1.53385
|111>    H      -10.28421       -27.29189        -2.82389
|112> *
|113>
|114>                          ****END OF INPUT****

CARTESIAN COORDINATES (ANGSTROEM)
---------------------------------
  C      0.965150   -0.909750   -6.572670
  C      1.719190   -1.350360   -7.624120
  F      2.496600   -0.495180   -8.300200
  C      1.689820   -2.705710   -8.009720
  F      2.440140   -3.110040   -9.043100
  C      0.905630   -3.601940   -7.338780
  C      0.117820   -3.178570   -6.250960
  C      0.147300   -1.808770   -5.859200
  C     -0.631930   -1.360790   -4.767530
  C     -1.415040   -2.255320   -4.086850
  C     -1.437190   -3.620940   -4.486320
  C     -0.698870   -4.083410   -5.537030
  C     -2.340810   -4.368900   -3.595830
  O     -2.605090   -5.555640   -3.667380
  C     -2.843730   -3.399570   -2.614330
  C     -2.302510   -2.092020   -2.936750
  C     -2.571500   -0.901600   -2.312680
  C     -3.443180   -0.720580   -1.218090
  N     -4.138430   -0.488040   -0.333910
  C     -2.011320    0.335370   -2.697610
  N     -1.591910    1.372110   -2.955810
  C     -3.653680   -3.693830   -1.547610
  C     -4.226050   -4.911290   -1.146870
  C     -5.003820   -5.001050    0.012650
  C     -5.483120   -6.276540    0.227810
  C     -5.088580   -7.191470   -0.771820
  S     -4.099210   -6.458200   -1.975270
  C     -5.595600   -8.467960   -0.532770
  C     -6.367350   -8.528820    0.642170
  S     -6.476550   -6.998240    1.467450
  C     -6.891810   -9.785900    0.902010
  C     -6.535700  -10.709180   -0.072040
  S     -5.531230   -9.997420   -1.325520
  C     -6.896670  -12.081840   -0.162220
  C     -7.674780  -12.773400    0.799970
  C     -8.039820  -14.157270    0.612740
  N     -8.782090  -14.780140    1.534880
  C     -9.174430  -14.145040    2.609950
  C     -8.803900  -12.774690    2.800130
  N     -8.082510  -12.140510    1.909100
  C     -9.214990  -12.078290    3.965090
  N     -9.560330  -11.531740    4.910250
  C     -9.961220  -14.821100    3.574820
  N    -10.598430  -15.332960    4.376870
  C     -7.660710  -14.918960   -0.517620
  C     -6.858120  -14.239220   -1.460000
  C     -6.490200  -12.856730   -1.272490
  N     -5.735740  -12.409500   -2.276040
  S     -5.507260  -13.587420   -3.338670
  N     -6.351740  -14.728420   -2.593710
  C     -8.089790  -16.263390   -0.667520
  C     -7.816810  -17.106910   -1.735690
  C     -8.416860  -18.347630   -1.579200
  C     -9.152120  -18.469680   -0.387140
  S     -9.095890  -17.019520    0.551960
  C     -9.754930  -19.720440   -0.272490
  C     -9.480330  -20.552670   -1.375570
  S     -8.467450  -19.784960   -2.564640
  C    -10.062880  -21.807970   -1.286940
  C    -10.796580  -21.960720   -0.118210
  S    -10.768940  -20.505240    0.868120
  C    -11.589540  -23.041270    0.320530
  C    -11.625860  -24.338300   -0.099520
  C    -12.845320  -25.141830    0.200780
  O    -13.730950  -24.849970    0.969280
  C    -12.757900  -26.323370   -0.680080
  C    -13.678520  -27.310030   -0.884330
  C    -13.389620  -28.337070   -1.810700
  C    -12.149280  -28.317080   -2.512520
  C    -11.871540  -29.339820   -3.441530
  C    -12.780470  -30.336630   -3.660920
  C    -14.005960  -30.356330   -2.964860
  C    -14.305370  -29.378090   -2.058520
  F    -14.878390  -31.344800   -3.201290
  F    -12.514280  -31.307650   -4.543870
  C    -11.211610  -27.285950   -2.273550
  C    -11.509420  -26.306380   -1.364700
  C    -10.739190  -25.155250   -0.895770
  C     -9.376510  -25.031640   -0.989550
  C     -8.634860  -24.049910   -0.303360
  N     -7.995180  -23.282460    0.261560
  C     -8.556880  -25.920900   -1.714000
  N     -7.851700  -26.604700   -2.307690
  H      0.999280    0.131040   -6.290750
  H      0.894280   -4.635890   -7.646210
  H     -0.583910   -0.318740   -4.496710
  H     -0.735580   -5.125160   -5.817130
  H     -3.901310   -2.874970   -0.883000
  H     -5.194720   -4.156850    0.650200
  H     -7.503550  -10.034690    1.747660
  H     -7.213660  -16.806000   -2.571350
  H     -9.998960  -22.556290   -2.055300
  H    -12.346550  -22.792030    1.059140
  H    -14.614750  -27.306720   -0.347330
  H    -10.936820  -29.342400   -3.980190
  H    -15.247490  -29.406880   -1.533850
  H    -10.284210  -27.291890   -2.823890

 Total Charge           Charge          ....    0
 Multiplicity           Mult            ....    1
 Number of Electrons    NEL             ....  608
 Basis Dimension        Dim             .... 1260

ORBITAL ENERGIES
----------------

  NO   OCC          E(Eh)            E(eV)
   0   2.0000     -89.064476     -2423.5676
   1   2.0000     -88.979165     -2421.2462
   2   2.0000     -88.974393     -2421.1163
   3   2.0000     -88.974161     -2421.1100
   4   2.0000     -88.974003     -2421.1057
   5   2.0000     -88.972667     -2421.0694
   6   2.0000     -88.970153     -2421.0010
   7   2.0000     -24.801260      -674.8766
   8   2.0000     -24.800225      -674.8484
   9   2.0000     -24.800038      -674.8433
  10   2.0000     -24.799727      -674.8349
  11   2.0000     -19.226929      -523.1913
  12   2.0000     -19.218638      -522.9657
  13   2.0000     -14.480578      -394.0366
  14   2.0000     -14.477145      -393.9432
  15   2.0000     -14.472586      -393.8191
  16   2.0000     -14.472105      -393.8060
  17   2.0000     -14.442447      -392.9990
  18   2.0000     -14.441922      -392.9847
  19   2.0000     -14.421315      -392.4239
  20   2.0000     -14.420691      -392.4070
  21   2.0000     -14.419740      -392.3811
  22   2.0000     -14.417642      -392.3240
  23   2.0000     -10.398394      -282.9547
  24   2.0000     -10.397273      -282.9242
  25   2.0000     -10.384476      -282.5760
  26   2.0000     -10.383589      -282.5518
  27   2.0000     -10.383504      -282.5495
  28   2.0000     -10.383092      -282.5383
  29   2.0000     -10.375147      -282.3221
  30   2.0000     -10.369998      -282.1820
  31   2.0000     -10.365625      -282.0630
  32   2.0000     -10.363637      -282.0089
  33   2.0000     -10.361816      -281.9594
  34   2.0000     -10.360380      -281.9203
  35   2.0000     -10.348215      -281.5892
  36   2.0000     -10.347233      -281.5625
  37   2.0000     -10.346062      -281.5307
  38   2.0000     -10.345327      -281.5107
  39   2.0000     -10.336671      -281.2751
  40   2.0000     -10.336216      -281.2627
  41   2.0000     -10.335471      -281.2425
  42   2.0000     -10.334785      -281.2238
  43   2.0000     -10.331824      -281.1432
  44   2.0000     -10.330129      -281.0971
  45   2.0000     -10.329332      -281.0754
  46   2.0000     -10.329023      -281.0670
  47   2.0000     -10.327766      -281.0328
  48   2.0000     -10.327231      -281.0182
  49   2.0000     -10.326627      -281.0018
  50   2.0000     -10.324157      -280.9346
  51   2.0000     -10.323338      -280.9123
  52   2.0000     -10.322557      -280.8911
  53   2.0000     -10.321329      -280.8576
  54   2.0000     -10.320852      -280.8447
  55   2.0000     -10.320401      -280.8324
  56   2.0000     -10.319774      -280.8153
  57   2.0000     -10.319589      -280.8103
  58   2.0000     -10.319202      -280.7998
  59   2.0000     -10.318367      -280.7770
  60   2.0000     -10.317132      -280.7434
  61   2.0000     -10.313641      -280.6484
  62   2.0000     -10.313267      -280.6383
  63   2.0000     -10.313185      -280.6360
  64   2.0000     -10.312713      -280.6232
  65   2.0000     -10.311860      -280.6000
  66   2.0000     -10.311207      -280.5822
  67   2.0000     -10.310564      -280.5647
  68   2.0000     -10.310172      -280.5540
  69   2.0000     -10.306305      -280.4488
  70   2.0000     -10.305403      -280.4243
  71   2.0000     -10.305249      -280.4201
  72   2.0000     -10.305222      -280.4194
  73   2.0000     -10.304225      -280.3922
  74   2.0000     -10.303283      -280.3666
  75   2.0000     -10.303132      -280.3625
  76   2.0000     -10.302823      -280.3541
  77   2.0000     -10.302798      -280.3534
  78   2.0000     -10.302577      -280.3474
  79   2.0000     -10.301589      -280.3205
  80   2.0000     -10.298265      -280.2300
  81   2.0000     -10.297020      -280.1961
  82   2.0000     -10.296524      -280.1827
  83   2.0000      -8.155382      -221.9192
  84   2.0000      -8.074395      -219.7155
  85   2.0000      -8.067923      -219.5393
  86   2.0000      -8.067903      -219.5388
  87   2.0000      -8.067428      -219.5259
  88   2.0000      -8.067128      -219.5177
  89   2.0000      -8.065471      -219.4726
  90   2.0000      -6.126457      -166.7094
  91   2.0000      -6.118651      -166.4970
  92   2.0000      -6.118252      -166.4861
  93   2.0000      -6.043847      -164.4614
  94   2.0000      -6.039765      -164.3504
  95   2.0000      -6.037658      -164.2930
  96   2.0000      -6.037641      -164.2926
  97   2.0000      -6.037345      -164.2845
  98   2.0000      -6.036865      -164.2714
  99   2.0000      -6.036105      -164.2508
 100   2.0000      -6.035268      -164.2280
 101   2.0000      -6.033812      -164.1884
 102   2.0000      -6.033164      -164.1707
 103   2.0000      -6.032600      -164.1554
 104   2.0000      -6.032251      -164.1459
 105   2.0000      -6.031385      -164.1223
 106   2.0000      -6.029482      -164.0706
 107   2.0000      -6.028977      -164.0568
 108   2.0000      -6.028796      -164.0519
 109   2.0000      -6.028783      -164.0515
 110   2.0000      -6.026266      -163.9830
 111   2.0000      -1.323756       -36.0212
 112   2.0000      -1.323017       -36.0011
 113   2.0000      -1.308866       -35.6161
 114   2.0000      -1.308148       -35.5965
 115   2.0000      -1.161705       -31.6116
 116   2.0000      -1.142770       -31.0964
 117   2.0000      -1.138877       -30.9904
 118   2.0000      -1.134661       -30.8757
 119   2.0000      -1.066213       -29.0131
 120   2.0000      -1.036068       -28.1928
 121   2.0000      -1.033897       -28.1338
 122   2.0000      -1.026957       -27.9449
 123   2.0000      -1.023904       -27.8619
 124   2.0000      -1.023740       -27.8574
 125   2.0000      -1.019037       -27.7294
 126   2.0000      -1.015348       -27.6290
 127   2.0000      -1.008280       -27.4367
 128   2.0000      -1.007345       -27.4113
 129   2.0000      -1.004607       -27.3367
 130   2.0000      -0.998932       -27.1823
 131   2.0000      -0.998134       -27.1606
 132   2.0000      -0.992896       -27.0181
 133   2.0000      -0.986624       -26.8474
 134   2.0000      -0.984168       -26.7806
 135   2.0000      -0.982122       -26.7249
 136   2.0000      -0.948976       -25.8230
 137   2.0000      -0.942710       -25.6524
 138   2.0000      -0.933451       -25.4005
 139   2.0000      -0.932080       -25.3632
 140   2.0000      -0.924763       -25.1641
 141   2.0000      -0.908953       -24.7339
 142   2.0000      -0.907305       -24.6890
 143   2.0000      -0.904568       -24.6146
 144   2.0000      -0.895910       -24.3789
 145   2.0000      -0.895635       -24.3715
 146   2.0000      -0.887704       -24.1557
 147   2.0000      -0.886620       -24.1262
 148   2.0000      -0.871497       -23.7146
 149   2.0000      -0.862489       -23.4695
 150   2.0000      -0.852988       -23.2110
 151   2.0000      -0.852141       -23.1879
 152   2.0000      -0.848724       -23.0949
 153   2.0000      -0.843711       -22.9585
 154   2.0000      -0.843293       -22.9472
 155   2.0000      -0.827310       -22.5123
 156   2.0000      -0.826068       -22.4785
 157   2.0000      -0.816537       -22.2191
 158   2.0000      -0.810827       -22.0637
 159   2.0000      -0.799955       -21.7679
 160   2.0000      -0.791519       -21.5383
 161   2.0000      -0.775256       -21.0958
 162   2.0000      -0.772238       -21.0137
 163   2.0000      -0.768792       -20.9199
 164   2.0000      -0.760136       -20.6844
 165   2.0000      -0.749628       -20.3984
 166   2.0000      -0.742540       -20.2055
 167   2.0000      -0.732524       -19.9330
 168   2.0000      -0.724717       -19.7206
 169   2.0000      -0.721218       -19.6253
 170   2.0000      -0.718833       -19.5604
 171   2.0000      -0.716224       -19.4894
 172   2.0000      -0.710041       -19.3212
 173   2.0000      -0.702294       -19.1104
 174   2.0000      -0.692607       -18.8468
 175   2.0000      -0.687888       -18.7184
 176   2.0000      -0.682070       -18.5601
 177   2.0000      -0.677921       -18.4472
 178   2.0000      -0.670139       -18.2354
 179   2.0000      -0.667909       -18.1747
 180   2.0000      -0.662350       -18.0235
 181   2.0000      -0.660354       -17.9691
 182   2.0000      -0.658014       -17.9055
 183   2.0000      -0.655070       -17.8253
 184   2.0000      -0.648466       -17.6457
 185   2.0000      -0.647190       -17.6109
 186   2.0000      -0.644995       -17.5512
 187   2.0000      -0.644560       -17.5394
 188   2.0000      -0.640078       -17.4174
 189   2.0000      -0.635342       -17.2885
 190   2.0000      -0.629069       -17.1178
 191   2.0000      -0.622956       -16.9515
 192   2.0000      -0.618195       -16.8219
 193   2.0000      -0.616985       -16.7890
 194   2.0000      -0.609077       -16.5738
 195   2.0000      -0.597637       -16.2625
 196   2.0000      -0.597334       -16.2543
 197   2.0000      -0.593646       -16.1539
 198   2.0000      -0.590983       -16.0815
 199   2.0000      -0.588190       -16.0055
 200   2.0000      -0.587475       -15.9860
 201   2.0000      -0.583405       -15.8753
 202   2.0000      -0.581981       -15.8365
 203   2.0000      -0.577322       -15.7097
 204   2.0000      -0.575306       -15.6549
 205   2.0000      -0.574261       -15.6264
 206   2.0000      -0.566810       -15.4237
 207   2.0000      -0.561711       -15.2849
 208   2.0000      -0.556992       -15.1565
 209   2.0000      -0.556612       -15.1462
 210   2.0000      -0.555236       -15.1087
 211   2.0000      -0.549751       -14.9595
 212   2.0000      -0.549081       -14.9412
 213   2.0000      -0.548403       -14.9228
 214   2.0000      -0.546138       -14.8612
 215   2.0000      -0.542377       -14.7588
 216   2.0000      -0.539720       -14.6865
 217   2.0000      -0.539425       -14.6785
 218   2.0000      -0.535983       -14.5848
 219   2.0000      -0.534908       -14.5556
 220   2.0000      -0.533398       -14.5145
 221   2.0000      -0.532581       -14.4923
 222   2.0000      -0.530706       -14.4412
 223   2.0000      -0.527888       -14.3646
 224   2.0000      -0.525585       -14.3019
 225   2.0000      -0.519811       -14.1448
 226   2.0000      -0.518697       -14.1145
 227   2.0000      -0.515207       -14.0195
 228   2.0000      -0.509728       -13.8704
 229   2.0000      -0.509613       -13.8673
 230   2.0000      -0.507279       -13.8038
 231   2.0000      -0.505329       -13.7507
 232   2.0000      -0.503790       -13.7088
 233   2.0000      -0.502544       -13.6749
 234   2.0000      -0.501616       -13.6497
 235   2.0000      -0.498319       -13.5599
 236   2.0000      -0.495997       -13.4968
 237   2.0000      -0.492661       -13.4060
 238   2.0000      -0.489820       -13.3287
 239   2.0000      -0.489181       -13.3113
 240   2.0000      -0.486069       -13.2266
 241   2.0000      -0.482886       -13.1400
 242   2.0000      -0.479267       -13.0415
 243   2.0000      -0.476819       -12.9749
 244   2.0000      -0.475480       -12.9385
 245   2.0000      -0.474461       -12.9107
 246   2.0000      -0.472641       -12.8612
 247   2.0000      -0.468543       -12.7497
 248   2.0000      -0.468026       -12.7356
 249   2.0000      -0.465830       -12.6759
 250   2.0000      -0.465274       -12.6607
 251   2.0000      -0.465082       -12.6555
 252   2.0000      -0.463805       -12.6208
 253   2.0000      -0.459394       -12.5007
 254   2.0000      -0.457062       -12.4373
 255   2.0000      -0.455152       -12.3853
 256   2.0000      -0.454116       -12.3571
 257   2.0000      -0.453706       -12.3460
 258   2.0000      -0.450474       -12.2580
 259   2.0000      -0.448917       -12.2157
 260   2.0000      -0.447114       -12.1666
 261   2.0000      -0.446975       -12.1628
 262   2.0000      -0.445397       -12.1199
 263   2.0000      -0.440380       -11.9834
 264   2.0000      -0.439552       -11.9608
 265   2.0000      -0.435992       -11.8640
 266   2.0000      -0.433016       -11.7830
 267   2.0000      -0.432739       -11.7754
 268   2.0000      -0.431836       -11.7509
 269   2.0000      -0.431248       -11.7349
 270   2.0000      -0.431061       -11.7298
 271   2.0000      -0.429755       -11.6942
 272   2.0000      -0.427699       -11.6383
 273   2.0000      -0.421043       -11.4572
 274   2.0000      -0.420428       -11.4404
 275   2.0000      -0.417626       -11.3642
 276   2.0000      -0.415092       -11.2952
 277   2.0000      -0.411923       -11.2090
 278   2.0000      -0.409318       -11.1381
 279   2.0000      -0.404422       -11.0049
 280   2.0000      -0.401188       -10.9169
 281   2.0000      -0.400839       -10.9074
 282   2.0000      -0.391913       -10.6645
 283   2.0000      -0.389146       -10.5892
 284   2.0000      -0.383438       -10.4339
 285   2.0000      -0.380829       -10.3629
 286   2.0000      -0.373296       -10.1579
 287   2.0000      -0.365610        -9.9488
 288   2.0000      -0.362712        -9.8699
 289   2.0000      -0.358659        -9.7596
 290   2.0000      -0.347550        -9.4573
 291   2.0000      -0.346567        -9.4306
 292   2.0000      -0.343877        -9.3574
 293   2.0000      -0.341323        -9.2879
 294   2.0000      -0.336800        -9.1648
 295   2.0000      -0.321854        -8.7581
 296   2.0000      -0.320109        -8.7106
 297   2.0000      -0.313076        -8.5192
 298   2.0000      -0.304717        -8.2918
 299   2.0000      -0.302111        -8.2209
 300   2.0000      -0.297378        -8.0921
 301   2.0000      -0.295693        -8.0462
 302   2.0000      -0.278413        -7.5760
 303   2.0000      -0.247083        -6.7235
 304   0.0000      -0.144320        -3.9272
 305   0.0000      -0.100004        -2.7213
 306   0.0000      -0.097736        -2.6595
 307   0.0000      -0.068893        -1.8747
 308   0.0000      -0.064974        -1.7680

MULLIKEN ATOMIC CHARGES
-----------------------
   0 C :   -0.107554
   1 C :    0.241435
   2 F :   -0.169966
   3 C :    0.237923
   4 F :   -0.171533
   5 C :   -0.104428
   6 C :    0.116191
   7 C :    0.113566
   8 C :   -0.083924
   9 C :    0.045760
  10 C :   -0.001425
  11 C :   -0.082315
  12 C :    0.168632
  13 O :   -0.179254
  14 C :   -0.098462
  15 C :    0.332318
  16 C :   -0.356401
  17 C :   -0.189982
  18 N :    0.146651
  19 C :   -0.185264
  20 N :    0.152563
  21 C :   -0.019977
  22 C :   -0.052290
  23 C :   -0.054376
  24 C :    0.011428
  25 C :   -0.062446
  26 S :    0.214252
  27 C :   -0.049985
  28 C :    0.002688
  29 S :    0.172448
  30 C :   -0.048677
  31 C :   -0.173550
  32 S :    0.180148
  33 C :    0.213197
  34 C :   -0.075845
  35 C :   -0.052386
  36 N :   -0.005353
  37 C :   -0.085568
  38 C :   -0.126887
  39 N :    0.047435
  40 C :   -0.232933
  41 N :    0.252397
  42 C :   -0.239575
  43 N :    0.253659
  44 C :    0.185716
  45 C :   -0.003797
  46 C :   -0.026247
  47 N :   -0.324954
  48 S :    0.572478
  49 N :   -0.289443
  50 C :   -0.163829
  51 C :   -0.051014
  52 C :   -0.002484
  53 C :   -0.039399
  54 S :    0.180927
  55 C :   -0.066709
  56 C :   -0.034314
  57 S :    0.172685
  58 C :    0.009057
  59 C :   -0.109399
  60 S :    0.188823
  61 C :    0.085766
  62 C :   -0.137882
  63 C :    0.137004
  64 O :   -0.140973
  65 C :    0.014852
  66 C :   -0.079551
  67 C :    0.110718
  68 C :    0.110993
  69 C :   -0.104775
  70 C :    0.239777
  71 C :    0.238467
  72 C :   -0.101807
  73 F :   -0.171521
  74 F :   -0.170934
  75 C :   -0.081887
  76 C :    0.036443
  77 C :    0.265863
  78 C :   -0.339606
  79 C :   -0.210590
  80 N :    0.180222
  81 C :   -0.170812
  82 N :    0.153219
  83 H :    0.008492
  84 H :   -0.000884
  85 H :   -0.005694
  86 H :   -0.011176
  87 H :    0.009769
  88 H :    0.012081
  89 H :    0.006272
  90 H :    0.002881
  91 H :    0.005482
  92 H :    0.027073
  93 H :   -0.008187
  94 H :    0.005951
  95 H :   -0.000401
  96 H :   -0.005074
Sum of atomic charges:   -0.0000000

LOEWDIN ATOMIC CHARGES
----------------------
   0 C :   -0.028785
   1 C :    0.066583
   2 F :   -0.048021
   3 C :    0.067619
   4 F :   -0.049028
   5 C :   -0.033737
   6 C :   -0.009073
   7 C :   -0.006479
   8 C :    0.018087
   9 C :   -0.022003
  10 C :   -0.051727
  11 C :    0.029216
  12 C :    0.084269
  13 O :   -0.166698
  14 C :   -0.110317
  15 C :    0.076623
  16 C :   -0.142462
  17 C :   -0.021165
  18 N :   -0.053468
  19 C :   -0.017888
  20 N :   -0.054043
  21 C :    0.057932
  22 C :   -0.175427
  23 C :   -0.022133
  24 C :   -0.190591
  25 C :   -0.203184
  26 S :    0.498457
  27 C :   -0.217442
  28 C :   -0.179418
  29 S :    0.408957
  30 C :   -0.043761
  31 C :   -0.153908
  32 S :    0.470030
  33 C :   -0.038740
  34 C :   -0.004761
  35 C :   -0.011047
  36 N :   -0.012874
  37 C :   -0.020428
  38 C :   -0.022628
  39 N :    0.009148
  40 C :   -0.039755
  41 N :    0.001926
  42 C :   -0.039117
  43 N :    0.004882
  44 C :   -0.033747
  45 C :   -0.036601
  46 C :   -0.043430
  47 N :   -0.294045
  48 S :    0.691907
  49 N :   -0.274986
  50 C :   -0.158240
  51 C :   -0.039339
  52 C :   -0.183229
  53 C :   -0.213958
  54 S :    0.468694
  55 C :   -0.197283
  56 C :   -0.180975
  57 S :    0.413871
  58 C :   -0.021353
  59 C :   -0.171995
  60 S :    0.461572
  61 C :    0.048575
  62 C :   -0.095731
  63 C :    0.082717
  64 O :   -0.141071
  65 C :   -0.053858
  66 C :    0.031000
  67 C :   -0.009491
  68 C :   -0.005868
  69 C :   -0.030475
  70 C :    0.066999
  71 C :    0.067098
  72 C :   -0.032412
  73 F :   -0.048946
  74 F :   -0.048474
  75 C :    0.013078
  76 C :   -0.020388
  77 C :    0.064709
  78 C :   -0.142305
  79 C :   -0.020982
  80 N :   -0.037977
  81 C :   -0.020422
  82 N :   -0.051897
  83 H :    0.048113
  84 H :    0.044517
  85 H :    0.040225
  86 H :    0.039823
  87 H :    0.051494
  88 H :    0.043404
  89 H :    0.034593
  90 H :    0.034469
  91 H :    0.038856
  92 H :    0.047509
  93 H :    0.041095
  94 H :    0.047217
  95 H :    0.045072
  96 H :    0.039250

  Mayer bond orders larger than 0.100000
B(  0-C ,  1-C ) :   1.4392 B(  0-C ,  5-C ) :   0.1083 B(  0-C ,  7-C ) :   1.1903
B(  0-C , 83-H ) :   1.0066 B(  1-C ,  2-F ) :   1.1355 B(  1-C ,  3-C ) :   1.1925
B(  3-C ,  4-F ) :   1.1339 B(  3-C ,  5-C ) :   1.4417 B(  5-C ,  6-C ) :   1.1933
B(  5-C , 84-H ) :   1.0067 B(  6-C ,  7-C ) :   1.2559 B(  6-C , 11-C ) :   1.1866
B(  7-C ,  8-C ) :   1.2132 B(  8-C ,  9-C ) :   1.4559 B(  8-C , 85-H ) :   0.9888
B(  9-C , 10-C ) :   1.2213 B(  9-C , 15-C ) :   0.9802 B( 10-C , 11-C ) :   1.4703
B( 10-C , 12-C ) :   0.9561 B( 11-C , 86-H ) :   1.0166 B( 12-C , 13-O ) :   2.1322
B( 12-C , 14-C ) :   0.9780 B( 14-C , 15-C ) :   1.0833 B( 14-C , 21-C ) :   1.4863
B( 15-C , 16-C ) :   1.6214 B( 16-C , 17-C ) :   1.1450 B( 16-C , 19-C ) :   1.1496
B( 17-C , 18-N ) :   2.9582 B( 19-C , 20-N ) :   2.9611 B( 21-C , 22-C ) :   1.2768
B( 21-C , 87-H ) :   0.9379 B( 22-C , 23-C ) :   1.3612 B( 22-C , 26-S ) :   1.0724
B( 23-C , 24-C ) :   1.3355 B( 23-C , 88-H ) :   1.0118 B( 24-C , 25-C ) :   1.3665
B( 24-C , 29-S ) :   1.0354 B( 25-C , 26-S ) :   1.0580 B( 25-C , 27-C ) :   1.3297
B( 27-C , 28-C ) :   1.4074 B( 27-C , 32-S ) :   1.0431 B( 28-C , 29-S ) :   1.0455
B( 28-C , 30-C ) :   1.2752 B( 30-C , 31-C ) :   1.4442 B( 30-C , 89-H ) :   0.9908
B( 31-C , 32-S ) :   1.0967 B( 31-C , 33-C ) :   1.2064 B( 33-C , 34-C ) :   1.2535
B( 33-C , 44-C ) :   0.1193 B( 33-C , 46-C ) :   1.1847 B( 34-C , 35-C ) :   1.1038
B( 34-C , 39-N ) :   1.4473 B( 35-C , 36-N ) :   1.3997 B( 35-C , 44-C ) :   1.2441
B( 36-N , 37-C ) :   1.6949 B( 37-C , 38-C ) :   1.2144 B( 37-C , 42-C ) :   1.1612
B( 38-C , 39-N ) :   1.7280 B( 38-C , 40-C ) :   1.1599 B( 40-C , 41-N ) :   3.0482
B( 42-C , 43-N ) :   3.0376 B( 44-C , 45-C ) :   1.2026 B( 44-C , 50-C ) :   1.2220
B( 45-C , 46-C ) :   1.1089 B( 45-C , 49-N ) :   1.5089 B( 46-C , 47-N ) :   1.4756
B( 47-N , 48-S ) :   1.2794 B( 47-N , 49-N ) :   0.1501 B( 48-S , 49-N ) :   1.2859
B( 50-C , 51-C ) :   1.4514 B( 50-C , 54-S ) :   1.0848 B( 51-C , 52-C ) :   1.2773
B( 51-C , 90-H ) :   0.9883 B( 52-C , 53-C ) :   1.4164 B( 52-C , 57-S ) :   1.0447
B( 53-C , 54-S ) :   1.0243 B( 53-C , 55-C ) :   1.3318 B( 55-C , 56-C ) :   1.4064
B( 55-C , 60-S ) :   1.0980 B( 56-C , 57-S ) :   1.0479 B( 56-C , 58-C ) :   1.3514
B( 58-C , 59-C ) :   1.4310 B( 58-C , 91-H ) :   0.9873 B( 59-C , 60-S ) :   1.0827
B( 59-C , 61-C ) :   1.1567 B( 61-C , 62-C ) :   1.6460 B( 61-C , 92-H ) :   0.9253
B( 62-C , 63-C ) :   0.9439 B( 62-C , 77-C ) :   1.0485 B( 63-C , 64-O ) :   2.2673
B( 63-C , 65-C ) :   0.9171 B( 65-C , 66-C ) :   1.4782 B( 65-C , 76-C ) :   1.2218
B( 66-C , 67-C ) :   1.1928 B( 66-C , 93-H ) :   1.0152 B( 67-C , 68-C ) :   1.2574
B( 67-C , 72-C ) :   1.1942 B( 68-C , 69-C ) :   1.1895 B( 68-C , 75-C ) :   1.2154
B( 69-C , 70-C ) :   1.4419 B( 69-C , 72-C ) :   0.1086 B( 69-C , 94-H ) :   1.0063
B( 70-C , 71-C ) :   1.1932 B( 70-C , 74-F ) :   1.1348 B( 71-C , 72-C ) :   1.4431
B( 71-C , 73-F ) :   1.1331 B( 72-C , 95-H ) :   1.0065 B( 75-C , 76-C ) :   1.4574
B( 75-C , 96-H ) :   0.9934 B( 76-C , 77-C ) :   0.9949 B( 77-C , 78-C ) :   1.6428
B( 78-C , 79-C ) :   1.1667 B( 78-C , 81-C ) :   1.1285 B( 79-C , 80-N ) :   3.0050
B( 81-C , 82-N ) :   2.9855

-----------------------------------------------------------------------------
         ABSORPTION SPECTRUM VIA TRANSITION ELECTRIC DIPOLE MOMENTS
-----------------------------------------------------------------------------
State   Energy  Wavelength   fosc         T2         TX        TY        TZ
        (cm-1)    (nm)                  (au**2)     (au)      (au)      (au)
-----------------------------------------------------------------------------
   0    7695.6   1299.4   0.863927870  36.95802  -2.04768  -5.72152   0.17087
   1   16049.9    623.1   0.051874616   1.06404  -0.34749   0.31630   0.91828
   2   17697.1    565.1   0.019523387   0.36319  -0.03527   0.52461   0.29449
   3   17734.9    563.9   0.044051447   0.81772  -0.21923  -0.87058  -0.10842
   4   18788.7    532.2   1.450707759  25.41898   1.59266   4.75649  -0.50814
   5   19411.1    515.2   0.497068498   8.43029   1.60933   1.79535  -1.61773
   6   22802.5    438.5   0.082077395   1.18500  -0.37089  -1.00486   0.19414
   7   23702.7    421.9   0.014894254   0.20687   0.13215   0.33641   0.27611
   8   24524.4    407.8   0.010464856   0.14048   0.01952   0.01760   0.37388
   9   24698.3    404.9   0.001520143   0.02026   0.12036  -0.04167   0.06356
  10   25289.1    395.4   0.010646097   0.13859  -0.11098  -0.03132  -0.35397
  11   25553.2    391.3   0.024025001   0.30952  -0.45285  -0.24192   0.21431
  12   26362.4    379.3   0.061297939   0.76548  -0.27546   0.58848   0.58591
  13   26388.3    379.0   0.009752019   0.12166  -0.09156  -0.32724   0.07872
  14   26641.0    375.4   0.104189202   1.28750   0.85311   0.46775  -0.58388
  15   27128.4    368.6   0.144217157   1.75012  -0.67635  -1.04054  -0.45821
  16   27636.8    361.8   0.003048165   0.03631   0.07015   0.04348  -0.17175
  17   27849.7    359.1   0.072209538   0.85359   0.69039   0.38019  -0.48210
  18   27904.0    358.4   0.017185048   0.20275   0.04843   0.32392  -0.30900
  19   28158.9    355.1   0.045372809   0.53046  -0.18200  -0.69025   0.14457
  20   28450.0    351.5   0.010575098   0.12237  -0.23176   0.12779   0.22875
  21   28698.0    348.5   0.105698685   1.21253   0.46822   0.95825   0.27395
  22   28779.1    347.5   0.026828771   0.30690   0.43185   0.25241  -0.23812
  23   29262.3    341.7   0.012406672   0.13958   0.16244   0.31171  -0.12660
  24   29752.1    336.1   0.066168188   0.73216  -0.19484  -0.74651  -0.37002
  25   29845.4    335.1   0.097980194   1.08078   0.32189   0.87966   0.45095
  26   30304.2    330.0   0.336904693   3.65999  -1.34949  -1.33969   0.21003
  27   30589.5    326.9   0.232167735   2.49865  -0.61131   0.20116   1.44378
  28   31311.9    319.4   0.201935491   2.12314   0.17143   1.44524   0.07100
  29   31590.8    316.5   0.601964245   6.27315  -1.27138   0.09185   2.15600
  30   31720.1    315.3   0.002840754   0.02948  -0.08745  -0.13870  -0.05097
  31   31942.3    313.1   0.039915383   0.41139  -0.38830   0.14701   0.48887
  32   32458.3    308.1   0.018900934   0.19170   0.03771   0.37986  -0.21444
  33   33254.0    300.7   0.025363375   0.25110  -0.01720   0.39201   0.31165
  34   33319.6    300.1   0.004840519   0.04783   0.14542  -0.05758  -0.15285
  35   33765.0    296.2   0.039308433   0.38326   0.52637   0.00603  -0.32582
  36   33905.8    294.9   0.128708385   1.24971  -0.77467  -0.74806  -0.30000
  37   33978.5    294.3   0.016130886   0.15629  -0.33964  -0.14520   0.14090
  38   34163.5    292.7   0.038537065   0.37136   0.59064   0.04262  -0.14381
  39   34210.0    292.3   0.010621076   0.10221   0.00310  -0.04731   0.31617
  40   34271.6    291.8   0.003058290   0.02938   0.15504   0.05733  -0.04531
  41   34339.6    291.2   0.001844692   0.01768   0.09759  -0.05305  -0.07312
  42   34766.9    287.6   0.693078009   6.56284   1.56323  -0.46149  -1.97640
  43   34987.1    285.8   0.014602770   0.13741  -0.13060   0.32403  -0.12389
  44   35150.9    284.5   0.201084252   1.88329  -0.58354   0.70629   1.02173
  45   35373.7    282.7   0.081614352   0.75956  -0.70711  -0.29663   0.41420
  46   35547.6    281.3   0.446997964   4.13972   1.02436   1.57495   0.78099
  47   35583.5    281.0   0.060371455   0.55855  -0.55695  -0.34233  -0.36216
  48   35853.8    278.9   0.178606931   1.63998   0.95763   0.84743  -0.06916
  49   35935.0    278.3   0.068160587   0.62444  -0.16781  -0.65662  -0.40636
  50   36257.1    275.8   0.028900383   0.26241   0.22509  -0.04038  -0.45839
  51   36613.6    273.1   0.011967063   0.10760  -0.05372   0.31194  -0.08608
  52   36879.0    271.2   0.004484134   0.04003   0.13455  -0.06756   0.13176
  53   37064.6    269.8   0.017617289   0.15648   0.15390  -0.31038  -0.19093
  54   37143.2    269.2   0.028639462   0.25384  -0.47082  -0.13408   0.11912
  55   37526.1    266.5   0.011295323   0.09909   0.08538   0.20749   0.22079
  56   37572.0    266.2   0.005687856   0.04984   0.07832   0.13944  -0.15576
  57   37672.6    265.4   0.024934828   0.21790  -0.04902   0.17161   0.43133
  58   37999.2    263.2   0.001812855   0.01571   0.11932  -0.00432   0.03807
  59   38454.0    260.1   0.042134537   0.36072  -0.07743  -0.58639   0.10426
  60   38625.6    258.9   0.041866186   0.35683   0.02036  -0.57493  -0.16084
  61   39412.3    253.7   0.097879342   0.81759  -0.54785   0.40687   0.59322
  62   39438.4    253.6   0.076541298   0.63893  -0.26375  -0.70442  -0.27049
  63   39456.3    253.4   0.003072196   0.02563  -0.04992  -0.14421   0.04844
  64   39490.3    253.2   0.050697764   0.42264   0.38327   0.21426  -0.47942
  65   39841.3    251.0   0.036244494   0.29949  -0.01809   0.54539  -0.04140
  66   39861.8    250.9   0.021052811   0.17387  -0.20149  -0.24375  -0.27177
  67   40252.7    248.4   0.247706602   2.02590  -0.88541  -0.25759   1.08425

FINAL SINGLE POINT ENERGY     -6174.329990247255

DIPOLE MOMENT
-------------
                                X             Y             Z
Electronic contribution:      4.30235      -4.85076      -8.19340
Nuclear contribution   :     -4.27505       3.68572       5.39056
                        -----------------------------------------
Total Dipole Moment    :      0.02729      -1.16504      -2.80284
                        -----------------------------------------
Magnitude (a.u.)       :      3.03546
Magnitude (Debye)      :      7.71552

Rotational constants in cm-1:     0.001445     0.000130     0.000121
Rotational constants in MHz :    43.307546     3.902876     3.616075

                             ****ORCA TERMINATED NORMALLY****
TOTAL RUN TIME: 0 days 0 hours 11 minutes 5 seconds 430 msec
