                         Program Version 4.2.0 -  RELEASE  -
|  1> # ORCA input file
|  2> # SCF done       -222.028856957959          0.000727217278
|  3> ! CAM-B3LYP def2-SVP def2/J RIJCOSX Grid4 TightSCF
|  4> %maxcore 5000
|  5> %tddft
|  6>     Mode sTDDFT
|  7>     Ethresh 5.0
|  8>     maxcore 5000
|  9> end
| 10>
| 11> %pal
| 12>   nprocs 6
| 13>   end
| 14> * xyz 0 1
| 15>    C       -0.87177         3.18191         0.26127
| 16>    C       -1.15354         4.22060         1.10306
| 17>    F       -0.75050         5.46203         0.79956
| 18>    C       -1.86914         4.00270         2.29764
| 19>    F       -2.13103         5.04082         3.10397
| 20>    C       -2.29353         2.74803         2.63376
| 21>    C       -2.01810         1.65664         1.78715
| 22>    C       -1.29382         1.87490         0.57943
| 23>    C       -1.00190         0.79481        -0.28402
| 24>    C       -1.42132        -0.46720         0.04974
| 25>    C       -2.15001        -0.67143         1.25078
| 26>    C       -2.44552         0.34954         2.10701
| 27>    C       -2.50546        -2.09873         1.38282
| 28>    O       -3.08835        -2.57690         2.33253
| 29>    C       -2.00025        -2.75820         0.15404
| 30>    C       -1.27096        -1.75561        -0.61931
| 31>    C       -0.52484        -1.95297        -1.75263
| 32>    C        0.16552        -0.92450        -2.43047
| 33>    N        0.75416        -0.14588        -3.03468
| 34>    C       -0.29181        -3.17532        -2.41950
| 35>    N       -0.02362        -4.10864        -3.03498
| 36>    C       -2.17206        -4.03356        -0.30699
| 37>    C       -2.81927        -5.21385         0.17448
| 38>    C       -2.76063        -6.32594        -0.68820
| 39>    C       -3.37050        -7.50123        -0.30806
| 40>    C       -4.06221        -7.60137         0.93108
| 41>    C       -4.10733        -6.50213         1.78460
| 42>    C       -3.49206        -5.33179         1.41060
| 43>    C       -4.59445        -8.92331         0.98679
| 44>    C       -4.20434        -9.56547        -0.21761
| 45>    N       -3.45241        -8.70094        -0.97251
| 46>    C       -2.87088        -8.98524        -2.25374
| 47>    C       -4.59505       -10.86494        -0.49419
| 48>    C       -5.38328       -11.53050         0.43844
| 49>    C       -5.74770       -10.90278         1.64262
| 50>    C       -5.36088        -9.61307         1.92172
| 51>    C       -5.82708       -12.89457         0.14829
| 52>    C       -7.06127       -13.39892         0.50523
| 53>    F       -7.95933       -12.61974         1.13723
| 54>    C       -7.48651       -14.71183         0.21505
| 55>    F       -8.71748       -15.03667         0.65265
| 56>    C       -6.70957       -15.64287        -0.44438
| 57>    C       -5.43189       -15.16100        -0.80653
| 58>    C       -5.01371       -13.82031        -0.54203
| 59>    N       -3.77292       -13.68762        -1.03722
| 60>    N       -3.49886       -14.85693        -1.54526
| 61>    N       -4.42307       -15.77143        -1.44802
| 62>    C       -2.24374       -15.11886        -2.18072
| 63>    C       -7.14509       -17.00554        -0.75348
| 64>    C       -6.21648       -18.03968        -0.70169
| 65>    C       -6.64516       -19.32608        -0.98284
| 66>    C       -7.99775       -19.58648        -1.32458
| 67>    C       -8.90951       -18.53828        -1.39330
| 68>    C       -8.48036       -17.26311        -1.10782
| 69>    C       -8.10022       -20.99565        -1.52781
| 70>    C       -6.80165       -21.52492        -1.30495
| 71>    N       -5.94225       -20.50577        -0.98756
| 72>    C       -4.55274       -20.68400        -0.67566
| 73>    C       -6.54897       -22.87923        -1.42094
| 74>    C       -7.62048       -23.72907        -1.69961
| 75>    C       -8.90489       -23.19769        -1.93541
| 76>    C       -9.14681       -21.84702        -1.86762
| 77>    C       -7.39225       -25.14880        -1.77361
| 78>    C       -8.25316       -26.14032        -1.43999
| 79>    C       -8.04451       -27.52496        -1.94419
| 80>    O       -7.04151       -27.97131        -2.45041
| 81>    C       -9.34270       -28.20555        -1.74846
| 82>    C       -9.72845       -29.45036        -2.15503
| 83>    C      -11.04490       -29.88521        -1.88281
| 84>    C      -11.94209       -29.01503        -1.19755
| 85>    C      -13.25709       -29.45177        -0.93884
| 86>    C      -13.66068       -30.69502        -1.33683
| 87>    C      -12.77163       -31.55622        -2.01108
| 88>    C      -11.49123       -31.16116        -2.27918
| 89>    F      -13.19499       -32.76999        -2.38966
| 90>    F      -14.91053       -31.10879        -1.08932
| 91>    C      -11.51250       -27.73492        -0.78043
| 92>    C      -10.22865       -27.33904        -1.04580
| 93>    C       -9.50873       -26.11420        -0.71145
| 94>    C       -9.84149       -25.24425         0.29128
| 95>    C       -8.97314       -24.24035         0.77095
| 96>    N       -8.27777       -23.46380         1.25085
| 97>    C      -11.04678       -25.31683         1.01855
| 98>    N      -12.02352       -25.33101         1.62130
| 99>    H       -0.32204         3.36626        -0.64852
|100>    H       -2.84045         2.59694         3.55124
|101>    H       -0.45555         0.99777        -1.19039
|102>    H       -2.99920         0.16013         3.01405
|103>    H       -1.72884        -4.20135        -1.28202
|104>    H       -2.24785        -6.24428        -1.63537
|105>    H       -4.62320        -6.56976         2.72985
|106>    H       -3.52609        -4.48253         2.06947
|107>    H       -2.69299       -10.05581        -2.34054
|108>    H       -1.91816        -8.46456        -2.34933
|109>    H       -3.52896        -8.66785        -3.06853
|110>    H       -4.32039       -11.35783        -1.41198
|111>    H       -6.33145       -11.44655         2.36739
|112>    H       -5.64852        -9.13998         2.84772
|113>    H       -1.64134       -14.21589        -2.11960
|114>    H       -2.40600       -15.39494        -3.22308
|115>    H       -1.73726       -15.94176        -1.67599
|116>    H       -5.19531       -17.82359        -0.43426
|117>    H       -9.93706       -18.72496        -1.66433
|118>    H       -9.17899       -16.44490        -1.17276
|119>    H       -4.04384       -21.19994        -1.49337
|120>    H       -4.43628       -21.27254         0.23829
|121>    H       -4.08650       -19.71269        -0.53218
|122>    H       -5.56753       -23.29060        -1.24235
|123>    H       -9.70223       -23.87184        -2.21276
|124>    H      -10.13169       -21.45220        -2.06419
|125>    H       -6.44629       -25.47224        -2.19646
|126>    H       -9.03877       -30.09505        -2.67827
|127>    H      -13.94885       -28.80652        -0.42022
|128>    H      -10.82322       -31.83178        -2.79660
|129>    H      -12.21196       -27.09271        -0.26910
|130> *
|131>
|132>                          ****END OF INPUT****

CARTESIAN COORDINATES (ANGSTROEM)
---------------------------------
  C     -0.871770    3.181910    0.261270
  C     -1.153540    4.220600    1.103060
  F     -0.750500    5.462030    0.799560
  C     -1.869140    4.002700    2.297640
  F     -2.131030    5.040820    3.103970
  C     -2.293530    2.748030    2.633760
  C     -2.018100    1.656640    1.787150
  C     -1.293820    1.874900    0.579430
  C     -1.001900    0.794810   -0.284020
  C     -1.421320   -0.467200    0.049740
  C     -2.150010   -0.671430    1.250780
  C     -2.445520    0.349540    2.107010
  C     -2.505460   -2.098730    1.382820
  O     -3.088350   -2.576900    2.332530
  C     -2.000250   -2.758200    0.154040
  C     -1.270960   -1.755610   -0.619310
  C     -0.524840   -1.952970   -1.752630
  C      0.165520   -0.924500   -2.430470
  N      0.754160   -0.145880   -3.034680
  C     -0.291810   -3.175320   -2.419500
  N     -0.023620   -4.108640   -3.034980
  C     -2.172060   -4.033560   -0.306990
  C     -2.819270   -5.213850    0.174480
  C     -2.760630   -6.325940   -0.688200
  C     -3.370500   -7.501230   -0.308060
  C     -4.062210   -7.601370    0.931080
  C     -4.107330   -6.502130    1.784600
  C     -3.492060   -5.331790    1.410600
  C     -4.594450   -8.923310    0.986790
  C     -4.204340   -9.565470   -0.217610
  N     -3.452410   -8.700940   -0.972510
  C     -2.870880   -8.985240   -2.253740
  C     -4.595050  -10.864940   -0.494190
  C     -5.383280  -11.530500    0.438440
  C     -5.747700  -10.902780    1.642620
  C     -5.360880   -9.613070    1.921720
  C     -5.827080  -12.894570    0.148290
  C     -7.061270  -13.398920    0.505230
  F     -7.959330  -12.619740    1.137230
  C     -7.486510  -14.711830    0.215050
  F     -8.717480  -15.036670    0.652650
  C     -6.709570  -15.642870   -0.444380
  C     -5.431890  -15.161000   -0.806530
  C     -5.013710  -13.820310   -0.542030
  N     -3.772920  -13.687620   -1.037220
  N     -3.498860  -14.856930   -1.545260
  N     -4.423070  -15.771430   -1.448020
  C     -2.243740  -15.118860   -2.180720
  C     -7.145090  -17.005540   -0.753480
  C     -6.216480  -18.039680   -0.701690
  C     -6.645160  -19.326080   -0.982840
  C     -7.997750  -19.586480   -1.324580
  C     -8.909510  -18.538280   -1.393300
  C     -8.480360  -17.263110   -1.107820
  C     -8.100220  -20.995650   -1.527810
  C     -6.801650  -21.524920   -1.304950
  N     -5.942250  -20.505770   -0.987560
  C     -4.552740  -20.684000   -0.675660
  C     -6.548970  -22.879230   -1.420940
  C     -7.620480  -23.729070   -1.699610
  C     -8.904890  -23.197690   -1.935410
  C     -9.146810  -21.847020   -1.867620
  C     -7.392250  -25.148800   -1.773610
  C     -8.253160  -26.140320   -1.439990
  C     -8.044510  -27.524960   -1.944190
  O     -7.041510  -27.971310   -2.450410
  C     -9.342700  -28.205550   -1.748460
  C     -9.728450  -29.450360   -2.155030
  C    -11.044900  -29.885210   -1.882810
  C    -11.942090  -29.015030   -1.197550
  C    -13.257090  -29.451770   -0.938840
  C    -13.660680  -30.695020   -1.336830
  C    -12.771630  -31.556220   -2.011080
  C    -11.491230  -31.161160   -2.279180
  F    -13.194990  -32.769990   -2.389660
  F    -14.910530  -31.108790   -1.089320
  C    -11.512500  -27.734920   -0.780430
  C    -10.228650  -27.339040   -1.045800
  C     -9.508730  -26.114200   -0.711450
  C     -9.841490  -25.244250    0.291280
  C     -8.973140  -24.240350    0.770950
  N     -8.277770  -23.463800    1.250850
  C    -11.046780  -25.316830    1.018550
  N    -12.023520  -25.331010    1.621300
  H     -0.322040    3.366260   -0.648520
  H     -2.840450    2.596940    3.551240
  H     -0.455550    0.997770   -1.190390
  H     -2.999200    0.160130    3.014050
  H     -1.728840   -4.201350   -1.282020
  H     -2.247850   -6.244280   -1.635370
  H     -4.623200   -6.569760    2.729850
  H     -3.526090   -4.482530    2.069470
  H     -2.692990  -10.055810   -2.340540
  H     -1.918160   -8.464560   -2.349330
  H     -3.528960   -8.667850   -3.068530
  H     -4.320390  -11.357830   -1.411980
  H     -6.331450  -11.446550    2.367390
  H     -5.648520   -9.139980    2.847720
  H     -1.641340  -14.215890   -2.119600
  H     -2.406000  -15.394940   -3.223080
  H     -1.737260  -15.941760   -1.675990
  H     -5.195310  -17.823590   -0.434260
  H     -9.937060  -18.724960   -1.664330
  H     -9.178990  -16.444900   -1.172760
  H     -4.043840  -21.199940   -1.493370
  H     -4.436280  -21.272540    0.238290
  H     -4.086500  -19.712690   -0.532180
  H     -5.567530  -23.290600   -1.242350
  H     -9.702230  -23.871840   -2.212760
  H    -10.131690  -21.452200   -2.064190
  H     -6.446290  -25.472240   -2.196460
  H     -9.038770  -30.095050   -2.678270
  H    -13.948850  -28.806520   -0.420220
  H    -10.823220  -31.831780   -2.796600
  H    -12.211960  -27.092710   -0.269100

 Total Charge           Charge          ....    0
 Multiplicity           Mult            ....    1
 Number of Electrons    NEL             ....  566
 Basis Dimension        Dim             .... 1331

ORBITAL ENERGIES
----------------

  NO   OCC          E(Eh)            E(eV)
   0   2.0000     -24.798187      -674.7930
   1   2.0000     -24.797574      -674.7763
   2   2.0000     -24.797253      -674.7676
   3   2.0000     -24.796011      -674.7338
   4   2.0000     -24.789343      -674.5523
   5   2.0000     -24.788563      -674.5311
   6   2.0000     -19.217774      -522.9422
   7   2.0000     -19.215655      -522.8846
   8   2.0000     -14.549249      -395.9052
   9   2.0000     -14.459798      -393.4711
  10   2.0000     -14.457623      -393.4119
  11   2.0000     -14.450575      -393.2201
  12   2.0000     -14.449004      -393.1774
  13   2.0000     -14.418186      -392.3388
  14   2.0000     -14.416190      -392.2845
  15   2.0000     -14.413782      -392.2190
  16   2.0000     -14.410369      -392.1261
  17   2.0000     -10.381305      -282.4897
  18   2.0000     -10.380860      -282.4776
  19   2.0000     -10.380296      -282.4622
  20   2.0000     -10.379442      -282.4390
  21   2.0000     -10.369739      -282.1749
  22   2.0000     -10.369463      -282.1674
  23   2.0000     -10.369129      -282.1584
  24   2.0000     -10.367099      -282.1031
  25   2.0000     -10.342880      -281.4441
  26   2.0000     -10.341763      -281.4137
  27   2.0000     -10.340837      -281.3885
  28   2.0000     -10.340766      -281.3865
  29   2.0000     -10.332319      -281.1567
  30   2.0000     -10.321847      -280.8717
  31   2.0000     -10.318927      -280.7923
  32   2.0000     -10.318574      -280.7827
  33   2.0000     -10.317852      -280.7630
  34   2.0000     -10.317387      -280.7504
  35   2.0000     -10.316350      -280.7222
  36   2.0000     -10.314820      -280.6805
  37   2.0000     -10.313507      -280.6448
  38   2.0000     -10.313072      -280.6330
  39   2.0000     -10.312901      -280.6283
  40   2.0000     -10.312540      -280.6185
  41   2.0000     -10.312442      -280.6158
  42   2.0000     -10.310802      -280.5712
  43   2.0000     -10.310787      -280.5708
  44   2.0000     -10.310434      -280.5612
  45   2.0000     -10.309362      -280.5320
  46   2.0000     -10.309057      -280.5237
  47   2.0000     -10.308737      -280.5150
  48   2.0000     -10.307933      -280.4931
  49   2.0000     -10.305287      -280.4211
  50   2.0000     -10.302932      -280.3570
  51   2.0000     -10.302377      -280.3419
  52   2.0000     -10.301677      -280.3229
  53   2.0000     -10.301255      -280.3114
  54   2.0000     -10.301190      -280.3096
  55   2.0000     -10.300743      -280.2975
  56   2.0000     -10.300409      -280.2884
  57   2.0000     -10.300119      -280.2805
  58   2.0000     -10.299726      -280.2698
  59   2.0000     -10.299098      -280.2527
  60   2.0000     -10.298408      -280.2339
  61   2.0000     -10.295649      -280.1589
  62   2.0000     -10.293847      -280.1098
  63   2.0000     -10.290744      -280.0254
  64   2.0000     -10.290662      -280.0231
  65   2.0000     -10.290229      -280.0114
  66   2.0000     -10.289464      -279.9905
  67   2.0000     -10.286950      -279.9221
  68   2.0000     -10.286620      -279.9132
  69   2.0000     -10.283459      -279.8271
  70   2.0000     -10.281724      -279.7799
  71   2.0000     -10.278265      -279.6858
  72   2.0000     -10.275992      -279.6240
  73   2.0000     -10.275704      -279.6161
  74   2.0000     -10.275202      -279.6025
  75   2.0000     -10.274208      -279.5754
  76   2.0000     -10.273764      -279.5633
  77   2.0000     -10.272969      -279.5417
  78   2.0000     -10.272017      -279.5158
  79   2.0000     -10.271367      -279.4981
  80   2.0000     -10.269836      -279.4565
  81   2.0000     -10.266555      -279.3672
  82   2.0000     -10.265153      -279.3290
  83   2.0000     -10.263698      -279.2894
  84   2.0000      -1.320739       -35.9391
  85   2.0000      -1.319400       -35.9027
  86   2.0000      -1.312393       -35.7120
  87   2.0000      -1.305902       -35.5354
  88   2.0000      -1.304515       -35.4977
  89   2.0000      -1.293612       -35.2010
  90   2.0000      -1.227066       -33.3902
  91   2.0000      -1.133197       -30.8359
  92   2.0000      -1.130865       -30.7724
  93   2.0000      -1.090984       -29.6872
  94   2.0000      -1.088785       -29.6274
  95   2.0000      -1.019831       -27.7510
  96   2.0000      -1.018917       -27.7262
  97   2.0000      -1.003936       -27.3185
  98   2.0000      -1.003155       -27.2972
  99   2.0000      -1.000639       -27.2288
 100   2.0000      -0.994348       -27.0576
 101   2.0000      -0.994188       -27.0532
 102   2.0000      -0.992112       -26.9967
 103   2.0000      -0.980850       -26.6903
 104   2.0000      -0.980409       -26.6783
 105   2.0000      -0.957429       -26.0530
 106   2.0000      -0.957393       -26.0520
 107   2.0000      -0.953374       -25.9426
 108   2.0000      -0.949156       -25.8278
 109   2.0000      -0.930881       -25.3306
 110   2.0000      -0.930342       -25.3159
 111   2.0000      -0.928093       -25.2547
 112   2.0000      -0.910974       -24.7889
 113   2.0000      -0.905758       -24.6469
 114   2.0000      -0.898104       -24.4387
 115   2.0000      -0.894397       -24.3378
 116   2.0000      -0.891097       -24.2480
 117   2.0000      -0.888979       -24.1904
 118   2.0000      -0.879153       -23.9230
 119   2.0000      -0.866204       -23.5706
 120   2.0000      -0.856238       -23.2994
 121   2.0000      -0.848571       -23.0908
 122   2.0000      -0.848216       -23.0811
 123   2.0000      -0.842840       -22.9348
 124   2.0000      -0.840681       -22.8761
 125   2.0000      -0.839562       -22.8456
 126   2.0000      -0.838837       -22.8259
 127   2.0000      -0.829353       -22.5679
 128   2.0000      -0.815523       -22.1915
 129   2.0000      -0.812875       -22.1195
 130   2.0000      -0.794029       -21.6066
 131   2.0000      -0.785323       -21.3697
 132   2.0000      -0.782688       -21.2980
 133   2.0000      -0.780432       -21.2366
 134   2.0000      -0.766938       -20.8694
 135   2.0000      -0.765189       -20.8218
 136   2.0000      -0.753052       -20.4916
 137   2.0000      -0.742047       -20.1921
 138   2.0000      -0.738005       -20.0822
 139   2.0000      -0.734290       -19.9810
 140   2.0000      -0.722624       -19.6636
 141   2.0000      -0.720561       -19.6075
 142   2.0000      -0.718022       -19.5384
 143   2.0000      -0.712399       -19.3854
 144   2.0000      -0.708648       -19.2833
 145   2.0000      -0.705282       -19.1917
 146   2.0000      -0.698224       -18.9996
 147   2.0000      -0.694562       -18.9000
 148   2.0000      -0.689409       -18.7598
 149   2.0000      -0.682536       -18.5727
 150   2.0000      -0.681162       -18.5354
 151   2.0000      -0.673778       -18.3344
 152   2.0000      -0.669003       -18.2045
 153   2.0000      -0.665585       -18.1115
 154   2.0000      -0.661908       -18.0114
 155   2.0000      -0.656345       -17.8601
 156   2.0000      -0.654707       -17.8155
 157   2.0000      -0.650786       -17.7088
 158   2.0000      -0.642845       -17.4927
 159   2.0000      -0.641590       -17.4585
 160   2.0000      -0.639790       -17.4096
 161   2.0000      -0.634549       -17.2669
 162   2.0000      -0.629133       -17.1196
 163   2.0000      -0.619919       -16.8689
 164   2.0000      -0.616116       -16.7654
 165   2.0000      -0.615674       -16.7534
 166   2.0000      -0.614508       -16.7216
 167   2.0000      -0.610954       -16.6249
 168   2.0000      -0.608248       -16.5513
 169   2.0000      -0.603861       -16.4319
 170   2.0000      -0.598862       -16.2959
 171   2.0000      -0.596259       -16.2250
 172   2.0000      -0.592809       -16.1311
 173   2.0000      -0.585388       -15.9292
 174   2.0000      -0.584248       -15.8982
 175   2.0000      -0.584152       -15.8956
 176   2.0000      -0.584026       -15.8922
 177   2.0000      -0.580120       -15.7859
 178   2.0000      -0.575852       -15.6697
 179   2.0000      -0.573326       -15.6010
 180   2.0000      -0.564818       -15.3695
 181   2.0000      -0.563531       -15.3345
 182   2.0000      -0.563152       -15.3241
 183   2.0000      -0.560446       -15.2505
 184   2.0000      -0.558433       -15.1957
 185   2.0000      -0.556250       -15.1363
 186   2.0000      -0.554374       -15.0853
 187   2.0000      -0.553138       -15.0517
 188   2.0000      -0.549180       -14.9439
 189   2.0000      -0.547150       -14.8887
 190   2.0000      -0.546979       -14.8840
 191   2.0000      -0.545704       -14.8494
 192   2.0000      -0.545267       -14.8375
 193   2.0000      -0.542186       -14.7536
 194   2.0000      -0.537595       -14.6287
 195   2.0000      -0.535312       -14.5666
 196   2.0000      -0.534111       -14.5339
 197   2.0000      -0.531971       -14.4757
 198   2.0000      -0.531000       -14.4492
 199   2.0000      -0.529821       -14.4172
 200   2.0000      -0.528615       -14.3844
 201   2.0000      -0.526514       -14.3272
 202   2.0000      -0.525594       -14.3021
 203   2.0000      -0.524215       -14.2646
 204   2.0000      -0.521709       -14.1964
 205   2.0000      -0.520311       -14.1584
 206   2.0000      -0.519474       -14.1356
 207   2.0000      -0.516567       -14.0565
 208   2.0000      -0.515632       -14.0311
 209   2.0000      -0.512668       -13.9504
 210   2.0000      -0.511937       -13.9305
 211   2.0000      -0.508840       -13.8462
 212   2.0000      -0.507825       -13.8186
 213   2.0000      -0.503658       -13.7052
 214   2.0000      -0.499495       -13.5920
 215   2.0000      -0.498483       -13.5644
 216   2.0000      -0.495681       -13.4882
 217   2.0000      -0.493651       -13.4329
 218   2.0000      -0.492946       -13.4137
 219   2.0000      -0.491914       -13.3857
 220   2.0000      -0.487953       -13.2779
 221   2.0000      -0.487392       -13.2626
 222   2.0000      -0.484758       -13.1909
 223   2.0000      -0.484582       -13.1861
 224   2.0000      -0.483802       -13.1649
 225   2.0000      -0.481897       -13.1131
 226   2.0000      -0.478187       -13.0121
 227   2.0000      -0.469275       -12.7696
 228   2.0000      -0.467757       -12.7283
 229   2.0000      -0.464866       -12.6497
 230   2.0000      -0.461775       -12.5655
 231   2.0000      -0.460193       -12.5225
 232   2.0000      -0.458464       -12.4754
 233   2.0000      -0.457351       -12.4451
 234   2.0000      -0.456349       -12.4179
 235   2.0000      -0.450184       -12.2501
 236   2.0000      -0.449019       -12.2184
 237   2.0000      -0.446995       -12.1634
 238   2.0000      -0.446080       -12.1384
 239   2.0000      -0.444961       -12.1080
 240   2.0000      -0.443254       -12.0615
 241   2.0000      -0.440823       -11.9954
 242   2.0000      -0.440367       -11.9830
 243   2.0000      -0.436747       -11.8845
 244   2.0000      -0.431245       -11.7348
 245   2.0000      -0.430132       -11.7045
 246   2.0000      -0.428566       -11.6619
 247   2.0000      -0.426522       -11.6063
 248   2.0000      -0.426454       -11.6044
 249   2.0000      -0.425313       -11.5734
 250   2.0000      -0.423832       -11.5330
 251   2.0000      -0.421954       -11.4819
 252   2.0000      -0.419041       -11.4027
 253   2.0000      -0.417580       -11.3629
 254   2.0000      -0.414511       -11.2794
 255   2.0000      -0.409920       -11.1545
 256   2.0000      -0.404307       -11.0018
 257   2.0000      -0.401860       -10.9352
 258   2.0000      -0.398036       -10.8311
 259   2.0000      -0.396352       -10.7853
 260   2.0000      -0.393965       -10.7203
 261   2.0000      -0.392365       -10.6768
 262   2.0000      -0.385420       -10.4878
 263   2.0000      -0.383754       -10.4425
 264   2.0000      -0.381641       -10.3850
 265   2.0000      -0.368819       -10.0361
 266   2.0000      -0.363863        -9.9012
 267   2.0000      -0.342608        -9.3228
 268   2.0000      -0.337009        -9.1705
 269   2.0000      -0.335158        -9.1201
 270   2.0000      -0.332652        -9.0519
 271   2.0000      -0.330922        -9.0048
 272   2.0000      -0.329624        -8.9695
 273   2.0000      -0.320198        -8.7130
 274   2.0000      -0.316895        -8.6232
 275   2.0000      -0.316191        -8.6040
 276   2.0000      -0.305650        -8.3172
 277   2.0000      -0.300388        -8.1740
 278   2.0000      -0.295885        -8.0515
 279   2.0000      -0.274751        -7.4764
 280   2.0000      -0.271058        -7.3759
 281   2.0000      -0.269232        -7.3262
 282   2.0000      -0.257356        -7.0030
 283   0.0000      -0.092503        -2.5171
 284   0.0000      -0.089376        -2.4321
 285   0.0000      -0.058972        -1.6047
 286   0.0000      -0.056664        -1.5419
 287   0.0000      -0.045157        -1.2288

MULLIKEN ATOMIC CHARGES
-----------------------
   0 C :   -0.108453
   1 C :    0.241225
   2 F :   -0.171831
   3 C :    0.239430
   4 F :   -0.172258
   5 C :   -0.103753
   6 C :    0.117787
   7 C :    0.113560
   8 C :   -0.083040
   9 C :    0.045607
  10 C :    0.005588
  11 C :   -0.085733
  12 C :    0.161114
  13 O :   -0.147020
  14 C :   -0.052298
  15 C :    0.322026
  16 C :   -0.366094
  17 C :   -0.186572
  18 N :    0.147544
  19 C :   -0.188694
  20 N :    0.145419
  21 C :   -0.013011
  22 C :    0.073960
  23 C :   -0.155117
  24 C :    0.182178
  25 C :    0.075745
  26 C :   -0.046133
  27 C :   -0.008803
  28 C :    0.062410
  29 C :    0.159832
  30 N :   -0.184734
  31 C :    0.121477
  32 C :   -0.112072
  33 C :    0.047964
  34 C :   -0.009197
  35 C :   -0.042587
  36 C :    0.013391
  37 C :    0.145476
  38 F :   -0.176437
  39 C :    0.141027
  40 F :   -0.175200
  41 C :    0.014658
  42 C :   -0.032081
  43 C :   -0.033660
  44 N :   -0.060815
  45 N :   -0.074926
  46 N :   -0.070331
  47 C :    0.147433
  48 C :    0.048635
  49 C :   -0.115803
  50 C :    0.164644
  51 C :    0.062579
  52 C :   -0.043930
  53 C :   -0.011324
  54 C :    0.075306
  55 C :    0.183470
  56 N :   -0.189149
  57 C :    0.127604
  58 C :   -0.115297
  59 C :    0.041415
  60 C :    0.019960
  61 C :   -0.041543
  62 C :    0.040192
  63 C :   -0.116705
  64 C :    0.139059
  65 O :   -0.139390
  66 C :    0.014344
  67 C :   -0.088391
  68 C :    0.114983
  69 C :    0.113205
  70 C :   -0.108201
  71 C :    0.241987
  72 C :    0.238208
  73 C :   -0.104627
  74 F :   -0.171776
  75 F :   -0.170875
  76 C :   -0.085128
  77 C :    0.040926
  78 C :    0.245617
  79 C :   -0.321097
  80 C :   -0.186763
  81 N :    0.172080
  82 C :   -0.181997
  83 N :    0.152676
  84 H :    0.007533
  85 H :   -0.001940
  86 H :   -0.007018
  87 H :   -0.011320
  88 H :   -0.007877
  89 H :   -0.020216
  90 H :   -0.027987
  91 H :   -0.004519
  92 H :    0.042566
  93 H :    0.044738
  94 H :    0.039739
  95 H :   -0.038182
  96 H :   -0.018028
  97 H :   -0.027980
  98 H :    0.051676
  99 H :    0.054738
 100 H :    0.051675
 101 H :   -0.037291
 102 H :   -0.030575
 103 H :   -0.019939
 104 H :    0.034988
 105 H :    0.044477
 106 H :    0.038780
 107 H :   -0.040374
 108 H :   -0.014919
 109 H :   -0.028303
 110 H :    0.022854
 111 H :   -0.008842
 112 H :    0.006315
 113 H :   -0.000118
 114 H :   -0.003547
Sum of atomic charges:   -0.0000000

LOEWDIN ATOMIC CHARGES
----------------------
   0 C :   -0.029303
   1 C :    0.066091
   2 F :   -0.049741
   3 C :    0.067609
   4 F :   -0.050063
   5 C :   -0.033471
   6 C :   -0.008284
   7 C :   -0.006965
   8 C :    0.017738
   9 C :   -0.024446
  10 C :   -0.050424
  11 C :    0.028858
  12 C :    0.088221
  13 O :   -0.135382
  14 C :   -0.102636
  15 C :    0.081160
  16 C :   -0.145275
  17 C :   -0.016804
  18 N :   -0.057264
  19 C :   -0.022990
  20 N :   -0.059450
  21 C :    0.088263
  22 C :   -0.042920
  23 C :   -0.023598
  24 C :    0.023289
  25 C :   -0.014734
  26 C :   -0.013332
  27 C :   -0.007738
  28 C :   -0.046896
  29 C :    0.037227
  30 N :    0.014741
  31 C :    0.037434
  32 C :   -0.041498
  33 C :   -0.007893
  34 C :   -0.031329
  35 C :   -0.003844
  36 C :   -0.047110
  37 C :    0.065435
  38 F :   -0.050566
  39 C :    0.065025
  40 F :   -0.049876
  41 C :   -0.044983
  42 C :   -0.045296
  43 C :   -0.048515
  44 N :   -0.091571
  45 N :    0.151210
  46 N :   -0.094819
  47 C :    0.033217
  48 C :   -0.012721
  49 C :   -0.040103
  50 C :    0.036398
  51 C :   -0.042312
  52 C :   -0.006956
  53 C :   -0.031373
  54 C :   -0.022230
  55 C :    0.036536
  56 N :    0.017702
  57 C :    0.037893
  58 C :   -0.025858
  59 C :   -0.041498
  60 C :   -0.027027
  61 C :   -0.004719
  62 C :    0.088152
  63 C :   -0.093506
  64 C :    0.083335
  65 O :   -0.141761
  66 C :   -0.054123
  67 C :    0.029926
  68 C :   -0.009516
  69 C :   -0.005773
  70 C :   -0.030411
  71 C :    0.066918
  72 C :    0.066728
  73 C :   -0.033061
  74 F :   -0.049788
  75 F :   -0.049011
  76 C :    0.013493
  77 C :   -0.020312
  78 C :    0.065778
  79 C :   -0.129909
  80 C :   -0.016884
  81 N :   -0.043478
  82 C :   -0.018557
  83 N :   -0.052307
  84 H :    0.047699
  85 H :    0.044550
  86 H :    0.039606
  87 H :    0.039669
  88 H :    0.043995
  89 H :    0.032376
  90 H :    0.031563
  91 H :    0.027212
  92 H :    0.035532
  93 H :    0.035039
  94 H :    0.028569
  95 H :    0.024693
  96 H :    0.027162
  97 H :    0.030859
  98 H :    0.041814
  99 H :    0.041283
 100 H :    0.040202
 101 H :    0.023768
 102 H :    0.029766
 103 H :    0.026292
 104 H :    0.028943
 105 H :    0.032009
 106 H :    0.036111
 107 H :    0.028659
 108 H :    0.027060
 109 H :    0.031402
 110 H :    0.045787
 111 H :    0.040498
 112 H :    0.047288
 113 H :    0.044804
 114 H :    0.039624

  Mayer bond orders larger than 0.100000
B(  0-C ,  1-C ) :   1.4435 B(  0-C ,  5-C ) :   0.1091 B(  0-C ,  7-C ) :   1.1848
B(  0-C , 84-H ) :   1.0061 B(  1-C ,  2-F ) :   1.1340 B(  1-C ,  3-C ) :   1.1914
B(  3-C ,  4-F ) :   1.1333 B(  3-C ,  5-C ) :   1.4421 B(  5-C ,  6-C ) :   1.1927
B(  5-C , 85-H ) :   1.0069 B(  6-C ,  7-C ) :   1.2573 B(  6-C , 11-C ) :   1.1850
B(  7-C ,  8-C ) :   1.2215 B(  8-C ,  9-C ) :   1.4425 B(  8-C , 86-H ) :   0.9887
B(  9-C , 10-C ) :   1.2266 B(  9-C , 15-C ) :   0.9775 B( 10-C , 11-C ) :   1.4721
B( 10-C , 12-C ) :   0.9498 B( 11-C , 87-H ) :   1.0162 B( 12-C , 13-O ) :   2.1729
B( 12-C , 14-C ) :   0.9237 B( 13-O , 91-H ) :   0.1037 B( 14-C , 15-C ) :   1.0862
B( 14-C , 21-C ) :   1.5238 B( 15-C , 16-C ) :   1.6106 B( 16-C , 17-C ) :   1.1519
B( 16-C , 19-C ) :   1.1401 B( 17-C , 18-N ) :   2.9619 B( 19-C , 20-N ) :   2.9776
B( 21-C , 22-C ) :   1.1828 B( 21-C , 88-H ) :   0.9319 B( 22-C , 23-C ) :   1.2459
B( 22-C , 27-C ) :   1.2928 B( 23-C , 24-C ) :   1.2866 B( 23-C , 89-H ) :   1.0171
B( 24-C , 25-C ) :   1.2685 B( 24-C , 30-N ) :   1.1266 B( 25-C , 26-C ) :   1.2968
B( 25-C , 28-C ) :   1.1093 B( 26-C , 27-C ) :   1.4321 B( 26-C , 90-H ) :   1.0000
B( 27-C , 91-H ) :   0.9655 B( 28-C , 29-C ) :   1.2816 B( 28-C , 35-C ) :   1.3057
B( 29-C , 30-N ) :   1.1279 B( 29-C , 32-C ) :   1.2873 B( 30-N , 31-C ) :   0.9768
B( 31-C , 92-H ) :   0.9676 B( 31-C , 93-H ) :   0.9670 B( 31-C , 94-H ) :   0.9740
B( 32-C , 33-C ) :   1.3883 B( 32-C , 95-H ) :   0.9983 B( 33-C , 34-C ) :   1.3180
B( 33-C , 36-C ) :   0.9744 B( 34-C , 35-C ) :   1.4309 B( 34-C , 96-H ) :   0.9882
B( 35-C , 97-H ) :   0.9990 B( 36-C , 37-C ) :   1.4337 B( 36-C , 41-C ) :   0.1281
B( 36-C , 43-C ) :   1.2017 B( 37-C , 38-F ) :   1.1415 B( 37-C , 39-C ) :   1.1359
B( 39-C , 40-F ) :   1.1420 B( 39-C , 41-C ) :   1.4310 B( 41-C , 42-C ) :   1.2014
B( 41-C , 48-C ) :   0.9757 B( 42-C , 43-C ) :   1.2151 B( 42-C , 46-N ) :   1.4648
B( 43-C , 44-N ) :   1.4690 B( 44-N , 45-N ) :   1.2331 B( 44-N , 46-N ) :   0.1643
B( 45-N , 46-N ) :   1.2127 B( 45-N , 47-C ) :   0.9528 B( 47-C , 98-H ) :   0.9673
B( 47-C , 99-H ) :   0.9701 B( 47-C ,100-H ) :   0.9703 B( 48-C , 49-C ) :   1.3914
B( 48-C , 53-C ) :   1.3207 B( 49-C , 50-C ) :   1.2919 B( 49-C ,101-H ) :   0.9952
B( 50-C , 51-C ) :   1.2866 B( 50-C , 56-N ) :   1.1197 B( 51-C , 52-C ) :   1.3125
B( 51-C , 54-C ) :   1.1074 B( 52-C , 53-C ) :   1.4274 B( 52-C ,102-H ) :   0.9982
B( 53-C ,103-H ) :   0.9883 B( 54-C , 55-C ) :   1.2727 B( 54-C , 61-C ) :   1.3169
B( 55-C , 56-N ) :   1.1335 B( 55-C , 58-C ) :   1.2902 B( 56-N , 57-C ) :   0.9799
B( 57-C ,104-H ) :   0.9680 B( 57-C ,105-H ) :   0.9706 B( 57-C ,106-H ) :   0.9706
B( 58-C , 59-C ) :   1.3168 B( 58-C ,107-H ) :   1.0121 B( 59-C , 60-C ) :   1.3055
B( 59-C , 62-C ) :   1.0409 B( 60-C , 61-C ) :   1.4270 B( 60-C ,108-H ) :   0.9826
B( 61-C ,109-H ) :   0.9973 B( 62-C , 63-C ) :   1.7016 B( 62-C ,110-H ) :   0.9474
B( 63-C , 64-C ) :   0.9351 B( 63-C , 78-C ) :   1.0202 B( 64-C , 65-O ) :   2.2816
B( 64-C , 66-C ) :   0.9129 B( 66-C , 67-C ) :   1.4719 B( 66-C , 77-C ) :   1.2229
B( 67-C , 68-C ) :   1.1966 B( 67-C ,111-H ) :   1.0157 B( 68-C , 69-C ) :   1.2544
B( 68-C , 73-C ) :   1.1925 B( 69-C , 70-C ) :   1.1896 B( 69-C , 76-C ) :   1.2151
B( 70-C , 71-C ) :   1.4435 B( 70-C , 73-C ) :   0.1088 B( 70-C ,112-H ) :   1.0060
B( 71-C , 72-C ) :   1.1897 B( 71-C , 75-F ) :   1.1347 B( 72-C , 73-C ) :   1.4457
B( 72-C , 74-F ) :   1.1333 B( 73-C ,113-H ) :   1.0060 B( 76-C , 77-C ) :   1.4556
B( 76-C ,114-H ) :   0.9942 B( 77-C , 78-C ) :   0.9985 B( 78-C , 79-C ) :   1.6776
B( 79-C , 80-C ) :   1.1521 B( 79-C , 82-C ) :   1.1352 B( 80-C , 81-N ) :   3.0075
B( 82-C , 83-N ) :   2.9854

-----------------------------------------------------------------------------
         ABSORPTION SPECTRUM VIA TRANSITION ELECTRIC DIPOLE MOMENTS
-----------------------------------------------------------------------------
State   Energy  Wavelength   fosc         T2         TX        TY        TZ
        (cm-1)    (nm)                  (au**2)     (au)      (au)      (au)
-----------------------------------------------------------------------------
   0   21387.3    467.6   1.197478060  18.43264  -1.39711  -4.03527   0.44417
   1   22389.5    446.6   0.994439804  14.62209   1.63820   3.45503   0.03418
   2   22645.2    441.6   0.131345962   1.90948   0.17436   1.37074  -0.01263
   3   23037.9    434.1   0.174394753   2.49210   0.73689   1.21863  -0.68119
   4   28450.9    351.5   0.294198701   3.40424  -0.02507   1.71237   0.68659
   5   28678.5    348.7   0.014428925   0.16564   0.32976  -0.13556   0.19627
   6   28953.6    345.4   0.515662442   5.86324  -0.30450  -2.14681  -1.07784
   7   29310.1    341.2   0.000159887   0.00180   0.02404   0.00371   0.03470
   8   29571.4    338.2   0.030049057   0.33453   0.21193   0.50696   0.18056
   9   29795.5    335.6   0.041778813   0.46162  -0.37168  -0.50687   0.25798
  10   30067.0    332.6   0.171784185   1.88091   0.08851   1.32926   0.32580
  11   30481.8    328.1   0.039807532   0.42993   0.31010  -0.53202   0.22521
  12   30657.1    326.2   0.070968246   0.76209  -0.06261  -0.75065  -0.44125
  13   30932.7    323.3   0.159920279   1.70201   0.33872  -1.09396  -0.62492
  14   31244.8    320.1   0.820856003   8.64897   1.06165   2.72786   0.28401
  15   31449.9    318.0   0.031909910   0.33403   0.08695  -0.26488  -0.50627
  16   31922.5    313.3   0.111150256   1.14628  -0.43171  -0.97880   0.04295
  17   32051.3    312.0   0.009181535   0.09431  -0.27960  -0.12364  -0.02912
  18   32535.4    307.4   0.006461138   0.06538  -0.00988  -0.25284  -0.03674
  19   33758.7    296.2   0.010330095   0.10074  -0.08090   0.23604   0.19616
  20   33875.8    295.2   0.023101826   0.22451   0.19643   0.21673   0.37276
  21   34123.2    293.1   0.014065982   0.13571   0.15850   0.13513  -0.30384
  22   34167.2    292.7   0.166301392   1.60237  -0.02668  -1.10527  -0.61648
  23   34774.8    287.6   0.234494370   2.21995  -0.24857   1.16888   0.88988
  24   35327.3    283.1   0.669205371   6.23626   0.56513  -1.99118  -1.39718
  25   35543.0    281.3   0.022522925   0.20862   0.36707   0.00133  -0.27179
  26   35751.9    279.7   0.061143675   0.56303   0.16749   0.63769   0.35823
  27   36058.1    277.3   0.689404030   6.29429   1.03178   2.15487   0.76567
  28   36230.7    276.0   0.045309685   0.41171  -0.10291  -0.57944  -0.25566
  29   36429.2    274.5   0.036137259   0.32657   0.16482  -0.39915  -0.37428
  30   37579.9    266.1   0.002500861   0.02191  -0.13958  -0.03870   0.03048
  31   38060.6    262.7   0.043113789   0.37292   0.13716   0.50360  -0.31700
  32   38348.0    260.8   0.016622537   0.14270   0.17567  -0.27540   0.18972
  33   38659.3    258.7   0.101029998   0.86034   0.72861  -0.45926  -0.34430
  34   38773.1    257.9   0.017797125   0.15111   0.28260   0.11921  -0.23883
  35   38838.9    257.5   0.130019373   1.10209  -0.52179  -0.79092   0.45197
  36   39067.3    256.0   0.025276258   0.21300   0.06324   0.24504   0.38595
  37   39254.6    254.7   0.041923414   0.35159  -0.27373  -0.52166   0.06735
  38   39490.3    253.2   0.148049566   1.23422  -0.55502  -0.04164   0.96148
  39   40122.1    249.2   0.487280668   3.99826  -1.15437  -1.49965   0.64556

FINAL SINGLE POINT ENERGY     -3809.357659341953

DIPOLE MOMENT
-------------
                                X             Y             Z
Electronic contribution:    -28.32516      10.41194      13.37172
Nuclear contribution   :     29.23002     -11.67335     -14.45773
                        -----------------------------------------
Total Dipole Moment    :      0.90486      -1.26141      -1.08601
                        -----------------------------------------
Magnitude (a.u.)       :      1.89456
Magnitude (Debye)      :      4.81558

Rotational constants in cm-1:     0.003762     0.000110     0.000108
Rotational constants in MHz :   112.785349     3.306461     3.244261

                             ****ORCA TERMINATED NORMALLY****
TOTAL RUN TIME: 0 days 0 hours 12 minutes 39 seconds 449 msec
