                         Program Version 4.2.0 -  RELEASE  -
|  1> # ORCA input file
|  2> # SCF done       -226.591364233115          0.000452634955
|  3> ! CAM-B3LYP def2-SVP def2/J RIJCOSX Grid4 TightSCF
|  4> %maxcore 5000
|  5> %tddft
|  6>     Mode sTDDFT
|  7>     Ethresh 5.0
|  8>     maxcore 5000
|  9> end
| 10>
| 11> %pal
| 12>   nprocs 6
| 13>   end
| 14> * xyz 0 1
| 15>    C      -18.55601       -11.03292        -0.50063
| 16>    C      -19.56054       -10.93870         0.42120
| 17>    F      -20.83317       -10.81874         0.02074
| 18>    C      -19.27361       -10.96638         1.80080
| 19>    F      -20.27861       -10.87231         2.68230
| 20>    C      -17.98505       -11.08745         2.23954
| 21>    C      -16.92807       -11.18692         1.31408
| 22>    C      -17.21639       -11.16067        -0.08124
| 23>    C      -16.17238       -11.26477        -1.02894
| 24>    C      -14.87879       -11.39111        -0.59454
| 25>    C      -14.60143       -11.40561         0.79858
| 26>    C      -15.58702       -11.31031         1.73835
| 27>    C      -13.14793       -11.53145         1.01390
| 28>    O      -12.61217       -11.60979         2.10272
| 29>    C      -12.53680       -11.52676        -0.33421
| 30>    C      -13.61560       -11.52921        -1.31363
| 31>    C      -13.50555       -11.70021        -2.66853
| 32>    C      -12.31573       -11.94120        -3.38973
| 33>    N      -11.41118       -12.16488        -4.06106
| 34>    C      -14.60681       -11.70206        -3.55170
| 35>    N      -15.45617       -11.71039        -4.32377
| 36>    C      -11.21538       -11.41934        -0.68152
| 37>    C      -10.03814       -11.40078         0.09614
| 38>    C       -9.83552       -11.62834         1.43917
| 39>    C       -8.49347       -11.50833         1.84771
| 40>    C       -7.64824       -11.18613         0.74717
| 41>    S       -8.52787       -11.05108        -0.74076
| 42>    C       -6.27512       -10.98272         0.80985
| 43>    O       -5.71095       -10.69005        -0.38834
| 44>    C       -4.32015       -10.54286        -0.54030
| 45>    C       -5.67683       -11.09271         2.08080
| 46>    C       -6.52061       -11.42210         3.17572
| 47>    C       -7.89019       -11.63919         3.11848
| 48>    O       -8.45262       -11.93573         4.31073
| 49>    C       -9.83514       -12.17098         4.45012
| 50>    S       -5.65721       -11.50962         4.68294
| 51>    C       -4.17219       -11.08708         3.86581
| 52>    C       -4.33947       -10.91007         2.51877
| 53>    C       -2.97176       -10.93223         4.62017
| 54>    C       -1.70779       -10.58523         4.18943
| 55>    F       -1.39989       -10.36183         2.90416
| 56>    C       -0.76439       -10.47730         5.22357
| 57>    F        0.51447       -10.14451         5.01147
| 58>    C       -1.27927       -10.74143         6.47533
| 59>    S       -2.96679       -11.13768         6.34466
| 60>    C       -0.63659       -10.69126         7.74372
| 61>    C       -1.19938       -10.98442         8.95348
| 62>    C       -0.32632       -10.79616        10.04585
| 63>    C        0.95651       -10.33632         9.64741
| 64>    S        1.02530       -10.17719         7.90136
| 65>    C        1.94212       -10.06463        10.58249
| 66>    O        3.20402        -9.62080        10.38551
| 67>    C        3.64570        -9.27941         9.09085
| 68>    C        1.59214       -10.26586        11.93842
| 69>    C        0.31311       -10.74574        12.33410
| 70>    C       -0.66961       -11.01791        11.39781
| 71>    O       -1.93059       -11.47202        11.59131
| 72>    C       -2.42889       -11.65325        12.89695
| 73>    S        0.24054       -10.87861        14.07697
| 74>    C        1.85779       -10.22902        14.25463
| 75>    C        2.42903        -9.98039        13.03178
| 76>    C        2.39764       -10.09252        15.55381
| 77>    C        3.44045        -9.32669        15.98153
| 78>    C        4.07496        -9.65301        17.28797
| 79>    O        3.64840       -10.40765        18.13120
| 80>    C        5.34666        -8.90233        17.30245
| 81>    C        6.34818        -8.93025        18.22917
| 82>    C        7.49743        -8.13459        18.02251
| 83>    C        7.58823        -7.32989        16.84989
| 84>    C        8.73944        -6.54279        16.64647
| 85>    C        9.75045        -6.55058        17.56592
| 86>    C        9.65856        -7.34499        18.72630
| 87>    C        8.55639        -8.12134        18.95096
| 88>    F       10.66532        -7.33326        19.61060
| 89>    F       10.84295        -5.79999        17.37162
| 90>    C        6.53184        -7.31760        15.91033
| 91>    C        5.42201        -8.08649        16.13789
| 92>    C        4.17767        -8.23521        15.38448
| 93>    C        3.71232        -7.33413        14.46125
| 94>    C        2.39792        -7.32918        13.95412
| 95>    N        1.32861        -7.24946        13.54436
| 96>    C        4.46762        -6.24931        13.97192
| 97>    N        5.04657        -5.36585        13.52223
| 98>    H      -18.79361       -11.01160        -1.55274
| 99>    H      -17.78132       -11.10672         3.29873
|100>    H      -16.42591       -11.23743        -2.07596
|101>    H      -15.34512       -11.32835         2.79021
|102>    H      -11.01509       -11.29551        -1.73935
|103>    H      -10.66101       -11.86592         2.07909
|104>    H       -4.16466       -10.41831        -1.61143
|105>    H       -3.78144       -11.43112        -0.20034
|106>    H       -3.95102        -9.65390        -0.02132
|107>    H       -9.98103       -12.36333         5.51242
|108>    H      -10.15260       -13.04727         3.87966
|109>    H      -10.42616       -11.30037         4.15763
|110>    H       -3.51696       -10.64426         1.88541
|111>    H       -2.21393       -11.31902         9.06861
|112>    H        4.66456        -8.91772         9.22200
|113>    H        3.03509        -8.48588         8.65385
|114>    H        3.65311       -10.14558         8.42431
|115>    H       -3.45682       -11.98825        12.76545
|116>    H       -2.42303       -10.71909        13.46362
|117>    H       -1.86804       -12.41663        13.44228
|118>    H        3.43951        -9.63843        12.90025
|119>    H        1.95907       -10.72775        16.31807
|120>    H        6.26424        -9.54951        19.10918
|121>    H        8.82381        -5.92564        15.76565
|122>    H        8.50123        -8.72381        19.84408
|123>    H        6.63067        -6.70386        15.02930
|124> *
|125>
|126>                          ****END OF INPUT****

CARTESIAN COORDINATES (ANGSTROEM)
---------------------------------
  C    -18.556010  -11.032920   -0.500630
  C    -19.560540  -10.938700    0.421200
  F    -20.833170  -10.818740    0.020740
  C    -19.273610  -10.966380    1.800800
  F    -20.278610  -10.872310    2.682300
  C    -17.985050  -11.087450    2.239540
  C    -16.928070  -11.186920    1.314080
  C    -17.216390  -11.160670   -0.081240
  C    -16.172380  -11.264770   -1.028940
  C    -14.878790  -11.391110   -0.594540
  C    -14.601430  -11.405610    0.798580
  C    -15.587020  -11.310310    1.738350
  C    -13.147930  -11.531450    1.013900
  O    -12.612170  -11.609790    2.102720
  C    -12.536800  -11.526760   -0.334210
  C    -13.615600  -11.529210   -1.313630
  C    -13.505550  -11.700210   -2.668530
  C    -12.315730  -11.941200   -3.389730
  N    -11.411180  -12.164880   -4.061060
  C    -14.606810  -11.702060   -3.551700
  N    -15.456170  -11.710390   -4.323770
  C    -11.215380  -11.419340   -0.681520
  C    -10.038140  -11.400780    0.096140
  C     -9.835520  -11.628340    1.439170
  C     -8.493470  -11.508330    1.847710
  C     -7.648240  -11.186130    0.747170
  S     -8.527870  -11.051080   -0.740760
  C     -6.275120  -10.982720    0.809850
  O     -5.710950  -10.690050   -0.388340
  C     -4.320150  -10.542860   -0.540300
  C     -5.676830  -11.092710    2.080800
  C     -6.520610  -11.422100    3.175720
  C     -7.890190  -11.639190    3.118480
  O     -8.452620  -11.935730    4.310730
  C     -9.835140  -12.170980    4.450120
  S     -5.657210  -11.509620    4.682940
  C     -4.172190  -11.087080    3.865810
  C     -4.339470  -10.910070    2.518770
  C     -2.971760  -10.932230    4.620170
  C     -1.707790  -10.585230    4.189430
  F     -1.399890  -10.361830    2.904160
  C     -0.764390  -10.477300    5.223570
  F      0.514470  -10.144510    5.011470
  C     -1.279270  -10.741430    6.475330
  S     -2.966790  -11.137680    6.344660
  C     -0.636590  -10.691260    7.743720
  C     -1.199380  -10.984420    8.953480
  C     -0.326320  -10.796160   10.045850
  C      0.956510  -10.336320    9.647410
  S      1.025300  -10.177190    7.901360
  C      1.942120  -10.064630   10.582490
  O      3.204020   -9.620800   10.385510
  C      3.645700   -9.279410    9.090850
  C      1.592140  -10.265860   11.938420
  C      0.313110  -10.745740   12.334100
  C     -0.669610  -11.017910   11.397810
  O     -1.930590  -11.472020   11.591310
  C     -2.428890  -11.653250   12.896950
  S      0.240540  -10.878610   14.076970
  C      1.857790  -10.229020   14.254630
  C      2.429030   -9.980390   13.031780
  C      2.397640  -10.092520   15.553810
  C      3.440450   -9.326690   15.981530
  C      4.074960   -9.653010   17.287970
  O      3.648400  -10.407650   18.131200
  C      5.346660   -8.902330   17.302450
  C      6.348180   -8.930250   18.229170
  C      7.497430   -8.134590   18.022510
  C      7.588230   -7.329890   16.849890
  C      8.739440   -6.542790   16.646470
  C      9.750450   -6.550580   17.565920
  C      9.658560   -7.344990   18.726300
  C      8.556390   -8.121340   18.950960
  F     10.665320   -7.333260   19.610600
  F     10.842950   -5.799990   17.371620
  C      6.531840   -7.317600   15.910330
  C      5.422010   -8.086490   16.137890
  C      4.177670   -8.235210   15.384480
  C      3.712320   -7.334130   14.461250
  C      2.397920   -7.329180   13.954120
  N      1.328610   -7.249460   13.544360
  C      4.467620   -6.249310   13.971920
  N      5.046570   -5.365850   13.522230
  H    -18.793610  -11.011600   -1.552740
  H    -17.781320  -11.106720    3.298730
  H    -16.425910  -11.237430   -2.075960
  H    -15.345120  -11.328350    2.790210
  H    -11.015090  -11.295510   -1.739350
  H    -10.661010  -11.865920    2.079090
  H     -4.164660  -10.418310   -1.611430
  H     -3.781440  -11.431120   -0.200340
  H     -3.951020   -9.653900   -0.021320
  H     -9.981030  -12.363330    5.512420
  H    -10.152600  -13.047270    3.879660
  H    -10.426160  -11.300370    4.157630
  H     -3.516960  -10.644260    1.885410
  H     -2.213930  -11.319020    9.068610
  H      4.664560   -8.917720    9.222000
  H      3.035090   -8.485880    8.653850
  H      3.653110  -10.145580    8.424310
  H     -3.456820  -11.988250   12.765450
  H     -2.423030  -10.719090   13.463620
  H     -1.868040  -12.416630   13.442280
  H      3.439510   -9.638430   12.900250
  H      1.959070  -10.727750   16.318070
  H      6.264240   -9.549510   19.109180
  H      8.823810   -5.925640   15.765650
  H      8.501230   -8.723810   19.844080
  H      6.630670   -6.703860   15.029300

 Total Charge           Charge          ....    0
 Multiplicity           Mult            ....    1
 Number of Electrons    NEL             ....  608
 Basis Dimension        Dim             .... 1312

ORBITAL ENERGIES
----------------

  NO   OCC          E(Eh)            E(eV)
   0   2.0000     -88.981910     -2421.3209
   1   2.0000     -88.961956     -2420.7779
   2   2.0000     -88.958324     -2420.6791
   3   2.0000     -88.958124     -2420.6736
   4   2.0000     -88.952939     -2420.5325
   5   2.0000     -24.810076      -675.1165
   6   2.0000     -24.808786      -675.0814
   7   2.0000     -24.799640      -674.8325
   8   2.0000     -24.798429      -674.7996
   9   2.0000     -24.797834      -674.7834
  10   2.0000     -24.797423      -674.7722
  11   2.0000     -19.260938      -524.1168
  12   2.0000     -19.259974      -524.0905
  13   2.0000     -19.255670      -523.9734
  14   2.0000     -19.254848      -523.9511
  15   2.0000     -19.224873      -523.1354
  16   2.0000     -19.214995      -522.8666
  17   2.0000     -14.416836      -392.3020
  18   2.0000     -14.416710      -392.2986
  19   2.0000     -14.415563      -392.2674
  20   2.0000     -14.414678      -392.2433
  21   2.0000     -10.382968      -282.5349
  22   2.0000     -10.381994      -282.5084
  23   2.0000     -10.381032      -282.4822
  24   2.0000     -10.380584      -282.4700
  25   2.0000     -10.380255      -282.4611
  26   2.0000     -10.379908      -282.4517
  27   2.0000     -10.375803      -282.3400
  28   2.0000     -10.366250      -282.0800
  29   2.0000     -10.351272      -281.6724
  30   2.0000     -10.351141      -281.6689
  31   2.0000     -10.345033      -281.5027
  32   2.0000     -10.344953      -281.5005
  33   2.0000     -10.343575      -281.4630
  34   2.0000     -10.343419      -281.4587
  35   2.0000     -10.342977      -281.4467
  36   2.0000     -10.342662      -281.4381
  37   2.0000     -10.330875      -281.1174
  38   2.0000     -10.330790      -281.1151
  39   2.0000     -10.330356      -281.1033
  40   2.0000     -10.330259      -281.1006
  41   2.0000     -10.329601      -281.0827
  42   2.0000     -10.328858      -281.0625
  43   2.0000     -10.326058      -280.9863
  44   2.0000     -10.323658      -280.9210
  45   2.0000     -10.323457      -280.9156
  46   2.0000     -10.321719      -280.8682
  47   2.0000     -10.319752      -280.8147
  48   2.0000     -10.319265      -280.8015
  49   2.0000     -10.318700      -280.7861
  50   2.0000     -10.315748      -280.7058
  51   2.0000     -10.313825      -280.6534
  52   2.0000     -10.313401      -280.6419
  53   2.0000     -10.312766      -280.6246
  54   2.0000     -10.312023      -280.6044
  55   2.0000     -10.311802      -280.5984
  56   2.0000     -10.311660      -280.5945
  57   2.0000     -10.310367      -280.5594
  58   2.0000     -10.309970      -280.5485
  59   2.0000     -10.308544      -280.5097
  60   2.0000     -10.307798      -280.4894
  61   2.0000     -10.306607      -280.4570
  62   2.0000     -10.304541      -280.4008
  63   2.0000     -10.304291      -280.3940
  64   2.0000     -10.303530      -280.3733
  65   2.0000     -10.303395      -280.3696
  66   2.0000     -10.302731      -280.3516
  67   2.0000     -10.302366      -280.3416
  68   2.0000     -10.301897      -280.3289
  69   2.0000     -10.301522      -280.3187
  70   2.0000     -10.301246      -280.3111
  71   2.0000     -10.300930      -280.3026
  72   2.0000     -10.300128      -280.2807
  73   2.0000     -10.298082      -280.2251
  74   2.0000     -10.297628      -280.2127
  75   2.0000     -10.295664      -280.1593
  76   2.0000     -10.294779      -280.1352
  77   2.0000     -10.293277      -280.0943
  78   2.0000     -10.292136      -280.0633
  79   2.0000     -10.291660      -280.0503
  80   2.0000     -10.289950      -280.0038
  81   2.0000     -10.287636      -279.9408
  82   2.0000     -10.284102      -279.8446
  83   2.0000      -8.077049      -219.7877
  84   2.0000      -8.056620      -219.2318
  85   2.0000      -8.053481      -219.1463
  86   2.0000      -8.053451      -219.1455
  87   2.0000      -8.048158      -219.0015
  88   2.0000      -6.046576      -164.5357
  89   2.0000      -6.042685      -164.4298
  90   2.0000      -6.038388      -164.3129
  91   2.0000      -6.026650      -163.9935
  92   2.0000      -6.023404      -163.9052
  93   2.0000      -6.023224      -163.9003
  94   2.0000      -6.022152      -163.8711
  95   2.0000      -6.019054      -163.7868
  96   2.0000      -6.019005      -163.7855
  97   2.0000      -6.017761      -163.7516
  98   2.0000      -6.017579      -163.7466
  99   2.0000      -6.014625      -163.6663
 100   2.0000      -6.014513      -163.6632
 101   2.0000      -6.013737      -163.6421
 102   2.0000      -6.009470      -163.5260
 103   2.0000      -1.327743       -36.1297
 104   2.0000      -1.321920       -35.9713
 105   2.0000      -1.320513       -35.9330
 106   2.0000      -1.316292       -35.8181
 107   2.0000      -1.307049       -35.5666
 108   2.0000      -1.305667       -35.5290
 109   2.0000      -1.165021       -31.7018
 110   2.0000      -1.165000       -31.7013
 111   2.0000      -1.160182       -31.5701
 112   2.0000      -1.159859       -31.5614
 113   2.0000      -1.139032       -30.9946
 114   2.0000      -1.130573       -30.7644
 115   2.0000      -1.021300       -27.7910
 116   2.0000      -1.021030       -27.7836
 117   2.0000      -1.020320       -27.7643
 118   2.0000      -1.005755       -27.3680
 119   2.0000      -1.005479       -27.3605
 120   2.0000      -1.003939       -27.3186
 121   2.0000      -1.001749       -27.2590
 122   2.0000      -0.994793       -27.0697
 123   2.0000      -0.994250       -27.0549
 124   2.0000      -0.988359       -26.8946
 125   2.0000      -0.983884       -26.7729
 126   2.0000      -0.981084       -26.6966
 127   2.0000      -0.979317       -26.6486
 128   2.0000      -0.936198       -25.4752
 129   2.0000      -0.934065       -25.4172
 130   2.0000      -0.925520       -25.1847
 131   2.0000      -0.919931       -25.0326
 132   2.0000      -0.902852       -24.5678
 133   2.0000      -0.900271       -24.4976
 134   2.0000      -0.893496       -24.3133
 135   2.0000      -0.892186       -24.2776
 136   2.0000      -0.886213       -24.1151
 137   2.0000      -0.882738       -24.0205
 138   2.0000      -0.881791       -23.9948
 139   2.0000      -0.875135       -23.8136
 140   2.0000      -0.863924       -23.5086
 141   2.0000      -0.856044       -23.2942
 142   2.0000      -0.851113       -23.1600
 143   2.0000      -0.842065       -22.9138
 144   2.0000      -0.841758       -22.9054
 145   2.0000      -0.840383       -22.8680
 146   2.0000      -0.829043       -22.5594
 147   2.0000      -0.822787       -22.3892
 148   2.0000      -0.816917       -22.2294
 149   2.0000      -0.814752       -22.1705
 150   2.0000      -0.810755       -22.0618
 151   2.0000      -0.801855       -21.8196
 152   2.0000      -0.792478       -21.5644
 153   2.0000      -0.782664       -21.2974
 154   2.0000      -0.769773       -20.9466
 155   2.0000      -0.766323       -20.8527
 156   2.0000      -0.755349       -20.5541
 157   2.0000      -0.751772       -20.4568
 158   2.0000      -0.748809       -20.3761
 159   2.0000      -0.742895       -20.2152
 160   2.0000      -0.732223       -19.9248
 161   2.0000      -0.723110       -19.6768
 162   2.0000      -0.717816       -19.5328
 163   2.0000      -0.715926       -19.4813
 164   2.0000      -0.710124       -19.3234
 165   2.0000      -0.701206       -19.0808
 166   2.0000      -0.692477       -18.8432
 167   2.0000      -0.686486       -18.6802
 168   2.0000      -0.683390       -18.5960
 169   2.0000      -0.681283       -18.5387
 170   2.0000      -0.675961       -18.3938
 171   2.0000      -0.675055       -18.3692
 172   2.0000      -0.670135       -18.2353
 173   2.0000      -0.667239       -18.1565
 174   2.0000      -0.664577       -18.0841
 175   2.0000      -0.656835       -17.8734
 176   2.0000      -0.654444       -17.8083
 177   2.0000      -0.646199       -17.5840
 178   2.0000      -0.643952       -17.5228
 179   2.0000      -0.642947       -17.4955
 180   2.0000      -0.642047       -17.4710
 181   2.0000      -0.636811       -17.3285
 182   2.0000      -0.632834       -17.2203
 183   2.0000      -0.624247       -16.9866
 184   2.0000      -0.619286       -16.8516
 185   2.0000      -0.615183       -16.7400
 186   2.0000      -0.613654       -16.6984
 187   2.0000      -0.611402       -16.6371
 188   2.0000      -0.606443       -16.5021
 189   2.0000      -0.597708       -16.2645
 190   2.0000      -0.596918       -16.2430
 191   2.0000      -0.595369       -16.2008
 192   2.0000      -0.593490       -16.1497
 193   2.0000      -0.590205       -16.0603
 194   2.0000      -0.586605       -15.9623
 195   2.0000      -0.586525       -15.9602
 196   2.0000      -0.585127       -15.9221
 197   2.0000      -0.583332       -15.8733
 198   2.0000      -0.578457       -15.7406
 199   2.0000      -0.571870       -15.5614
 200   2.0000      -0.569863       -15.5067
 201   2.0000      -0.569406       -15.4943
 202   2.0000      -0.567431       -15.4406
 203   2.0000      -0.561650       -15.2833
 204   2.0000      -0.561470       -15.2784
 205   2.0000      -0.557300       -15.1649
 206   2.0000      -0.556787       -15.1509
 207   2.0000      -0.554658       -15.0930
 208   2.0000      -0.553747       -15.0682
 209   2.0000      -0.549941       -14.9647
 210   2.0000      -0.548920       -14.9369
 211   2.0000      -0.548111       -14.9149
 212   2.0000      -0.546801       -14.8792
 213   2.0000      -0.541769       -14.7423
 214   2.0000      -0.541452       -14.7337
 215   2.0000      -0.539681       -14.6855
 216   2.0000      -0.537153       -14.6167
 217   2.0000      -0.536453       -14.5976
 218   2.0000      -0.534592       -14.5470
 219   2.0000      -0.532414       -14.4877
 220   2.0000      -0.531492       -14.4626
 221   2.0000      -0.529353       -14.4044
 222   2.0000      -0.523026       -14.2323
 223   2.0000      -0.522579       -14.2201
 224   2.0000      -0.521504       -14.1908
 225   2.0000      -0.518640       -14.1129
 226   2.0000      -0.514718       -14.0062
 227   2.0000      -0.512996       -13.9593
 228   2.0000      -0.511186       -13.9101
 229   2.0000      -0.509869       -13.8742
 230   2.0000      -0.506714       -13.7884
 231   2.0000      -0.506281       -13.7766
 232   2.0000      -0.503786       -13.7087
 233   2.0000      -0.500019       -13.6062
 234   2.0000      -0.498661       -13.5693
 235   2.0000      -0.497077       -13.5262
 236   2.0000      -0.493699       -13.4342
 237   2.0000      -0.492606       -13.4045
 238   2.0000      -0.491987       -13.3876
 239   2.0000      -0.489507       -13.3202
 240   2.0000      -0.485454       -13.2099
 241   2.0000      -0.485327       -13.2064
 242   2.0000      -0.479114       -13.0373
 243   2.0000      -0.476689       -12.9714
 244   2.0000      -0.474197       -12.9036
 245   2.0000      -0.471391       -12.8272
 246   2.0000      -0.468946       -12.7607
 247   2.0000      -0.467326       -12.7166
 248   2.0000      -0.465384       -12.6637
 249   2.0000      -0.464077       -12.6282
 250   2.0000      -0.463518       -12.6130
 251   2.0000      -0.462225       -12.5778
 252   2.0000      -0.459017       -12.4905
 253   2.0000      -0.452240       -12.3061
 254   2.0000      -0.451031       -12.2732
 255   2.0000      -0.449697       -12.2369
 256   2.0000      -0.447498       -12.1770
 257   2.0000      -0.446287       -12.1441
 258   2.0000      -0.445615       -12.1258
 259   2.0000      -0.445268       -12.1164
 260   2.0000      -0.444633       -12.0991
 261   2.0000      -0.443989       -12.0816
 262   2.0000      -0.442895       -12.0518
 263   2.0000      -0.441841       -12.0231
 264   2.0000      -0.433793       -11.8041
 265   2.0000      -0.431319       -11.7368
 266   2.0000      -0.429212       -11.6795
 267   2.0000      -0.427892       -11.6435
 268   2.0000      -0.427063       -11.6210
 269   2.0000      -0.426882       -11.6161
 270   2.0000      -0.426178       -11.5969
 271   2.0000      -0.422681       -11.5017
 272   2.0000      -0.421690       -11.4748
 273   2.0000      -0.418656       -11.3922
 274   2.0000      -0.414036       -11.2665
 275   2.0000      -0.410841       -11.1795
 276   2.0000      -0.409464       -11.1421
 277   2.0000      -0.406974       -11.0743
 278   2.0000      -0.405402       -11.0315
 279   2.0000      -0.402939       -10.9645
 280   2.0000      -0.400988       -10.9114
 281   2.0000      -0.398269       -10.8375
 282   2.0000      -0.388117       -10.5612
 283   2.0000      -0.385547       -10.4913
 284   2.0000      -0.382230       -10.4010
 285   2.0000      -0.366622        -9.9763
 286   2.0000      -0.361507        -9.8371
 287   2.0000      -0.346958        -9.4412
 288   2.0000      -0.346460        -9.4277
 289   2.0000      -0.343962        -9.3597
 290   2.0000      -0.342014        -9.3067
 291   2.0000      -0.339043        -9.2258
 292   2.0000      -0.334787        -9.1100
 293   2.0000      -0.330573        -8.9954
 294   2.0000      -0.326183        -8.8759
 295   2.0000      -0.319636        -8.6977
 296   2.0000      -0.317155        -8.6302
 297   2.0000      -0.307954        -8.3799
 298   2.0000      -0.303392        -8.2557
 299   2.0000      -0.296799        -8.0763
 300   2.0000      -0.289376        -7.8743
 301   2.0000      -0.271964        -7.4005
 302   2.0000      -0.243955        -6.6383
 303   2.0000      -0.233837        -6.3630
 304   0.0000      -0.100229        -2.7274
 305   0.0000      -0.095353        -2.5947
 306   0.0000      -0.064866        -1.7651
 307   0.0000      -0.060112        -1.6357
 308   0.0000      -0.052088        -1.4174

MULLIKEN ATOMIC CHARGES
-----------------------
   0 C :   -0.107846
   1 C :    0.243401
   2 F :   -0.171114
   3 C :    0.237652
   4 F :   -0.172558
   5 C :   -0.104421
   6 C :    0.116067
   7 C :    0.111164
   8 C :   -0.081699
   9 C :    0.051072
  10 C :    0.003787
  11 C :   -0.083179
  12 C :    0.161351
  13 O :   -0.166935
  14 C :   -0.082636
  15 C :    0.306621
  16 C :   -0.351462
  17 C :   -0.198074
  18 N :    0.160643
  19 C :   -0.183608
  20 N :    0.148092
  21 C :    0.055912
  22 C :   -0.082774
  23 C :   -0.069418
  24 C :    0.050194
  25 C :   -0.134039
  26 S :    0.161393
  27 C :    0.136566
  28 O :   -0.310581
  29 C :    0.182641
  30 C :    0.082551
  31 C :   -0.153749
  32 C :    0.156647
  33 O :   -0.305239
  34 C :    0.184835
  35 S :    0.143789
  36 C :    0.011091
  37 C :   -0.131107
  38 C :   -0.110195
  39 C :    0.191869
  40 F :   -0.173032
  41 C :    0.194448
  42 F :   -0.170729
  43 C :   -0.134546
  44 S :    0.170664
  45 C :    0.019756
  46 C :   -0.077184
  47 C :    0.069275
  48 C :   -0.124443
  49 S :    0.108734
  50 C :    0.124119
  51 O :   -0.306209
  52 C :    0.163937
  53 C :    0.027608
  54 C :   -0.091861
  55 C :    0.103455
  56 O :   -0.310727
  57 C :    0.164630
  58 S :    0.098294
  59 C :   -0.072824
  60 C :    0.007785
  61 C :    0.086174
  62 C :   -0.133758
  63 C :    0.135141
  64 O :   -0.144041
  65 C :    0.017173
  66 C :   -0.082723
  67 C :    0.113756
  68 C :    0.112051
  69 C :   -0.107196
  70 C :    0.240607
  71 C :    0.238888
  72 C :   -0.104453
  73 F :   -0.173055
  74 F :   -0.171560
  75 C :   -0.085643
  76 C :    0.036315
  77 C :    0.275488
  78 C :   -0.337265
  79 C :   -0.206028
  80 N :    0.180570
  81 C :   -0.175921
  82 N :    0.148603
  83 H :    0.009698
  84 H :   -0.001770
  85 H :   -0.005037
  86 H :   -0.013232
  87 H :    0.010194
  88 H :   -0.011066
  89 H :    0.041627
  90 H :    0.032407
  91 H :    0.034501
  92 H :    0.036173
  93 H :    0.038049
  94 H :    0.045107
  95 H :   -0.026995
  96 H :   -0.005677
  97 H :    0.044078
  98 H :    0.043253
  99 H :    0.039814
 100 H :    0.040443
 101 H :    0.042970
 102 H :    0.036522
 103 H :    0.003190
 104 H :    0.023901
 105 H :   -0.009144
 106 H :    0.005837
 107 H :   -0.000687
 108 H :   -0.005139
Sum of atomic charges:   -0.0000000

LOEWDIN ATOMIC CHARGES
----------------------
   0 C :   -0.028942
   1 C :    0.066680
   2 F :   -0.048825
   3 C :    0.067750
   4 F :   -0.049766
   5 C :   -0.033945
   6 C :   -0.009097
   7 C :   -0.006425
   8 C :    0.017689
   9 C :   -0.022548
  10 C :   -0.051770
  11 C :    0.028188
  12 C :    0.090848
  13 O :   -0.152280
  14 C :   -0.098710
  15 C :    0.075822
  16 C :   -0.139931
  17 C :   -0.027222
  18 N :   -0.046228
  19 C :   -0.016623
  20 N :   -0.054555
  21 C :    0.059831
  22 C :   -0.178604
  23 C :    0.000692
  24 C :   -0.081921
  25 C :   -0.163919
  26 S :    0.428038
  27 C :    0.018393
  28 O :   -0.104950
  29 C :    0.080740
  30 C :   -0.060486
  31 C :   -0.176280
  32 C :    0.035794
  33 O :   -0.098743
  34 C :    0.083172
  35 S :    0.412554
  36 C :   -0.168276
  37 C :   -0.059260
  38 C :   -0.212315
  39 C :    0.028561
  40 F :   -0.047164
  41 C :    0.021587
  42 F :   -0.048002
  43 C :   -0.210394
  44 S :    0.467135
  45 C :   -0.170586
  46 C :   -0.045929
  47 C :   -0.046952
  48 C :   -0.188025
  49 S :    0.415288
  50 C :    0.039387
  51 O :   -0.095550
  52 C :    0.068164
  53 C :   -0.061710
  54 C :   -0.172575
  55 C :    0.023082
  56 O :   -0.101324
  57 C :    0.067328
  58 S :    0.409961
  59 C :   -0.179571
  60 C :    0.012415
  61 C :    0.055255
  62 C :   -0.094954
  63 C :    0.082321
  64 O :   -0.143912
  65 C :   -0.053614
  66 C :    0.029792
  67 C :   -0.009752
  68 C :   -0.005970
  69 C :   -0.030627
  70 C :    0.066466
  71 C :    0.066773
  72 C :   -0.032976
  73 F :   -0.050123
  74 F :   -0.049470
  75 C :    0.012374
  76 C :   -0.019529
  77 C :    0.065510
  78 C :   -0.139259
  79 C :   -0.018320
  80 N :   -0.038759
  81 C :   -0.018893
  82 N :   -0.055467
  83 H :    0.048246
  84 H :    0.044307
  85 H :    0.040145
  86 H :    0.038630
  87 H :    0.044851
  88 H :    0.026237
  89 H :    0.032962
  90 H :    0.018784
  91 H :    0.018056
  92 H :    0.031381
  93 H :    0.021256
  94 H :    0.023607
  95 H :    0.025015
  96 H :    0.030236
  97 H :    0.033344
  98 H :    0.017335
  99 H :    0.013809
 100 H :    0.031753
 101 H :    0.016606
 102 H :    0.012444
 103 H :    0.036740
 104 H :    0.046055
 105 H :    0.040565
 106 H :    0.047105
 107 H :    0.044774
 108 H :    0.039191

  Mayer bond orders larger than 0.100000
B(  0-C ,  1-C ) :   1.4394 B(  0-C ,  5-C ) :   0.1083 B(  0-C ,  7-C ) :   1.1904
B(  0-C , 83-H ) :   1.0071 B(  1-C ,  2-F ) :   1.1354 B(  1-C ,  3-C ) :   1.1904
B(  3-C ,  4-F ) :   1.1328 B(  3-C ,  5-C ) :   1.4442 B(  5-C ,  6-C ) :   1.1898
B(  5-C , 84-H ) :   1.0075 B(  6-C ,  7-C ) :   1.2576 B(  6-C , 11-C ) :   1.1901
B(  7-C ,  8-C ) :   1.2148 B(  8-C ,  9-C ) :   1.4506 B(  8-C , 85-H ) :   0.9905
B(  9-C , 10-C ) :   1.2252 B(  9-C , 15-C ) :   0.9780 B( 10-C , 11-C ) :   1.4661
B( 10-C , 12-C ) :   0.9601 B( 11-C , 86-H ) :   1.0166 B( 12-C , 13-O ) :   2.1365
B( 12-C , 14-C ) :   0.9471 B( 13-O , 88-H ) :   0.1115 B( 14-C , 15-C ) :   1.0799
B( 14-C , 21-C ) :   1.5695 B( 15-C , 16-C ) :   1.6274 B( 16-C , 17-C ) :   1.1352
B( 16-C , 19-C ) :   1.1498 B( 17-C , 18-N ) :   2.9834 B( 19-C , 20-N ) :   2.9632
B( 21-C , 22-C ) :   1.2172 B( 21-C , 87-H ) :   0.9201 B( 22-C , 23-C ) :   1.4947
B( 22-C , 26-S ) :   1.0480 B( 23-C , 24-C ) :   1.1919 B( 23-C , 88-H ) :   0.9656
B( 24-C , 25-C ) :   1.2961 B( 24-C , 32-C ) :   1.1817 B( 25-C , 26-S ) :   1.0629
B( 25-C , 27-C ) :   1.4097 B( 27-C , 28-O ) :   1.2604 B( 27-C , 30-C ) :   1.2093
B( 28-O , 29-C ) :   0.9462 B( 29-C , 89-H ) :   0.9738 B( 29-C , 90-H ) :   0.9686
B( 29-C , 91-H ) :   0.9691 B( 30-C , 31-C ) :   1.3159 B( 30-C , 37-C ) :   1.1453
B( 31-C , 32-C ) :   1.4251 B( 31-C , 35-S ) :   1.0388 B( 32-C , 33-O ) :   1.2809
B( 33-O , 34-C ) :   0.9360 B( 34-C , 92-H ) :   0.9722 B( 34-C , 93-H ) :   0.9689
B( 34-C , 94-H ) :   0.9684 B( 35-S , 36-C ) :   1.0616 B( 36-C , 37-C ) :   1.5989
B( 36-C , 38-C ) :   1.1083 B( 37-C , 95-H ) :   0.9966 B( 38-C , 39-C ) :   1.4892
B( 38-C , 43-C ) :   0.1368 B( 38-C , 44-S ) :   1.1038 B( 39-C , 40-F ) :   1.1337
B( 39-C , 41-C ) :   1.2136 B( 41-C , 42-F ) :   1.1523 B( 41-C , 43-C ) :   1.4659
B( 43-C , 44-S ) :   1.1092 B( 43-C , 45-C ) :   1.1591 B( 45-C , 46-C ) :   1.5251
B( 45-C , 49-S ) :   1.0637 B( 46-C , 47-C ) :   1.1981 B( 46-C , 96-H ) :   1.0022
B( 47-C , 48-C ) :   1.3133 B( 47-C , 53-C ) :   0.1015 B( 47-C , 55-C ) :   1.2946
B( 48-C , 49-S ) :   0.9934 B( 48-C , 50-C ) :   1.3787 B( 50-C , 51-O ) :   1.2318
B( 50-C , 53-C ) :   1.2815 B( 51-O , 52-C ) :   0.9391 B( 52-C , 97-H ) :   0.9760
B( 52-C , 98-H ) :   0.9685 B( 52-C , 99-H ) :   0.9665 B( 53-C , 54-C ) :   1.3025
B( 53-C , 60-C ) :   1.2471 B( 54-C , 55-C ) :   1.3722 B( 54-C , 58-S ) :   1.0197
B( 55-C , 56-O ) :   1.2242 B( 56-O , 57-C ) :   0.9428 B( 57-C ,100-H ) :   0.9763
B( 57-C ,101-H ) :   0.9689 B( 57-C ,102-H ) :   0.9668 B( 58-S , 59-C ) :   1.0449
B( 59-C , 60-C ) :   1.4710 B( 59-C , 61-C ) :   1.1251 B( 60-C ,103-H ) :   0.9960
B( 61-C , 62-C ) :   1.6580 B( 61-C ,104-H ) :   0.9288 B( 62-C , 63-C ) :   0.9452
B( 62-C , 77-C ) :   1.0452 B( 63-C , 64-O ) :   2.2679 B( 63-C , 65-C ) :   0.9164
B( 65-C , 66-C ) :   1.4763 B( 65-C , 76-C ) :   1.2230 B( 66-C , 67-C ) :   1.1924
B( 66-C ,105-H ) :   1.0156 B( 67-C , 68-C ) :   1.2589 B( 67-C , 72-C ) :   1.1924
B( 68-C , 69-C ) :   1.1894 B( 68-C , 75-C ) :   1.2147 B( 69-C , 70-C ) :   1.4418
B( 69-C , 72-C ) :   0.1089 B( 69-C ,106-H ) :   1.0066 B( 70-C , 71-C ) :   1.1932
B( 70-C , 74-F ) :   1.1346 B( 71-C , 72-C ) :   1.4439 B( 71-C , 73-F ) :   1.1313
B( 72-C ,107-H ) :   1.0067 B( 75-C , 76-C ) :   1.4566 B( 75-C ,108-H ) :   0.9927
B( 76-C , 77-C ) :   0.9959 B( 77-C , 78-C ) :   1.6435 B( 78-C , 79-C ) :   1.1680
B( 78-C , 81-C ) :   1.1329 B( 79-C , 80-N ) :   3.0029 B( 81-C , 82-N ) :   2.9808

-----------------------------------------------------------------------------
         ABSORPTION SPECTRUM VIA TRANSITION ELECTRIC DIPOLE MOMENTS
-----------------------------------------------------------------------------
State   Energy  Wavelength   fosc         T2         TX        TY        TZ
        (cm-1)    (nm)                  (au**2)     (au)      (au)      (au)
-----------------------------------------------------------------------------
   0   14082.4    710.1   0.711085655  16.62339   2.15175   0.81908   3.36489
   1   15583.1    641.7   0.403022941   8.51432  -2.30961   0.18216  -1.77394
   2   20897.2    478.5   0.737940695  11.62540   2.57381   0.14178   2.23177
   3   22437.7    445.7   0.554703843   8.13877   2.09084   0.66857   1.82213
   4   23359.9    428.1   0.296141543   4.17353  -1.86879  -0.62603   0.53782
   5   24134.3    414.3   0.137181984   1.87128   0.53268  -0.04428   1.25919
   6   24289.5    411.7   0.272301197   3.69068  -1.82637   0.36940  -0.46752
   7   24642.5    405.8   0.145495122   1.94374  -0.87602  -0.76115  -0.77265
   8   26202.4    381.6   0.217875065   2.73743   0.69391   0.05939   1.50080
   9   27180.9    367.9   0.040825323   0.49447   0.48770   0.29590   0.41117
  10   27642.2    361.8   0.269703937   3.21211  -1.61911   0.31759  -0.69980
  11   28079.9    356.1   0.059096978   0.69286   0.19870   0.14639   0.79495
  12   28930.5    345.7   0.085728759   0.97554   0.76026   0.30906  -0.54957
  13   29096.4    343.7   0.014105124   0.15959   0.23105  -0.26624   0.18794
  14   29300.4    341.3   0.020438139   0.22964  -0.36365  -0.27082   0.15509
  15   29718.3    336.5   0.006414227   0.07106   0.01339   0.26234  -0.04533
  16   29928.9    334.1   0.011882070   0.13070  -0.27806   0.22122  -0.06666
  17   30294.8    330.1   0.033583175   0.36495  -0.56041   0.00953  -0.22538
  18   30913.5    323.5   0.150171961   1.59925  -1.13229  -0.01035   0.56308
  19   31695.1    315.5   0.165778405   1.72191   1.02524   0.17001   0.80118
  20   31905.4    313.4   0.220321712   2.27336   1.48497   0.13669   0.22255
  21   32554.1    307.2   0.387665894   3.92038   0.83097  -0.24073  -1.78099
  22   32868.9    304.2   0.213663532   2.14003  -1.19467  -0.09304  -0.83913
  23   33498.6    298.5   0.234059710   2.30025  -1.37100   0.17358  -0.62488
  24   33731.1    296.5   0.013141329   0.12826  -0.13047   0.00316   0.33351
  25   33978.9    294.3   0.171781106   1.66434  -0.87724   0.31699  -0.89123
  26   34552.1    289.4   0.124051166   1.18196  -0.75918   0.05036  -0.77657
  27   34784.0    287.5   0.073284951   0.69360   0.52754  -0.10302  -0.63615
  28   34826.1    287.1   0.230419725   2.17816   0.30530  -0.28296  -1.41594
  29   35138.9    284.6   0.473370750   4.43495   2.01131  -0.08985  -0.61766
  30   35534.7    281.4   0.133724502   1.23889  -0.04682  -0.15543  -1.10116
  31   35852.4    278.9   0.338946641   3.11235  -1.42324   0.05584  -1.04097
  32   36115.8    276.9   0.109004091   0.99362  -0.97838   0.07806   0.17410
  33   36453.0    274.3   0.118783520   1.07275  -0.10752   0.15669  -1.01815
  34   37338.8    267.8   0.049006537   0.43209   0.29439  -0.14873   0.56859
  35   37541.3    266.4   0.035106787   0.30786   0.53625   0.11012  -0.09041
  36   37701.9    265.2   0.000975155   0.00852   0.02104   0.07524  -0.04911
  37   38035.5    262.9   0.003679446   0.03185   0.01875   0.09677   0.14876
  38   38401.7    260.4   0.063939058   0.54814   0.73991   0.01893  -0.01786
  39   38575.8    259.2   0.167725326   1.43140   0.78008   0.15657   0.89351
  40   38803.1    257.7   0.003779702   0.03207  -0.05834  -0.13637   0.10033
  41   38910.1    257.0   0.011514341   0.09742   0.29210   0.05341  -0.09615
  42   39061.9    256.0   0.114005547   0.96083  -0.89808  -0.24823  -0.30441
  43   39441.9    253.5   0.048502924   0.40484   0.18505   0.07166   0.60454
  44   39641.1    252.3   0.020000767   0.16610   0.32553   0.20575  -0.13341
  45   39662.1    252.1   0.011735752   0.09741   0.13197  -0.05779   0.27687
  46   39739.9    251.6   0.131470565   1.08912  -0.15325   0.34766  -0.97199
  47   39925.9    250.5   0.082214197   0.67790  -0.67512   0.27260  -0.38446

FINAL SINGLE POINT ENERGY     -5633.472588617043

DIPOLE MOMENT
-------------
                                X             Y             Z
Electronic contribution:      2.50275      10.15497       1.88474
Nuclear contribution   :     -1.80897     -11.18246      -0.05160
                        -----------------------------------------
Total Dipole Moment    :      0.69378      -1.02749       1.83314
                        -----------------------------------------
Magnitude (a.u.)       :      2.21302
Magnitude (Debye)      :      5.62505

Rotational constants in cm-1:     0.001707     0.000123     0.000116
Rotational constants in MHz :    51.173282     3.674446     3.490619

                             ****ORCA TERMINATED NORMALLY****
TOTAL RUN TIME: 0 days 0 hours 11 minutes 29 seconds 244 msec
