                         Program Version 4.2.0 -  RELEASE  -
|  1> # ORCA input file
|  2> # SCF done       -185.174073485660          0.000506461943
|  3> ! CAM-B3LYP def2-SVP def2/J RIJCOSX Grid4 TightSCF
|  4> %maxcore 5000
|  5> %tddft
|  6>     Mode sTDDFT
|  7>     Ethresh 5.0
|  8>     maxcore 5000
|  9> end
| 10>
| 11> %pal
| 12>   nprocs 6
| 13>   end
| 14> * xyz 0 1
| 15>    C       -2.20653         1.27263         6.69517
| 16>    C       -1.99094         1.36365         8.04182
| 17>    F       -1.69960         2.54527         8.59851
| 18>    C       -2.07173         0.21893         8.86049
| 19>    F       -1.85597         0.33791        10.17644
| 20>    C       -2.36609        -1.00170         8.32045
| 21>    C       -2.59253        -1.12778         6.93616
| 22>    C       -2.51288         0.02883         6.10736
| 23>    C       -2.73863        -0.07239         4.71538
| 24>    C       -3.03363        -1.29321         4.16723
| 25>    C       -3.10458        -2.44267         5.00311
| 26>    C       -2.89460        -2.37682         6.35049
| 27>    C       -3.41828        -3.62106         4.17906
| 28>    O       -3.55753        -4.76319         4.57582
| 29>    C       -3.52006        -3.13796         2.79367
| 30>    C       -3.31092        -1.69902         2.79105
| 31>    C       -3.37924        -0.85047         1.71800
| 32>    C       -3.66966        -1.22070         0.38740
| 33>    N       -3.90167        -1.44077        -0.71560
| 34>    C       -3.17592         0.54438         1.80139
| 35>    N       -3.02249         1.68162         1.80236
| 36>    C       -3.74365        -3.91819         1.69219
| 37>    C       -3.96141        -5.30468         1.58148
| 38>    C       -4.15440        -5.90888         0.33847
| 39>    C       -4.36578        -7.27193         0.44830
| 40>    C       -4.34253        -7.73508         1.77578
| 41>    S       -4.04327        -6.46416         2.90053
| 42>    C       -4.56631        -9.10960         1.88407
| 43>    C       -4.75809        -9.69708         0.65305
| 44>    S       -4.66302        -8.55702        -0.67140
| 45>    C       -5.02516       -11.08596         0.40086
| 46>    C       -5.18734       -11.61734        -0.83953
| 47>    C       -5.46046       -13.01100        -1.00379
| 48>    C       -5.61648       -13.59292        -2.24869
| 49>    C       -5.87987       -14.96511        -2.39242
| 50>    N       -6.09176       -16.08908        -2.49758
| 51>    C       -5.51361       -12.84471        -3.43287
| 52>    N       -5.42632       -12.22602        -4.39658
| 53>    C       -5.56221       -13.76426         0.20736
| 54>    C       -5.38560       -13.16238         1.41245
| 55>    O       -5.10751       -11.83674         1.53274
| 56>    C       -5.47086       -13.84850         2.67244
| 57>    C       -5.24596       -13.30734         3.91952
| 58>    C       -5.42809       -14.25630         4.92592
| 59>    C       -5.79040       -15.52482         4.45275
| 60>    S       -5.90738       -15.54007         2.73177
| 61>    C       -5.96021       -16.47549         5.45756
| 62>    C       -5.77297       -15.93698         6.71511
| 63>    S       -5.31465       -14.23943         6.64397
| 64>    C       -5.83357       -16.65763         7.93612
| 65>    C       -5.99355       -16.19259         9.20111
| 66>    C       -5.56886       -17.03669        10.35621
| 67>    O       -5.31791       -18.21751        10.33438
| 68>    C       -5.46087       -16.09978        11.49285
| 69>    C       -4.98630       -16.33086        12.75210
| 70>    C       -4.94825       -15.26443        13.67804
| 71>    C       -5.39916       -13.97239        13.27802
| 72>    C       -5.34787       -12.91143        14.20440
| 73>    C       -4.87540       -13.12342        15.46907
| 74>    C       -4.43307       -14.40228        15.86485
| 75>    C       -4.46842       -15.45109        14.98923
| 76>    F       -3.97482       -14.58040        17.11008
| 77>    F       -4.82718       -12.11444        16.34720
| 78>    C       -5.89487       -13.76465        11.97078
| 79>    C       -5.93107       -14.81525        11.09378
| 80>    C       -6.41948       -14.90864         9.72178
| 81>    C       -7.34338       -14.07690         9.14905
| 82>    C       -8.00660       -14.37934         7.94071
| 83>    N       -8.59534       -14.62362         6.98652
| 84>    C       -7.79727       -12.88351         9.74692
| 85>    N       -8.17733       -11.89504        10.18843
| 86>    H       -2.14145         2.15881         6.08355
| 87>    H       -2.42412        -1.86822         8.96016
| 88>    H       -2.66933         0.82225         4.11867
| 89>    H       -2.95681        -3.26586         6.95923
| 90>    H       -3.75636        -3.41676         0.73201
| 91>    H       -4.14003        -5.35992        -0.58550
| 92>    H       -4.59104        -9.65512         2.80852
| 93>    H       -5.11020       -10.98457        -1.70965
| 94>    H       -5.77938       -14.81973         0.15979
| 95>    H       -4.96970       -12.28257         4.08070
| 96>    H       -6.24113       -17.49899         5.29198
| 97>    H       -5.65073       -17.72522         7.85412
| 98>    H       -4.64398       -17.31367        13.03813
| 99>    H       -5.68658       -11.92770        13.91927
|100>    H       -4.12609       -16.42325        15.30755
|101>    H       -6.22438       -12.77704        11.68934
|102> *
|103>
|104>                          ****END OF INPUT****

CARTESIAN COORDINATES (ANGSTROEM)
---------------------------------
  C     -2.206530    1.272630    6.695170
  C     -1.990940    1.363650    8.041820
  F     -1.699600    2.545270    8.598510
  C     -2.071730    0.218930    8.860490
  F     -1.855970    0.337910   10.176440
  C     -2.366090   -1.001700    8.320450
  C     -2.592530   -1.127780    6.936160
  C     -2.512880    0.028830    6.107360
  C     -2.738630   -0.072390    4.715380
  C     -3.033630   -1.293210    4.167230
  C     -3.104580   -2.442670    5.003110
  C     -2.894600   -2.376820    6.350490
  C     -3.418280   -3.621060    4.179060
  O     -3.557530   -4.763190    4.575820
  C     -3.520060   -3.137960    2.793670
  C     -3.310920   -1.699020    2.791050
  C     -3.379240   -0.850470    1.718000
  C     -3.669660   -1.220700    0.387400
  N     -3.901670   -1.440770   -0.715600
  C     -3.175920    0.544380    1.801390
  N     -3.022490    1.681620    1.802360
  C     -3.743650   -3.918190    1.692190
  C     -3.961410   -5.304680    1.581480
  C     -4.154400   -5.908880    0.338470
  C     -4.365780   -7.271930    0.448300
  C     -4.342530   -7.735080    1.775780
  S     -4.043270   -6.464160    2.900530
  C     -4.566310   -9.109600    1.884070
  C     -4.758090   -9.697080    0.653050
  S     -4.663020   -8.557020   -0.671400
  C     -5.025160  -11.085960    0.400860
  C     -5.187340  -11.617340   -0.839530
  C     -5.460460  -13.011000   -1.003790
  C     -5.616480  -13.592920   -2.248690
  C     -5.879870  -14.965110   -2.392420
  N     -6.091760  -16.089080   -2.497580
  C     -5.513610  -12.844710   -3.432870
  N     -5.426320  -12.226020   -4.396580
  C     -5.562210  -13.764260    0.207360
  C     -5.385600  -13.162380    1.412450
  O     -5.107510  -11.836740    1.532740
  C     -5.470860  -13.848500    2.672440
  C     -5.245960  -13.307340    3.919520
  C     -5.428090  -14.256300    4.925920
  C     -5.790400  -15.524820    4.452750
  S     -5.907380  -15.540070    2.731770
  C     -5.960210  -16.475490    5.457560
  C     -5.772970  -15.936980    6.715110
  S     -5.314650  -14.239430    6.643970
  C     -5.833570  -16.657630    7.936120
  C     -5.993550  -16.192590    9.201110
  C     -5.568860  -17.036690   10.356210
  O     -5.317910  -18.217510   10.334380
  C     -5.460870  -16.099780   11.492850
  C     -4.986300  -16.330860   12.752100
  C     -4.948250  -15.264430   13.678040
  C     -5.399160  -13.972390   13.278020
  C     -5.347870  -12.911430   14.204400
  C     -4.875400  -13.123420   15.469070
  C     -4.433070  -14.402280   15.864850
  C     -4.468420  -15.451090   14.989230
  F     -3.974820  -14.580400   17.110080
  F     -4.827180  -12.114440   16.347200
  C     -5.894870  -13.764650   11.970780
  C     -5.931070  -14.815250   11.093780
  C     -6.419480  -14.908640    9.721780
  C     -7.343380  -14.076900    9.149050
  C     -8.006600  -14.379340    7.940710
  N     -8.595340  -14.623620    6.986520
  C     -7.797270  -12.883510    9.746920
  N     -8.177330  -11.895040   10.188430
  H     -2.141450    2.158810    6.083550
  H     -2.424120   -1.868220    8.960160
  H     -2.669330    0.822250    4.118670
  H     -2.956810   -3.265860    6.959230
  H     -3.756360   -3.416760    0.732010
  H     -4.140030   -5.359920   -0.585500
  H     -4.591040   -9.655120    2.808520
  H     -5.110200  -10.984570   -1.709650
  H     -5.779380  -14.819730    0.159790
  H     -4.969700  -12.282570    4.080700
  H     -6.241130  -17.498990    5.291980
  H     -5.650730  -17.725220    7.854120
  H     -4.643980  -17.313670   13.038130
  H     -5.686580  -11.927700   13.919270
  H     -4.126090  -16.423250   15.307550
  H     -6.224380  -12.777040   11.689340

 Total Charge           Charge          ....    0
 Multiplicity           Mult            ....    1
 Number of Electrons    NEL             ....  506
 Basis Dimension        Dim             .... 1090

ORBITAL ENERGIES
----------------

  NO   OCC          E(Eh)            E(eV)
   0   2.0000     -88.992259     -2421.6025
   1   2.0000     -88.988650     -2421.5043
   2   2.0000     -88.987597     -2421.4756
   3   2.0000     -88.981007     -2421.2963
   4   2.0000     -24.805962      -675.0045
   5   2.0000     -24.805540      -674.9931
   6   2.0000     -24.805480      -674.9914
   7   2.0000     -24.804355      -674.9608
   8   2.0000     -19.334922      -526.1300
   9   2.0000     -19.234964      -523.4100
  10   2.0000     -19.228092      -523.2230
  11   2.0000     -14.428748      -392.6262
  12   2.0000     -14.428517      -392.6199
  13   2.0000     -14.425102      -392.5270
  14   2.0000     -14.424592      -392.5131
  15   2.0000     -14.402764      -391.9191
  16   2.0000     -14.402536      -391.9129
  17   2.0000     -10.399889      -282.9954
  18   2.0000     -10.399631      -282.9883
  19   2.0000     -10.389711      -282.7184
  20   2.0000     -10.389383      -282.7095
  21   2.0000     -10.389173      -282.7038
  22   2.0000     -10.388348      -282.6813
  23   2.0000     -10.383120      -282.5391
  24   2.0000     -10.379855      -282.4502
  25   2.0000     -10.357657      -281.8462
  26   2.0000     -10.354920      -281.7717
  27   2.0000     -10.354009      -281.7469
  28   2.0000     -10.353260      -281.7265
  29   2.0000     -10.345104      -281.5046
  30   2.0000     -10.344915      -281.4994
  31   2.0000     -10.344540      -281.4892
  32   2.0000     -10.339489      -281.3518
  33   2.0000     -10.337824      -281.3065
  34   2.0000     -10.336355      -281.2665
  35   2.0000     -10.336255      -281.2638
  36   2.0000     -10.334075      -281.2045
  37   2.0000     -10.332757      -281.1686
  38   2.0000     -10.330954      -281.1196
  39   2.0000     -10.330624      -281.1106
  40   2.0000     -10.328542      -281.0539
  41   2.0000     -10.327352      -281.0215
  42   2.0000     -10.326918      -281.0097
  43   2.0000     -10.325858      -280.9809
  44   2.0000     -10.324189      -280.9355
  45   2.0000     -10.321297      -280.8568
  46   2.0000     -10.321052      -280.8501
  47   2.0000     -10.320181      -280.8264
  48   2.0000     -10.319653      -280.8120
  49   2.0000     -10.318974      -280.7935
  50   2.0000     -10.318895      -280.7914
  51   2.0000     -10.318660      -280.7850
  52   2.0000     -10.318573      -280.7827
  53   2.0000     -10.318137      -280.7708
  54   2.0000     -10.316890      -280.7368
  55   2.0000     -10.316373      -280.7228
  56   2.0000     -10.315839      -280.7082
  57   2.0000     -10.313656      -280.6489
  58   2.0000     -10.312982      -280.6305
  59   2.0000     -10.312865      -280.6273
  60   2.0000     -10.312725      -280.6235
  61   2.0000     -10.312288      -280.6116
  62   2.0000     -10.311217      -280.5825
  63   2.0000     -10.309545      -280.5370
  64   2.0000     -10.308904      -280.5195
  65   2.0000     -10.308869      -280.5186
  66   2.0000     -10.307846      -280.4907
  67   2.0000     -10.306085      -280.4428
  68   2.0000     -10.305837      -280.4361
  69   2.0000     -10.304639      -280.4035
  70   2.0000     -10.303087      -280.3613
  71   2.0000      -8.087253      -220.0653
  72   2.0000      -8.083668      -219.9678
  73   2.0000      -8.082468      -219.9351
  74   2.0000      -8.074123      -219.7081
  75   2.0000      -6.056837      -164.8149
  76   2.0000      -6.053303      -164.7188
  77   2.0000      -6.052770      -164.7042
  78   2.0000      -6.052046      -164.6845
  79   2.0000      -6.049248      -164.6084
  80   2.0000      -6.048715      -164.5939
  81   2.0000      -6.047987      -164.5741
  82   2.0000      -6.045013      -164.4932
  83   2.0000      -6.043952      -164.4643
  84   2.0000      -6.043789      -164.4599
  85   2.0000      -6.039263      -164.3367
  86   2.0000      -6.035837      -164.2435
  87   2.0000      -1.329052       -36.1653
  88   2.0000      -1.328241       -36.1433
  89   2.0000      -1.314156       -35.7600
  90   2.0000      -1.313319       -35.7372
  91   2.0000      -1.244424       -33.8625
  92   2.0000      -1.150901       -31.3176
  93   2.0000      -1.144104       -31.1327
  94   2.0000      -1.042514       -28.3683
  95   2.0000      -1.036322       -28.1997
  96   2.0000      -1.031221       -28.0610
  97   2.0000      -1.030577       -28.0434
  98   2.0000      -1.014445       -27.6044
  99   2.0000      -1.014295       -27.6004
 100   2.0000      -1.005855       -27.3707
 101   2.0000      -1.004945       -27.3459
 102   2.0000      -1.004128       -27.3237
 103   2.0000      -0.994361       -27.0579
 104   2.0000      -0.992392       -27.0044
 105   2.0000      -0.988110       -26.8878
 106   2.0000      -0.981683       -26.7130
 107   2.0000      -0.979430       -26.6517
 108   2.0000      -0.966077       -26.2883
 109   2.0000      -0.945346       -25.7242
 110   2.0000      -0.941269       -25.6132
 111   2.0000      -0.934698       -25.4344
 112   2.0000      -0.916818       -24.9479
 113   2.0000      -0.913078       -24.8461
 114   2.0000      -0.902775       -24.5658
 115   2.0000      -0.901398       -24.5283
 116   2.0000      -0.895555       -24.3693
 117   2.0000      -0.893578       -24.3155
 118   2.0000      -0.888366       -24.1737
 119   2.0000      -0.883100       -24.0304
 120   2.0000      -0.882225       -24.0066
 121   2.0000      -0.850411       -23.1409
 122   2.0000      -0.849622       -23.1194
 123   2.0000      -0.845008       -22.9938
 124   2.0000      -0.838852       -22.8263
 125   2.0000      -0.831770       -22.6336
 126   2.0000      -0.829215       -22.5641
 127   2.0000      -0.811905       -22.0931
 128   2.0000      -0.807150       -21.9637
 129   2.0000      -0.781936       -21.2776
 130   2.0000      -0.778983       -21.1972
 131   2.0000      -0.776374       -21.1262
 132   2.0000      -0.768668       -20.9165
 133   2.0000      -0.747055       -20.3284
 134   2.0000      -0.745410       -20.2836
 135   2.0000      -0.730086       -19.8667
 136   2.0000      -0.728083       -19.8121
 137   2.0000      -0.724912       -19.7259
 138   2.0000      -0.719201       -19.5705
 139   2.0000      -0.701680       -19.0937
 140   2.0000      -0.697642       -18.9838
 141   2.0000      -0.695500       -18.9255
 142   2.0000      -0.693123       -18.8608
 143   2.0000      -0.682716       -18.5776
 144   2.0000      -0.680500       -18.5174
 145   2.0000      -0.677325       -18.4310
 146   2.0000      -0.668360       -18.1870
 147   2.0000      -0.664568       -18.0838
 148   2.0000      -0.660268       -17.9668
 149   2.0000      -0.653922       -17.7941
 150   2.0000      -0.652308       -17.7502
 151   2.0000      -0.650504       -17.7011
 152   2.0000      -0.642684       -17.4883
 153   2.0000      -0.638974       -17.3874
 154   2.0000      -0.631937       -17.1959
 155   2.0000      -0.625681       -17.0256
 156   2.0000      -0.623361       -16.9625
 157   2.0000      -0.609833       -16.5944
 158   2.0000      -0.608460       -16.5570
 159   2.0000      -0.604449       -16.4479
 160   2.0000      -0.600827       -16.3493
 161   2.0000      -0.600119       -16.3301
 162   2.0000      -0.598179       -16.2773
 163   2.0000      -0.596204       -16.2235
 164   2.0000      -0.593466       -16.1490
 165   2.0000      -0.592608       -16.1257
 166   2.0000      -0.590936       -16.0802
 167   2.0000      -0.585981       -15.9454
 168   2.0000      -0.584861       -15.9149
 169   2.0000      -0.583225       -15.8704
 170   2.0000      -0.564758       -15.3679
 171   2.0000      -0.564261       -15.3543
 172   2.0000      -0.560458       -15.2508
 173   2.0000      -0.559099       -15.2138
 174   2.0000      -0.554893       -15.0994
 175   2.0000      -0.553993       -15.0749
 176   2.0000      -0.553237       -15.0543
 177   2.0000      -0.548754       -14.9323
 178   2.0000      -0.545241       -14.8367
 179   2.0000      -0.543843       -14.7987
 180   2.0000      -0.540328       -14.7031
 181   2.0000      -0.539662       -14.6849
 182   2.0000      -0.539033       -14.6678
 183   2.0000      -0.537163       -14.6169
 184   2.0000      -0.535285       -14.5658
 185   2.0000      -0.529398       -14.4057
 186   2.0000      -0.525594       -14.3021
 187   2.0000      -0.525293       -14.2940
 188   2.0000      -0.519728       -14.1425
 189   2.0000      -0.517485       -14.0815
 190   2.0000      -0.512173       -13.9369
 191   2.0000      -0.511606       -13.9215
 192   2.0000      -0.510165       -13.8823
 193   2.0000      -0.508771       -13.8444
 194   2.0000      -0.503817       -13.7096
 195   2.0000      -0.503055       -13.6888
 196   2.0000      -0.500875       -13.6295
 197   2.0000      -0.498541       -13.5660
 198   2.0000      -0.497515       -13.5381
 199   2.0000      -0.495181       -13.4746
 200   2.0000      -0.493232       -13.4215
 201   2.0000      -0.488959       -13.3053
 202   2.0000      -0.481889       -13.1129
 203   2.0000      -0.479591       -13.0503
 204   2.0000      -0.478814       -13.0292
 205   2.0000      -0.475498       -12.9389
 206   2.0000      -0.472679       -12.8623
 207   2.0000      -0.472160       -12.8481
 208   2.0000      -0.465763       -12.6741
 209   2.0000      -0.463311       -12.6073
 210   2.0000      -0.460908       -12.5420
 211   2.0000      -0.459340       -12.4993
 212   2.0000      -0.458961       -12.4890
 213   2.0000      -0.455466       -12.3939
 214   2.0000      -0.454892       -12.3782
 215   2.0000      -0.453451       -12.3390
 216   2.0000      -0.453384       -12.3372
 217   2.0000      -0.442646       -12.0450
 218   2.0000      -0.441678       -12.0187
 219   2.0000      -0.438934       -11.9440
 220   2.0000      -0.438541       -11.9333
 221   2.0000      -0.437897       -11.9158
 222   2.0000      -0.437012       -11.8917
 223   2.0000      -0.436163       -11.8686
 224   2.0000      -0.433728       -11.8023
 225   2.0000      -0.432973       -11.7818
 226   2.0000      -0.427252       -11.6261
 227   2.0000      -0.424408       -11.5487
 228   2.0000      -0.422036       -11.4842
 229   2.0000      -0.419888       -11.4257
 230   2.0000      -0.417289       -11.3550
 231   2.0000      -0.416443       -11.3320
 232   2.0000      -0.415641       -11.3102
 233   2.0000      -0.406693       -11.0667
 234   2.0000      -0.404128       -10.9969
 235   2.0000      -0.398520       -10.8443
 236   2.0000      -0.396036       -10.7767
 237   2.0000      -0.393855       -10.7173
 238   2.0000      -0.387951       -10.5567
 239   2.0000      -0.383540       -10.4366
 240   2.0000      -0.366256        -9.9663
 241   2.0000      -0.353048        -9.6069
 242   2.0000      -0.349110        -9.4998
 243   2.0000      -0.345084        -9.3902
 244   2.0000      -0.327981        -8.9248
 245   2.0000      -0.327352        -8.9077
 246   2.0000      -0.323493        -8.8027
 247   2.0000      -0.320753        -8.7281
 248   2.0000      -0.312682        -8.5085
 249   2.0000      -0.310464        -8.4482
 250   2.0000      -0.304996        -8.2994
 251   2.0000      -0.285373        -7.7654
 252   2.0000      -0.277491        -7.5509
 253   0.0000      -0.115693        -3.1482
 254   0.0000      -0.111486        -3.0337
 255   0.0000      -0.078148        -2.1265
 256   0.0000      -0.072455        -1.9716
 257   0.0000      -0.065451        -1.7810

MULLIKEN ATOMIC CHARGES
-----------------------
   0 C :   -0.109363
   1 C :    0.243135
   2 F :   -0.168242
   3 C :    0.241739
   4 F :   -0.169626
   5 C :   -0.106020
   6 C :    0.117966
   7 C :    0.114383
   8 C :   -0.083061
   9 C :    0.048149
  10 C :   -0.003100
  11 C :   -0.080318
  12 C :    0.169315
  13 O :   -0.174712
  14 C :   -0.088646
  15 C :    0.331891
  16 C :   -0.348948
  17 C :   -0.186898
  18 N :    0.150942
  19 C :   -0.183254
  20 N :    0.151293
  21 C :   -0.018878
  22 C :   -0.063094
  23 C :   -0.043907
  24 C :    0.022368
  25 C :    0.007878
  26 S :    0.211429
  27 C :   -0.027218
  28 C :   -0.092705
  29 S :    0.170016
  30 C :    0.272028
  31 C :   -0.176533
  32 C :    0.292757
  33 C :   -0.341142
  34 C :   -0.177323
  35 N :    0.133600
  36 C :   -0.176278
  37 N :    0.132817
  38 C :   -0.177781
  39 C :    0.272871
  40 O :   -0.236511
  41 C :   -0.100566
  42 C :   -0.015812
  43 C :   -0.002040
  44 C :    0.001510
  45 S :    0.177156
  46 C :    0.025224
  47 C :   -0.104690
  48 S :    0.167381
  49 C :    0.054139
  50 C :   -0.130012
  51 C :    0.142621
  52 O :   -0.133932
  53 C :    0.010444
  54 C :   -0.081178
  55 C :    0.113230
  56 C :    0.114224
  57 C :   -0.106552
  58 C :    0.243184
  59 C :    0.239458
  60 C :   -0.102596
  61 F :   -0.169390
  62 F :   -0.169179
  63 C :   -0.082036
  64 C :    0.042749
  65 C :    0.241751
  66 C :   -0.315627
  67 C :   -0.206865
  68 N :    0.178025
  69 C :   -0.173064
  70 N :    0.160144
  71 H :    0.010383
  72 H :    0.000386
  73 H :   -0.005524
  74 H :   -0.009473
  75 H :    0.013392
  76 H :    0.016401
  77 H :   -0.006598
  78 H :    0.038764
  79 H :    0.038212
  80 H :   -0.004318
  81 H :    0.007722
  82 H :    0.033212
  83 H :   -0.006208
  84 H :    0.005818
  85 H :    0.001744
  86 H :   -0.002629
Sum of atomic charges:   -0.0000000

LOEWDIN ATOMIC CHARGES
----------------------
   0 C :   -0.028296
   1 C :    0.067918
   2 F :   -0.046249
   3 C :    0.068960
   4 F :   -0.047146
   5 C :   -0.032776
   6 C :   -0.008470
   7 C :   -0.005760
   8 C :    0.019873
   9 C :   -0.022947
  10 C :   -0.053371
  11 C :    0.031965
  12 C :    0.085590
  13 O :   -0.162120
  14 C :   -0.101872
  15 C :    0.076291
  16 C :   -0.136701
  17 C :   -0.021310
  18 N :   -0.048339
  19 C :   -0.017215
  20 N :   -0.048856
  21 C :    0.059877
  22 C :   -0.171305
  23 C :   -0.023708
  24 C :   -0.195604
  25 C :   -0.194031
  26 S :    0.499107
  27 C :   -0.043122
  28 C :   -0.170068
  29 S :    0.447709
  30 C :    0.076169
  31 C :   -0.051125
  32 C :    0.053604
  33 C :   -0.171388
  34 C :   -0.030118
  35 N :   -0.065050
  36 C :   -0.030555
  37 N :   -0.064315
  38 C :   -0.053095
  39 C :    0.076548
  40 O :   -0.003733
  41 C :   -0.173704
  42 C :   -0.040533
  43 C :   -0.183605
  44 C :   -0.190423
  45 S :    0.461785
  46 C :   -0.018731
  47 C :   -0.164573
  48 S :    0.457911
  49 C :    0.051527
  50 C :   -0.089739
  51 C :    0.084116
  52 O :   -0.135778
  53 C :   -0.055158
  54 C :    0.033234
  55 C :   -0.008960
  56 C :   -0.004887
  57 C :   -0.030281
  58 C :    0.068520
  59 C :    0.068042
  60 C :   -0.031642
  61 F :   -0.047152
  62 F :   -0.046690
  63 C :    0.014470
  64 C :   -0.020277
  65 C :    0.059148
  66 C :   -0.134684
  67 C :   -0.035927
  68 N :   -0.042995
  69 C :   -0.019271
  70 N :   -0.045697
  71 H :    0.048681
  72 H :    0.045105
  73 H :    0.040560
  74 H :    0.040634
  75 H :    0.052299
  76 H :    0.044415
  77 H :    0.037148
  78 H :    0.043718
  79 H :    0.043272
  80 H :    0.038426
  81 H :    0.043609
  82 H :    0.054467
  83 H :    0.041816
  84 H :    0.047293
  85 H :    0.045695
  86 H :    0.039848

  Mayer bond orders larger than 0.100000
B(  0-C ,  1-C ) :   1.4396 B(  0-C ,  5-C ) :   0.1080 B(  0-C ,  7-C ) :   1.1887
B(  0-C , 71-H ) :   1.0076 B(  1-C ,  2-F ) :   1.1379 B(  1-C ,  3-C ) :   1.1895
B(  3-C ,  4-F ) :   1.1356 B(  3-C ,  5-C ) :   1.4423 B(  5-C ,  6-C ) :   1.1910
B(  5-C , 72-H ) :   1.0080 B(  6-C ,  7-C ) :   1.2558 B(  6-C , 11-C ) :   1.1890
B(  7-C ,  8-C ) :   1.2158 B(  8-C ,  9-C ) :   1.4499 B(  8-C , 73-H ) :   0.9904
B(  9-C , 10-C ) :   1.2219 B(  9-C , 15-C ) :   0.9840 B( 10-C , 11-C ) :   1.4648
B( 10-C , 12-C ) :   0.9598 B( 11-C , 74-H ) :   1.0178 B( 12-C , 13-O ) :   2.1387
B( 12-C , 14-C ) :   0.9689 B( 14-C , 15-C ) :   1.0710 B( 14-C , 21-C ) :   1.5210
B( 15-C , 16-C ) :   1.6322 B( 16-C , 17-C ) :   1.1415 B( 16-C , 19-C ) :   1.1474
B( 17-C , 18-N ) :   2.9585 B( 19-C , 20-N ) :   2.9607 B( 21-C , 22-C ) :   1.2480
B( 21-C , 75-H ) :   0.9392 B( 22-C , 23-C ) :   1.3895 B( 22-C , 26-S ) :   1.0897
B( 23-C , 24-C ) :   1.2967 B( 23-C , 76-H ) :   1.0138 B( 24-C , 25-C ) :   1.3592
B( 24-C , 29-S ) :   1.0594 B( 25-C , 26-S ) :   1.0552 B( 25-C , 27-C ) :   1.2330
B( 27-C , 28-C ) :   1.4966 B( 27-C , 77-H ) :   1.0152 B( 28-C , 29-S ) :   1.1125
B( 28-C , 30-C ) :   1.1043 B( 30-C , 31-C ) :   1.5610 B( 30-C , 40-O ) :   1.1345
B( 31-C , 32-C ) :   1.1295 B( 31-C , 78-H ) :   0.9598 B( 32-C , 33-C ) :   1.5525
B( 32-C , 38-C ) :   1.1322 B( 33-C , 34-C ) :   1.1319 B( 33-C , 36-C ) :   1.1314
B( 34-C , 35-N ) :   3.0050 B( 36-C , 37-N ) :   3.0056 B( 38-C , 39-C ) :   1.5614
B( 38-C , 79-H ) :   0.9584 B( 39-C , 40-O ) :   1.1361 B( 39-C , 41-C ) :   1.1047
B( 41-C , 42-C ) :   1.4907 B( 41-C , 45-S ) :   1.1219 B( 42-C , 43-C ) :   1.2475
B( 42-C , 80-H ) :   1.0130 B( 43-C , 44-C ) :   1.3980 B( 43-C , 48-S ) :   1.0851
B( 44-C , 45-S ) :   1.0726 B( 44-C , 46-C ) :   1.2657 B( 46-C , 47-C ) :   1.4688
B( 46-C , 81-H ) :   1.0053 B( 47-C , 48-S ) :   1.0991 B( 47-C , 49-C ) :   1.1228
B( 49-C , 50-C ) :   1.6741 B( 49-C , 82-H ) :   0.9459 B( 50-C , 51-C ) :   0.9313
B( 50-C , 65-C ) :   1.0243 B( 51-C , 52-O ) :   2.2803 B( 51-C , 53-C ) :   0.9203
B( 53-C , 54-C ) :   1.4725 B( 53-C , 64-C ) :   1.2210 B( 54-C , 55-C ) :   1.1977
B( 54-C , 83-H ) :   1.0164 B( 55-C , 56-C ) :   1.2555 B( 55-C , 60-C ) :   1.1924
B( 56-C , 57-C ) :   1.1894 B( 56-C , 63-C ) :   1.2156 B( 57-C , 58-C ) :   1.4427
B( 57-C , 60-C ) :   0.1081 B( 57-C , 84-H ) :   1.0069 B( 58-C , 59-C ) :   1.1896
B( 58-C , 62-F ) :   1.1359 B( 59-C , 60-C ) :   1.4449 B( 59-C , 61-F ) :   1.1358
B( 60-C , 85-H ) :   1.0069 B( 63-C , 64-C ) :   1.4549 B( 63-C , 86-H ) :   0.9950
B( 64-C , 65-C ) :   1.0028 B( 65-C , 66-C ) :   1.6713 B( 66-C , 67-C ) :   1.1504
B( 66-C , 69-C ) :   1.1345 B( 67-C , 68-N ) :   3.0277 B( 69-C , 70-N ) :   2.9902

-----------------------------------------------------------------------------
         ABSORPTION SPECTRUM VIA TRANSITION ELECTRIC DIPOLE MOMENTS
-----------------------------------------------------------------------------
State   Energy  Wavelength   fosc         T2         TX        TY        TZ
        (cm-1)    (nm)                  (au**2)     (au)      (au)      (au)
-----------------------------------------------------------------------------
   0   20588.6    485.7   1.002514975  16.03023   1.00703   3.16990  -2.22887
   1   21533.0    464.4   1.753681183  26.81155   0.38203   3.59304   3.70887
   2   24111.1    414.7   0.024465024   0.33404   0.07456   0.46568  -0.33410
   3   25092.6    398.5   0.054728746   0.71804  -0.22105   0.80771  -0.12951
   4   26579.4    376.2   0.123178171   1.52568  -0.52696  -0.24089  -1.09085
   5   26930.5    371.3   0.100419886   1.22758  -0.20699  -0.69646  -0.83647
   6   27751.0    360.3   0.046688051   0.55386  -0.04797  -0.15318  -0.72670
   7   27772.9    360.1   0.042072252   0.49871   0.09874   0.69836   0.03535
   8   28122.8    355.6   0.016892956   0.19775   0.11592  -0.38535  -0.18925
   9   28187.6    354.8   0.003023014   0.03531   0.07622   0.02852  -0.16936
  10   28485.7    351.1   0.062036614   0.71696  -0.01054  -0.83430  -0.14421
  11   29117.3    343.4   0.148035467   1.67375   0.31438  -0.10607   1.25046
  12   29495.0    339.0   0.025725550   0.28714  -0.34237   0.16541  -0.37757
  13   29911.4    334.3   0.019178070   0.21108   0.07708  -0.28493   0.35206
  14   30101.7    332.2   0.924769713  10.11390  -0.57610  -0.58094  -3.07319
  15   30924.3    323.4   0.262900039   2.79877  -0.19373   0.46651  -1.59487
  16   31416.7    318.3   0.115357184   1.20881  -0.01184   0.98932  -0.47951
  17   32626.0    306.5   0.013845560   0.13971  -0.32093  -0.09663  -0.16545
  18   33246.9    300.8   0.063419045   0.62798   0.28947   0.55104   0.49045
  19   33465.2    298.8   0.008571722   0.08432  -0.18608   0.21521  -0.05816
  20   33762.8    296.2   0.687426372   6.70292  -0.45875  -0.23157  -2.53749
  21   33807.2    295.8   0.219687982   2.13931   0.45728  -0.14166   1.38208
  22   33992.8    294.2   0.243926225   2.36237   0.79328  -0.40379   1.25301
  23   34337.4    291.2   0.001385521   0.01328   0.02638  -0.01059  -0.11169
  24   34874.2    286.7   0.247704521   2.33833  -0.59548  -0.26205  -1.38386
  25   35275.3    283.5   0.016515060   0.15413   0.07165  -0.38232   0.05317
  26   35418.5    282.3   0.023865738   0.22183  -0.00297   0.04127   0.46917
  27   35574.4    281.1   0.023741922   0.21971  -0.08096  -0.14750  -0.43750
  28   36799.9    271.7   0.099737313   0.89225   0.12098   0.92843  -0.12503
  29   37117.8    269.4   0.004846510   0.04299  -0.16979   0.08873  -0.07927
  30   37314.2    268.0   0.011185155   0.09868  -0.14523  -0.27150   0.06230
  31   37484.4    266.8   0.024495609   0.21514   0.04595  -0.05313  -0.45848
  32   37765.4    264.8   0.056757851   0.49478  -0.13035   0.61032  -0.32449
  33   37921.4    263.7   0.022163107   0.19241  -0.11012  -0.32025  -0.27878
  34   38251.1    261.4   0.164429108   1.41517  -0.05320   1.13565  -0.35021
  35   38535.8    259.5   0.072709662   0.62116  -0.04407  -0.61814  -0.48695
  36   38705.5    258.4   0.004330871   0.03684  -0.03018   0.18182  -0.05356
  37   38941.3    256.8   0.077017605   0.65111  -0.32632   0.11159  -0.72950
  38   39277.6    254.6   0.027862010   0.23353  -0.30325  -0.23393  -0.29470
  39   39559.4    252.8   0.014160394   0.11784   0.30018  -0.05733  -0.15636
  40   39689.3    252.0   0.060999346   0.50597  -0.18150  -0.37742   0.57496

FINAL SINGLE POINT ENERGY     -4609.366636195899

DIPOLE MOMENT
-------------
                                X             Y             Z
Electronic contribution:      4.06762      13.21644      22.46980
Nuclear contribution   :     -2.32822     -13.56610     -18.46034
                        -----------------------------------------
Total Dipole Moment    :      1.73940      -0.34966       4.00946
                        -----------------------------------------
Magnitude (a.u.)       :      4.38447
Magnitude (Debye)      :     11.14443

Rotational constants in cm-1:     0.000663     0.000385     0.000248
Rotational constants in MHz :    19.886774    11.531106     7.424266

                             ****ORCA TERMINATED NORMALLY****
TOTAL RUN TIME: 0 days 0 hours 8 minutes 11 seconds 915 msec
