                         Program Version 4.2.0 -  RELEASE  -
|  1> # ORCA input file
|  2> # SCF done       -226.131072334810          0.000902618208
|  3> ! CAM-B3LYP def2-SVP def2/J RIJCOSX Grid4 TightSCF
|  4> %maxcore 5000
|  5> %tddft
|  6>     Mode sTDDFT
|  7>     Ethresh 5.0
|  8>     maxcore 5000
|  9> end
| 10>
| 11> %pal
| 12>   nprocs 6
| 13>   end
| 14> * xyz 0 1
| 15>    C       -4.87051         0.14404        -4.93549
| 16>    C       -3.98003         0.25898        -5.96620
| 17>    F       -4.10691         1.24936        -6.85812
| 18>    C       -2.92037        -0.65999        -6.10485
| 19>    F       -2.06310        -0.52365        -7.12486
| 20>    C       -2.76613        -1.68199        -5.21037
| 21>    C       -3.66827        -1.82769        -4.13887
| 22>    C       -4.73978        -0.89896        -3.99681
| 23>    C       -5.65961        -1.02632        -2.93013
| 24>    C       -5.51537        -2.05353        -2.03523
| 25>    C       -4.44446        -2.97815        -2.18923
| 26>    C       -3.53741        -2.87873        -3.20436
| 27>    C       -4.52395        -3.98900        -1.12234
| 28>    O       -3.75058        -4.91350        -0.94447
| 29>    C       -5.71595        -3.65892        -0.33137
| 30>    C       -6.29955        -2.44078        -0.86372
| 31>    C       -7.37319        -1.74738        -0.36939
| 32>    C       -8.12272        -2.09387         0.77491
| 33>    N       -8.77788        -2.30234         1.69485
| 34>    C       -7.87506        -0.55869        -0.94170
| 35>    N       -8.33194         0.40776        -1.35946
| 36>    C       -6.21692        -4.41420         0.69765
| 37>    C       -5.74433        -5.61813         1.24500
| 38>    C       -6.43684        -6.29325         2.25136
| 39>    C       -5.83574        -7.47430         2.64282
| 40>   Cl       -6.49423        -8.50321         3.84859
| 41>    C       -4.64128        -7.74388         1.95886
| 42>    S       -4.29778        -6.48546         0.80735
| 43>    C       -3.80724        -8.86915         2.11283
| 44>    C       -2.59577        -9.13008         1.46561
| 45>   Cl       -1.88294        -8.05702         0.33816
| 46>    C       -2.01782       -10.34322         1.81323
| 47>    C       -2.77213       -11.05663         2.73167
| 48>    S       -4.21060       -10.19348         3.17872
| 49>    C       -2.49164       -12.33928         3.26394
| 50>    C       -3.39701       -12.96020         4.15794
| 51>    C       -3.20974       -14.28784         4.68941
| 52>    N       -4.13465       -14.79172         5.51927
| 53>    C       -5.18602       -14.07747         5.83884
| 54>    C       -5.37050       -12.75799         5.31369
| 55>    N       -4.47852       -12.25301         4.49867
| 56>    C       -6.50599       -11.98502         5.66038
| 57>    N       -7.43386       -11.38224         5.95564
| 58>    C       -6.15039       -14.63431         6.71736
| 59>    N       -6.94557       -15.06179         7.42166
| 60>    C       -2.07053       -15.05690         4.34603
| 61>    C       -1.14683       -14.41768         3.48849
| 62>    C       -1.34128       -13.09477         2.94744
| 63>    N       -0.32766       -12.73683         2.15761
| 64>    S        0.75011       -13.92233         2.10157
| 65>    N       -0.00369       -14.95825         3.06767
| 66>    C       -1.82888       -16.38591         4.78773
| 67>    C       -2.62929       -17.20671         5.56442
| 68>    C       -2.07768       -18.46521         5.76811
| 69>   Cl       -2.86268       -19.67915         6.68703
| 70>    C       -0.83134       -18.64801         5.16755
| 71>    S       -0.36191       -17.19838         4.32486
| 72>    C       -0.01799       -19.80076         5.19575
| 73>    C        1.27186       -19.96297         4.68865
| 74>   Cl        2.12394       -18.70820         3.89782
| 75>    C        1.80236       -21.23451         4.87717
| 76>    C        0.94735       -22.08919         5.55127
| 77>    S       -0.55366       -21.28428         5.91892
| 78>    C        1.18628       -23.46024         5.79853
| 79>    C        0.47437       -24.34755         6.54494
| 80>    C        0.60063       -25.80420         6.25321
| 81>    O        1.47864       -26.34374         5.62282
| 82>    C       -0.61282       -26.41437         6.83446
| 83>    C       -1.06187       -27.69912         6.72744
| 84>    C       -2.28715       -28.05118         7.33670
| 85>    C       -3.02782       -27.06036         8.04527
| 86>    C       -4.25573       -27.41671         8.63821
| 87>    C       -4.72476       -28.69628         8.53565
| 88>    C       -3.98983       -29.67606         7.83780
| 89>    C       -2.79621       -29.36177         7.25102
| 90>    F       -4.47408       -30.92198         7.75268
| 91>    F       -5.89202       -29.03269         9.09857
| 92>    C       -2.53142       -25.74080         8.15129
| 93>    C       -1.33867       -25.42500         7.55879
| 94>    C       -0.57401       -24.18142         7.52994
| 95>    C       -0.65731       -23.17813         8.45762
| 96>    C        0.31590       -22.16359         8.57811
| 97>    N        1.11579       -21.35653         8.73876
| 98>    C       -1.65897       -23.11106         9.44700
| 99>    N       -2.46821       -23.00931        10.25423
|100>    H       -5.67552         0.85643        -4.84425
|101>    H       -1.95034        -2.37757        -5.33022
|102>    H       -6.45917        -0.30766        -2.85411
|103>    H       -2.73473        -3.59462        -3.29488
|104>    H       -7.13160        -4.06742         1.16298
|105>    H       -7.35594        -5.92756         2.67247
|106>    H       -1.08864       -10.70688         1.41620
|107>    H       -3.57740       -16.89771         5.96145
|108>    H        2.78582       -21.51940         4.55116
|109>    H        2.00169       -23.89441         5.22721
|110>    H       -0.49217       -28.43662         6.18292
|111>    H       -4.82892       -26.68011         9.17918
|112>    H       -2.24616       -30.12285         6.72007
|113>    H       -3.11233       -25.00695         8.68720
|114> *
|115>
|116>                          ****END OF INPUT****

CARTESIAN COORDINATES (ANGSTROEM)
---------------------------------
  C     -4.870510    0.144040   -4.935490
  C     -3.980030    0.258980   -5.966200
  F     -4.106910    1.249360   -6.858120
  C     -2.920370   -0.659990   -6.104850
  F     -2.063100   -0.523650   -7.124860
  C     -2.766130   -1.681990   -5.210370
  C     -3.668270   -1.827690   -4.138870
  C     -4.739780   -0.898960   -3.996810
  C     -5.659610   -1.026320   -2.930130
  C     -5.515370   -2.053530   -2.035230
  C     -4.444460   -2.978150   -2.189230
  C     -3.537410   -2.878730   -3.204360
  C     -4.523950   -3.989000   -1.122340
  O     -3.750580   -4.913500   -0.944470
  C     -5.715950   -3.658920   -0.331370
  C     -6.299550   -2.440780   -0.863720
  C     -7.373190   -1.747380   -0.369390
  C     -8.122720   -2.093870    0.774910
  N     -8.777880   -2.302340    1.694850
  C     -7.875060   -0.558690   -0.941700
  N     -8.331940    0.407760   -1.359460
  C     -6.216920   -4.414200    0.697650
  C     -5.744330   -5.618130    1.245000
  C     -6.436840   -6.293250    2.251360
  C     -5.835740   -7.474300    2.642820
  Cl    -6.494230   -8.503210    3.848590
  C     -4.641280   -7.743880    1.958860
  S     -4.297780   -6.485460    0.807350
  C     -3.807240   -8.869150    2.112830
  C     -2.595770   -9.130080    1.465610
  Cl    -1.882940   -8.057020    0.338160
  C     -2.017820  -10.343220    1.813230
  C     -2.772130  -11.056630    2.731670
  S     -4.210600  -10.193480    3.178720
  C     -2.491640  -12.339280    3.263940
  C     -3.397010  -12.960200    4.157940
  C     -3.209740  -14.287840    4.689410
  N     -4.134650  -14.791720    5.519270
  C     -5.186020  -14.077470    5.838840
  C     -5.370500  -12.757990    5.313690
  N     -4.478520  -12.253010    4.498670
  C     -6.505990  -11.985020    5.660380
  N     -7.433860  -11.382240    5.955640
  C     -6.150390  -14.634310    6.717360
  N     -6.945570  -15.061790    7.421660
  C     -2.070530  -15.056900    4.346030
  C     -1.146830  -14.417680    3.488490
  C     -1.341280  -13.094770    2.947440
  N     -0.327660  -12.736830    2.157610
  S      0.750110  -13.922330    2.101570
  N     -0.003690  -14.958250    3.067670
  C     -1.828880  -16.385910    4.787730
  C     -2.629290  -17.206710    5.564420
  C     -2.077680  -18.465210    5.768110
  Cl    -2.862680  -19.679150    6.687030
  C     -0.831340  -18.648010    5.167550
  S     -0.361910  -17.198380    4.324860
  C     -0.017990  -19.800760    5.195750
  C      1.271860  -19.962970    4.688650
  Cl     2.123940  -18.708200    3.897820
  C      1.802360  -21.234510    4.877170
  C      0.947350  -22.089190    5.551270
  S     -0.553660  -21.284280    5.918920
  C      1.186280  -23.460240    5.798530
  C      0.474370  -24.347550    6.544940
  C      0.600630  -25.804200    6.253210
  O      1.478640  -26.343740    5.622820
  C     -0.612820  -26.414370    6.834460
  C     -1.061870  -27.699120    6.727440
  C     -2.287150  -28.051180    7.336700
  C     -3.027820  -27.060360    8.045270
  C     -4.255730  -27.416710    8.638210
  C     -4.724760  -28.696280    8.535650
  C     -3.989830  -29.676060    7.837800
  C     -2.796210  -29.361770    7.251020
  F     -4.474080  -30.921980    7.752680
  F     -5.892020  -29.032690    9.098570
  C     -2.531420  -25.740800    8.151290
  C     -1.338670  -25.425000    7.558790
  C     -0.574010  -24.181420    7.529940
  C     -0.657310  -23.178130    8.457620
  C      0.315900  -22.163590    8.578110
  N      1.115790  -21.356530    8.738760
  C     -1.658970  -23.111060    9.447000
  N     -2.468210  -23.009310   10.254230
  H     -5.675520    0.856430   -4.844250
  H     -1.950340   -2.377570   -5.330220
  H     -6.459170   -0.307660   -2.854110
  H     -2.734730   -3.594620   -3.294880
  H     -7.131600   -4.067420    1.162980
  H     -7.355940   -5.927560    2.672470
  H     -1.088640  -10.706880    1.416200
  H     -3.577400  -16.897710    5.961450
  H      2.785820  -21.519400    4.551160
  H      2.001690  -23.894410    5.227210
  H     -0.492170  -28.436620    6.182920
  H     -4.828920  -26.680110    9.179180
  H     -2.246160  -30.122850    6.720070
  H     -3.112330  -25.006950    8.687200

 Total Charge           Charge          ....    0
 Multiplicity           Mult            ....    1
 Number of Electrons    NEL             ....  644
 Basis Dimension        Dim             .... 1296

ORBITAL ENERGIES
----------------

  NO   OCC          E(Eh)            E(eV)
   0   2.0000    -101.611256     -2764.9828
   1   2.0000    -101.608313     -2764.9028
   2   2.0000    -101.604434     -2764.7972
   3   2.0000    -101.603236     -2764.7646
   4   2.0000     -89.065523     -2423.5961
   5   2.0000     -88.981734     -2421.3161
   6   2.0000     -88.976439     -2421.1720
   7   2.0000     -88.974531     -2421.1201
   8   2.0000     -88.973863     -2421.1019
   9   2.0000     -24.801477      -674.8825
  10   2.0000     -24.800307      -674.8507
  11   2.0000     -24.800114      -674.8454
  12   2.0000     -24.799432      -674.8268
  13   2.0000     -19.228007      -523.2207
  14   2.0000     -19.219773      -522.9966
  15   2.0000     -14.480772      -394.0418
  16   2.0000     -14.477985      -393.9660
  17   2.0000     -14.473674      -393.8487
  18   2.0000     -14.472912      -393.8280
  19   2.0000     -14.443848      -393.0371
  20   2.0000     -14.441804      -392.9815
  21   2.0000     -14.421636      -392.4327
  22   2.0000     -14.420458      -392.4006
  23   2.0000     -14.418646      -392.3513
  24   2.0000     -14.416976      -392.3059
  25   2.0000     -10.399407      -282.9822
  26   2.0000     -10.398334      -282.9530
  27   2.0000     -10.384775      -282.5841
  28   2.0000     -10.383918      -282.5608
  29   2.0000     -10.383320      -282.5445
  30   2.0000     -10.382952      -282.5345
  31   2.0000     -10.376052      -282.3467
  32   2.0000     -10.371762      -282.2300
  33   2.0000     -10.366700      -282.0922
  34   2.0000     -10.364237      -282.0252
  35   2.0000     -10.362689      -281.9831
  36   2.0000     -10.361023      -281.9378
  37   2.0000     -10.349081      -281.6128
  38   2.0000     -10.348778      -281.6046
  39   2.0000     -10.347179      -281.5611
  40   2.0000     -10.346685      -281.5476
  41   2.0000     -10.346593      -281.5451
  42   2.0000     -10.345501      -281.5154
  43   2.0000     -10.343413      -281.4586
  44   2.0000     -10.343006      -281.4475
  45   2.0000     -10.342847      -281.4432
  46   2.0000     -10.337995      -281.3111
  47   2.0000     -10.337139      -281.2879
  48   2.0000     -10.336987      -281.2837
  49   2.0000     -10.334470      -281.2152
  50   2.0000     -10.332157      -281.1523
  51   2.0000     -10.331215      -281.1267
  52   2.0000     -10.330437      -281.1055
  53   2.0000     -10.329137      -281.0701
  54   2.0000     -10.328098      -281.0418
  55   2.0000     -10.327019      -281.0125
  56   2.0000     -10.326436      -280.9966
  57   2.0000     -10.326002      -280.9848
  58   2.0000     -10.324178      -280.9352
  59   2.0000     -10.323112      -280.9061
  60   2.0000     -10.322526      -280.8902
  61   2.0000     -10.321629      -280.8658
  62   2.0000     -10.318759      -280.7877
  63   2.0000     -10.314130      -280.6617
  64   2.0000     -10.313801      -280.6528
  65   2.0000     -10.313286      -280.6388
  66   2.0000     -10.312825      -280.6262
  67   2.0000     -10.311462      -280.5891
  68   2.0000     -10.311344      -280.5859
  69   2.0000     -10.309598      -280.5384
  70   2.0000     -10.306965      -280.4668
  71   2.0000     -10.305958      -280.4394
  72   2.0000     -10.305872      -280.4370
  73   2.0000     -10.305341      -280.4226
  74   2.0000     -10.304974      -280.4126
  75   2.0000     -10.304746      -280.4064
  76   2.0000     -10.304641      -280.4035
  77   2.0000     -10.303814      -280.3810
  78   2.0000     -10.303534      -280.3734
  79   2.0000     -10.303294      -280.3669
  80   2.0000     -10.302410      -280.3428
  81   2.0000     -10.298216      -280.2287
  82   2.0000     -10.297634      -280.2129
  83   2.0000     -10.297429      -280.2073
  84   2.0000     -10.296427      -280.1800
  85   2.0000      -9.566045      -260.3053
  86   2.0000      -9.563046      -260.2237
  87   2.0000      -9.559150      -260.1177
  88   2.0000      -9.557776      -260.0803
  89   2.0000      -8.156348      -221.9455
  90   2.0000      -8.076056      -219.7607
  91   2.0000      -8.070201      -219.6013
  92   2.0000      -8.067348      -219.5237
  93   2.0000      -8.066931      -219.5124
  94   2.0000      -7.336195      -199.6280
  95   2.0000      -7.333114      -199.5442
  96   2.0000      -7.329248      -199.4390
  97   2.0000      -7.327934      -199.4032
  98   2.0000      -7.326115      -199.3537
  99   2.0000      -7.325997      -199.3505
 100   2.0000      -7.323154      -199.2731
 101   2.0000      -7.323037      -199.2700
 102   2.0000      -7.319312      -199.1686
 103   2.0000      -7.319069      -199.1620
 104   2.0000      -7.317872      -199.1294
 105   2.0000      -7.317711      -199.1251
 106   2.0000      -6.127401      -166.7351
 107   2.0000      -6.119627      -166.5235
 108   2.0000      -6.119258      -166.5135
 109   2.0000      -6.045539      -164.5075
 110   2.0000      -6.041174      -164.3887
 111   2.0000      -6.039844      -164.3525
 112   2.0000      -6.037894      -164.2994
 113   2.0000      -6.036920      -164.2729
 114   2.0000      -6.036678      -164.2663
 115   2.0000      -6.035183      -164.2257
 116   2.0000      -6.032193      -164.1443
 117   2.0000      -6.031905      -164.1365
 118   2.0000      -6.031839      -164.1347
 119   2.0000      -6.029239      -164.0639
 120   2.0000      -6.028644      -164.0478
 121   2.0000      -1.324032       -36.0288
 122   2.0000      -1.322853       -35.9967
 123   2.0000      -1.309145       -35.6237
 124   2.0000      -1.307991       -35.5922
 125   2.0000      -1.162420       -31.6311
 126   2.0000      -1.143797       -31.1243
 127   2.0000      -1.139647       -31.0114
 128   2.0000      -1.135695       -30.9038
 129   2.0000      -1.067057       -29.0361
 130   2.0000      -1.039673       -28.2909
 131   2.0000      -1.033210       -28.1151
 132   2.0000      -1.027752       -27.9666
 133   2.0000      -1.024612       -27.8811
 134   2.0000      -1.024305       -27.8728
 135   2.0000      -1.021165       -27.7873
 136   2.0000      -1.016244       -27.6534
 137   2.0000      -1.013140       -27.5689
 138   2.0000      -1.008769       -27.4500
 139   2.0000      -1.008183       -27.4341
 140   2.0000      -1.006791       -27.3962
 141   2.0000      -0.998702       -27.1761
 142   2.0000      -0.997208       -27.1354
 143   2.0000      -0.994799       -27.0698
 144   2.0000      -0.985997       -26.8303
 145   2.0000      -0.985228       -26.8094
 146   2.0000      -0.971699       -26.4413
 147   2.0000      -0.966388       -26.2968
 148   2.0000      -0.961018       -26.1506
 149   2.0000      -0.955238       -25.9934
 150   2.0000      -0.935384       -25.4531
 151   2.0000      -0.934925       -25.4406
 152   2.0000      -0.926034       -25.1987
 153   2.0000      -0.918561       -24.9953
 154   2.0000      -0.912538       -24.8314
 155   2.0000      -0.908249       -24.7147
 156   2.0000      -0.897847       -24.4317
 157   2.0000      -0.896371       -24.3915
 158   2.0000      -0.892971       -24.2990
 159   2.0000      -0.888776       -24.1848
 160   2.0000      -0.871960       -23.7272
 161   2.0000      -0.864929       -23.5359
 162   2.0000      -0.853359       -23.2211
 163   2.0000      -0.844642       -22.9839
 164   2.0000      -0.843388       -22.9498
 165   2.0000      -0.838959       -22.8292
 166   2.0000      -0.838279       -22.8107
 167   2.0000      -0.835559       -22.7367
 168   2.0000      -0.829219       -22.5642
 169   2.0000      -0.825589       -22.4654
 170   2.0000      -0.822314       -22.3763
 171   2.0000      -0.807960       -21.9857
 172   2.0000      -0.792810       -21.5734
 173   2.0000      -0.778228       -21.1767
 174   2.0000      -0.772977       -21.0338
 175   2.0000      -0.768990       -20.9253
 176   2.0000      -0.761730       -20.7277
 177   2.0000      -0.749270       -20.3887
 178   2.0000      -0.744376       -20.2555
 179   2.0000      -0.735950       -20.0262
 180   2.0000      -0.725325       -19.7371
 181   2.0000      -0.724162       -19.7054
 182   2.0000      -0.720632       -19.6094
 183   2.0000      -0.718245       -19.5444
 184   2.0000      -0.713802       -19.4235
 185   2.0000      -0.708411       -19.2768
 186   2.0000      -0.697516       -18.9804
 187   2.0000      -0.692883       -18.8543
 188   2.0000      -0.688094       -18.7240
 189   2.0000      -0.683588       -18.6014
 190   2.0000      -0.677496       -18.4356
 191   2.0000      -0.676012       -18.3952
 192   2.0000      -0.665625       -18.1126
 193   2.0000      -0.661832       -18.0094
 194   2.0000      -0.658470       -17.9179
 195   2.0000      -0.653659       -17.7870
 196   2.0000      -0.648219       -17.6389
 197   2.0000      -0.645869       -17.5750
 198   2.0000      -0.644418       -17.5355
 199   2.0000      -0.642084       -17.4720
 200   2.0000      -0.637763       -17.3544
 201   2.0000      -0.633556       -17.2399
 202   2.0000      -0.631541       -17.1851
 203   2.0000      -0.627295       -17.0696
 204   2.0000      -0.619873       -16.8676
 205   2.0000      -0.616413       -16.7735
 206   2.0000      -0.614680       -16.7263
 207   2.0000      -0.603105       -16.4113
 208   2.0000      -0.601733       -16.3740
 209   2.0000      -0.598505       -16.2861
 210   2.0000      -0.595019       -16.1913
 211   2.0000      -0.591567       -16.0974
 212   2.0000      -0.588461       -16.0128
 213   2.0000      -0.587350       -15.9826
 214   2.0000      -0.584532       -15.9059
 215   2.0000      -0.583535       -15.8788
 216   2.0000      -0.578822       -15.7506
 217   2.0000      -0.577103       -15.7038
 218   2.0000      -0.575970       -15.6729
 219   2.0000      -0.560402       -15.2493
 220   2.0000      -0.558442       -15.1960
 221   2.0000      -0.556680       -15.1480
 222   2.0000      -0.555754       -15.1228
 223   2.0000      -0.549958       -14.9651
 224   2.0000      -0.549241       -14.9456
 225   2.0000      -0.548924       -14.9370
 226   2.0000      -0.547359       -14.8944
 227   2.0000      -0.547032       -14.8855
 228   2.0000      -0.542924       -14.7737
 229   2.0000      -0.541500       -14.7350
 230   2.0000      -0.540349       -14.7036
 231   2.0000      -0.537523       -14.6267
 232   2.0000      -0.536492       -14.5987
 233   2.0000      -0.534732       -14.5508
 234   2.0000      -0.532694       -14.4953
 235   2.0000      -0.531592       -14.4654
 236   2.0000      -0.530557       -14.4372
 237   2.0000      -0.528077       -14.3697
 238   2.0000      -0.522088       -14.2067
 239   2.0000      -0.520488       -14.1632
 240   2.0000      -0.516860       -14.0645
 241   2.0000      -0.516368       -14.0511
 242   2.0000      -0.512520       -13.9464
 243   2.0000      -0.511185       -13.9101
 244   2.0000      -0.510066       -13.8796
 245   2.0000      -0.507825       -13.8186
 246   2.0000      -0.507247       -13.8029
 247   2.0000      -0.505291       -13.7497
 248   2.0000      -0.503187       -13.6924
 249   2.0000      -0.502521       -13.6743
 250   2.0000      -0.502437       -13.6720
 251   2.0000      -0.496742       -13.5170
 252   2.0000      -0.495247       -13.4764
 253   2.0000      -0.493868       -13.4388
 254   2.0000      -0.491974       -13.3873
 255   2.0000      -0.486925       -13.2499
 256   2.0000      -0.485198       -13.2029
 257   2.0000      -0.482188       -13.1210
 258   2.0000      -0.478514       -13.0210
 259   2.0000      -0.477198       -12.9852
 260   2.0000      -0.473947       -12.8968
 261   2.0000      -0.471845       -12.8396
 262   2.0000      -0.468207       -12.7406
 263   2.0000      -0.467415       -12.7190
 264   2.0000      -0.467003       -12.7078
 265   2.0000      -0.465453       -12.6656
 266   2.0000      -0.465103       -12.6561
 267   2.0000      -0.464283       -12.6338
 268   2.0000      -0.457323       -12.4444
 269   2.0000      -0.455866       -12.4047
 270   2.0000      -0.454956       -12.3800
 271   2.0000      -0.453927       -12.3520
 272   2.0000      -0.450776       -12.2662
 273   2.0000      -0.449912       -12.2427
 274   2.0000      -0.447923       -12.1886
 275   2.0000      -0.447876       -12.1873
 276   2.0000      -0.445607       -12.1256
 277   2.0000      -0.443500       -12.0683
 278   2.0000      -0.442495       -12.0409
 279   2.0000      -0.441172       -12.0049
 280   2.0000      -0.440484       -11.9862
 281   2.0000      -0.436118       -11.8674
 282   2.0000      -0.433619       -11.7994
 283   2.0000      -0.431008       -11.7283
 284   2.0000      -0.430507       -11.7147
 285   2.0000      -0.429897       -11.6981
 286   2.0000      -0.428939       -11.6720
 287   2.0000      -0.427522       -11.6335
 288   2.0000      -0.424720       -11.5572
 289   2.0000      -0.421536       -11.4706
 290   2.0000      -0.419024       -11.4022
 291   2.0000      -0.416952       -11.3458
 292   2.0000      -0.414258       -11.2725
 293   2.0000      -0.412356       -11.2208
 294   2.0000      -0.407015       -11.0754
 295   2.0000      -0.405928       -11.0458
 296   2.0000      -0.403871       -10.9899
 297   2.0000      -0.393043       -10.6952
 298   2.0000      -0.392583       -10.6827
 299   2.0000      -0.390639       -10.6298
 300   2.0000      -0.386665       -10.5217
 301   2.0000      -0.382314       -10.4033
 302   2.0000      -0.381647       -10.3851
 303   2.0000      -0.376568       -10.2469
 304   2.0000      -0.367768       -10.0075
 305   2.0000      -0.366329        -9.9683
 306   2.0000      -0.357125        -9.7179
 307   2.0000      -0.355174        -9.6648
 308   2.0000      -0.345007        -9.3881
 309   2.0000      -0.337948        -9.1960
 310   2.0000      -0.335232        -9.1221
 311   2.0000      -0.334627        -9.1057
 312   2.0000      -0.332257        -9.0412
 313   2.0000      -0.326359        -8.8807
 314   2.0000      -0.325033        -8.8446
 315   2.0000      -0.319942        -8.7061
 316   2.0000      -0.319662        -8.6984
 317   2.0000      -0.312457        -8.5024
 318   2.0000      -0.304331        -8.2813
 319   2.0000      -0.301222        -8.1967
 320   2.0000      -0.277982        -7.5643
 321   2.0000      -0.248765        -6.7692
 322   0.0000      -0.145726        -3.9654
 323   0.0000      -0.102063        -2.7773
 324   0.0000      -0.099632        -2.7111
 325   0.0000      -0.069791        -1.8991
 326   0.0000      -0.065681        -1.7873

MULLIKEN ATOMIC CHARGES
-----------------------
   0 C :   -0.107690
   1 C :    0.241682
   2 F :   -0.170489
   3 C :    0.238061
   4 F :   -0.171578
   5 C :   -0.104692
   6 C :    0.116287
   7 C :    0.113865
   8 C :   -0.085664
   9 C :    0.049551
  10 C :   -0.003578
  11 C :   -0.081719
  12 C :    0.168296
  13 O :   -0.176642
  14 C :   -0.096630
  15 C :    0.327388
  16 C :   -0.352919
  17 C :   -0.192132
  18 N :    0.149083
  19 C :   -0.181083
  20 N :    0.152989
  21 C :   -0.001727
  22 C :   -0.044366
  23 C :    0.008594
  24 C :    0.087488
  25 Cl:   -0.043646
  26 C :   -0.085845
  27 S :    0.211612
  28 C :   -0.061406
  29 C :    0.077692
  30 Cl:   -0.048882
  31 C :    0.003075
  32 C :   -0.149075
  33 S :    0.173363
  34 C :    0.196507
  35 C :   -0.054186
  36 C :   -0.075281
  37 N :    0.050533
  38 C :   -0.117794
  39 C :   -0.094220
  40 N :   -0.004227
  41 C :   -0.237134
  42 N :    0.256458
  43 C :   -0.231589
  44 N :    0.251093
  45 C :    0.220090
  46 C :   -0.023821
  47 C :   -0.005177
  48 N :   -0.284113
  49 S :    0.571812
  50 N :   -0.324893
  51 C :   -0.156795
  52 C :    0.004207
  53 C :    0.080202
  54 Cl:   -0.048365
  55 C :   -0.062474
  56 S :    0.175765
  57 C :   -0.082371
  58 C :    0.075241
  59 Cl:   -0.056856
  60 C :    0.041140
  61 C :   -0.064433
  62 S :    0.170101
  63 C :    0.059969
  64 C :   -0.135184
  65 C :    0.143220
  66 O :   -0.140431
  67 C :    0.009764
  68 C :   -0.082743
  69 C :    0.112974
  70 C :    0.113303
  71 C :   -0.107604
  72 C :    0.242382
  73 C :    0.240957
  74 C :   -0.106121
  75 F :   -0.171399
  76 F :   -0.169844
  77 C :   -0.082971
  78 C :    0.041863
  79 C :    0.243853
  80 C :   -0.314460
  81 C :   -0.210097
  82 N :    0.178013
  83 C :   -0.175049
  84 N :    0.159025
  85 H :    0.009995
  86 H :   -0.000374
  87 H :   -0.004816
  88 H :   -0.009722
  89 H :    0.008877
  90 H :    0.005824
  91 H :   -0.005361
  92 H :   -0.001004
  93 H :   -0.004268
  94 H :    0.025051
  95 H :   -0.007756
  96 H :    0.006758
  97 H :    0.000470
  98 H :   -0.001776
Sum of atomic charges:   -0.0000000

LOEWDIN ATOMIC CHARGES
----------------------
   0 C :   -0.028842
   1 C :    0.066879
   2 F :   -0.047866
   3 C :    0.067862
   4 F :   -0.048726
   5 C :   -0.033430
   6 C :   -0.008999
   7 C :   -0.006348
   8 C :    0.018253
   9 C :   -0.021939
  10 C :   -0.052143
  11 C :    0.029816
  12 C :    0.084314
  13 O :   -0.164459
  14 C :   -0.105585
  15 C :    0.075931
  16 C :   -0.139564
  17 C :   -0.021762
  18 N :   -0.049962
  19 C :   -0.017413
  20 N :   -0.052431
  21 C :    0.059818
  22 C :   -0.188003
  23 C :   -0.029149
  24 C :   -0.172152
  25 Cl:    0.171030
  26 C :   -0.195787
  27 S :    0.523194
  28 C :   -0.207797
  29 C :   -0.165387
  30 Cl:    0.169773
  31 C :   -0.045803
  32 C :   -0.170672
  33 S :    0.490491
  34 C :   -0.031912
  35 C :   -0.010944
  36 C :   -0.003760
  37 N :    0.009204
  38 C :   -0.020761
  39 C :   -0.019602
  40 N :   -0.011579
  41 C :   -0.038479
  42 N :    0.002796
  43 C :   -0.039532
  44 N :    0.004451
  45 C :   -0.038120
  46 C :   -0.043383
  47 C :   -0.037352
  48 N :   -0.272727
  49 S :    0.692361
  50 N :   -0.294664
  51 C :   -0.166749
  52 C :   -0.047309
  53 C :   -0.163838
  54 Cl:    0.170108
  55 C :   -0.209442
  56 S :    0.492722
  57 C :   -0.182925
  58 C :   -0.172741
  59 Cl:    0.165357
  60 C :   -0.027610
  61 C :   -0.183117
  62 S :    0.493079
  63 C :    0.051738
  64 C :   -0.094954
  65 C :    0.083731
  66 O :   -0.141350
  67 C :   -0.054185
  68 C :    0.030969
  69 C :   -0.009560
  70 C :   -0.005245
  71 C :   -0.030255
  72 C :    0.067425
  73 C :    0.067165
  74 C :   -0.032706
  75 F :   -0.048924
  76 F :   -0.047779
  77 C :    0.013651
  78 C :   -0.019012
  79 C :    0.059514
  80 C :   -0.139360
  81 C :   -0.039877
  82 N :   -0.043020
  83 C :   -0.019718
  84 N :   -0.047282
  85 H :    0.048342
  86 H :    0.044689
  87 H :    0.040348
  88 H :    0.040173
  89 H :    0.051542
  90 H :    0.042400
  91 H :    0.033840
  92 H :    0.034574
  93 H :    0.040258
  94 H :    0.052666
  95 H :    0.041001
  96 H :    0.047507
  97 H :    0.045029
  98 H :    0.039988

  Mayer bond orders larger than 0.100000
B(  0-C ,  1-C ) :   1.4402 B(  0-C ,  5-C ) :   0.1076 B(  0-C ,  7-C ) :   1.1902
B(  0-C , 85-H ) :   1.0066 B(  1-C ,  2-F ) :   1.1353 B(  1-C ,  3-C ) :   1.1908
B(  3-C ,  4-F ) :   1.1335 B(  3-C ,  5-C ) :   1.4426 B(  5-C ,  6-C ) :   1.1947
B(  5-C , 86-H ) :   1.0069 B(  6-C ,  7-C ) :   1.2556 B(  6-C , 11-C ) :   1.1875
B(  7-C ,  8-C ) :   1.2153 B(  8-C ,  9-C ) :   1.4536 B(  8-C , 87-H ) :   0.9897
B(  9-C , 10-C ) :   1.2211 B(  9-C , 15-C ) :   0.9834 B( 10-C , 11-C ) :   1.4718
B( 10-C , 12-C ) :   0.9587 B( 11-C , 88-H ) :   1.0164 B( 12-C , 13-O ) :   2.1322
B( 12-C , 14-C ) :   0.9765 B( 14-C , 15-C ) :   1.0777 B( 14-C , 21-C ) :   1.4998
B( 15-C , 16-C ) :   1.6276 B( 16-C , 17-C ) :   1.1444 B( 16-C , 19-C ) :   1.1477
B( 17-C , 18-N ) :   2.9601 B( 19-C , 20-N ) :   2.9610 B( 21-C , 22-C ) :   1.2599
B( 21-C , 89-H ) :   0.9393 B( 22-C , 23-C ) :   1.3320 B( 22-C , 27-S ) :   1.0827
B( 23-C , 24-C ) :   1.3430 B( 23-C , 90-H ) :   1.0138 B( 24-C , 25-Cl) :   1.0499
B( 24-C , 26-C ) :   1.3519 B( 26-C , 27-S ) :   1.1164 B( 26-C , 28-C ) :   1.2376
B( 28-C , 29-C ) :   1.4091 B( 28-C , 33-S ) :   1.0755 B( 29-C , 30-Cl) :   1.0492
B( 29-C , 31-C ) :   1.2890 B( 31-C , 32-C ) :   1.4024 B( 31-C , 91-H ) :   0.9969
B( 32-C , 33-S ) :   1.1008 B( 32-C , 34-C ) :   1.2145 B( 34-C , 35-C ) :   1.2412
B( 34-C , 45-C ) :   0.1206 B( 34-C , 47-C ) :   1.1971 B( 35-C , 36-C ) :   1.1079
B( 35-C , 40-N ) :   1.4015 B( 36-C , 37-N ) :   1.4496 B( 36-C , 45-C ) :   1.2523
B( 37-N , 38-C ) :   1.7290 B( 38-C , 39-C ) :   1.2146 B( 38-C , 43-C ) :   1.1586
B( 39-C , 40-N ) :   1.6931 B( 39-C , 41-C ) :   1.1664 B( 41-C , 42-N ) :   3.0317
B( 43-C , 44-N ) :   3.0460 B( 45-C , 46-C ) :   1.1891 B( 45-C , 51-C ) :   1.1946
B( 46-C , 47-C ) :   1.1099 B( 46-C , 50-N ) :   1.4737 B( 47-C , 48-N ) :   1.5121
B( 48-N , 49-S ) :   1.2892 B( 48-N , 50-N ) :   0.1508 B( 49-S , 50-N ) :   1.2773
B( 51-C , 52-C ) :   1.4065 B( 51-C , 56-S ) :   1.1094 B( 52-C , 53-C ) :   1.2801
B( 52-C , 92-H ) :   0.9978 B( 53-C , 54-Cl) :   1.0466 B( 53-C , 55-C ) :   1.4150
B( 55-C , 56-S ) :   1.0965 B( 55-C , 57-C ) :   1.2100 B( 57-C , 58-C ) :   1.4108
B( 57-C , 62-S ) :   1.1601 B( 58-C , 59-Cl) :   1.0393 B( 58-C , 60-C ) :   1.3043
B( 60-C , 61-C ) :   1.4024 B( 60-C , 93-H ) :   1.0097 B( 61-C , 62-S ) :   1.0894
B( 61-C , 63-C ) :   1.1567 B( 63-C , 64-C ) :   1.6364 B( 63-C , 94-H ) :   0.9461
B( 64-C , 65-C ) :   0.9403 B( 64-C , 79-C ) :   1.0296 B( 65-C , 66-O ) :   2.2703
B( 65-C , 67-C ) :   0.9193 B( 67-C , 68-C ) :   1.4772 B( 67-C , 78-C ) :   1.2197
B( 68-C , 69-C ) :   1.1940 B( 68-C , 95-H ) :   1.0161 B( 69-C , 70-C ) :   1.2562
B( 69-C , 74-C ) :   1.1946 B( 70-C , 71-C ) :   1.1891 B( 70-C , 77-C ) :   1.2134
B( 71-C , 72-C ) :   1.4419 B( 71-C , 74-C ) :   0.1088 B( 71-C , 96-H ) :   1.0071
B( 72-C , 73-C ) :   1.1902 B( 72-C , 76-F ) :   1.1354 B( 73-C , 74-C ) :   1.4431
B( 73-C , 75-F ) :   1.1334 B( 74-C , 97-H ) :   1.0070 B( 77-C , 78-C ) :   1.4581
B( 77-C , 98-H ) :   0.9955 B( 78-C , 79-C ) :   1.0027 B( 79-C , 80-C ) :   1.6642
B( 80-C , 81-C ) :   1.1473 B( 80-C , 83-C ) :   1.1368 B( 81-C , 82-N ) :   3.0317
B( 83-C , 84-N ) :   2.9916

-----------------------------------------------------------------------------
         ABSORPTION SPECTRUM VIA TRANSITION ELECTRIC DIPOLE MOMENTS
-----------------------------------------------------------------------------
State   Energy  Wavelength   fosc         T2         TX        TY        TZ
        (cm-1)    (nm)                  (au**2)     (au)      (au)      (au)
-----------------------------------------------------------------------------
   0    7640.6   1308.8   0.789269590  34.00733  -1.41637   5.31885  -1.92640
   1   15306.8    653.3   0.005723723   0.12310  -0.04233   0.00071  -0.34830
   2   18365.3    544.5   0.990972635  17.76397   0.73335  -3.82940   1.60057
   3   19152.4    522.1   0.541197792   9.30269  -0.85562   2.58260  -1.37870
   4   21701.2    460.8   0.050494254   0.76601   0.46531  -0.70489   0.22941
   5   21982.9    454.9   0.007839034   0.11740  -0.27993  -0.08889   0.17644
   6   22589.2    442.7   0.011445781   0.16681  -0.11265  -0.28928   0.26539
   7   23035.2    434.1   0.000618215   0.00884   0.03054  -0.03537   0.08156
   8   23593.5    423.8   0.099405021   1.38705  -0.93141   0.66509   0.27778
   9   24636.0    405.9   0.026646313   0.35608  -0.07801  -0.58922  -0.05302
  10   24756.0    403.9   0.019467715   0.25889  -0.07476   0.32979   0.38018
  11   25213.9    396.6   0.014491731   0.18921  -0.23829  -0.19951   0.30435
  12   26003.2    384.6   0.012186480   0.15429  -0.05389  -0.31143   0.23322
  13   26487.8    377.5   0.036850031   0.45800  -0.02998   0.65442  -0.16982
  14   26540.7    376.8   0.073289983   0.90909  -0.66716   0.13012   0.66863
  15   26665.2    375.0   0.011421696   0.14101   0.10860  -0.24968  -0.25861
  16   27320.2    366.0   0.039600928   0.47720   0.10790   0.48955  -0.47528
  17   27442.6    364.4   0.028916554   0.34689   0.15684   0.37430  -0.42684
  18   27560.3    362.8   0.009124199   0.10899  -0.31989   0.04169  -0.07016
  19   27796.6    359.8   0.163121925   1.93195   0.75786  -1.16231   0.08157
  20   28303.1    353.3   0.013616293   0.15838   0.29070  -0.24155  -0.12462
  21   28533.6    350.5   0.094951414   1.09552   0.39531   0.87171  -0.42352
  22   28822.2    347.0   0.147525910   1.68507   0.23941  -1.27384  -0.07123
  23   29268.2    341.7   0.204530285   2.30058  -0.43789  -1.42320  -0.28867
  24   29682.4    336.9   0.093636437   1.03854   0.33982   0.77874  -0.56270
  25   30170.8    331.4   0.182811087   1.99476  -0.43670  -0.64546   1.17789
  26   30526.1    327.6   0.080117891   0.86404   0.60961  -0.69356   0.10675
  27   31041.6    322.1   0.091572991   0.97118  -0.87392   0.23640   0.38930
  28   31193.2    320.6   0.342884462   3.61880   1.67341  -0.68719  -0.58844
  29   31226.9    320.2   0.032208700   0.33956   0.56180  -0.12104  -0.09641
  30   31485.7    317.6   0.015246874   0.15942   0.32819  -0.11545  -0.19592
  31   31536.9    317.1   0.085969710   0.89743  -0.65550  -0.03651   0.68294
  32   32112.0    311.4   0.234166132   2.40067  -1.20127  -0.25696   0.94424
  33   32251.6    310.1   0.035789493   0.36533  -0.25643  -0.35710   0.41479
  34   32745.2    305.4   0.038879076   0.39088   0.45624  -0.36660  -0.21984
  35   32895.3    304.0   0.003165026   0.03168  -0.13592  -0.11393   0.01486
  36   33100.3    302.1   0.028019841   0.27868  -0.41990   0.09576   0.30528
  37   33323.3    300.1   0.004142246   0.04092  -0.17699  -0.04700  -0.08596
  38   33399.5    299.4   0.001361106   0.01342   0.04476   0.00590  -0.10667
  39   33822.6    295.7   0.091232114   0.88801  -0.51649  -0.47439   0.62944
  40   34095.9    293.3   0.039541167   0.38179  -0.37351  -0.25030  -0.42383
  41   34175.5    292.6   0.227485828   2.19137   0.12660   1.46557   0.16567
  42   34589.8    289.1   0.065787926   0.62614  -0.43380  -0.56424  -0.34583
  43   34834.3    287.1   0.854384346   8.07462   2.08821   0.28818  -1.90551
  44   35190.8    284.2   0.227917792   2.13218  -0.90417  -1.14656  -0.00795
  45   35390.2    282.6   0.239600360   2.22885  -0.34341  -1.34439  -0.55094
  46   35433.9    282.2   0.199977498   1.85796   0.86015   0.71102  -0.78265
  47   35609.0    280.8   0.017287092   0.15982  -0.02006   0.32476   0.23227
  48   35778.6    279.5   0.059877445   0.55095  -0.35119   0.54812   0.35663
  49   36315.9    275.4   0.020644007   0.18714  -0.00827   0.36613  -0.23027
  50   36556.7    273.5   0.071384982   0.64286  -0.68304  -0.24525   0.34083
  51   36706.0    272.4   0.031292902   0.28066   0.40838   0.03433  -0.33573
  52   37472.8    266.9   0.025682161   0.22563   0.12637   0.44534   0.10643
  53   37849.4    264.2   0.029563742   0.25714  -0.26515   0.42520   0.07775
  54   38059.3    262.7   0.011767229   0.10179   0.28727  -0.13818  -0.01309
  55   38219.6    261.6   0.025525102   0.21987   0.43122  -0.15784   0.09489
  56   38269.6    261.3   0.035351830   0.30411  -0.54596   0.07761  -0.00360
  57   38433.0    260.2   0.077629192   0.66496   0.58231  -0.29072  -0.49128
  58   38777.2    257.9   0.077706493   0.65971   0.54117  -0.49294  -0.35194
  59   38936.6    256.8   0.018195988   0.15385  -0.31436   0.22377   0.07037
  60   38996.4    256.4   0.036336262   0.30675  -0.44297  -0.25675   0.21122
  61   39159.3    255.4   0.070825390   0.59543  -0.47585   0.03860   0.60622
  62   39301.9    254.4   0.106008475   0.88798  -0.36104   0.84124  -0.22348
  63   39563.1    252.8   0.009093436   0.07567  -0.24468  -0.09692  -0.08005
  64   39602.0    252.5   0.026294304   0.21858   0.07817  -0.38065   0.25996
  65   39829.1    251.1   0.011479827   0.09489   0.01163  -0.30547  -0.03796
  66   40014.0    249.9   0.041235736   0.33926   0.26139  -0.41202  -0.31809
  67   40045.7    249.7   0.090712258   0.74574  -0.77776   0.04537   0.37251
  68   40225.6    248.6   0.096971489   0.79363  -0.78502  -0.01284   0.42095

FINAL SINGLE POINT ENERGY     -7218.418786612540

DIPOLE MOMENT
-------------
                                X             Y             Z
Electronic contribution:      2.80425       0.18945      -0.68323
Nuclear contribution   :      0.25759      -1.70258      -2.37783
                        -----------------------------------------
Total Dipole Moment    :      3.06184      -1.51313      -3.06106
                        -----------------------------------------
Magnitude (a.u.)       :      4.58634
Magnitude (Debye)      :     11.65756

Rotational constants in cm-1:     0.001568     0.000132     0.000126
Rotational constants in MHz :    47.000525     3.950096     3.764177

                             ****ORCA TERMINATED NORMALLY****
TOTAL RUN TIME: 0 days 0 hours 11 minutes 20 seconds 519 msec
