                         Program Version 4.2.0 -  RELEASE  -
|  1> # ORCA input file
|  2> # SCF done       -191.969238023558          0.000839630824
|  3> ! CAM-B3LYP def2-SVP def2/J RIJCOSX Grid4 TightSCF
|  4> %maxcore 5000
|  5> %tddft
|  6>     Mode sTDDFT
|  7>     Ethresh 5.0
|  8>     maxcore 5000
|  9> end
| 10>
| 11> %pal
| 12>   nprocs 6
| 13>   end
| 14> * xyz 0 1
| 15>    C       -1.48074         2.75622         4.32715
| 16>    C       -1.24677         3.18503         5.60359
| 17>    F       -0.92587         4.46457         5.83588
| 18>    C       -1.33931         2.29083         6.68901
| 19>    F       -1.10545         2.73924         7.92969
| 20>    C       -1.66355         0.97907         6.48267
| 21>    C       -1.90906         0.50664         5.17889
| 22>    C       -1.81751         1.41000         4.08070
| 23>    C       -2.06060         0.95948         2.76271
| 24>    C       -2.38271        -0.35487         2.54851
| 25>    C       -2.46716        -1.24959         3.65158
| 26>    C       -2.24164        -0.84463         4.93523
| 27>    C       -2.81304        -2.59452         3.15732
| 28>    O       -2.96824        -3.59316         3.83496
| 29>    C       -2.92832        -2.47562         1.69717
| 30>    C       -2.67877        -1.09566         1.32362
| 31>    C       -2.70990        -0.55267         0.06486
| 32>    C       -2.45220         0.80622        -0.21565
| 33>    N       -2.25441         1.89694        -0.51376
| 34>    C       -3.00096        -1.24383        -1.12984
| 35>    N       -3.22610        -1.72722        -2.14739
| 36>    C       -3.20856        -3.50025         0.83076
| 37>    C       -3.43880        -4.86496         1.06772
| 38>    C       -3.67963        -5.74995         0.01299
| 39>    C       -3.85611        -7.04900         0.44865
| 40>    C       -3.75919        -7.18611         1.84632
| 41>    S       -3.44660        -5.68113         2.62656
| 42>    C       -3.92232        -8.50001         2.28603
| 43>    C       -4.14029        -9.37314         1.23877
| 44>    S       -4.15612        -8.56940        -0.32096
| 45>    C       -4.32535       -10.79296         1.27664
| 46>    C       -4.31874       -11.58335         2.42053
| 47>    F       -4.15390       -11.02591         3.63158
| 48>    C       -4.47083       -12.97720         2.39815
| 49>    F       -4.43388       -13.59901         3.58975
| 50>    C       -4.64977       -13.72849         1.24145
| 51>    C       -4.67998       -12.94828         0.05795
| 52>    C       -4.51946       -11.53285         0.08563
| 53>    N       -4.58238       -11.09900        -1.17860
| 54>    N       -4.76532       -12.17633        -1.88642
| 55>    N       -4.83309       -13.29930        -1.22718
| 56>    C       -4.88118       -12.12470        -3.31061
| 57>    C       -4.77393       -15.15428         1.21549
| 58>    C       -4.99766       -15.91972         0.08761
| 59>    C       -5.04100       -17.27822         0.38877
| 60>    C       -4.84208       -17.56548         1.75001
| 61>    S       -4.62043       -16.12374         2.66838
| 62>    C       -4.83948       -18.92311         2.04621
| 63>    C       -5.04973       -19.70027         0.91804
| 64>    S       -5.27667       -18.71743        -0.52343
| 65>    C       -5.16617       -21.10166         0.79756
| 66>    C       -4.75401       -22.08738         1.64452
| 67>    C       -5.36929       -23.43801         1.51845
| 68>    O       -6.05820       -23.83646         0.60825
| 69>    C       -5.00308       -24.14944         2.75978
| 70>    C       -5.40642       -25.37860         3.19500
| 71>    C       -4.94556       -25.84963         4.44494
| 72>    C       -4.07815       -25.03026         5.22446
| 73>    C       -3.62948       -25.50223         6.47436
| 74>    C       -4.01982       -26.73126         6.92697
| 75>    C       -4.87543       -27.54193         6.15399
| 76>    C       -5.32951       -27.11159         4.93885
| 77>    F       -5.24222       -28.74213         6.62296
| 78>    F       -3.59146       -27.17857         8.11443
| 79>    C       -3.67103       -23.76449         4.74369
| 80>    C       -4.12098       -23.33397         3.52442
| 81>    C       -3.84425       -22.11391         2.76780
| 82>    C       -2.75238       -21.30619         2.95711
| 83>    C       -2.35945       -20.29620         2.05681
| 84>    N       -1.98348       -19.49169         1.32962
| 85>    C       -1.84520       -21.45233         4.02643
| 86>    N       -1.09267       -21.51874         4.89040
| 87>    H       -1.40593         3.45392         3.50766
| 88>    H       -1.72996         0.30704         7.32391
| 89>    H       -1.98294         1.66976         1.95588
| 90>    H       -2.31418        -1.54609         5.75239
| 91>    H       -3.25497        -3.24667        -0.22149
| 92>    H       -3.71330        -5.43381        -1.01389
| 93>    H       -3.87828        -8.79377         3.31729
| 94>    H       -4.78911       -11.08502        -3.61498
| 95>    H       -5.84740       -12.52448        -3.61922
| 96>    H       -4.09279       -12.72315        -3.76778
| 97>    H       -5.11431       -15.49211        -0.88980
| 98>    H       -4.73457       -19.32621         3.03706
| 99>    H       -5.72421       -21.45456        -0.06523
|100>    H       -6.06824       -25.98361         2.59418
|101>    H       -2.97088       -24.89619         7.07682
|102>    H       -5.98408       -27.74374         4.35943
|103>    H       -3.01967       -23.16263         5.35729
|104> *
|105>
|106>                          ****END OF INPUT****

CARTESIAN COORDINATES (ANGSTROEM)
---------------------------------
  C     -1.480740    2.756220    4.327150
  C     -1.246770    3.185030    5.603590
  F     -0.925870    4.464570    5.835880
  C     -1.339310    2.290830    6.689010
  F     -1.105450    2.739240    7.929690
  C     -1.663550    0.979070    6.482670
  C     -1.909060    0.506640    5.178890
  C     -1.817510    1.410000    4.080700
  C     -2.060600    0.959480    2.762710
  C     -2.382710   -0.354870    2.548510
  C     -2.467160   -1.249590    3.651580
  C     -2.241640   -0.844630    4.935230
  C     -2.813040   -2.594520    3.157320
  O     -2.968240   -3.593160    3.834960
  C     -2.928320   -2.475620    1.697170
  C     -2.678770   -1.095660    1.323620
  C     -2.709900   -0.552670    0.064860
  C     -2.452200    0.806220   -0.215650
  N     -2.254410    1.896940   -0.513760
  C     -3.000960   -1.243830   -1.129840
  N     -3.226100   -1.727220   -2.147390
  C     -3.208560   -3.500250    0.830760
  C     -3.438800   -4.864960    1.067720
  C     -3.679630   -5.749950    0.012990
  C     -3.856110   -7.049000    0.448650
  C     -3.759190   -7.186110    1.846320
  S     -3.446600   -5.681130    2.626560
  C     -3.922320   -8.500010    2.286030
  C     -4.140290   -9.373140    1.238770
  S     -4.156120   -8.569400   -0.320960
  C     -4.325350  -10.792960    1.276640
  C     -4.318740  -11.583350    2.420530
  F     -4.153900  -11.025910    3.631580
  C     -4.470830  -12.977200    2.398150
  F     -4.433880  -13.599010    3.589750
  C     -4.649770  -13.728490    1.241450
  C     -4.679980  -12.948280    0.057950
  C     -4.519460  -11.532850    0.085630
  N     -4.582380  -11.099000   -1.178600
  N     -4.765320  -12.176330   -1.886420
  N     -4.833090  -13.299300   -1.227180
  C     -4.881180  -12.124700   -3.310610
  C     -4.773930  -15.154280    1.215490
  C     -4.997660  -15.919720    0.087610
  C     -5.041000  -17.278220    0.388770
  C     -4.842080  -17.565480    1.750010
  S     -4.620430  -16.123740    2.668380
  C     -4.839480  -18.923110    2.046210
  C     -5.049730  -19.700270    0.918040
  S     -5.276670  -18.717430   -0.523430
  C     -5.166170  -21.101660    0.797560
  C     -4.754010  -22.087380    1.644520
  C     -5.369290  -23.438010    1.518450
  O     -6.058200  -23.836460    0.608250
  C     -5.003080  -24.149440    2.759780
  C     -5.406420  -25.378600    3.195000
  C     -4.945560  -25.849630    4.444940
  C     -4.078150  -25.030260    5.224460
  C     -3.629480  -25.502230    6.474360
  C     -4.019820  -26.731260    6.926970
  C     -4.875430  -27.541930    6.153990
  C     -5.329510  -27.111590    4.938850
  F     -5.242220  -28.742130    6.622960
  F     -3.591460  -27.178570    8.114430
  C     -3.671030  -23.764490    4.743690
  C     -4.120980  -23.333970    3.524420
  C     -3.844250  -22.113910    2.767800
  C     -2.752380  -21.306190    2.957110
  C     -2.359450  -20.296200    2.056810
  N     -1.983480  -19.491690    1.329620
  C     -1.845200  -21.452330    4.026430
  N     -1.092670  -21.518740    4.890400
  H     -1.405930    3.453920    3.507660
  H     -1.729960    0.307040    7.323910
  H     -1.982940    1.669760    1.955880
  H     -2.314180   -1.546090    5.752390
  H     -3.254970   -3.246670   -0.221490
  H     -3.713300   -5.433810   -1.013890
  H     -3.878280   -8.793770    3.317290
  H     -4.789110  -11.085020   -3.614980
  H     -5.847400  -12.524480   -3.619220
  H     -4.092790  -12.723150   -3.767780
  H     -5.114310  -15.492110   -0.889800
  H     -4.734570  -19.326210    3.037060
  H     -5.724210  -21.454560   -0.065230
  H     -6.068240  -25.983610    2.594180
  H     -2.970880  -24.896190    7.076820
  H     -5.984080  -27.743740    4.359430
  H     -3.019670  -23.162630    5.357290

 Total Charge           Charge          ....    0
 Multiplicity           Mult            ....    1
 Number of Electrons    NEL             ....  518
 Basis Dimension        Dim             .... 1109

ORBITAL ENERGIES
----------------

  NO   OCC          E(Eh)            E(eV)
   0   2.0000     -88.970982     -2421.0235
   1   2.0000     -88.969410     -2420.9807
   2   2.0000     -88.965118     -2420.8639
   3   2.0000     -88.963623     -2420.8233
   4   2.0000     -24.812754      -675.1894
   5   2.0000     -24.811359      -675.1514
   6   2.0000     -24.798823      -674.8103
   7   2.0000     -24.798215      -674.7937
   8   2.0000     -24.797888      -674.7848
   9   2.0000     -24.796790      -674.7550
  10   2.0000     -19.221168      -523.0346
  11   2.0000     -19.216599      -522.9102
  12   2.0000     -14.564464      -396.3192
  13   2.0000     -14.466428      -393.6515
  14   2.0000     -14.465646      -393.6302
  15   2.0000     -14.418139      -392.3375
  16   2.0000     -14.418063      -392.3354
  17   2.0000     -14.416883      -392.3033
  18   2.0000     -14.414205      -392.2305
  19   2.0000     -10.391659      -282.7714
  20   2.0000     -10.390684      -282.7449
  21   2.0000     -10.381921      -282.5064
  22   2.0000     -10.381474      -282.4943
  23   2.0000     -10.380969      -282.4805
  24   2.0000     -10.380108      -282.4571
  25   2.0000     -10.369946      -282.1806
  26   2.0000     -10.368071      -282.1295
  27   2.0000     -10.345467      -281.5145
  28   2.0000     -10.344677      -281.4930
  29   2.0000     -10.342357      -281.4298
  30   2.0000     -10.341300      -281.4011
  31   2.0000     -10.339683      -281.3571
  32   2.0000     -10.332015      -281.1484
  33   2.0000     -10.330651      -281.1113
  34   2.0000     -10.329803      -281.0882
  35   2.0000     -10.328986      -281.0660
  36   2.0000     -10.327299      -281.0201
  37   2.0000     -10.326327      -280.9936
  38   2.0000     -10.324727      -280.9501
  39   2.0000     -10.324571      -280.9459
  40   2.0000     -10.321981      -280.8754
  41   2.0000     -10.321295      -280.8567
  42   2.0000     -10.320799      -280.8432
  43   2.0000     -10.319576      -280.8099
  44   2.0000     -10.317747      -280.7602
  45   2.0000     -10.317636      -280.7572
  46   2.0000     -10.316079      -280.7148
  47   2.0000     -10.311486      -280.5898
  48   2.0000     -10.311308      -280.5850
  49   2.0000     -10.311102      -280.5794
  50   2.0000     -10.309951      -280.5480
  51   2.0000     -10.309596      -280.5384
  52   2.0000     -10.309170      -280.5268
  53   2.0000     -10.307030      -280.4685
  54   2.0000     -10.306713      -280.4599
  55   2.0000     -10.306687      -280.4592
  56   2.0000     -10.305122      -280.4166
  57   2.0000     -10.304208      -280.3918
  58   2.0000     -10.303771      -280.3799
  59   2.0000     -10.303463      -280.3715
  60   2.0000     -10.302145      -280.3356
  61   2.0000     -10.301908      -280.3292
  62   2.0000     -10.301594      -280.3206
  63   2.0000     -10.301137      -280.3082
  64   2.0000     -10.300707      -280.2965
  65   2.0000     -10.299948      -280.2758
  66   2.0000     -10.299835      -280.2728
  67   2.0000     -10.297782      -280.2169
  68   2.0000     -10.294710      -280.1333
  69   2.0000     -10.293299      -280.0949
  70   2.0000     -10.292751      -280.0800
  71   2.0000     -10.292136      -280.0633
  72   2.0000      -8.066428      -219.4987
  73   2.0000      -8.064369      -219.4426
  74   2.0000      -8.059648      -219.3142
  75   2.0000      -8.056966      -219.2412
  76   2.0000      -6.035880      -164.2446
  77   2.0000      -6.033963      -164.1925
  78   2.0000      -6.031924      -164.1370
  79   2.0000      -6.029775      -164.0785
  80   2.0000      -6.029398      -164.0683
  81   2.0000      -6.028013      -164.0306
  82   2.0000      -6.026620      -163.9927
  83   2.0000      -6.025843      -163.9715
  84   2.0000      -6.025020      -163.9491
  85   2.0000      -6.022151      -163.8710
  86   2.0000      -6.020992      -163.8395
  87   2.0000      -6.018614      -163.7748
  88   2.0000      -1.335770       -36.3482
  89   2.0000      -1.321487       -35.9595
  90   2.0000      -1.320299       -35.9272
  91   2.0000      -1.317371       -35.8475
  92   2.0000      -1.306653       -35.5558
  93   2.0000      -1.305432       -35.5226
  94   2.0000      -1.243875       -33.8476
  95   2.0000      -1.137173       -30.9440
  96   2.0000      -1.132320       -30.8120
  97   2.0000      -1.025751       -27.9121
  98   2.0000      -1.023030       -27.8381
  99   2.0000      -1.020597       -27.7719
 100   2.0000      -1.020151       -27.7597
 101   2.0000      -1.013496       -27.5786
 102   2.0000      -1.007062       -27.4036
 103   2.0000      -1.005207       -27.3531
 104   2.0000      -1.004696       -27.3392
 105   2.0000      -0.995904       -27.0999
 106   2.0000      -0.994846       -27.0711
 107   2.0000      -0.982869       -26.7452
 108   2.0000      -0.981610       -26.7110
 109   2.0000      -0.965285       -26.2667
 110   2.0000      -0.960263       -26.1301
 111   2.0000      -0.943925       -25.6855
 112   2.0000      -0.932210       -25.3667
 113   2.0000      -0.930258       -25.3136
 114   2.0000      -0.909897       -24.7596
 115   2.0000      -0.903897       -24.5963
 116   2.0000      -0.897575       -24.4242
 117   2.0000      -0.893402       -24.3107
 118   2.0000      -0.891420       -24.2568
 119   2.0000      -0.880267       -23.9533
 120   2.0000      -0.877661       -23.8824
 121   2.0000      -0.870243       -23.6805
 122   2.0000      -0.864673       -23.5289
 123   2.0000      -0.842480       -22.9251
 124   2.0000      -0.841595       -22.9010
 125   2.0000      -0.840108       -22.8605
 126   2.0000      -0.827825       -22.5263
 127   2.0000      -0.820781       -22.3346
 128   2.0000      -0.812882       -22.1196
 129   2.0000      -0.810094       -22.0438
 130   2.0000      -0.799721       -21.7615
 131   2.0000      -0.776610       -21.1326
 132   2.0000      -0.768312       -20.9068
 133   2.0000      -0.767278       -20.8787
 134   2.0000      -0.758913       -20.6511
 135   2.0000      -0.755738       -20.5647
 136   2.0000      -0.740081       -20.1386
 137   2.0000      -0.737739       -20.0749
 138   2.0000      -0.723551       -19.6888
 139   2.0000      -0.719429       -19.5767
 140   2.0000      -0.717132       -19.5142
 141   2.0000      -0.711414       -19.3586
 142   2.0000      -0.695756       -18.9325
 143   2.0000      -0.687883       -18.7182
 144   2.0000      -0.685071       -18.6417
 145   2.0000      -0.679305       -18.4848
 146   2.0000      -0.676536       -18.4095
 147   2.0000      -0.668126       -18.1806
 148   2.0000      -0.665470       -18.1084
 149   2.0000      -0.659170       -17.9369
 150   2.0000      -0.658584       -17.9210
 151   2.0000      -0.655696       -17.8424
 152   2.0000      -0.653792       -17.7906
 153   2.0000      -0.643887       -17.5210
 154   2.0000      -0.642863       -17.4932
 155   2.0000      -0.641846       -17.4655
 156   2.0000      -0.640109       -17.4182
 157   2.0000      -0.631072       -17.1723
 158   2.0000      -0.627559       -17.0767
 159   2.0000      -0.622498       -16.9390
 160   2.0000      -0.619971       -16.8703
 161   2.0000      -0.614855       -16.7311
 162   2.0000      -0.612262       -16.6605
 163   2.0000      -0.598403       -16.2834
 164   2.0000      -0.596460       -16.2305
 165   2.0000      -0.593259       -16.1434
 166   2.0000      -0.588038       -16.0013
 167   2.0000      -0.586942       -15.9715
 168   2.0000      -0.586043       -15.9470
 169   2.0000      -0.585390       -15.9293
 170   2.0000      -0.584831       -15.9141
 171   2.0000      -0.579774       -15.7764
 172   2.0000      -0.578390       -15.7388
 173   2.0000      -0.574796       -15.6410
 174   2.0000      -0.570235       -15.5169
 175   2.0000      -0.564576       -15.3629
 176   2.0000      -0.559910       -15.2359
 177   2.0000      -0.555493       -15.1157
 178   2.0000      -0.553449       -15.0601
 179   2.0000      -0.547659       -14.9026
 180   2.0000      -0.546426       -14.8690
 181   2.0000      -0.546201       -14.8629
 182   2.0000      -0.541338       -14.7306
 183   2.0000      -0.541285       -14.7291
 184   2.0000      -0.538096       -14.6423
 185   2.0000      -0.534275       -14.5384
 186   2.0000      -0.532845       -14.4995
 187   2.0000      -0.529808       -14.4168
 188   2.0000      -0.528782       -14.3889
 189   2.0000      -0.527956       -14.3664
 190   2.0000      -0.526022       -14.3138
 191   2.0000      -0.524704       -14.2779
 192   2.0000      -0.521936       -14.2026
 193   2.0000      -0.518481       -14.1086
 194   2.0000      -0.515766       -14.0347
 195   2.0000      -0.514613       -14.0033
 196   2.0000      -0.512076       -13.9343
 197   2.0000      -0.510670       -13.8960
 198   2.0000      -0.509278       -13.8582
 199   2.0000      -0.504791       -13.7361
 200   2.0000      -0.502872       -13.6838
 201   2.0000      -0.499035       -13.5794
 202   2.0000      -0.498348       -13.5607
 203   2.0000      -0.490127       -13.3370
 204   2.0000      -0.489235       -13.3128
 205   2.0000      -0.487562       -13.2672
 206   2.0000      -0.487329       -13.2609
 207   2.0000      -0.486290       -13.2326
 208   2.0000      -0.484435       -13.1821
 209   2.0000      -0.472794       -12.8654
 210   2.0000      -0.470041       -12.7905
 211   2.0000      -0.469336       -12.7713
 212   2.0000      -0.466081       -12.6827
 213   2.0000      -0.464809       -12.6481
 214   2.0000      -0.463258       -12.6059
 215   2.0000      -0.462613       -12.5883
 216   2.0000      -0.462258       -12.5787
 217   2.0000      -0.452004       -12.2996
 218   2.0000      -0.450891       -12.2694
 219   2.0000      -0.448303       -12.1990
 220   2.0000      -0.447295       -12.1715
 221   2.0000      -0.446896       -12.1607
 222   2.0000      -0.444307       -12.0902
 223   2.0000      -0.443914       -12.0795
 224   2.0000      -0.442699       -12.0465
 225   2.0000      -0.436202       -11.8697
 226   2.0000      -0.432169       -11.7599
 227   2.0000      -0.430098       -11.7036
 228   2.0000      -0.429487       -11.6869
 229   2.0000      -0.428572       -11.6620
 230   2.0000      -0.428041       -11.6476
 231   2.0000      -0.423148       -11.5144
 232   2.0000      -0.419536       -11.4162
 233   2.0000      -0.418120       -11.3776
 234   2.0000      -0.414641       -11.2830
 235   2.0000      -0.409605       -11.1459
 236   2.0000      -0.408947       -11.1280
 237   2.0000      -0.405211       -11.0264
 238   2.0000      -0.395987       -10.7754
 239   2.0000      -0.394257       -10.7283
 240   2.0000      -0.385364       -10.4863
 241   2.0000      -0.385085       -10.4787
 242   2.0000      -0.382980       -10.4214
 243   2.0000      -0.372056       -10.1241
 244   2.0000      -0.368384       -10.0242
 245   2.0000      -0.361657        -9.8412
 246   2.0000      -0.351123        -9.5545
 247   2.0000      -0.339706        -9.2439
 248   2.0000      -0.337669        -9.1884
 249   2.0000      -0.335482        -9.1289
 250   2.0000      -0.322371        -8.7722
 251   2.0000      -0.318423        -8.6647
 252   2.0000      -0.317399        -8.6369
 253   2.0000      -0.306137        -8.3304
 254   2.0000      -0.303212        -8.2508
 255   2.0000      -0.301541        -8.2053
 256   2.0000      -0.298577        -8.1247
 257   2.0000      -0.280284        -7.6269
 258   2.0000      -0.253696        -6.9034
 259   0.0000      -0.107859        -2.9350
 260   0.0000      -0.094204        -2.5634
 261   0.0000      -0.068562        -1.8657
 262   0.0000      -0.059863        -1.6290
 263   0.0000      -0.054800        -1.4912

MULLIKEN ATOMIC CHARGES
-----------------------
   0 C :   -0.110279
   1 C :    0.242974
   2 F :   -0.171159
   3 C :    0.238323
   4 F :   -0.172341
   5 C :   -0.107780
   6 C :    0.118402
   7 C :    0.115312
   8 C :   -0.086234
   9 C :    0.046318
  10 C :   -0.004376
  11 C :   -0.083746
  12 C :    0.165587
  13 O :   -0.171284
  14 C :   -0.094890
  15 C :    0.335134
  16 C :   -0.359721
  17 C :   -0.183814
  18 N :    0.147250
  19 C :   -0.187923
  20 N :    0.141823
  21 C :   -0.021775
  22 C :   -0.059484
  23 C :   -0.053934
  24 C :    0.038412
  25 C :    0.009622
  26 S :    0.200557
  27 C :   -0.059017
  28 C :   -0.112605
  29 S :    0.158484
  30 C :    0.132962
  31 C :    0.127018
  32 F :   -0.170083
  33 C :    0.120338
  34 F :   -0.172829
  35 C :    0.098983
  36 C :   -0.028217
  37 C :   -0.073972
  38 N :   -0.080249
  39 N :   -0.055793
  40 N :   -0.072032
  41 C :    0.143653
  42 C :   -0.131098
  43 C :   -0.047705
  44 C :    0.017819
  45 C :   -0.023296
  46 S :    0.172862
  47 C :    0.017662
  48 C :   -0.122673
  49 S :    0.163586
  50 C :    0.088397
  51 C :   -0.137608
  52 C :    0.137341
  53 O :   -0.142843
  54 C :    0.016119
  55 C :   -0.086638
  56 C :    0.114575
  57 C :    0.114340
  58 C :   -0.109420
  59 C :    0.241666
  60 C :    0.238652
  61 C :   -0.106294
  62 F :   -0.171177
  63 F :   -0.170313
  64 C :   -0.086807
  65 C :    0.036804
  66 C :    0.267257
  67 C :   -0.336084
  68 C :   -0.207544
  69 N :    0.174729
  70 C :   -0.174532
  71 N :    0.155528
  72 H :    0.008266
  73 H :    0.000205
  74 H :   -0.006536
  75 H :   -0.009637
  76 H :    0.007696
  77 H :    0.007135
  78 H :    0.000853
  79 H :    0.059281
  80 H :    0.057903
  81 H :    0.060987
  82 H :   -0.001996
  83 H :    0.003687
  84 H :    0.025203
  85 H :   -0.008310
  86 H :    0.006743
  87 H :    0.000463
  88 H :   -0.002859
Sum of atomic charges:   -0.0000000

LOEWDIN ATOMIC CHARGES
----------------------
   0 C :   -0.029228
   1 C :    0.066123
   2 F :   -0.049066
   3 C :    0.067347
   4 F :   -0.049593
   5 C :   -0.033636
   6 C :   -0.008951
   7 C :   -0.006916
   8 C :    0.017524
   9 C :   -0.022315
  10 C :   -0.051402
  11 C :    0.028917
  12 C :    0.082934
  13 O :   -0.162567
  14 C :   -0.112201
  15 C :    0.077907
  16 C :   -0.145035
  17 C :   -0.017501
  18 N :   -0.056733
  19 C :   -0.020681
  20 N :   -0.056804
  21 C :    0.059551
  22 C :   -0.177663
  23 C :   -0.022021
  24 C :   -0.209345
  25 C :   -0.188198
  26 S :    0.488304
  27 C :   -0.061224
  28 C :   -0.140265
  29 S :    0.451583
  30 C :   -0.065258
  31 C :    0.071383
  32 F :   -0.041643
  33 C :    0.062382
  34 F :   -0.047889
  35 C :   -0.061743
  36 C :   -0.039165
  37 C :   -0.053741
  38 N :   -0.094757
  39 N :    0.160356
  40 N :   -0.085064
  41 C :    0.035664
  42 C :   -0.149261
  43 C :   -0.055128
  44 C :   -0.180905
  45 C :   -0.198391
  46 S :    0.445296
  47 C :   -0.021039
  48 C :   -0.175649
  49 S :    0.444056
  50 C :    0.051544
  51 C :   -0.097334
  52 C :    0.082517
  53 O :   -0.143487
  54 C :   -0.053725
  55 C :    0.030102
  56 C :   -0.009550
  57 C :   -0.005841
  58 C :   -0.030507
  59 C :    0.066766
  60 C :    0.066769
  61 C :   -0.033062
  62 F :   -0.049376
  63 F :   -0.048625
  64 C :    0.012910
  65 C :   -0.020258
  66 C :    0.064697
  67 C :   -0.141415
  68 C :   -0.020182
  69 N :   -0.039059
  70 C :   -0.020560
  71 N :   -0.052398
  72 H :    0.047821
  73 H :    0.044764
  74 H :    0.039914
  75 H :    0.040198
  76 H :    0.050807
  77 H :    0.040752
  78 H :    0.034147
  79 H :    0.045850
  80 H :    0.043430
  81 H :    0.044498
  82 H :    0.032598
  83 H :    0.037656
  84 H :    0.046784
  85 H :    0.040727
  86 H :    0.047311
  87 H :    0.044926
  88 H :    0.039542

  Mayer bond orders larger than 0.100000
B(  0-C ,  1-C ) :   1.4393 B(  0-C ,  5-C ) :   0.1086 B(  0-C ,  7-C ) :   1.1887
B(  0-C , 72-H ) :   1.0074 B(  1-C ,  2-F ) :   1.1347 B(  1-C ,  3-C ) :   1.1917
B(  3-C ,  4-F ) :   1.1326 B(  3-C ,  5-C ) :   1.4415 B(  5-C ,  6-C ) :   1.1926
B(  5-C , 73-H ) :   1.0077 B(  6-C ,  7-C ) :   1.2578 B(  6-C , 11-C ) :   1.1847
B(  7-C ,  8-C ) :   1.2141 B(  8-C ,  9-C ) :   1.4518 B(  8-C , 74-H ) :   0.9896
B(  9-C , 10-C ) :   1.2236 B(  9-C , 15-C ) :   0.9805 B( 10-C , 11-C ) :   1.4716
B( 10-C , 12-C ) :   0.9530 B( 11-C , 75-H ) :   1.0171 B( 12-C , 13-O ) :   2.1509
B( 12-C , 14-C ) :   0.9716 B( 14-C , 15-C ) :   1.0875 B( 14-C , 21-C ) :   1.4851
B( 15-C , 16-C ) :   1.6157 B( 16-C , 17-C ) :   1.1497 B( 16-C , 19-C ) :   1.1459
B( 17-C , 18-N ) :   2.9587 B( 19-C , 20-N ) :   2.9547 B( 21-C , 22-C ) :   1.2792
B( 21-C , 76-H ) :   0.9376 B( 22-C , 23-C ) :   1.3645 B( 22-C , 26-S ) :   1.0762
B( 23-C , 24-C ) :   1.3061 B( 23-C , 77-H ) :   1.0152 B( 24-C , 25-C ) :   1.3416
B( 24-C , 29-S ) :   1.0228 B( 25-C , 26-S ) :   1.0565 B( 25-C , 27-C ) :   1.2482
B( 27-C , 28-C ) :   1.4948 B( 27-C , 78-H ) :   1.0023 B( 28-C , 29-S ) :   1.1118
B( 28-C , 30-C ) :   1.1388 B( 30-C , 31-C ) :   1.3669 B( 30-C , 35-C ) :   0.1194
B( 30-C , 37-C ) :   1.1580 B( 31-C , 32-F ) :   1.1413 B( 31-C , 33-C ) :   1.1960
B( 33-C , 34-F ) :   1.1386 B( 33-C , 35-C ) :   1.3632 B( 35-C , 36-C ) :   1.1780
B( 35-C , 42-C ) :   1.1519 B( 36-C , 37-C ) :   1.2299 B( 36-C , 40-N ) :   1.4719
B( 37-C , 38-N ) :   1.4581 B( 38-N , 39-N ) :   1.2504 B( 38-N , 40-N ) :   0.1601
B( 39-N , 40-N ) :   1.2197 B( 39-N , 41-C ) :   0.9507 B( 41-C , 79-H ) :   0.9660
B( 41-C , 80-H ) :   0.9696 B( 41-C , 81-H ) :   0.9690 B( 42-C , 43-C ) :   1.5234
B( 42-C , 46-S ) :   1.0989 B( 43-C , 44-C ) :   1.2303 B( 43-C , 82-H ) :   0.9857
B( 44-C , 45-C ) :   1.3895 B( 44-C , 49-S ) :   1.0905 B( 45-C , 46-S ) :   1.0471
B( 45-C , 47-C ) :   1.3234 B( 47-C , 48-C ) :   1.4431 B( 47-C , 83-H ) :   0.9910
B( 48-C , 49-S ) :   1.0841 B( 48-C , 50-C ) :   1.1506 B( 50-C , 51-C ) :   1.6524
B( 50-C , 84-H ) :   0.9261 B( 51-C , 52-C ) :   0.9464 B( 51-C , 66-C ) :   1.0465
B( 52-C , 53-O ) :   2.2682 B( 52-C , 54-C ) :   0.9160 B( 54-C , 55-C ) :   1.4760
B( 54-C , 65-C ) :   1.2217 B( 55-C , 56-C ) :   1.1933 B( 55-C , 85-H ) :   1.0160
B( 56-C , 57-C ) :   1.2548 B( 56-C , 61-C ) :   1.1934 B( 57-C , 58-C ) :   1.1906
B( 57-C , 64-C ) :   1.2137 B( 58-C , 59-C ) :   1.4422 B( 58-C , 61-C ) :   0.1086
B( 58-C , 86-H ) :   1.0064 B( 59-C , 60-C ) :   1.1905 B( 59-C , 63-F ) :   1.1353
B( 60-C , 61-C ) :   1.4442 B( 60-C , 62-F ) :   1.1338 B( 61-C , 87-H ) :   1.0066
B( 64-C , 65-C ) :   1.4588 B( 64-C , 88-H ) :   0.9932 B( 65-C , 66-C ) :   0.9949
B( 66-C , 67-C ) :   1.6428 B( 67-C , 68-C ) :   1.1659 B( 67-C , 70-C ) :   1.1297
B( 68-C , 69-N ) :   3.0056 B( 70-C , 71-N ) :   2.9865

-----------------------------------------------------------------------------
         ABSORPTION SPECTRUM VIA TRANSITION ELECTRIC DIPOLE MOMENTS
-----------------------------------------------------------------------------
State   Energy  Wavelength   fosc         T2         TX        TY        TZ
        (cm-1)    (nm)                  (au**2)     (au)      (au)      (au)
-----------------------------------------------------------------------------
   0   17111.8    584.4   2.722748647  52.38268  -0.29772  -7.22241   0.36165
   1   20651.8    484.2   0.292170809   4.65752  -1.18095  -1.57686  -0.88113
   2   25485.1    392.4   0.011191301   0.14457  -0.16031   0.34382   0.02563
   3   25862.5    386.7   0.096513743   1.22855   0.31687   1.03441   0.24113
   4   26275.2    380.6   0.021709826   0.27201  -0.01336  -0.08095  -0.51505
   5   26718.7    374.3   0.101912740   1.25571  -0.52795  -0.38894  -0.90868
   6   27339.8    365.8   0.082213812   0.98998  -0.44541  -0.88968  -0.00751
   7   27437.6    364.5   0.047053913   0.56458   0.23312   0.58346  -0.41209
   8   28383.6    352.3   0.028661589   0.33244   0.12876  -0.00528   0.56199
   9   28427.3    351.8   0.133449050   1.54545  -0.13694  -0.07760  -1.23316
  10   28922.8    345.7   0.008123626   0.09247   0.15013  -0.15715  -0.21268
  11   29534.1    338.6   0.066021737   0.73593  -0.32968  -0.79198  -0.00425
  12   29715.4    336.5   0.101103607   1.12011   0.13109  -0.39132   0.97457
  13   30095.5    332.3   0.189928041   2.07761  -0.06332  -1.43282  -0.14361
  14   30162.2    331.5   0.111243502   1.21419   0.31982   0.89966  -0.55001
  15   32369.9    308.9   0.007658227   0.07789   0.10305   0.18525  -0.18153
  16   32527.0    307.4   0.001467432   0.01485   0.06393  -0.08084   0.06504
  17   33568.5    297.9   0.245295555   2.40565   0.15165   0.32988  -1.50793
  18   33782.2    296.0   0.133767534   1.30358   0.54211   0.99537  -0.13760
  19   33824.8    295.6   0.000403870   0.00393   0.02277   0.05838   0.00204
  20   34136.6    292.9   0.266489561   2.57001   0.63539   1.29125   0.70637
  21   34345.0    291.2   0.295921713   2.83654   0.32802   1.00573   1.31051
  22   34803.6    287.3   0.263920271   2.49645  -0.37548  -0.57753  -1.42195
  23   34957.7    286.1   0.486757554   4.58401   0.43962   1.67252  -1.26230
  24   35791.4    279.4   0.017316469   0.15928   0.05993  -0.10368  -0.38071
  25   36026.4    277.6   0.106170584   0.97020   0.31735   0.49155  -0.79238
  26   36524.7    273.8   0.133926191   1.20713  -0.09349   0.95348  -0.53783
  27   36811.0    271.7   0.010875891   0.09727   0.26363   0.11206   0.12332
  28   37229.0    268.6   0.059677662   0.52772  -0.08174  -0.04889  -0.72017
  29   37525.1    266.5   0.024539099   0.21528  -0.03977  -0.34947  -0.30261
  30   37673.9    265.4   0.029372992   0.25667   0.11271  -0.38449   0.31006
  31   37974.4    263.3   0.036134611   0.31326   0.30730   0.42763   0.18963
  32   38304.0    261.1   0.091585955   0.78716  -0.16087  -0.76284   0.42350
  33   38455.3    260.0   0.020719922   0.17738   0.07994   0.10795  -0.39917
  34   38953.4    256.7   0.170081180   1.43743  -0.41256   0.22321  -1.10336
  35   39145.1    255.5   0.158962268   1.33688  -0.61928  -0.95244   0.21501
  36   40118.7    249.3   0.007192769   0.05902  -0.00853   0.19321  -0.14704

FINAL SINGLE POINT ENERGY     -4750.979842538110

DIPOLE MOMENT
-------------
                                X             Y             Z
Electronic contribution:      4.37267       0.38814      29.00573
Nuclear contribution   :     -6.05212      -1.69762     -29.38556
                        -----------------------------------------
Total Dipole Moment    :     -1.67945      -1.30948      -0.37983
                        -----------------------------------------
Magnitude (a.u.)       :      2.16323
Magnitude (Debye)      :      5.49849

Rotational constants in cm-1:     0.002188     0.000170     0.000159
Rotational constants in MHz :    65.588938     5.084386     4.766498

                             ****ORCA TERMINATED NORMALLY****
TOTAL RUN TIME: 0 days 0 hours 8 minutes 26 seconds 159 msec
