                         Program Version 4.2.0 -  RELEASE  -
|  1> # ORCA input file
|  2> # SCF done       -181.615127893236          0.000776525121
|  3> ! CAM-B3LYP def2-SVP def2/J RIJCOSX Grid4 TightSCF
|  4> %maxcore 5000
|  5> %tddft
|  6>     Mode sTDDFT
|  7>     Ethresh 5.0
|  8>     maxcore 5000
|  9> end
| 10>
| 11> %pal
| 12>   nprocs 6
| 13>   end
| 14> * xyz 0 1
| 15>    C       -1.23838       -10.97686       -11.97659
| 16>    C       -0.44135       -12.07928       -12.11198
| 17>    F        0.00174       -12.44493       -13.32186
| 18>    C       -0.07494       -12.84227       -10.98542
| 19>    F        0.70840       -13.91713       -11.14737
| 20>    C       -0.51023       -12.49148        -9.73803
| 21>    C       -1.32922       -11.35898        -9.56581
| 22>    C       -1.70206       -10.58726       -10.70434
| 23>    C       -2.51948        -9.44193       -10.55585
| 24>    C       -2.94123        -9.07448        -9.30596
| 25>    C       -2.55549        -9.84806        -8.17436
| 26>    C       -1.77895       -10.96466        -8.28580
| 27>    C       -3.10228        -9.22064        -6.96138
| 28>    O       -2.99249        -9.63353        -5.81659
| 29>    C       -3.78016        -8.00151        -7.39480
| 30>    C       -3.75078        -7.94710        -8.84330
| 31>    C       -4.37292        -7.03349        -9.65371
| 32>    C       -5.17988        -5.96450        -9.21035
| 33>    N       -5.85022        -5.07513        -8.92936
| 34>    C       -4.30287        -7.05327       -11.06281
| 35>    N       -4.28220        -7.01437       -12.20993
| 36>    C       -4.23774        -7.02041        -6.54742
| 37>    C       -4.18453        -6.94304        -5.14754
| 38>    C       -4.52289        -5.73698        -4.51057
| 39>    C       -4.33190        -5.69108        -3.14883
| 40>    C       -3.88503        -6.88961        -2.59400
| 41>   Se       -3.64653        -8.24446        -3.87802
| 42>    C       -3.49847        -7.12723        -1.27017
| 43>    C       -3.15679        -8.40111        -0.80337
| 44>    C       -2.66049        -8.39023         0.53396
| 45>    N       -2.24281        -9.49700         1.13182
| 46>    C       -2.31513       -10.61189         0.43617
| 47>    C       -1.81852       -11.83539         1.10991
| 48>    O       -1.36005       -11.80249         2.23289
| 49>    C       -1.92304       -13.06418         0.30892
| 50>    C       -2.41807       -13.09073        -0.93420
| 51>    C       -2.92215       -11.90525        -1.65460
| 52>    O       -3.38977       -11.97226        -2.76958
| 53>    C       -2.82801       -10.62854        -0.90069
| 54>    N       -3.23442        -9.52940        -1.50434
| 55>    C       -2.58874        -7.11612         1.10696
| 56>    S       -3.20885        -5.94290        -0.01665
| 57>    C       -1.93678        -6.91323         2.33111
| 58>    C       -1.65731        -5.71837         2.98161
| 59>    C       -0.78444        -5.83322         4.05323
| 60>    C       -0.37503        -7.12552         4.34706
| 61>   Se       -1.13107        -8.38989         3.17381
| 62>    C        0.60513        -7.49783         5.30178
| 63>    C        1.75003        -6.81261         5.57697
| 64>    C        2.50842        -7.06276         6.83178
| 65>    O        2.33955        -7.96800         7.61423
| 66>    C        3.46494        -5.93925         6.93482
| 67>    C        4.33988        -5.64713         7.94089
| 68>    C        5.16339        -4.50429         7.82601
| 69>    C        5.05442        -3.67608         6.67110
| 70>    C        5.87583        -2.53580         6.56409
| 71>    C        6.76864        -2.23525         7.55399
| 72>    C        6.87847        -3.05674         8.69420
| 73>    C        6.09283        -4.16710         8.82909
| 74>    F        7.76263        -2.73803         9.64841
| 75>    F        7.55098        -1.15355         7.44917
| 76>    C        4.14211        -4.00521         5.64321
| 77>    C        3.36592        -5.12634         5.76904
| 78>    C        2.40568        -5.74060         4.85750
| 79>    C        2.34382        -5.51195         3.50556
| 80>    C        1.65372        -6.35710         2.61630
| 81>    N        1.16739        -7.07000         1.85654
| 82>    C        3.03635        -4.47571         2.84855
| 83>    N        3.55653        -3.63039         2.27186
| 84>    H       -1.50935       -10.40452       -12.85002
| 85>    H       -0.22065       -13.08472        -8.88487
| 86>    H       -2.78034        -8.87943       -11.43761
| 87>    H       -1.50649       -11.53207        -7.40916
| 88>    H       -4.63826        -6.12684        -7.01443
| 89>    H       -4.87536        -4.89022        -5.07727
| 90>    H       -4.51397        -4.81492        -2.54769
| 91>    H       -1.56775       -13.96425         0.79208
| 92>    H       -2.47908       -14.01639        -1.49073
| 93>    H       -2.06190        -4.77881         2.64237
| 94>    H       -0.47075        -4.98666         4.64315
| 95>    H        0.43080        -8.39688         5.88678
| 96>    H        4.40808        -6.28285         8.81045
| 97>    H        5.80744        -1.89959         5.69549
| 98>    H        6.18966        -4.78533         9.70776
| 99>    H        4.07578        -3.35967         4.78188
|100> *
|101>
|102>                          ****END OF INPUT****

CARTESIAN COORDINATES (ANGSTROEM)
---------------------------------
  C     -1.238380  -10.976860  -11.976590
  C     -0.441350  -12.079280  -12.111980
  F      0.001740  -12.444930  -13.321860
  C     -0.074940  -12.842270  -10.985420
  F      0.708400  -13.917130  -11.147370
  C     -0.510230  -12.491480   -9.738030
  C     -1.329220  -11.358980   -9.565810
  C     -1.702060  -10.587260  -10.704340
  C     -2.519480   -9.441930  -10.555850
  C     -2.941230   -9.074480   -9.305960
  C     -2.555490   -9.848060   -8.174360
  C     -1.778950  -10.964660   -8.285800
  C     -3.102280   -9.220640   -6.961380
  O     -2.992490   -9.633530   -5.816590
  C     -3.780160   -8.001510   -7.394800
  C     -3.750780   -7.947100   -8.843300
  C     -4.372920   -7.033490   -9.653710
  C     -5.179880   -5.964500   -9.210350
  N     -5.850220   -5.075130   -8.929360
  C     -4.302870   -7.053270  -11.062810
  N     -4.282200   -7.014370  -12.209930
  C     -4.237740   -7.020410   -6.547420
  C     -4.184530   -6.943040   -5.147540
  C     -4.522890   -5.736980   -4.510570
  C     -4.331900   -5.691080   -3.148830
  C     -3.885030   -6.889610   -2.594000
  Se    -3.646530   -8.244460   -3.878020
  C     -3.498470   -7.127230   -1.270170
  C     -3.156790   -8.401110   -0.803370
  C     -2.660490   -8.390230    0.533960
  N     -2.242810   -9.497000    1.131820
  C     -2.315130  -10.611890    0.436170
  C     -1.818520  -11.835390    1.109910
  O     -1.360050  -11.802490    2.232890
  C     -1.923040  -13.064180    0.308920
  C     -2.418070  -13.090730   -0.934200
  C     -2.922150  -11.905250   -1.654600
  O     -3.389770  -11.972260   -2.769580
  C     -2.828010  -10.628540   -0.900690
  N     -3.234420   -9.529400   -1.504340
  C     -2.588740   -7.116120    1.106960
  S     -3.208850   -5.942900   -0.016650
  C     -1.936780   -6.913230    2.331110
  C     -1.657310   -5.718370    2.981610
  C     -0.784440   -5.833220    4.053230
  C     -0.375030   -7.125520    4.347060
  Se    -1.131070   -8.389890    3.173810
  C      0.605130   -7.497830    5.301780
  C      1.750030   -6.812610    5.576970
  C      2.508420   -7.062760    6.831780
  O      2.339550   -7.968000    7.614230
  C      3.464940   -5.939250    6.934820
  C      4.339880   -5.647130    7.940890
  C      5.163390   -4.504290    7.826010
  C      5.054420   -3.676080    6.671100
  C      5.875830   -2.535800    6.564090
  C      6.768640   -2.235250    7.553990
  C      6.878470   -3.056740    8.694200
  C      6.092830   -4.167100    8.829090
  F      7.762630   -2.738030    9.648410
  F      7.550980   -1.153550    7.449170
  C      4.142110   -4.005210    5.643210
  C      3.365920   -5.126340    5.769040
  C      2.405680   -5.740600    4.857500
  C      2.343820   -5.511950    3.505560
  C      1.653720   -6.357100    2.616300
  N      1.167390   -7.070000    1.856540
  C      3.036350   -4.475710    2.848550
  N      3.556530   -3.630390    2.271860
  H     -1.509350  -10.404520  -12.850020
  H     -0.220650  -13.084720   -8.884870
  H     -2.780340   -8.879430  -11.437610
  H     -1.506490  -11.532070   -7.409160
  H     -4.638260   -6.126840   -7.014430
  H     -4.875360   -4.890220   -5.077270
  H     -4.513970   -4.814920   -2.547690
  H     -1.567750  -13.964250    0.792080
  H     -2.479080  -14.016390   -1.490730
  H     -2.061900   -4.778810    2.642370
  H     -0.470750   -4.986660    4.643150
  H      0.430800   -8.396880    5.886780
  H      4.408080   -6.282850    8.810450
  H      5.807440   -1.899590    5.695490
  H      6.189660   -4.785330    9.707760
  H      4.075780   -3.359670    4.781880

 Total Charge           Charge          ....    0
 Multiplicity           Mult            ....    1
 Number of Electrons    NEL             ....  522
 Basis Dimension        Dim             .... 1086

ORBITAL ENERGIES
----------------

  NO   OCC          E(Eh)            E(eV)
   0   2.0000    -453.934069    -12352.1740
   1   2.0000    -453.929587    -12352.0520
   2   2.0000     -89.008427     -2422.0424
   3   2.0000     -58.148012     -1582.2879
   4   2.0000     -58.142926     -1582.1495
   5   2.0000     -52.218142     -1420.9279
   6   2.0000     -52.216983     -1420.8964
   7   2.0000     -52.216040     -1420.8707
   8   2.0000     -52.213043     -1420.7891
   9   2.0000     -52.211800     -1420.7553
  10   2.0000     -52.210925     -1420.7315
  11   2.0000     -24.800595      -674.8585
  12   2.0000     -24.799907      -674.8398
  13   2.0000     -24.796912      -674.7583
  14   2.0000     -24.795714      -674.7257
  15   2.0000     -19.239076      -523.5219
  16   2.0000     -19.237560      -523.4806
  17   2.0000     -19.221842      -523.0529
  18   2.0000     -19.218356      -522.9581
  19   2.0000     -14.466711      -393.6592
  20   2.0000     -14.463973      -393.5847
  21   2.0000     -14.419811      -392.3830
  22   2.0000     -14.416212      -392.2851
  23   2.0000     -14.414701      -392.2440
  24   2.0000     -14.412261      -392.1775
  25   2.0000     -10.388244      -282.6785
  26   2.0000     -10.386872      -282.6412
  27   2.0000     -10.383800      -282.5576
  28   2.0000     -10.383367      -282.5458
  29   2.0000     -10.379614      -282.4437
  30   2.0000     -10.378864      -282.4232
  31   2.0000     -10.369819      -282.1771
  32   2.0000     -10.367969      -282.1268
  33   2.0000     -10.356285      -281.8089
  34   2.0000     -10.355680      -281.7924
  35   2.0000     -10.345857      -281.5251
  36   2.0000     -10.345271      -281.5091
  37   2.0000     -10.343639      -281.4647
  38   2.0000     -10.341830      -281.4155
  39   2.0000     -10.340459      -281.3782
  40   2.0000     -10.339683      -281.3571
  41   2.0000     -10.338954      -281.3372
  42   2.0000     -10.338865      -281.3348
  43   2.0000     -10.324532      -280.9448
  44   2.0000     -10.324356      -280.9400
  45   2.0000     -10.322550      -280.8909
  46   2.0000     -10.320372      -280.8316
  47   2.0000     -10.320051      -280.8229
  48   2.0000     -10.319172      -280.7989
  49   2.0000     -10.318987      -280.7939
  50   2.0000     -10.318222      -280.7731
  51   2.0000     -10.317687      -280.7585
  52   2.0000     -10.315585      -280.7013
  53   2.0000     -10.313377      -280.6412
  54   2.0000     -10.313058      -280.6326
  55   2.0000     -10.310797      -280.5710
  56   2.0000     -10.308473      -280.5078
  57   2.0000     -10.308187      -280.5000
  58   2.0000     -10.307251      -280.4746
  59   2.0000     -10.307223      -280.4738
  60   2.0000     -10.305507      -280.4271
  61   2.0000     -10.305299      -280.4214
  62   2.0000     -10.305183      -280.4183
  63   2.0000     -10.303574      -280.3745
  64   2.0000     -10.302874      -280.3555
  65   2.0000     -10.301647      -280.3221
  66   2.0000     -10.300680      -280.2957
  67   2.0000     -10.299975      -280.2766
  68   2.0000     -10.299417      -280.2614
  69   2.0000     -10.298502      -280.2365
  70   2.0000     -10.296752      -280.1889
  71   2.0000     -10.295248      -280.1479
  72   2.0000     -10.294176      -280.1188
  73   2.0000     -10.294118      -280.1172
  74   2.0000     -10.293024      -280.0874
  75   2.0000     -10.291689      -280.0511
  76   2.0000     -10.289001      -279.9779
  77   2.0000      -8.102362      -220.4765
  78   2.0000      -7.922032      -215.5694
  79   2.0000      -7.917076      -215.4346
  80   2.0000      -6.071428      -165.2120
  81   2.0000      -6.067294      -165.0995
  82   2.0000      -6.065139      -165.0408
  83   2.0000      -5.871141      -159.7619
  84   2.0000      -5.866563      -159.6373
  85   2.0000      -5.866091      -159.6244
  86   2.0000      -5.861710      -159.5052
  87   2.0000      -5.861460      -159.4984
  88   2.0000      -5.856699      -159.3689
  89   2.0000      -2.225582       -60.5612
  90   2.0000      -2.225072       -60.5473
  91   2.0000      -2.220496       -60.4228
  92   2.0000      -2.220359       -60.4190
  93   2.0000      -2.219896       -60.4064
  94   2.0000      -2.216647       -60.3180
  95   2.0000      -2.216348       -60.3099
  96   2.0000      -2.215319       -60.2819
  97   2.0000      -2.211617       -60.1811
  98   2.0000      -2.211305       -60.1727
  99   2.0000      -1.323334       -36.0097
 100   2.0000      -1.319296       -35.8999
 101   2.0000      -1.308469       -35.6052
 102   2.0000      -1.304422       -35.4951
 103   2.0000      -1.156376       -31.4666
 104   2.0000      -1.151217       -31.3262
 105   2.0000      -1.135305       -30.8932
 106   2.0000      -1.133855       -30.8538
 107   2.0000      -1.116987       -30.3948
 108   2.0000      -1.046347       -28.4726
 109   2.0000      -1.023648       -27.8549
 110   2.0000      -1.017600       -27.6903
 111   2.0000      -1.016242       -27.6534
 112   2.0000      -1.006854       -27.3979
 113   2.0000      -1.002555       -27.2809
 114   2.0000      -0.998425       -27.1685
 115   2.0000      -0.992193       -26.9989
 116   2.0000      -0.984530       -26.7904
 117   2.0000      -0.980358       -26.6769
 118   2.0000      -0.974088       -26.5063
 119   2.0000      -0.965917       -26.2839
 120   2.0000      -0.950254       -25.8577
 121   2.0000      -0.934949       -25.4413
 122   2.0000      -0.929721       -25.2990
 123   2.0000      -0.912660       -24.8347
 124   2.0000      -0.904963       -24.6253
 125   2.0000      -0.897213       -24.4144
 126   2.0000      -0.894140       -24.3308
 127   2.0000      -0.890155       -24.2224
 128   2.0000      -0.885596       -24.0983
 129   2.0000      -0.881863       -23.9967
 130   2.0000      -0.870434       -23.6857
 131   2.0000      -0.843326       -22.9481
 132   2.0000      -0.839420       -22.8418
 133   2.0000      -0.838899       -22.8276
 134   2.0000      -0.831134       -22.6163
 135   2.0000      -0.825155       -22.4536
 136   2.0000      -0.815168       -22.1819
 137   2.0000      -0.805096       -21.9078
 138   2.0000      -0.801438       -21.8082
 139   2.0000      -0.790417       -21.5083
 140   2.0000      -0.777671       -21.1615
 141   2.0000      -0.768572       -20.9139
 142   2.0000      -0.766307       -20.8523
 143   2.0000      -0.752166       -20.4675
 144   2.0000      -0.744175       -20.2500
 145   2.0000      -0.733531       -19.9604
 146   2.0000      -0.725197       -19.7336
 147   2.0000      -0.720422       -19.6037
 148   2.0000      -0.714948       -19.4547
 149   2.0000      -0.707946       -19.2642
 150   2.0000      -0.701108       -19.0781
 151   2.0000      -0.691601       -18.8194
 152   2.0000      -0.685990       -18.6667
 153   2.0000      -0.683759       -18.6060
 154   2.0000      -0.677297       -18.4302
 155   2.0000      -0.669446       -18.2166
 156   2.0000      -0.662115       -18.0171
 157   2.0000      -0.656974       -17.8772
 158   2.0000      -0.654618       -17.8131
 159   2.0000      -0.645689       -17.5701
 160   2.0000      -0.643724       -17.5166
 161   2.0000      -0.640975       -17.4418
 162   2.0000      -0.635705       -17.2984
 163   2.0000      -0.629318       -17.1246
 164   2.0000      -0.627024       -17.0622
 165   2.0000      -0.618210       -16.8223
 166   2.0000      -0.613854       -16.7038
 167   2.0000      -0.609714       -16.5912
 168   2.0000      -0.608863       -16.5680
 169   2.0000      -0.601947       -16.3798
 170   2.0000      -0.592157       -16.1134
 171   2.0000      -0.587821       -15.9954
 172   2.0000      -0.587729       -15.9929
 173   2.0000      -0.584849       -15.9146
 174   2.0000      -0.584574       -15.9071
 175   2.0000      -0.583777       -15.8854
 176   2.0000      -0.581330       -15.8188
 177   2.0000      -0.573933       -15.6175
 178   2.0000      -0.570400       -15.5214
 179   2.0000      -0.567160       -15.4332
 180   2.0000      -0.560252       -15.2452
 181   2.0000      -0.556850       -15.1527
 182   2.0000      -0.552623       -15.0376
 183   2.0000      -0.550177       -14.9711
 184   2.0000      -0.549378       -14.9493
 185   2.0000      -0.545463       -14.8428
 186   2.0000      -0.541115       -14.7245
 187   2.0000      -0.539083       -14.6692
 188   2.0000      -0.537515       -14.6265
 189   2.0000      -0.535956       -14.5841
 190   2.0000      -0.534442       -14.5429
 191   2.0000      -0.532625       -14.4935
 192   2.0000      -0.530473       -14.4349
 193   2.0000      -0.528989       -14.3945
 194   2.0000      -0.528033       -14.3685
 195   2.0000      -0.525654       -14.3038
 196   2.0000      -0.521795       -14.1988
 197   2.0000      -0.516836       -14.0638
 198   2.0000      -0.515811       -14.0359
 199   2.0000      -0.513003       -13.9595
 200   2.0000      -0.510857       -13.9011
 201   2.0000      -0.508525       -13.8377
 202   2.0000      -0.507007       -13.7964
 203   2.0000      -0.504271       -13.7219
 204   2.0000      -0.502344       -13.6695
 205   2.0000      -0.496621       -13.5138
 206   2.0000      -0.495253       -13.4765
 207   2.0000      -0.491544       -13.3756
 208   2.0000      -0.488972       -13.3056
 209   2.0000      -0.488725       -13.2989
 210   2.0000      -0.486628       -13.2418
 211   2.0000      -0.482288       -13.1237
 212   2.0000      -0.479809       -13.0563
 213   2.0000      -0.477483       -12.9930
 214   2.0000      -0.470990       -12.8163
 215   2.0000      -0.469795       -12.7838
 216   2.0000      -0.467020       -12.7083
 217   2.0000      -0.464997       -12.6532
 218   2.0000      -0.462107       -12.5746
 219   2.0000      -0.457728       -12.4554
 220   2.0000      -0.455096       -12.3838
 221   2.0000      -0.450051       -12.2465
 222   2.0000      -0.448647       -12.2083
 223   2.0000      -0.448349       -12.2002
 224   2.0000      -0.446321       -12.1450
 225   2.0000      -0.445268       -12.1163
 226   2.0000      -0.442274       -12.0349
 227   2.0000      -0.439286       -11.9536
 228   2.0000      -0.434869       -11.8334
 229   2.0000      -0.430468       -11.7136
 230   2.0000      -0.429799       -11.6954
 231   2.0000      -0.429537       -11.6883
 232   2.0000      -0.425473       -11.5777
 233   2.0000      -0.424831       -11.5602
 234   2.0000      -0.420562       -11.4441
 235   2.0000      -0.417844       -11.3701
 236   2.0000      -0.412454       -11.2234
 237   2.0000      -0.406931       -11.0731
 238   2.0000      -0.404000       -10.9934
 239   2.0000      -0.398850       -10.8533
 240   2.0000      -0.388369       -10.5680
 241   2.0000      -0.385667       -10.4945
 242   2.0000      -0.383406       -10.4330
 243   2.0000      -0.377902       -10.2832
 244   2.0000      -0.373879       -10.1738
 245   2.0000      -0.372606       -10.1391
 246   2.0000      -0.359463        -9.7815
 247   2.0000      -0.359196        -9.7742
 248   2.0000      -0.358241        -9.7482
 249   2.0000      -0.345837        -9.4107
 250   2.0000      -0.340490        -9.2652
 251   2.0000      -0.332429        -9.0459
 252   2.0000      -0.329027        -8.9533
 253   2.0000      -0.320680        -8.7262
 254   2.0000      -0.318778        -8.6744
 255   2.0000      -0.312974        -8.5164
 256   2.0000      -0.311523        -8.4770
 257   2.0000      -0.305191        -8.3047
 258   2.0000      -0.300167        -8.1680
 259   2.0000      -0.289111        -7.8671
 260   2.0000      -0.246316        -6.7026
 261   0.0000      -0.125024        -3.4021
 262   0.0000      -0.103580        -2.8186
 263   0.0000      -0.089438        -2.4337
 264   0.0000      -0.081920        -2.2292
 265   0.0000      -0.059564        -1.6208

MULLIKEN ATOMIC CHARGES
-----------------------
   0 C :   -0.106596
   1 C :    0.240460
   2 F :   -0.171294
   3 C :    0.237096
   4 F :   -0.172486
   5 C :   -0.103499
   6 C :    0.114466
   7 C :    0.111632
   8 C :   -0.084491
   9 C :    0.048400
  10 C :    0.001300
  11 C :   -0.080672
  12 C :    0.181127
  13 O :   -0.196139
  14 C :   -0.100972
  15 C :    0.323788
  16 C :   -0.350243
  17 C :   -0.193168
  18 N :    0.145623
  19 C :   -0.184208
  20 N :    0.145907
  21 C :   -0.013429
  22 C :   -0.104099
  23 C :    0.021690
  24 C :   -0.009833
  25 C :   -0.139335
  26 Se:    0.385831
  27 C :   -0.108231
  28 C :    0.058942
  29 C :    0.049608
  30 N :   -0.000930
  31 C :   -0.108929
  32 C :    0.150110
  33 O :   -0.106492
  34 C :   -0.020951
  35 C :   -0.012531
  36 C :    0.132643
  37 O :   -0.090567
  38 C :   -0.098094
  39 N :    0.034130
  40 C :   -0.062669
  41 S :    0.235829
  42 C :   -0.120090
  43 C :   -0.020128
  44 C :    0.055276
  45 C :   -0.201615
  46 Se:    0.348885
  47 C :    0.082345
  48 C :   -0.127213
  49 C :    0.139480
  50 O :   -0.134789
  51 C :    0.006690
  52 C :   -0.083579
  53 C :    0.113783
  54 C :    0.113999
  55 C :   -0.108175
  56 C :    0.241076
  57 C :    0.240227
  58 C :   -0.104377
  59 F :   -0.171303
  60 F :   -0.170657
  61 C :   -0.085285
  62 C :    0.041870
  63 C :    0.258328
  64 C :   -0.340079
  65 C :   -0.164613
  66 N :    0.156205
  67 C :   -0.175391
  68 N :    0.148843
  69 H :    0.007027
  70 H :   -0.002326
  71 H :   -0.006653
  72 H :   -0.010028
  73 H :    0.015322
  74 H :    0.008401
  75 H :   -0.012213
  76 H :    0.020890
  77 H :    0.021714
  78 H :   -0.009095
  79 H :   -0.002290
  80 H :    0.034931
  81 H :   -0.007531
  82 H :    0.007043
  83 H :    0.000359
  84 H :   -0.003988
Sum of atomic charges:    0.0000000

LOEWDIN ATOMIC CHARGES
----------------------
   0 C :   -0.029391
   1 C :    0.065700
   2 F :   -0.049216
   3 C :    0.066435
   4 F :   -0.050132
   5 C :   -0.033545
   6 C :   -0.009433
   7 C :   -0.006852
   8 C :    0.016929
   9 C :   -0.020658
  10 C :   -0.049574
  11 C :    0.029310
  12 C :    0.090010
  13 O :   -0.154017
  14 C :   -0.110576
  15 C :    0.076860
  16 C :   -0.144281
  17 C :   -0.021544
  18 N :   -0.055433
  19 C :   -0.017774
  20 N :   -0.057096
  21 C :    0.061986
  22 C :   -0.171262
  23 C :   -0.007837
  24 C :   -0.062458
  25 C :   -0.156113
  26 Se:    0.499358
  27 C :   -0.187362
  28 C :   -0.042601
  29 C :   -0.047548
  30 N :    0.007539
  31 C :   -0.032639
  32 C :    0.057503
  33 O :   -0.101933
  34 C :   -0.012259
  35 C :   -0.007846
  36 C :    0.055262
  37 O :   -0.088154
  38 C :   -0.031289
  39 N :    0.006209
  40 C :   -0.174263
  41 S :    0.517051
  42 C :   -0.150069
  43 C :   -0.042645
  44 C :   -0.032136
  45 C :   -0.175713
  46 Se:    0.493284
  47 C :    0.063572
  48 C :   -0.091513
  49 C :    0.081030
  50 O :   -0.138908
  51 C :   -0.054131
  52 C :    0.030451
  53 C :   -0.009117
  54 C :   -0.005932
  55 C :   -0.030461
  56 C :    0.067037
  57 C :    0.067250
  58 C :   -0.032690
  59 F :   -0.048810
  60 F :   -0.048278
  61 C :    0.013666
  62 C :   -0.021325
  63 C :    0.069059
  64 C :   -0.136875
  65 C :   -0.013462
  66 N :   -0.059784
  67 C :   -0.020001
  68 N :   -0.054610
  69 H :    0.047564
  70 H :    0.044161
  71 H :    0.039911
  72 H :    0.040512
  73 H :    0.048765
  74 H :    0.037173
  75 H :    0.027086
  76 H :    0.047295
  77 H :    0.047439
  78 H :    0.030319
  79 H :    0.031386
  80 H :    0.049374
  81 H :    0.041008
  82 H :    0.047424
  83 H :    0.045077
  84 H :    0.039556

  Mayer bond orders larger than 0.100000
B(  0-C ,  1-C ) :   1.4391 B(  0-C ,  5-C ) :   0.1084 B(  0-C ,  7-C ) :   1.1905
B(  0-C , 69-H ) :   1.0061 B(  1-C ,  2-F ) :   1.1346 B(  1-C ,  3-C ) :   1.1945
B(  3-C ,  4-F ) :   1.1326 B(  3-C ,  5-C ) :   1.4399 B(  5-C ,  6-C ) :   1.1957
B(  5-C , 70-H ) :   1.0064 B(  6-C ,  7-C ) :   1.2594 B(  6-C , 11-C ) :   1.1812
B(  7-C ,  8-C ) :   1.2113 B(  8-C ,  9-C ) :   1.4596 B(  8-C , 71-H ) :   0.9896
B(  9-C , 10-C ) :   1.2207 B(  9-C , 15-C ) :   0.9800 B( 10-C , 11-C ) :   1.4763
B( 10-C , 12-C ) :   0.9581 B( 11-C , 72-H ) :   1.0163 B( 12-C , 13-O ) :   2.0759
B( 12-C , 14-C ) :   0.9991 B( 13-O , 26-Se) :   0.1283 B( 14-C , 15-C ) :   1.0799
B( 14-C , 21-C ) :   1.4726 B( 15-C , 16-C ) :   1.6232 B( 16-C , 17-C ) :   1.1442
B( 16-C , 19-C ) :   1.1466 B( 17-C , 18-N ) :   2.9693 B( 19-C , 20-N ) :   2.9621
B( 21-C , 22-C ) :   1.2768 B( 21-C , 73-H ) :   0.9455 B( 22-C , 23-C ) :   1.3364
B( 22-C , 26-Se) :   1.0447 B( 23-C , 24-C ) :   1.3617 B( 23-C , 74-H ) :   1.0020
B( 24-C , 25-C ) :   1.3582 B( 24-C , 75-H ) :   1.0024 B( 25-C , 26-Se) :   1.0878
B( 25-C , 27-C ) :   1.2549 B( 27-C , 28-C ) :   1.2976 B( 27-C , 40-C ) :   0.1005
B( 27-C , 41-S ) :   1.1403 B( 28-C , 29-C ) :   1.1964 B( 28-C , 39-N ) :   1.4071
B( 29-C , 30-N ) :   1.3900 B( 29-C , 40-C ) :   1.2899 B( 30-N , 31-C ) :   1.6797
B( 30-N , 46-Se) :   0.1081 B( 31-C , 32-C ) :   0.8987 B( 31-C , 38-C ) :   1.1002
B( 32-C , 33-O ) :   2.2283 B( 32-C , 34-C ) :   1.0267 B( 34-C , 35-C ) :   1.6834
B( 34-C , 76-H ) :   0.9990 B( 35-C , 36-C ) :   1.0228 B( 35-C , 77-H ) :   0.9975
B( 36-C , 37-O ) :   2.2502 B( 36-C , 38-C ) :   0.8955 B( 38-C , 39-N ) :   1.6963
B( 40-C , 41-S ) :   1.1557 B( 40-C , 42-C ) :   1.2438 B( 42-C , 43-C ) :   1.4188
B( 42-C , 46-Se) :   1.1237 B( 43-C , 44-C ) :   1.3103 B( 43-C , 78-H ) :   1.0034
B( 44-C , 45-C ) :   1.4634 B( 44-C , 79-H ) :   0.9989 B( 45-C , 46-Se) :   1.0590
B( 45-C , 47-C ) :   1.0907 B( 47-C , 48-C ) :   1.6728 B( 47-C , 80-H ) :   0.9417
B( 48-C , 49-C ) :   0.9396 B( 48-C , 63-C ) :   1.0382 B( 49-C , 50-O ) :   2.2878
B( 49-C , 51-C ) :   0.9143 B( 51-C , 52-C ) :   1.4764 B( 51-C , 62-C ) :   1.2208
B( 52-C , 53-C ) :   1.1936 B( 52-C , 81-H ) :   1.0157 B( 53-C , 54-C ) :   1.2551
B( 53-C , 58-C ) :   1.1954 B( 54-C , 55-C ) :   1.1874 B( 54-C , 61-C ) :   1.2176
B( 55-C , 56-C ) :   1.4433 B( 55-C , 58-C ) :   0.1087 B( 55-C , 82-H ) :   1.0069
B( 56-C , 57-C ) :   1.1898 B( 56-C , 60-F ) :   1.1353 B( 57-C , 58-C ) :   1.4433
B( 57-C , 59-F ) :   1.1337 B( 58-C , 83-H ) :   1.0067 B( 61-C , 62-C ) :   1.4516
B( 61-C , 84-H ) :   0.9933 B( 62-C , 63-C ) :   1.0042 B( 63-C , 64-C ) :   1.6546
B( 64-C , 65-C ) :   1.1702 B( 64-C , 67-C ) :   1.1324 B( 65-C , 66-N ) :   2.9588
B( 67-C , 68-N ) :   2.9802

-----------------------------------------------------------------------------
         ABSORPTION SPECTRUM VIA TRANSITION ELECTRIC DIPOLE MOMENTS
-----------------------------------------------------------------------------
State   Energy  Wavelength   fosc         T2         TX        TY        TZ
        (cm-1)    (nm)                  (au**2)     (au)      (au)      (au)
-----------------------------------------------------------------------------
   0   10202.4    980.2   0.664814882  21.45224  -1.72165  -0.63459  -4.25270
   1   15325.4    652.5   0.113677569   2.44196   0.57333   1.23474  -0.76724
   2   18064.9    553.6   0.233699775   4.25892  -1.41334  -0.38664  -1.45324
   3   20451.9    489.0   0.578298560   9.30879  -0.09860   0.52095   3.00461
   4   20725.5    482.5   0.077588190   1.23244   0.63257   0.34760  -0.84349
   5   22044.9    453.6   0.028325496   0.42300  -0.39089  -0.50235  -0.13364
   6   23022.9    434.4   0.024782353   0.35437  -0.00814   0.19220   0.56335
   7   23097.6    432.9   0.005642418   0.08042   0.14247  -0.16044  -0.18543
   8   24816.1    403.0   0.001338381   0.01776  -0.04407   0.11274   0.05570
   9   25209.0    396.7   0.002463640   0.03217   0.07610  -0.09075  -0.13471
  10   25537.1    391.6   0.025622363   0.33031   0.03725   0.56508   0.09801
  11   25933.5    385.6   0.001390128   0.01765   0.09189  -0.09488   0.01417
  12   26069.0    383.6   0.039668896   0.50096   0.42788  -0.38112  -0.41548
  13   26613.0    375.8   0.037549116   0.46449  -0.27105   0.56127   0.27569
  14   26971.0    370.8   0.042642534   0.52050   0.58817  -0.14930   0.39021
  15   27068.8    369.4   0.257517219   3.13193   1.07017   0.35928   1.36293
  16   27829.2    359.3   0.005098606   0.06032   0.16214   0.05377   0.17645
  17   28048.1    356.5   0.068641105   0.80567  -0.85336  -0.27748  -0.02097
  18   28185.8    354.8   0.025883512   0.30232   0.27751  -0.30802   0.36115
  19   28695.4    348.5   0.005708767   0.06549  -0.24256   0.06023   0.05506
  20   28942.9    345.5   0.009282238   0.10558   0.17242  -0.11781  -0.24894
  21   29471.0    339.3   0.082225442   0.91852   0.32417   0.14725   0.88980
  22   29595.8    337.9   0.180727847   2.01035  -0.61663  -0.68219  -1.07923
  23   29882.0    334.6   0.096357595   1.06158   0.34517   0.46441   0.85250
  24   30078.1    332.5   0.008916147   0.09759  -0.23473  -0.06204   0.19658
  25   30524.9    327.6   0.015089967   0.16275  -0.31753   0.02761  -0.24730
  26   31378.0    318.7   0.081810849   0.85834   0.37457  -0.04834  -0.84599
  27   31833.8    314.1   0.051136648   0.52883   0.63995  -0.25248   0.23569
  28   32088.0    311.6   0.171190528   1.75635   0.76938  -1.04475  -0.27001
  29   32357.6    309.0   0.213171539   2.16885   0.93734   0.48862   1.02542
  30   32629.9    306.5   0.045835105   0.46244  -0.38672   0.41922   0.37033
  31   32803.5    304.8   0.176119164   1.76751   0.10503  -1.14372  -0.66962
  32   32873.1    304.2   0.054675708   0.54756   0.67439  -0.28191   0.11526
  33   33023.3    302.8   0.058268296   0.58088  -0.20828  -0.73307   0.01039
  34   33260.3    300.7   0.030426400   0.30116   0.49888  -0.17877  -0.14255
  35   33661.5    297.1   0.032186624   0.31479  -0.05457   0.22757  -0.50992
  36   33755.8    296.2   0.027487003   0.26807   0.03707   0.40384   0.32189
  37   33925.5    294.8   0.022998204   0.22317   0.35183  -0.31506   0.01120
  38   34099.9    293.3   0.188295013   1.81786   0.53177  -1.22529  -0.18370
  39   34188.6    292.5   0.028780872   0.27714   0.05676  -0.42514   0.30525
  40   34296.2    291.6   0.064363551   0.61783  -0.03196   0.75934  -0.20053
  41   34822.2    287.2   0.026941052   0.25470   0.30656  -0.39653  -0.05908
  42   35381.4    282.6   0.089545296   0.83319   0.66023  -0.18220   0.60340
  43   35538.5    281.4   0.220277964   2.04055  -0.98276  -0.67007  -0.79104
  44   35683.8    280.2   0.135767355   1.25256  -0.64121   0.87809   0.26528
  45   35915.0    278.4   0.120686138   1.10626  -0.30741   0.60192   0.80589
  46   36054.6    277.4   0.229292975   2.09366   0.69750   0.19539   1.25258
  47   36234.5    276.0   0.126636199   1.15057   0.59097  -0.64330   0.62249
  48   36306.0    275.4   0.107914728   0.97854  -0.05696   0.86850   0.47011
  49   36482.9    274.1   0.325495053   2.93718  -0.99372   1.37182  -0.26041
  50   36690.2    272.6   0.221566383   1.98806   0.93209  -0.51203   0.92580
  51   36858.9    271.3   0.078293538   0.69929   0.25772   0.75066   0.26343
  52   37105.1    269.5   0.044927876   0.39862  -0.19598  -0.49458  -0.34000
  53   37590.5    266.0   0.055600348   0.48694   0.30059  -0.62897   0.03144
  54   37731.8    265.0   0.085759283   0.74825   0.39952  -0.74541   0.18166
  55   37948.9    263.5   0.021550053   0.18695  -0.19463   0.32313   0.21133
  56   38173.2    262.0   0.017798513   0.15350   0.25892  -0.12072  -0.26811
  57   38267.0    261.3   0.005555111   0.04779   0.13290   0.07374   0.15713
  58   38458.5    260.0   0.027579822   0.23609   0.24379  -0.00962  -0.42019
  59   38688.8    258.5   0.015855148   0.13492  -0.02531  -0.08423  -0.35662
  60   38788.1    257.8   0.009140298   0.07758  -0.05180  -0.26284   0.07623
  61   38882.3    257.2   0.009751561   0.08257   0.15740   0.01025   0.24018
  62   39001.8    256.4   0.055944908   0.47223  -0.13017   0.55722   0.38052
  63   39261.5    254.7   0.144054691   1.20791   0.11405  -0.59753  -0.91535
  64   39594.2    252.6   0.016978897   0.14117   0.22574  -0.03233  -0.29861
  65   39761.8    251.5   0.077179639   0.63902   0.22170   0.67161  -0.37256
  66   39975.6    250.2   0.090639076   0.74644   0.40977  -0.42735  -0.62921

FINAL SINGLE POINT ENERGY     -8216.933071983955

DIPOLE MOMENT
-------------
                                X             Y             Z
Electronic contribution:    -22.40039     -12.64925      11.96015
Nuclear contribution   :     22.48252      11.86080      -9.06842
                        -----------------------------------------
Total Dipole Moment    :      0.08213      -0.78845       2.89174
                        -----------------------------------------
Magnitude (a.u.)       :      2.99842
Magnitude (Debye)      :      7.62139

Rotational constants in cm-1:     0.001528     0.000286     0.000280
Rotational constants in MHz :    45.819319     8.570351     8.406452

                             ****ORCA TERMINATED NORMALLY****
TOTAL RUN TIME: 0 days 0 hours 8 minutes 36 seconds 96 msec
