                         Program Version 4.2.0 -  RELEASE  -
|  1> # ORCA input file
|  2> # SCF done       -180.916588050116          0.000849511778
|  3> ! CAM-B3LYP def2-SVP def2/J RIJCOSX Grid4 TightSCF
|  4> %maxcore 5000
|  5> %tddft
|  6>     Mode sTDDFT
|  7>     Ethresh 5.0
|  8>     maxcore 5000
|  9> end
| 10>
| 11> %pal
| 12>   nprocs 6
| 13>   end
| 14> * xyz 0 1
| 15>    C      -10.93329         1.70629         2.12321
| 16>    C      -12.21182         1.83917         2.58721
| 17>    F      -12.82840         3.02672         2.53175
| 18>    C      -12.89770         0.73266         3.12768
| 19>    F      -14.15059         0.89218         3.57458
| 20>    C      -12.29540        -0.49223         3.19552
| 21>    C      -10.97945        -0.66189         2.72299
| 22>    C      -10.28376         0.45652         2.17844
| 23>    C       -8.96190         0.31072         1.69905
| 24>    C       -8.35784        -0.91781         1.75666
| 25>    C       -9.06402        -2.03005         2.28983
| 26>    C      -10.33725        -1.91889         2.76943
| 27>    C       -8.21916        -3.23820         2.21262
| 28>    O       -8.51702        -4.33325         2.64073
| 29>    C       -6.98754        -2.81772         1.50262
| 30>    C       -7.03374        -1.37155         1.34415
| 31>    C       -6.00501        -0.55391         0.95820
| 32>    C       -4.68807        -0.97116         0.66662
| 33>    N       -3.59147        -1.22631         0.44194
| 34>    C       -6.11684         0.84887         0.84907
| 35>    N       -6.14953         1.99063         0.73792
| 36>    C       -6.02928        -3.60521         0.92420
| 37>    C       -5.83269        -5.00044         0.95426
| 38>    C       -6.39215        -6.00510         1.72867
| 39>    C       -5.88933        -7.25343         1.39019
| 40>    C       -4.93618        -7.24072         0.35531
| 41>    S       -4.64097        -5.63758        -0.18853
| 42>    C       -4.46795        -8.50539        -0.00011
| 43>    C       -5.05027        -9.49697         0.76211
| 44>    S       -6.18601        -8.86221         1.94139
| 45>    C       -4.83959       -10.90680         0.65411
| 46>    C       -5.42405       -11.82727         1.50862
| 47>    C       -5.25394       -13.20790         1.38561
| 48>    C       -4.49233       -13.79781         0.39004
| 49>    C       -3.86045       -12.89180        -0.50716
| 50>    C       -4.02559       -11.46348        -0.37182
| 51>    N       -3.32583       -10.90062        -1.33681
| 52>    O       -2.76585       -11.89168        -2.02238
| 53>    N       -3.07268       -13.09296        -1.54468
| 54>    C       -4.35015       -15.21300         0.25056
| 55>    C       -3.67733       -15.89213        -0.74324
| 56>    C       -3.76544       -17.27401        -0.57407
| 57>    C       -4.49748       -17.66356         0.55972
| 58>    S       -5.09842       -16.29366         1.41640
| 59>    C       -4.56235       -19.03736         0.75099
| 60>    C       -3.89154       -19.72764        -0.24571
| 61>    S       -3.19140       -18.64508        -1.43983
| 62>    C       -3.77598       -21.12352        -0.43449
| 63>    C       -3.92236       -22.12523         0.47725
| 64>    C       -4.20552       -23.50657        -0.00513
| 65>    O       -4.12015       -23.90646        -1.14223
| 66>    C       -4.66401       -24.24745         1.18779
| 67>    C       -5.15388       -25.51875         1.27331
| 68>    C       -5.55947       -26.01544         2.53257
| 69>    C       -5.45675       -25.17779         3.68114
| 70>    C       -5.86928       -25.67641         4.93310
| 71>    C       -6.35639       -26.94864         5.04094
| 72>    C       -6.45560       -27.77727         3.90495
| 73>    C       -6.06631       -27.32172         2.67650
| 74>    F       -6.93770       -29.01949         4.04031
| 75>    F       -6.74595       -27.42154         6.23153
| 76>    C       -4.94041       -23.86728         3.56271
| 77>    C       -4.54156       -23.41219         2.33461
| 78>    C       -3.94412       -22.14356         1.92362
| 79>    C       -3.29674       -21.27439         2.76289
| 80>    C       -2.50562       -20.19527         2.32026
| 81>    N       -1.82364       -19.32467         2.01326
| 82>    C       -3.27798       -21.40616         4.16658
| 83>    N       -3.25192       -21.45402         5.31286
| 84>    H      -10.42211         2.56380         1.71430
| 85>    H      -12.83388        -1.32943         3.61129
| 86>    H       -8.46475         1.17479         1.28921
| 87>    H      -10.84824        -2.77973         3.17315
| 88>    H       -5.31277        -3.09375         0.29104
| 89>    H       -7.13197        -5.82213         2.48505
| 90>    H       -3.74892        -8.71064        -0.77085
| 91>    H       -6.04869       -11.46004         2.30967
| 92>    H       -5.75143       -13.84834         2.09910
| 93>    H       -3.15738       -15.39262        -1.53905
| 94>    H       -5.10615       -19.51427         1.54597
| 95>    H       -3.61559       -21.45446        -1.45621
| 96>    H       -5.23022       -26.13799         0.39261
| 97>    H       -5.79591       -25.05658         5.81303
| 98>    H       -6.14883       -27.96854         1.81717
| 99>    H       -4.88085       -23.25223         4.44647
|100> *
|101>
|102>                          ****END OF INPUT****

CARTESIAN COORDINATES (ANGSTROEM)
---------------------------------
  C    -10.933290    1.706290    2.123210
  C    -12.211820    1.839170    2.587210
  F    -12.828400    3.026720    2.531750
  C    -12.897700    0.732660    3.127680
  F    -14.150590    0.892180    3.574580
  C    -12.295400   -0.492230    3.195520
  C    -10.979450   -0.661890    2.722990
  C    -10.283760    0.456520    2.178440
  C     -8.961900    0.310720    1.699050
  C     -8.357840   -0.917810    1.756660
  C     -9.064020   -2.030050    2.289830
  C    -10.337250   -1.918890    2.769430
  C     -8.219160   -3.238200    2.212620
  O     -8.517020   -4.333250    2.640730
  C     -6.987540   -2.817720    1.502620
  C     -7.033740   -1.371550    1.344150
  C     -6.005010   -0.553910    0.958200
  C     -4.688070   -0.971160    0.666620
  N     -3.591470   -1.226310    0.441940
  C     -6.116840    0.848870    0.849070
  N     -6.149530    1.990630    0.737920
  C     -6.029280   -3.605210    0.924200
  C     -5.832690   -5.000440    0.954260
  C     -6.392150   -6.005100    1.728670
  C     -5.889330   -7.253430    1.390190
  C     -4.936180   -7.240720    0.355310
  S     -4.640970   -5.637580   -0.188530
  C     -4.467950   -8.505390   -0.000110
  C     -5.050270   -9.496970    0.762110
  S     -6.186010   -8.862210    1.941390
  C     -4.839590  -10.906800    0.654110
  C     -5.424050  -11.827270    1.508620
  C     -5.253940  -13.207900    1.385610
  C     -4.492330  -13.797810    0.390040
  C     -3.860450  -12.891800   -0.507160
  C     -4.025590  -11.463480   -0.371820
  N     -3.325830  -10.900620   -1.336810
  O     -2.765850  -11.891680   -2.022380
  N     -3.072680  -13.092960   -1.544680
  C     -4.350150  -15.213000    0.250560
  C     -3.677330  -15.892130   -0.743240
  C     -3.765440  -17.274010   -0.574070
  C     -4.497480  -17.663560    0.559720
  S     -5.098420  -16.293660    1.416400
  C     -4.562350  -19.037360    0.750990
  C     -3.891540  -19.727640   -0.245710
  S     -3.191400  -18.645080   -1.439830
  C     -3.775980  -21.123520   -0.434490
  C     -3.922360  -22.125230    0.477250
  C     -4.205520  -23.506570   -0.005130
  O     -4.120150  -23.906460   -1.142230
  C     -4.664010  -24.247450    1.187790
  C     -5.153880  -25.518750    1.273310
  C     -5.559470  -26.015440    2.532570
  C     -5.456750  -25.177790    3.681140
  C     -5.869280  -25.676410    4.933100
  C     -6.356390  -26.948640    5.040940
  C     -6.455600  -27.777270    3.904950
  C     -6.066310  -27.321720    2.676500
  F     -6.937700  -29.019490    4.040310
  F     -6.745950  -27.421540    6.231530
  C     -4.940410  -23.867280    3.562710
  C     -4.541560  -23.412190    2.334610
  C     -3.944120  -22.143560    1.923620
  C     -3.296740  -21.274390    2.762890
  C     -2.505620  -20.195270    2.320260
  N     -1.823640  -19.324670    2.013260
  C     -3.277980  -21.406160    4.166580
  N     -3.251920  -21.454020    5.312860
  H    -10.422110    2.563800    1.714300
  H    -12.833880   -1.329430    3.611290
  H     -8.464750    1.174790    1.289210
  H    -10.848240   -2.779730    3.173150
  H     -5.312770   -3.093750    0.291040
  H     -7.131970   -5.822130    2.485050
  H     -3.748920   -8.710640   -0.770850
  H     -6.048690  -11.460040    2.309670
  H     -5.751430  -13.848340    2.099100
  H     -3.157380  -15.392620   -1.539050
  H     -5.106150  -19.514270    1.545970
  H     -3.615590  -21.454460   -1.456210
  H     -5.230220  -26.137990    0.392610
  H     -5.795910  -25.056580    5.813030
  H     -6.148830  -27.968540    1.817170
  H     -4.880850  -23.252230    4.446470

 Total Charge           Charge          ....    0
 Multiplicity           Mult            ....    1
 Number of Electrons    NEL             ....  494
 Basis Dimension        Dim             .... 1062

ORBITAL ENERGIES
----------------

  NO   OCC          E(Eh)            E(eV)
   0   2.0000     -88.976708     -2421.1793
   1   2.0000     -88.975995     -2421.1599
   2   2.0000     -88.975766     -2421.1537
   3   2.0000     -88.974597     -2421.1219
   4   2.0000     -24.801510      -674.8834
   5   2.0000     -24.800867      -674.8659
   6   2.0000     -24.800174      -674.8471
   7   2.0000     -24.799106      -674.8180
   8   2.0000     -19.372166      -527.1434
   9   2.0000     -19.224522      -523.1258
  10   2.0000     -19.220353      -523.0124
  11   2.0000     -14.497645      -394.5010
  12   2.0000     -14.497410      -394.4946
  13   2.0000     -14.421885      -392.4394
  14   2.0000     -14.420345      -392.3975
  15   2.0000     -14.418111      -392.3367
  16   2.0000     -14.417092      -392.3090
  17   2.0000     -10.384816      -282.5852
  18   2.0000     -10.384427      -282.5746
  19   2.0000     -10.383428      -282.5474
  20   2.0000     -10.382624      -282.5256
  21   2.0000     -10.375738      -282.3382
  22   2.0000     -10.371893      -282.2336
  23   2.0000     -10.349483      -281.6238
  24   2.0000     -10.348454      -281.5957
  25   2.0000     -10.345197      -281.5071
  26   2.0000     -10.344344      -281.4839
  27   2.0000     -10.344049      -281.4759
  28   2.0000     -10.343809      -281.4694
  29   2.0000     -10.332984      -281.1748
  30   2.0000     -10.331401      -281.1317
  31   2.0000     -10.329603      -281.0828
  32   2.0000     -10.329551      -281.0814
  33   2.0000     -10.328875      -281.0630
  34   2.0000     -10.328810      -281.0612
  35   2.0000     -10.327309      -281.0204
  36   2.0000     -10.325140      -280.9614
  37   2.0000     -10.324516      -280.9444
  38   2.0000     -10.323421      -280.9146
  39   2.0000     -10.322134      -280.8795
  40   2.0000     -10.321315      -280.8573
  41   2.0000     -10.320691      -280.8403
  42   2.0000     -10.320026      -280.8222
  43   2.0000     -10.319875      -280.8181
  44   2.0000     -10.318026      -280.7678
  45   2.0000     -10.315121      -280.6887
  46   2.0000     -10.314595      -280.6744
  47   2.0000     -10.314331      -280.6672
  48   2.0000     -10.314212      -280.6640
  49   2.0000     -10.312621      -280.6207
  50   2.0000     -10.312590      -280.6198
  51   2.0000     -10.312316      -280.6124
  52   2.0000     -10.311235      -280.5830
  53   2.0000     -10.309456      -280.5346
  54   2.0000     -10.307005      -280.4679
  55   2.0000     -10.306756      -280.4611
  56   2.0000     -10.305267      -280.4206
  57   2.0000     -10.304820      -280.4084
  58   2.0000     -10.304589      -280.4021
  59   2.0000     -10.304529      -280.4005
  60   2.0000     -10.304454      -280.3984
  61   2.0000     -10.303965      -280.3852
  62   2.0000     -10.303128      -280.3624
  63   2.0000     -10.302191      -280.3369
  64   2.0000     -10.301742      -280.3246
  65   2.0000     -10.299918      -280.2750
  66   2.0000     -10.299613      -280.2667
  67   2.0000     -10.298248      -280.2296
  68   2.0000     -10.295705      -280.1604
  69   2.0000      -8.072117      -219.6535
  70   2.0000      -8.071391      -219.6337
  71   2.0000      -8.071108      -219.6260
  72   2.0000      -8.069954      -219.5946
  73   2.0000      -6.041550      -164.3989
  74   2.0000      -6.040943      -164.3824
  75   2.0000      -6.040642      -164.3742
  76   2.0000      -6.039327      -164.3384
  77   2.0000      -6.037563      -164.2905
  78   2.0000      -6.036955      -164.2739
  79   2.0000      -6.036667      -164.2661
  80   2.0000      -6.035437      -164.2326
  81   2.0000      -6.033745      -164.1865
  82   2.0000      -6.032820      -164.1614
  83   2.0000      -6.032576      -164.1547
  84   2.0000      -6.031626      -164.1289
  85   2.0000      -1.326769       -36.1032
  86   2.0000      -1.324271       -36.0352
  87   2.0000      -1.322639       -35.9908
  88   2.0000      -1.309412       -35.6309
  89   2.0000      -1.307761       -35.5860
  90   2.0000      -1.139677       -31.0122
  91   2.0000      -1.136200       -30.9176
  92   2.0000      -1.033295       -28.1174
  93   2.0000      -1.032107       -28.0851
  94   2.0000      -1.026695       -27.9378
  95   2.0000      -1.023537       -27.8518
  96   2.0000      -1.022142       -27.8139
  97   2.0000      -1.015284       -27.6273
  98   2.0000      -1.008629       -27.4462
  99   2.0000      -1.006608       -27.3912
 100   2.0000      -0.999524       -27.1984
 101   2.0000      -0.996371       -27.1126
 102   2.0000      -0.986450       -26.8427
 103   2.0000      -0.984602       -26.7924
 104   2.0000      -0.971385       -26.4327
 105   2.0000      -0.965783       -26.2803
 106   2.0000      -0.937913       -25.5219
 107   2.0000      -0.935389       -25.4532
 108   2.0000      -0.932359       -25.3708
 109   2.0000      -0.913547       -24.8589
 110   2.0000      -0.906770       -24.6745
 111   2.0000      -0.900405       -24.5013
 112   2.0000      -0.896435       -24.3932
 113   2.0000      -0.893986       -24.3266
 114   2.0000      -0.884332       -24.0639
 115   2.0000      -0.882178       -24.0053
 116   2.0000      -0.877486       -23.8776
 117   2.0000      -0.869596       -23.6629
 118   2.0000      -0.844762       -22.9871
 119   2.0000      -0.842750       -22.9324
 120   2.0000      -0.835872       -22.7452
 121   2.0000      -0.825227       -22.4556
 122   2.0000      -0.820431       -22.3251
 123   2.0000      -0.817830       -22.2543
 124   2.0000      -0.805370       -21.9152
 125   2.0000      -0.780653       -21.2426
 126   2.0000      -0.778016       -21.1709
 127   2.0000      -0.770331       -20.9618
 128   2.0000      -0.770215       -20.9586
 129   2.0000      -0.765144       -20.8206
 130   2.0000      -0.751224       -20.4419
 131   2.0000      -0.741794       -20.1852
 132   2.0000      -0.729157       -19.8414
 133   2.0000      -0.722442       -19.6586
 134   2.0000      -0.719643       -19.5825
 135   2.0000      -0.712853       -19.3977
 136   2.0000      -0.700516       -19.0620
 137   2.0000      -0.690713       -18.7953
 138   2.0000      -0.687837       -18.7170
 139   2.0000      -0.680647       -18.5213
 140   2.0000      -0.673360       -18.3231
 141   2.0000      -0.670135       -18.2353
 142   2.0000      -0.666965       -18.1491
 143   2.0000      -0.659813       -17.9544
 144   2.0000      -0.657956       -17.9039
 145   2.0000      -0.656470       -17.8635
 146   2.0000      -0.647247       -17.6125
 147   2.0000      -0.645756       -17.5719
 148   2.0000      -0.644602       -17.5405
 149   2.0000      -0.638866       -17.3844
 150   2.0000      -0.634130       -17.2556
 151   2.0000      -0.625577       -17.0228
 152   2.0000      -0.623705       -16.9719
 153   2.0000      -0.619431       -16.8556
 154   2.0000      -0.615271       -16.7424
 155   2.0000      -0.606424       -16.5016
 156   2.0000      -0.595945       -16.2165
 157   2.0000      -0.592745       -16.1294
 158   2.0000      -0.591358       -16.0917
 159   2.0000      -0.589602       -16.0439
 160   2.0000      -0.588765       -16.0211
 161   2.0000      -0.588303       -16.0085
 162   2.0000      -0.587134       -15.9767
 163   2.0000      -0.585275       -15.9262
 164   2.0000      -0.581462       -15.8224
 165   2.0000      -0.577090       -15.7034
 166   2.0000      -0.558784       -15.2053
 167   2.0000      -0.556938       -15.1551
 168   2.0000      -0.553592       -15.0640
 169   2.0000      -0.550298       -14.9744
 170   2.0000      -0.550264       -14.9735
 171   2.0000      -0.548745       -14.9321
 172   2.0000      -0.547283       -14.8923
 173   2.0000      -0.542918       -14.7736
 174   2.0000      -0.541385       -14.7318
 175   2.0000      -0.538011       -14.6400
 176   2.0000      -0.534310       -14.5393
 177   2.0000      -0.533772       -14.5247
 178   2.0000      -0.532457       -14.4889
 179   2.0000      -0.530083       -14.4243
 180   2.0000      -0.526765       -14.3340
 181   2.0000      -0.525475       -14.2989
 182   2.0000      -0.524140       -14.2626
 183   2.0000      -0.519565       -14.1381
 184   2.0000      -0.518475       -14.1084
 185   2.0000      -0.514604       -14.0031
 186   2.0000      -0.511361       -13.9148
 187   2.0000      -0.507240       -13.8027
 188   2.0000      -0.505392       -13.7524
 189   2.0000      -0.502105       -13.6630
 190   2.0000      -0.500997       -13.6328
 191   2.0000      -0.498766       -13.5721
 192   2.0000      -0.495870       -13.4933
 193   2.0000      -0.491904       -13.3854
 194   2.0000      -0.490404       -13.3446
 195   2.0000      -0.489295       -13.3144
 196   2.0000      -0.487085       -13.2542
 197   2.0000      -0.484796       -13.1920
 198   2.0000      -0.477075       -12.9819
 199   2.0000      -0.472859       -12.8671
 200   2.0000      -0.471593       -12.8327
 201   2.0000      -0.469673       -12.7805
 202   2.0000      -0.468556       -12.7500
 203   2.0000      -0.466356       -12.6902
 204   2.0000      -0.464147       -12.6301
 205   2.0000      -0.456116       -12.4115
 206   2.0000      -0.454579       -12.3697
 207   2.0000      -0.452017       -12.3000
 208   2.0000      -0.450453       -12.2574
 209   2.0000      -0.449508       -12.2317
 210   2.0000      -0.448390       -12.2013
 211   2.0000      -0.447997       -12.1906
 212   2.0000      -0.445553       -12.1241
 213   2.0000      -0.444411       -12.0930
 214   2.0000      -0.434826       -11.8322
 215   2.0000      -0.433596       -11.7987
 216   2.0000      -0.432216       -11.7612
 217   2.0000      -0.431502       -11.7418
 218   2.0000      -0.428648       -11.6641
 219   2.0000      -0.427684       -11.6379
 220   2.0000      -0.425558       -11.5800
 221   2.0000      -0.424819       -11.5599
 222   2.0000      -0.424355       -11.5473
 223   2.0000      -0.417797       -11.3688
 224   2.0000      -0.413074       -11.2403
 225   2.0000      -0.411172       -11.1886
 226   2.0000      -0.408585       -11.1182
 227   2.0000      -0.400881       -10.9085
 228   2.0000      -0.400310       -10.8930
 229   2.0000      -0.389017       -10.5857
 230   2.0000      -0.388522       -10.5722
 231   2.0000      -0.382325       -10.4036
 232   2.0000      -0.378761       -10.3066
 233   2.0000      -0.375842       -10.2272
 234   2.0000      -0.367575       -10.0022
 235   2.0000      -0.355658        -9.6780
 236   2.0000      -0.345648        -9.4055
 237   2.0000      -0.341515        -9.2931
 238   2.0000      -0.326861        -8.8943
 239   2.0000      -0.321362        -8.7447
 240   2.0000      -0.319969        -8.7068
 241   2.0000      -0.311642        -8.4802
 242   2.0000      -0.310569        -8.4510
 243   2.0000      -0.305783        -8.3208
 244   2.0000      -0.303297        -8.2531
 245   2.0000      -0.286944        -7.8081
 246   2.0000      -0.259091        -7.0502
 247   0.0000      -0.114999        -3.1293
 248   0.0000      -0.098094        -2.6693
 249   0.0000      -0.079839        -2.1725
 250   0.0000      -0.062909        -1.7119
 251   0.0000      -0.060872        -1.6564

MULLIKEN ATOMIC CHARGES
-----------------------
   0 C :   -0.108121
   1 C :    0.242630
   2 F :   -0.170824
   3 C :    0.237971
   4 F :   -0.171027
   5 C :   -0.103848
   6 C :    0.117373
   7 C :    0.114213
   8 C :   -0.084596
   9 C :    0.051403
  10 C :    0.002558
  11 C :   -0.086258
  12 C :    0.159218
  13 O :   -0.156981
  14 C :   -0.093127
  15 C :    0.298915
  16 C :   -0.345845
  17 C :   -0.200581
  18 N :    0.163371
  19 C :   -0.182140
  20 N :    0.145908
  21 C :    0.049918
  22 C :   -0.123720
  23 C :    0.007262
  24 C :   -0.015010
  25 C :    0.009259
  26 S :    0.164940
  27 C :   -0.045967
  28 C :   -0.110077
  29 S :    0.131049
  30 C :    0.153577
  31 C :   -0.061407
  32 C :   -0.060247
  33 C :    0.161933
  34 C :   -0.048267
  35 C :   -0.048274
  36 N :    0.041556
  37 O :   -0.081910
  38 N :    0.041640
  39 C :   -0.112720
  40 C :   -0.043719
  41 C :    0.012039
  42 C :   -0.011173
  43 S :    0.129272
  44 C :    0.014042
  45 C :   -0.129032
  46 S :    0.179493
  47 C :    0.090658
  48 C :   -0.135762
  49 C :    0.137402
  50 O :   -0.139615
  51 C :    0.017482
  52 C :   -0.085972
  53 C :    0.114859
  54 C :    0.114592
  55 C :   -0.110388
  56 C :    0.242095
  57 C :    0.241642
  58 C :   -0.106048
  59 F :   -0.170513
  60 F :   -0.170348
  61 C :   -0.085047
  62 C :    0.033651
  63 C :    0.266671
  64 C :   -0.335914
  65 C :   -0.204419
  66 N :    0.176901
  67 C :   -0.174233
  68 N :    0.153922
  69 H :    0.008262
  70 H :   -0.001811
  71 H :   -0.004734
  72 H :   -0.011718
  73 H :    0.019025
  74 H :    0.019859
  75 H :    0.013911
  76 H :    0.004523
  77 H :    0.003509
  78 H :    0.012876
  79 H :    0.005183
  80 H :    0.028356
  81 H :   -0.007843
  82 H :    0.006956
  83 H :    0.000901
  84 H :   -0.003539
Sum of atomic charges:   -0.0000000

LOEWDIN ATOMIC CHARGES
----------------------
   0 C :   -0.029017
   1 C :    0.066745
   2 F :   -0.048473
   3 C :    0.067549
   4 F :   -0.049131
   5 C :   -0.033466
   6 C :   -0.008730
   7 C :   -0.006361
   8 C :    0.017652
   9 C :   -0.022903
  10 C :   -0.051677
  11 C :    0.029001
  12 C :    0.087758
  13 O :   -0.143013
  14 C :   -0.096117
  15 C :    0.075646
  16 C :   -0.139939
  17 C :   -0.027064
  18 N :   -0.047629
  19 C :   -0.017193
  20 N :   -0.053273
  21 C :    0.049729
  22 C :   -0.171191
  23 C :   -0.014484
  24 C :   -0.199075
  25 C :   -0.181079
  26 S :    0.446703
  27 C :   -0.053810
  28 C :   -0.142918
  29 S :    0.427604
  30 C :   -0.039166
  31 C :   -0.007322
  32 C :   -0.010510
  33 C :   -0.034801
  34 C :   -0.041024
  35 C :   -0.040794
  36 N :   -0.019193
  37 O :    0.083650
  38 N :   -0.018230
  39 C :   -0.146144
  40 C :   -0.048561
  41 C :   -0.180381
  42 C :   -0.190988
  43 S :    0.427349
  44 C :   -0.025793
  45 C :   -0.174334
  46 S :    0.456248
  47 C :    0.052233
  48 C :   -0.093944
  49 C :    0.082578
  50 O :   -0.140576
  51 C :   -0.054053
  52 C :    0.031060
  53 C :   -0.009269
  54 C :   -0.005730
  55 C :   -0.030498
  56 C :    0.067373
  57 C :    0.067319
  58 C :   -0.032608
  59 F :   -0.048525
  60 F :   -0.047981
  61 C :    0.013276
  62 C :   -0.020996
  63 C :    0.064049
  64 C :   -0.139651
  65 C :   -0.020509
  66 N :   -0.038141
  67 C :   -0.020404
  68 N :   -0.051204
  69 H :    0.047946
  70 H :    0.044476
  71 H :    0.040097
  72 H :    0.039503
  73 H :    0.044826
  74 H :    0.038495
  75 H :    0.038580
  76 H :    0.031623
  77 H :    0.031055
  78 H :    0.038609
  79 H :    0.037807
  80 H :    0.048038
  81 H :    0.041144
  82 H :    0.047440
  83 H :    0.045219
  84 H :    0.039495

  Mayer bond orders larger than 0.100000
B(  0-C ,  1-C ) :   1.4409 B(  0-C ,  5-C ) :   0.1086 B(  0-C ,  7-C ) :   1.1886
B(  0-C , 69-H ) :   1.0067 B(  1-C ,  2-F ) :   1.1346 B(  1-C ,  3-C ) :   1.1915
B(  3-C ,  4-F ) :   1.1342 B(  3-C ,  5-C ) :   1.4437 B(  5-C ,  6-C ) :   1.1921
B(  5-C , 70-H ) :   1.0067 B(  6-C ,  7-C ) :   1.2573 B(  6-C , 11-C ) :   1.1883
B(  7-C ,  8-C ) :   1.2166 B(  8-C ,  9-C ) :   1.4516 B(  8-C , 71-H ) :   0.9902
B(  9-C , 10-C ) :   1.2231 B(  9-C , 15-C ) :   0.9815 B( 10-C , 11-C ) :   1.4700
B( 10-C , 12-C ) :   0.9498 B( 11-C , 72-H ) :   1.0165 B( 12-C , 13-O ) :   2.1722
B( 12-C , 14-C ) :   0.9451 B( 14-C , 15-C ) :   1.0731 B( 14-C , 21-C ) :   1.5859
B( 15-C , 16-C ) :   1.6375 B( 16-C , 17-C ) :   1.1338 B( 16-C , 19-C ) :   1.1459
B( 17-C , 18-N ) :   2.9950 B( 19-C , 20-N ) :   2.9669 B( 21-C , 22-C ) :   1.2275
B( 21-C , 73-H ) :   0.9206 B( 22-C , 23-C ) :   1.4415 B( 22-C , 26-S ) :   1.0764
B( 23-C , 24-C ) :   1.2814 B( 23-C , 74-H ) :   0.9814 B( 24-C , 25-C ) :   1.3766
B( 24-C , 29-S ) :   1.0599 B( 25-C , 26-S ) :   1.1033 B( 25-C , 27-C ) :   1.2227
B( 27-C , 28-C ) :   1.5292 B( 27-C , 75-H ) :   0.9904 B( 28-C , 29-S ) :   1.0938
B( 28-C , 30-C ) :   1.1397 B( 30-C , 31-C ) :   1.4645 B( 30-C , 33-C ) :   0.1102
B( 30-C , 35-C ) :   1.1440 B( 31-C , 32-C ) :   1.2437 B( 31-C , 76-H ) :   0.9844
B( 32-C , 33-C ) :   1.4639 B( 32-C , 77-H ) :   0.9842 B( 33-C , 34-C ) :   1.1428
B( 33-C , 39-C ) :   1.1403 B( 34-C , 35-C ) :   1.1507 B( 34-C , 38-N ) :   1.5982
B( 35-C , 36-N ) :   1.5990 B( 36-N , 37-O ) :   1.0670 B( 36-N , 38-N ) :   0.1800
B( 37-O , 38-N ) :   1.0673 B( 39-C , 40-C ) :   1.5370 B( 39-C , 43-S ) :   1.0895
B( 40-C , 41-C ) :   1.2231 B( 40-C , 78-H ) :   0.9865 B( 41-C , 42-C ) :   1.3948
B( 41-C , 46-S ) :   1.0958 B( 42-C , 43-S ) :   1.0628 B( 42-C , 44-C ) :   1.3205
B( 44-C , 45-C ) :   1.4485 B( 44-C , 79-H ) :   0.9916 B( 45-C , 46-S ) :   1.0922
B( 45-C , 47-C ) :   1.1378 B( 47-C , 48-C ) :   1.6601 B( 47-C , 80-H ) :   0.9303
B( 48-C , 49-C ) :   0.9420 B( 48-C , 63-C ) :   1.0430 B( 49-C , 50-O ) :   2.2733
B( 49-C , 51-C ) :   0.9164 B( 51-C , 52-C ) :   1.4725 B( 51-C , 62-C ) :   1.2241
B( 52-C , 53-C ) :   1.1923 B( 52-C , 81-H ) :   1.0171 B( 53-C , 54-C ) :   1.2590
B( 53-C , 58-C ) :   1.1923 B( 54-C , 55-C ) :   1.1883 B( 54-C , 61-C ) :   1.2137
B( 55-C , 56-C ) :   1.4412 B( 55-C , 58-C ) :   0.1089 B( 55-C , 82-H ) :   1.0075
B( 56-C , 57-C ) :   1.1910 B( 56-C , 60-F ) :   1.1351 B( 57-C , 58-C ) :   1.4425
B( 57-C , 59-F ) :   1.1349 B( 58-C , 83-H ) :   1.0075 B( 61-C , 62-C ) :   1.4555
B( 61-C , 84-H ) :   0.9937 B( 62-C , 63-C ) :   0.9959 B( 63-C , 64-C ) :   1.6482
B( 64-C , 65-C ) :   1.1623 B( 64-C , 67-C ) :   1.1296 B( 65-C , 66-N ) :   3.0087
B( 67-C , 68-N ) :   2.9846

-----------------------------------------------------------------------------
         ABSORPTION SPECTRUM VIA TRANSITION ELECTRIC DIPOLE MOMENTS
-----------------------------------------------------------------------------
State   Energy  Wavelength   fosc         T2         TX        TY        TZ
        (cm-1)    (nm)                  (au**2)     (au)      (au)      (au)
-----------------------------------------------------------------------------
   0   16523.8    605.2   2.512403812  50.05595  -1.12706   6.98045  -0.24280
   1   20895.5    478.6   0.227595365   3.58581  -0.60675   1.34820   1.18323
   2   24191.8    413.4   0.026036443   0.35431  -0.27408   0.44156  -0.29021
   3   24827.6    402.8   0.008187446   0.10856   0.19674  -0.17086   0.20165
   4   26425.9    378.4   0.022754919   0.28348  -0.05043   0.01185   0.52990
   5   26916.7    371.5   0.038144051   0.46653  -0.01152  -0.64303  -0.23001
   6   27091.7    369.1   0.043347300   0.52675   0.29610   0.28570  -0.59787
   7   27255.2    366.9   0.071212384   0.86016   0.75808  -0.10828  -0.52322
   8   28444.3    351.6   0.106330716   1.23066   0.97960  -0.21933  -0.47217
   9   28513.6    350.7   0.028008482   0.32338   0.36784  -0.43314   0.02143
  10   28867.8    346.4   0.071661423   0.81724   0.27864  -0.71082  -0.48408
  11   29119.9    343.4   0.100261362   1.13350  -0.68411  -0.81404  -0.05315
  12   29682.4    336.9   0.087697001   0.97266   0.89469  -0.07339  -0.40841
  13   29902.3    334.4   0.173631222   1.91161   0.98919   0.94595  -0.19566
  14   30364.7    329.3   0.232621921   2.52207  -0.31878   1.52277  -0.31878
  15   30982.4    322.8   0.024029254   0.25533  -0.40190   0.29994  -0.06198
  16   31961.0    312.9   0.004472275   0.04607  -0.20852   0.04671  -0.02005
  17   32766.5    305.2   0.055531188   0.55793  -0.33586  -0.65454  -0.12926
  18   33223.0    301.0   0.076803013   0.76105   0.55025  -0.61910   0.27386
  19   33862.2    295.3   0.402199600   3.91023   0.09391   1.96992   0.14436
  20   33974.5    294.3   0.721597742   6.99226   2.52958  -0.15846  -0.75391
  21   34577.2    289.2   0.383762919   3.65383  -0.80972  -1.66927   0.46016
  22   34647.9    288.6   0.029037631   0.27591  -0.26113   0.43455   0.13741
  23   35282.4    283.4   0.020914393   0.19515  -0.24979   0.34561   0.11534
  24   35493.8    281.7   0.070869111   0.65733  -0.13758  -0.79760  -0.04722
  25   36188.2    276.3   0.005402095   0.04914  -0.19853  -0.06473  -0.07442
  26   36432.9    274.5   0.018839068   0.17023  -0.16779  -0.36860  -0.07885
  27   37175.9    269.0   0.150109889   1.32930  -0.89246  -0.38525   0.61999
  28   37911.6    263.8   0.076384937   0.66330  -0.00381  -0.81205  -0.06215
  29   38076.5    262.6   0.145910094   1.26155  -0.72109  -0.86088  -0.02172
  30   38147.8    262.1   0.028017202   0.24179   0.13140   0.31849   0.35084
  31   38261.5    261.4   0.125904246   1.08331   0.82084   0.34898  -0.53641
  32   38585.1    259.2   0.143790382   1.22683  -0.73126  -0.82769   0.08379
  33   38891.9    257.1   0.012088706   0.10233   0.03909  -0.23226   0.21646
  34   39022.2    256.3   0.049129054   0.41448   0.07158   0.28936   0.57064
  35   39420.2    253.7   0.005230151   0.04368  -0.06581  -0.11865  -0.15896
  36   39617.7    252.4   0.026172543   0.21749  -0.28979  -0.18205   0.31680
  37   39942.4    250.4   0.013859922   0.11424   0.05710  -0.22590   0.24483
  38   40219.7    248.6   0.058431028   0.47828  -0.24165   0.57764   0.29362
  39   40313.1    248.1   0.030644057   0.25025  -0.16708  -0.47118   0.01796

FINAL SINGLE POINT ENERGY     -4533.232508917834

DIPOLE MOMENT
-------------
                                X             Y             Z
Electronic contribution:     -9.72552      -0.48743       6.55622
Nuclear contribution   :      7.15875      -1.52563      -6.58333
                        -----------------------------------------
Total Dipole Moment    :     -2.56676      -2.01307      -0.02712
                        -----------------------------------------
Magnitude (a.u.)       :      3.26212
Magnitude (Debye)      :      8.29166

Rotational constants in cm-1:     0.002124     0.000174     0.000164
Rotational constants in MHz :    63.680405     5.202717     4.914958

                             ****ORCA TERMINATED NORMALLY****
TOTAL RUN TIME: 0 days 0 hours 7 minutes 45 seconds 903 msec
