                         Program Version 4.2.0 -  RELEASE  -
|  1> # ORCA input file
|  2> # SCF done       -188.099984070829          0.000825041461
|  3> ! CAM-B3LYP def2-SVP def2/J RIJCOSX Grid4 TightSCF
|  4> %maxcore 5000
|  5> %tddft
|  6>     Mode sTDDFT
|  7>     Ethresh 5.0
|  8>     maxcore 5000
|  9> end
| 10>
| 11> %pal
| 12>   nprocs 6
| 13>   end
| 14> * xyz 0 1
| 15>    C      -15.64232        -6.92135         8.63808
| 16>    C      -15.97433        -5.85063         9.41971
| 17>    F      -17.17100        -5.79966        10.01925
| 18>    C      -15.06640        -4.78859         9.60517
| 19>    F      -15.41905        -3.75114        10.37637
| 20>    C      -13.83842        -4.81216         9.00578
| 21>    C      -13.46714        -5.90121         8.19351
| 22>    C      -14.38365        -6.97649         8.00606
| 23>    C      -14.03205        -8.08157         7.19749
| 24>    C      -12.80334        -8.10680         6.59196
| 25>    C      -11.90012        -7.02465         6.77520
| 26>    C      -12.20766        -5.94800         7.55606
| 27>    C      -10.66463        -7.27195         6.00512
| 28>    O       -9.68013        -6.56357         6.00945
| 29>    C      -10.91094        -8.52517         5.25131
| 30>    C      -12.16532        -9.09114         5.72431
| 31>    C      -12.63296       -10.35598         5.48553
| 32>    C      -11.94012       -11.36429         4.77981
| 33>    N      -11.42426       -12.24782         4.25915
| 34>    C      -13.85887       -10.84495         5.98505
| 35>    N      -14.84900       -11.28930         6.35894
| 36>    C      -10.22690        -9.02004         4.17324
| 37>    C       -9.02326        -8.60537         3.56912
| 38>    C       -8.02593        -7.72589         3.97330
| 39>    C       -6.98355        -7.59823         3.06742
| 40>    C       -5.80530        -6.71318         3.27415
| 41>    C       -7.17302        -8.39445         1.92802
| 42>    S       -8.64090        -9.31356         2.01492
| 43>    C       -6.37204        -8.50840         0.77977
| 44>    C       -6.69171        -9.29968        -0.33401
| 45>    C       -5.71403        -9.22461        -1.37555
| 46>    N       -5.86807        -9.88127        -2.52323
| 47>    C       -6.95833       -10.60399        -2.65875
| 48>    C       -7.13335       -11.32544        -3.94414
| 49>    O       -6.29470       -11.30568        -4.82250
| 50>    C       -8.39313       -12.07320        -4.06942
| 51>    C       -9.31257       -12.14196        -3.10078
| 52>    C       -9.18106       -11.47454        -1.79261
| 53>    O      -10.03179       -11.55431        -0.93414
| 54>    C       -7.93574       -10.68331        -1.61525
| 55>    N       -7.79186       -10.03716        -0.47781
| 56>    C       -4.64718        -8.36710        -1.08001
| 57>    S       -4.86594        -7.67940         0.49536
| 58>    C       -3.63944        -8.05133        -2.00668
| 59>    C       -2.68407        -7.04654        -1.99746
| 60>    C       -1.96961        -6.94670        -3.18884
| 61>    C       -0.94140        -5.90530        -3.46252
| 62>    C       -2.39003        -7.88415        -4.13442
| 63>    S       -3.62595        -8.93179        -3.49938
| 64>    C       -1.92008        -8.05512        -5.45797
| 65>    C       -2.57169        -8.68312        -6.47500
| 66>    C       -1.80909        -9.21846        -7.63645
| 67>    O       -0.68179        -8.92635        -7.96141
| 68>    C       -2.70226       -10.22859        -8.24341
| 69>    C       -2.44125       -11.12301        -9.24153
| 70>    C       -3.44673       -12.04200        -9.61884
| 71>    C       -4.70219       -12.02782        -8.94264
| 72>    C       -5.68987       -12.96232        -9.31337
| 73>    C       -5.44713       -13.86388       -10.31093
| 74>    C       -4.20779       -13.87427       -10.98161
| 75>    C       -3.22795       -12.98352       -10.64368
| 76>    F       -3.99647       -14.76998       -11.95630
| 77>    F       -6.38924       -14.75035       -10.66230
| 78>    C       -4.94941       -11.08471        -7.91975
| 79>    C       -3.96716       -10.19182        -7.58896
| 80>    C       -3.95352        -9.10635        -6.61733
| 81>    C       -5.06168        -8.44214        -6.16709
| 82>    C       -4.99506        -7.23420        -5.44149
| 83>    N       -4.97888        -6.22452        -4.89485
| 84>    C       -6.38727        -8.84541        -6.42298
| 85>    N       -7.49073        -9.11653        -6.58567
| 86>    H      -16.34843        -7.72656         8.50800
| 87>    H      -13.15492        -3.99137         9.15711
| 88>    H      -14.74902        -8.87650         7.07157
| 89>    H      -11.50084        -5.14193         7.68195
| 90>    H      -10.69753        -9.84464         3.64884
| 91>    H       -8.07131        -7.19137         4.90404
| 92>    H       -5.74297        -5.96435         2.48422
| 93>    H       -4.88014        -7.28958         3.25711
| 94>    H       -5.88774        -6.20621         4.23114
| 95>    H       -8.53575       -12.57748        -5.01538
| 96>    H      -10.22618       -12.70561        -3.23307
| 97>    H       -2.54503        -6.39237        -1.15454
| 98>    H       -0.64976        -5.40969        -2.54083
| 99>    H       -1.34319        -5.15795        -4.14609
|100>    H       -0.05951        -6.34284        -3.92663
|101>    H       -0.90894        -7.72522        -5.67420
|102>    H       -1.48082       -11.13475        -9.73408
|103>    H       -6.64450       -12.96377        -8.81138
|104>    H       -2.28436       -13.00607       -11.16613
|105>    H       -5.89100       -11.10274        -7.39510
|106> *
|107>
|108>                          ****END OF INPUT****

CARTESIAN COORDINATES (ANGSTROEM)
---------------------------------
  C    -15.642320   -6.921350    8.638080
  C    -15.974330   -5.850630    9.419710
  F    -17.171000   -5.799660   10.019250
  C    -15.066400   -4.788590    9.605170
  F    -15.419050   -3.751140   10.376370
  C    -13.838420   -4.812160    9.005780
  C    -13.467140   -5.901210    8.193510
  C    -14.383650   -6.976490    8.006060
  C    -14.032050   -8.081570    7.197490
  C    -12.803340   -8.106800    6.591960
  C    -11.900120   -7.024650    6.775200
  C    -12.207660   -5.948000    7.556060
  C    -10.664630   -7.271950    6.005120
  O     -9.680130   -6.563570    6.009450
  C    -10.910940   -8.525170    5.251310
  C    -12.165320   -9.091140    5.724310
  C    -12.632960  -10.355980    5.485530
  C    -11.940120  -11.364290    4.779810
  N    -11.424260  -12.247820    4.259150
  C    -13.858870  -10.844950    5.985050
  N    -14.849000  -11.289300    6.358940
  C    -10.226900   -9.020040    4.173240
  C     -9.023260   -8.605370    3.569120
  C     -8.025930   -7.725890    3.973300
  C     -6.983550   -7.598230    3.067420
  C     -5.805300   -6.713180    3.274150
  C     -7.173020   -8.394450    1.928020
  S     -8.640900   -9.313560    2.014920
  C     -6.372040   -8.508400    0.779770
  C     -6.691710   -9.299680   -0.334010
  C     -5.714030   -9.224610   -1.375550
  N     -5.868070   -9.881270   -2.523230
  C     -6.958330  -10.603990   -2.658750
  C     -7.133350  -11.325440   -3.944140
  O     -6.294700  -11.305680   -4.822500
  C     -8.393130  -12.073200   -4.069420
  C     -9.312570  -12.141960   -3.100780
  C     -9.181060  -11.474540   -1.792610
  O    -10.031790  -11.554310   -0.934140
  C     -7.935740  -10.683310   -1.615250
  N     -7.791860  -10.037160   -0.477810
  C     -4.647180   -8.367100   -1.080010
  S     -4.865940   -7.679400    0.495360
  C     -3.639440   -8.051330   -2.006680
  C     -2.684070   -7.046540   -1.997460
  C     -1.969610   -6.946700   -3.188840
  C     -0.941400   -5.905300   -3.462520
  C     -2.390030   -7.884150   -4.134420
  S     -3.625950   -8.931790   -3.499380
  C     -1.920080   -8.055120   -5.457970
  C     -2.571690   -8.683120   -6.475000
  C     -1.809090   -9.218460   -7.636450
  O     -0.681790   -8.926350   -7.961410
  C     -2.702260  -10.228590   -8.243410
  C     -2.441250  -11.123010   -9.241530
  C     -3.446730  -12.042000   -9.618840
  C     -4.702190  -12.027820   -8.942640
  C     -5.689870  -12.962320   -9.313370
  C     -5.447130  -13.863880  -10.310930
  C     -4.207790  -13.874270  -10.981610
  C     -3.227950  -12.983520  -10.643680
  F     -3.996470  -14.769980  -11.956300
  F     -6.389240  -14.750350  -10.662300
  C     -4.949410  -11.084710   -7.919750
  C     -3.967160  -10.191820   -7.588960
  C     -3.953520   -9.106350   -6.617330
  C     -5.061680   -8.442140   -6.167090
  C     -4.995060   -7.234200   -5.441490
  N     -4.978880   -6.224520   -4.894850
  C     -6.387270   -8.845410   -6.422980
  N     -7.490730   -9.116530   -6.585670
  H    -16.348430   -7.726560    8.508000
  H    -13.154920   -3.991370    9.157110
  H    -14.749020   -8.876500    7.071570
  H    -11.500840   -5.141930    7.681950
  H    -10.697530   -9.844640    3.648840
  H     -8.071310   -7.191370    4.904040
  H     -5.742970   -5.964350    2.484220
  H     -4.880140   -7.289580    3.257110
  H     -5.887740   -6.206210    4.231140
  H     -8.535750  -12.577480   -5.015380
  H    -10.226180  -12.705610   -3.233070
  H     -2.545030   -6.392370   -1.154540
  H     -0.649760   -5.409690   -2.540830
  H     -1.343190   -5.157950   -4.146090
  H     -0.059510   -6.342840   -3.926630
  H     -0.908940   -7.725220   -5.674200
  H     -1.480820  -11.134750   -9.734080
  H     -6.644500  -12.963770   -8.811380
  H     -2.284360  -13.006070  -11.166130
  H     -5.891000  -11.102740   -7.395100

 Total Charge           Charge          ....    0
 Multiplicity           Mult            ....    1
 Number of Electrons    NEL             ....  502
 Basis Dimension        Dim             .... 1106

ORBITAL ENERGIES
----------------

  NO   OCC          E(Eh)            E(eV)
   0   2.0000     -89.012857     -2422.1630
   1   2.0000     -88.969604     -2420.9860
   2   2.0000     -88.964795     -2420.8551
   3   2.0000     -24.798233      -674.7942
   4   2.0000     -24.797249      -674.7675
   5   2.0000     -24.795042      -674.7074
   6   2.0000     -24.794900      -674.7035
   7   2.0000     -19.239936      -523.5453
   8   2.0000     -19.233909      -523.3813
   9   2.0000     -19.221305      -523.0383
  10   2.0000     -19.212552      -522.8001
  11   2.0000     -14.461653      -393.5216
  12   2.0000     -14.461509      -393.5177
  13   2.0000     -14.414387      -392.2354
  14   2.0000     -14.413588      -392.2137
  15   2.0000     -14.411114      -392.1464
  16   2.0000     -14.410605      -392.1325
  17   2.0000     -10.387533      -282.6592
  18   2.0000     -10.383153      -282.5400
  19   2.0000     -10.381317      -282.4900
  20   2.0000     -10.380501      -282.4678
  21   2.0000     -10.377659      -282.3904
  22   2.0000     -10.377274      -282.3800
  23   2.0000     -10.372648      -282.2541
  24   2.0000     -10.364675      -282.0371
  25   2.0000     -10.354571      -281.7622
  26   2.0000     -10.353160      -281.7238
  27   2.0000     -10.346926      -281.5542
  28   2.0000     -10.344495      -281.4880
  29   2.0000     -10.343652      -281.4651
  30   2.0000     -10.343094      -281.4499
  31   2.0000     -10.341924      -281.4181
  32   2.0000     -10.340694      -281.3846
  33   2.0000     -10.337515      -281.2981
  34   2.0000     -10.336406      -281.2679
  35   2.0000     -10.332333      -281.1571
  36   2.0000     -10.330235      -281.1000
  37   2.0000     -10.324546      -280.9452
  38   2.0000     -10.318195      -280.7724
  39   2.0000     -10.317296      -280.7479
  40   2.0000     -10.316095      -280.7152
  41   2.0000     -10.315671      -280.7037
  42   2.0000     -10.314902      -280.6827
  43   2.0000     -10.314762      -280.6789
  44   2.0000     -10.314353      -280.6678
  45   2.0000     -10.313442      -280.6430
  46   2.0000     -10.310336      -280.5585
  47   2.0000     -10.310018      -280.5499
  48   2.0000     -10.306900      -280.4650
  49   2.0000     -10.306813      -280.4626
  50   2.0000     -10.306210      -280.4462
  51   2.0000     -10.305835      -280.4360
  52   2.0000     -10.302671      -280.3499
  53   2.0000     -10.302424      -280.3432
  54   2.0000     -10.302262      -280.3388
  55   2.0000     -10.301973      -280.3309
  56   2.0000     -10.301826      -280.3269
  57   2.0000     -10.301562      -280.3197
  58   2.0000     -10.301143      -280.3084
  59   2.0000     -10.300120      -280.2805
  60   2.0000     -10.298374      -280.2330
  61   2.0000     -10.297523      -280.2099
  62   2.0000     -10.296710      -280.1877
  63   2.0000     -10.295617      -280.1580
  64   2.0000     -10.294815      -280.1362
  65   2.0000     -10.293211      -280.0925
  66   2.0000     -10.292580      -280.0753
  67   2.0000     -10.289954      -280.0039
  68   2.0000     -10.287707      -279.9427
  69   2.0000     -10.286121      -279.8996
  70   2.0000     -10.280511      -279.7469
  71   2.0000      -8.106227      -220.5816
  72   2.0000      -8.064053      -219.4340
  73   2.0000      -8.058800      -219.2911
  74   2.0000      -6.075379      -165.3195
  75   2.0000      -6.071057      -165.2018
  76   2.0000      -6.069101      -165.1486
  77   2.0000      -6.033394      -164.1770
  78   2.0000      -6.029079      -164.0596
  79   2.0000      -6.028275      -164.0377
  80   2.0000      -6.026127      -163.9793
  81   2.0000      -6.023803      -163.9160
  82   2.0000      -6.020720      -163.8321
  83   2.0000      -1.320661       -35.9370
  84   2.0000      -1.317572       -35.8530
  85   2.0000      -1.305799       -35.5326
  86   2.0000      -1.302780       -35.4505
  87   2.0000      -1.154534       -31.4165
  88   2.0000      -1.148397       -31.2495
  89   2.0000      -1.136368       -30.9221
  90   2.0000      -1.127912       -30.6921
  91   2.0000      -1.114204       -30.3190
  92   2.0000      -1.042994       -28.3813
  93   2.0000      -1.024805       -27.8864
  94   2.0000      -1.019239       -27.7349
  95   2.0000      -1.016341       -27.6561
  96   2.0000      -1.003605       -27.3095
  97   2.0000      -1.002439       -27.2777
  98   2.0000      -0.999405       -27.1952
  99   2.0000      -0.993273       -27.0283
 100   2.0000      -0.992240       -27.0002
 101   2.0000      -0.987688       -26.8764
 102   2.0000      -0.980743       -26.6874
 103   2.0000      -0.976779       -26.5795
 104   2.0000      -0.947807       -25.7911
 105   2.0000      -0.933506       -25.4020
 106   2.0000      -0.928796       -25.2738
 107   2.0000      -0.916359       -24.9354
 108   2.0000      -0.905975       -24.6528
 109   2.0000      -0.896880       -24.4053
 110   2.0000      -0.893212       -24.3055
 111   2.0000      -0.889561       -24.2062
 112   2.0000      -0.887973       -24.1630
 113   2.0000      -0.884456       -24.0673
 114   2.0000      -0.877349       -23.8739
 115   2.0000      -0.873426       -23.7671
 116   2.0000      -0.861012       -23.4293
 117   2.0000      -0.840369       -22.8676
 118   2.0000      -0.836180       -22.7536
 119   2.0000      -0.834716       -22.7138
 120   2.0000      -0.824957       -22.4482
 121   2.0000      -0.806992       -21.9594
 122   2.0000      -0.802625       -21.8405
 123   2.0000      -0.799967       -21.7682
 124   2.0000      -0.793146       -21.5826
 125   2.0000      -0.784061       -21.3354
 126   2.0000      -0.767854       -20.8944
 127   2.0000      -0.767114       -20.8742
 128   2.0000      -0.761817       -20.7301
 129   2.0000      -0.751077       -20.4378
 130   2.0000      -0.743083       -20.2203
 131   2.0000      -0.729434       -19.8489
 132   2.0000      -0.721959       -19.6455
 133   2.0000      -0.713803       -19.4236
 134   2.0000      -0.711562       -19.3626
 135   2.0000      -0.706448       -19.2234
 136   2.0000      -0.696553       -18.9542
 137   2.0000      -0.689210       -18.7543
 138   2.0000      -0.685724       -18.6595
 139   2.0000      -0.679326       -18.4854
 140   2.0000      -0.674989       -18.3674
 141   2.0000      -0.667306       -18.1583
 142   2.0000      -0.663047       -18.0424
 143   2.0000      -0.655420       -17.8349
 144   2.0000      -0.652965       -17.7681
 145   2.0000      -0.646698       -17.5976
 146   2.0000      -0.642370       -17.4798
 147   2.0000      -0.639403       -17.3990
 148   2.0000      -0.637885       -17.3577
 149   2.0000      -0.632141       -17.2014
 150   2.0000      -0.621797       -16.9200
 151   2.0000      -0.613865       -16.7041
 152   2.0000      -0.611372       -16.6363
 153   2.0000      -0.609454       -16.5841
 154   2.0000      -0.605716       -16.4824
 155   2.0000      -0.597371       -16.2553
 156   2.0000      -0.587950       -15.9989
 157   2.0000      -0.585233       -15.9250
 158   2.0000      -0.583675       -15.8826
 159   2.0000      -0.582178       -15.8419
 160   2.0000      -0.580472       -15.7954
 161   2.0000      -0.579687       -15.7741
 162   2.0000      -0.577938       -15.7265
 163   2.0000      -0.574895       -15.6437
 164   2.0000      -0.568774       -15.4771
 165   2.0000      -0.568224       -15.4622
 166   2.0000      -0.557806       -15.1787
 167   2.0000      -0.554645       -15.0927
 168   2.0000      -0.550485       -14.9795
 169   2.0000      -0.549043       -14.9402
 170   2.0000      -0.546930       -14.8827
 171   2.0000      -0.544055       -14.8045
 172   2.0000      -0.542287       -14.7564
 173   2.0000      -0.540982       -14.7209
 174   2.0000      -0.539141       -14.6708
 175   2.0000      -0.537515       -14.6265
 176   2.0000      -0.534934       -14.5563
 177   2.0000      -0.531927       -14.4745
 178   2.0000      -0.531218       -14.4552
 179   2.0000      -0.529064       -14.3966
 180   2.0000      -0.527408       -14.3515
 181   2.0000      -0.525309       -14.2944
 182   2.0000      -0.523479       -14.2446
 183   2.0000      -0.521339       -14.1863
 184   2.0000      -0.520765       -14.1707
 185   2.0000      -0.516630       -14.0582
 186   2.0000      -0.513920       -13.9845
 187   2.0000      -0.513144       -13.9634
 188   2.0000      -0.511794       -13.9266
 189   2.0000      -0.509948       -13.8764
 190   2.0000      -0.507157       -13.8004
 191   2.0000      -0.501106       -13.6358
 192   2.0000      -0.499252       -13.5853
 193   2.0000      -0.496141       -13.5007
 194   2.0000      -0.495668       -13.4878
 195   2.0000      -0.493617       -13.4320
 196   2.0000      -0.491645       -13.3783
 197   2.0000      -0.487955       -13.2779
 198   2.0000      -0.485815       -13.2197
 199   2.0000      -0.482636       -13.1332
 200   2.0000      -0.479951       -13.0601
 201   2.0000      -0.475246       -12.9321
 202   2.0000      -0.471809       -12.8386
 203   2.0000      -0.468989       -12.7619
 204   2.0000      -0.466894       -12.7048
 205   2.0000      -0.465075       -12.6553
 206   2.0000      -0.462861       -12.5951
 207   2.0000      -0.460760       -12.5379
 208   2.0000      -0.458589       -12.4788
 209   2.0000      -0.457529       -12.4500
 210   2.0000      -0.450647       -12.2627
 211   2.0000      -0.448240       -12.1972
 212   2.0000      -0.446862       -12.1597
 213   2.0000      -0.445663       -12.1271
 214   2.0000      -0.445324       -12.1179
 215   2.0000      -0.442909       -12.0522
 216   2.0000      -0.441708       -12.0195
 217   2.0000      -0.440118       -11.9762
 218   2.0000      -0.439136       -11.9495
 219   2.0000      -0.433617       -11.7993
 220   2.0000      -0.430153       -11.7051
 221   2.0000      -0.425907       -11.5895
 222   2.0000      -0.423381       -11.5208
 223   2.0000      -0.421771       -11.4770
 224   2.0000      -0.420333       -11.4378
 225   2.0000      -0.419367       -11.4115
 226   2.0000      -0.412952       -11.2370
 227   2.0000      -0.409114       -11.1325
 228   2.0000      -0.403523       -10.9804
 229   2.0000      -0.395883       -10.7725
 230   2.0000      -0.391403       -10.6506
 231   2.0000      -0.387535       -10.5454
 232   2.0000      -0.382109       -10.3977
 233   2.0000      -0.379197       -10.3185
 234   2.0000      -0.374139       -10.1808
 235   2.0000      -0.372065       -10.1244
 236   2.0000      -0.360594        -9.8123
 237   2.0000      -0.358504        -9.7554
 238   2.0000      -0.356451        -9.6995
 239   2.0000      -0.343775        -9.3546
 240   2.0000      -0.342732        -9.3262
 241   2.0000      -0.336387        -9.1535
 242   2.0000      -0.330715        -8.9992
 243   2.0000      -0.328687        -8.9440
 244   2.0000      -0.323153        -8.7934
 245   2.0000      -0.317534        -8.6405
 246   2.0000      -0.311929        -8.4880
 247   2.0000      -0.303560        -8.2603
 248   2.0000      -0.296497        -8.0681
 249   2.0000      -0.289115        -7.8672
 250   2.0000      -0.249659        -6.7936
 251   0.0000      -0.124128        -3.3777
 252   0.0000      -0.101806        -2.7703
 253   0.0000      -0.082687        -2.2500
 254   0.0000      -0.080559        -2.1921
 255   0.0000      -0.059311        -1.6139

MULLIKEN ATOMIC CHARGES
-----------------------
   0 C :   -0.112099
   1 C :    0.243433
   2 F :   -0.170830
   3 C :    0.239949
   4 F :   -0.171976
   5 C :   -0.108543
   6 C :    0.120045
   7 C :    0.117599
   8 C :   -0.088479
   9 C :    0.053904
  10 C :    0.003591
  11 C :   -0.089163
  12 C :    0.157574
  13 O :   -0.155653
  14 C :   -0.092277
  15 C :    0.294999
  16 C :   -0.344226
  17 C :   -0.207844
  18 N :    0.168473
  19 C :   -0.182066
  20 N :    0.148283
  21 C :    0.049888
  22 C :   -0.089600
  23 C :   -0.004589
  24 C :   -0.102521
  25 C :    0.117463
  26 C :   -0.096049
  27 S :    0.206482
  28 C :   -0.143392
  29 C :    0.048177
  30 C :    0.024699
  31 N :    0.034057
  32 C :   -0.102930
  33 C :    0.167985
  34 O :   -0.120261
  35 C :   -0.006374
  36 C :   -0.013566
  37 C :    0.136899
  38 O :   -0.093135
  39 C :   -0.113352
  40 N :    0.045035
  41 C :   -0.066199
  42 S :    0.199173
  43 C :   -0.057867
  44 C :   -0.049239
  45 C :   -0.005376
  46 C :    0.115385
  47 C :   -0.140015
  48 S :    0.180718
  49 C :    0.048623
  50 C :   -0.136344
  51 C :    0.137100
  52 O :   -0.143260
  53 C :    0.016260
  54 C :   -0.084992
  55 C :    0.110493
  56 C :    0.113957
  57 C :   -0.104961
  58 C :    0.240629
  59 C :    0.235811
  60 C :   -0.102859
  61 F :   -0.174366
  62 F :   -0.174081
  63 C :   -0.059650
  64 C :    0.021293
  65 C :    0.251374
  66 C :   -0.307320
  67 C :   -0.204493
  68 N :    0.162832
  69 C :   -0.169260
  70 N :    0.142929
  71 H :    0.007799
  72 H :   -0.001234
  73 H :   -0.004314
  74 H :   -0.011550
  75 H :    0.024656
  76 H :    0.005002
  77 H :    0.035967
  78 H :    0.033746
  79 H :    0.028798
  80 H :    0.017358
  81 H :    0.023373
  82 H :   -0.022050
  83 H :    0.013110
  84 H :    0.052122
  85 H :    0.034437
  86 H :    0.015616
  87 H :   -0.011198
  88 H :   -0.000844
  89 H :   -0.001849
  90 H :   -0.004848
Sum of atomic charges:   -0.0000000

LOEWDIN ATOMIC CHARGES
----------------------
   0 C :   -0.029326
   1 C :    0.066279
   2 F :   -0.049079
   3 C :    0.067166
   4 F :   -0.049819
   5 C :   -0.033953
   6 C :   -0.008934
   7 C :   -0.006295
   8 C :    0.016717
   9 C :   -0.022307
  10 C :   -0.051305
  11 C :    0.028005
  12 C :    0.087368
  13 O :   -0.143009
  14 C :   -0.094450
  15 C :    0.074431
  16 C :   -0.139028
  17 C :   -0.028764
  18 N :   -0.045166
  19 C :   -0.016834
  20 N :   -0.054337
  21 C :    0.049953
  22 C :   -0.179435
  23 C :   -0.013823
  24 C :   -0.053070
  25 C :   -0.055424
  26 C :   -0.172759
  27 S :    0.509014
  28 C :   -0.185369
  29 C :   -0.046931
  30 C :   -0.046522
  31 N :   -0.008074
  32 C :   -0.031097
  33 C :    0.069049
  34 O :   -0.103725
  35 C :   -0.008881
  36 C :   -0.005417
  37 C :    0.055768
  38 O :   -0.090097
  39 C :   -0.033076
  40 N :   -0.003176
  41 C :   -0.193483
  42 S :    0.535096
  43 C :   -0.162285
  44 C :   -0.055574
  45 C :   -0.015243
  46 C :   -0.042998
  47 C :   -0.193891
  48 S :    0.529811
  49 C :    0.048055
  50 C :   -0.094048
  51 C :    0.082559
  52 O :   -0.145174
  53 C :   -0.053294
  54 C :    0.027079
  55 C :   -0.009937
  56 C :   -0.005699
  57 C :   -0.030654
  58 C :    0.065383
  59 C :    0.065302
  60 C :   -0.033628
  61 F :   -0.051525
  62 F :   -0.051676
  63 C :    0.021113
  64 C :   -0.016583
  65 C :    0.062170
  66 C :   -0.138907
  67 C :   -0.032666
  68 N :   -0.058362
  69 C :   -0.014054
  70 N :   -0.066974
  71 H :    0.047803
  72 H :    0.044395
  73 H :    0.040055
  74 H :    0.039238
  75 H :    0.045836
  76 H :    0.032384
  77 H :    0.032836
  78 H :    0.032113
  79 H :    0.042783
  80 H :    0.046875
  81 H :    0.048489
  82 H :    0.027319
  83 H :    0.034481
  84 H :    0.048876
  85 H :    0.039087
  86 H :    0.046401
  87 H :    0.039549
  88 H :    0.045273
  89 H :    0.044159
  90 H :    0.037869

  Mayer bond orders larger than 0.100000
B(  0-C ,  1-C ) :   1.4410 B(  0-C ,  5-C ) :   0.1090 B(  0-C ,  7-C ) :   1.1879
B(  0-C , 71-H ) :   1.0069 B(  1-C ,  2-F ) :   1.1353 B(  1-C ,  3-C ) :   1.1911
B(  3-C ,  4-F ) :   1.1333 B(  3-C ,  5-C ) :   1.4434 B(  5-C ,  6-C ) :   1.1926
B(  5-C , 72-H ) :   1.0069 B(  6-C ,  7-C ) :   1.2559 B(  6-C , 11-C ) :   1.1885
B(  7-C ,  8-C ) :   1.2153 B(  8-C ,  9-C ) :   1.4516 B(  8-C , 73-H ) :   0.9909
B(  9-C , 10-C ) :   1.2225 B(  9-C , 15-C ) :   0.9827 B( 10-C , 11-C ) :   1.4709
B( 10-C , 12-C ) :   0.9494 B( 11-C , 74-H ) :   1.0162 B( 12-C , 13-O ) :   2.1736
B( 12-C , 14-C ) :   0.9446 B( 14-C , 15-C ) :   1.0737 B( 14-C , 21-C ) :   1.5790
B( 15-C , 16-C ) :   1.6371 B( 16-C , 17-C ) :   1.1332 B( 16-C , 19-C ) :   1.1475
B( 17-C , 18-N ) :   3.0046 B( 19-C , 20-N ) :   2.9679 B( 21-C , 22-C ) :   1.2194
B( 21-C , 75-H ) :   0.9237 B( 22-C , 23-C ) :   1.3975 B( 22-C , 27-S ) :   1.0788
B( 23-C , 24-C ) :   1.3303 B( 23-C , 76-H ) :   0.9804 B( 24-C , 25-C ) :   1.1115
B( 24-C , 26-C ) :   1.3736 B( 25-C , 77-H ) :   0.9355 B( 25-C , 78-H ) :   0.9381
B( 25-C , 79-H ) :   0.9402 B( 26-C , 27-S ) :   1.1740 B( 26-C , 28-C ) :   1.2387
B( 28-C , 29-C ) :   1.2968 B( 28-C , 41-C ) :   0.1163 B( 28-C , 42-S ) :   1.1617
B( 29-C , 30-C ) :   1.2086 B( 29-C , 40-N ) :   1.4235 B( 30-C , 31-N ) :   1.4030
B( 30-C , 41-C ) :   1.3055 B( 31-N , 32-C ) :   1.7067 B( 32-C , 33-C ) :   0.9057
B( 32-C , 39-C ) :   1.1117 B( 33-C , 34-O ) :   2.1659 B( 33-C , 35-C ) :   1.0325
B( 35-C , 36-C ) :   1.6775 B( 35-C , 80-H ) :   0.9982 B( 36-C , 37-C ) :   1.0212
B( 36-C , 81-H ) :   0.9965 B( 37-C , 38-O ) :   2.2572 B( 37-C , 39-C ) :   0.8924
B( 39-C , 40-N ) :   1.6984 B( 41-C , 42-S ) :   1.1439 B( 41-C , 43-C ) :   1.2037
B( 43-C , 44-C ) :   1.4022 B( 43-C , 48-S ) :   1.1658 B( 44-C , 45-C ) :   1.3317
B( 44-C , 82-H ) :   0.9945 B( 45-C , 46-C ) :   1.1104 B( 45-C , 47-C ) :   1.4103
B( 46-C , 83-H ) :   0.9482 B( 46-C , 84-H ) :   0.9421 B( 46-C , 85-H ) :   0.9371
B( 47-C , 48-S ) :   1.0880 B( 47-C , 49-C ) :   1.1471 B( 49-C , 50-C ) :   1.6517
B( 49-C , 86-H ) :   0.9433 B( 50-C , 51-C ) :   0.9441 B( 50-C , 65-C ) :   1.0234
B( 51-C , 52-O ) :   2.2711 B( 51-C , 53-C ) :   0.9169 B( 53-C , 54-C ) :   1.4733
B( 53-C , 64-C ) :   1.2166 B( 54-C , 55-C ) :   1.1986 B( 54-C , 87-H ) :   1.0158
B( 55-C , 56-C ) :   1.2539 B( 55-C , 60-C ) :   1.1920 B( 56-C , 57-C ) :   1.1921
B( 56-C , 63-C ) :   1.2055 B( 57-C , 58-C ) :   1.4399 B( 57-C , 60-C ) :   0.1094
B( 57-C , 88-H ) :   1.0071 B( 58-C , 59-C ) :   1.1938 B( 58-C , 62-F ) :   1.1309
B( 59-C , 60-C ) :   1.4449 B( 59-C , 61-F ) :   1.1306 B( 60-C , 89-H ) :   1.0062
B( 63-C , 64-C ) :   1.4745 B( 63-C , 90-H ) :   0.9881 B( 64-C , 65-C ) :   1.0021
B( 65-C , 66-C ) :   1.6691 B( 66-C , 67-C ) :   1.1520 B( 66-C , 69-C ) :   1.1480
B( 67-C , 68-N ) :   3.0139 B( 69-C , 70-N ) :   2.9703

-----------------------------------------------------------------------------
         ABSORPTION SPECTRUM VIA TRANSITION ELECTRIC DIPOLE MOMENTS
-----------------------------------------------------------------------------
State   Energy  Wavelength   fosc         T2         TX        TY        TZ
        (cm-1)    (nm)                  (au**2)     (au)      (au)      (au)
-----------------------------------------------------------------------------
   0   11383.1    878.5   0.847752291  24.51790  -2.75299   0.10531   4.11435
   1   16318.3    612.8   0.090686175   1.82954  -0.57031   0.63096   1.05176
   2   19935.8    501.6   0.380548899   6.28423   0.64726  -0.33685  -2.39829
   3   20521.0    487.3   0.062961913   1.01008   0.84809  -0.33191  -0.42504
   4   21818.6    458.3   0.401272954   6.05463  -2.25062  -0.47270   0.87517
   5   22521.0    444.0   0.013026780   0.19043   0.31246   0.27620  -0.12847
   6   23623.5    423.3   0.001905890   0.02656  -0.00983  -0.16192  -0.01570
   7   24956.2    400.7   0.002515795   0.03319   0.01928  -0.08966  -0.15741
   8   25608.9    390.5   0.009671211   0.12433  -0.31908   0.14915  -0.01633
   9   25927.7    385.7   0.015075254   0.19142  -0.06592   0.28380   0.32638
  10   26205.7    381.6   0.001372218   0.01724   0.09275   0.05037   0.07810
  11   26548.6    376.7   0.001909972   0.02368  -0.02909   0.00413  -0.15107
  12   26959.5    370.9   0.000451849   0.00552  -0.03591   0.05005  -0.04151
  13   27172.2    368.0   0.046922626   0.56850  -0.58022   0.30595   0.37182
  14   27334.3    365.8   0.235358590   2.83464  -0.48410   0.95641   1.29829
  15   27697.8    361.0   0.016105500   0.19143  -0.23901  -0.08126   0.35735
  16   27957.3    357.7   0.018075064   0.21284   0.00731  -0.06533   0.45664
  17   28275.0    353.7   0.018945763   0.22059  -0.38359  -0.22385   0.15278
  18   28722.6    348.2   0.011098853   0.12721   0.16809   0.30929  -0.05746
  19   28812.7    347.1   0.020082929   0.22947  -0.17056   0.23486   0.38107
  20   29068.7    344.0   0.291646312   3.30299  -0.80988   1.06054   1.23383
  21   29816.3    335.4   0.001961537   0.02166  -0.03402  -0.05541  -0.13203
  22   30538.3    327.5   0.094763444   1.02158   0.12561  -0.48810  -0.87611
  23   31578.6    316.7   0.185407612   1.93290   0.29706  -1.00924  -0.90890
  24   31829.9    314.2   0.021410777   0.22145   0.25118   0.21571   0.33441
  25   31875.4    313.7   0.045124414   0.46605  -0.53444  -0.42476   0.00228
  26   32022.2    312.3   0.064777592   0.66596   0.59799   0.54790   0.09044
  27   32768.7    305.2   0.322302078   3.23802   1.25828  -0.67636  -1.09420
  28   32893.8    304.0   0.016154889   0.16168  -0.39047   0.08246  -0.04914
  29   33061.3    302.5   0.236211306   2.35211   0.38587   1.31613   0.68630
  30   33166.9    301.5   0.031079216   0.30849   0.31761   0.01230   0.45548
  31   33414.0    299.3   0.090553845   0.89218  -0.50886  -0.77657  -0.17374
  32   33625.0    297.4   0.028723190   0.28122   0.35413   0.37729  -0.11604
  33   33725.2    296.5   0.061496095   0.60030   0.54426  -0.36364  -0.41454
  34   34129.0    293.0   0.043639304   0.42095   0.44285   0.23785   0.41019
  35   34219.8    292.2   0.079933606   0.76900   0.64232   0.42549   0.41880
  36   34422.2    290.5   0.174040061   1.66451  -0.51930   0.84950   0.82048
  37   34585.8    289.1   0.019766466   0.18815  -0.31944  -0.18686  -0.22626
  38   34627.4    288.8   0.006585217   0.06261  -0.16756   0.08770   0.16382
  39   35150.6    284.5   0.116151076   1.08784  -0.78711  -0.48077  -0.48699
  40   35308.4    283.2   0.208714309   1.94603  -0.52863   0.96527   0.85723
  41   35869.7    278.8   0.052590621   0.48268   0.07130   0.57962   0.37634
  42   35978.5    277.9   0.338757889   3.09972   0.35971  -1.24776  -1.18887
  43   36110.7    276.9   0.039291758   0.35821   0.52390  -0.13482  -0.25606
  44   36297.1    275.5   0.325271257   2.95018  -0.00987   1.39522   1.00172
  45   36602.1    273.2   0.033067942   0.29742  -0.06215   0.34913   0.41433
  46   36709.1    272.4   0.299420399   2.68524   0.14024  -1.48161  -0.68587
  47   36925.8    270.8   0.024513017   0.21855  -0.21144   0.19489   0.36859
  48   37225.3    268.6   0.018986468   0.16791  -0.36487  -0.13495   0.12873
  49   37485.7    266.8   0.002984615   0.02621   0.14621  -0.04003  -0.05685
  50   37914.9    263.7   0.003229320   0.02804  -0.00651   0.15700   0.05786
  51   38140.7    262.2   0.016422248   0.14175  -0.32141  -0.18665  -0.06006
  52   38241.4    261.5   0.001070759   0.00922   0.09541   0.00040  -0.01072
  53   38269.0    261.3   0.020622953   0.17741  -0.06188  -0.25997  -0.32557
  54   38427.2    260.2   0.037762945   0.32352  -0.42422  -0.24660   0.28766
  55   38806.0    257.7   0.036542018   0.31001   0.39386   0.34586   0.18778
  56   38921.9    256.9   0.023378211   0.19774   0.33903   0.27185  -0.09434
  57   39224.8    254.9   0.039807495   0.33410   0.06429   0.49474   0.29190
  58   39451.6    253.5   0.067668827   0.56468  -0.70558   0.20913   0.15195
  59   39874.6    250.8   0.053784494   0.44405  -0.01015  -0.45662  -0.48523
  60   39934.3    250.4   0.174367226   1.43746   1.12959   0.40098   0.02658

FINAL SINGLE POINT ENERGY     -4288.875274198057

DIPOLE MOMENT
-------------
                                X             Y             Z
Electronic contribution:    -29.25149     -16.22878      -1.02526
Nuclear contribution   :     31.70541      17.56580       1.57502
                        -----------------------------------------
Total Dipole Moment    :      2.45392       1.33702       0.54975
                        -----------------------------------------
Magnitude (a.u.)       :      2.84808
Magnitude (Debye)      :      7.23925

Rotational constants in cm-1:     0.002174     0.000293     0.000268
Rotational constants in MHz :    65.183369     8.797812     8.049331

                             ****ORCA TERMINATED NORMALLY****
TOTAL RUN TIME: 0 days 0 hours 20 minutes 1 seconds 221 msec
