                         Program Version 4.2.0 -  RELEASE  -
|  1> # ORCA input file
|  2> # SCF done       -188.762236477427          0.000981012935
|  3> ! CAM-B3LYP def2-SVP def2/J RIJCOSX Grid4 TightSCF
|  4> %maxcore 5000
|  5> %tddft
|  6>     Mode sTDDFT
|  7>     Ethresh 5.0
|  8>     maxcore 5000
|  9> end
| 10>
| 11> %pal
| 12>   nprocs 6
| 13>   end
| 14> * xyz 0 1
| 15>    C       -7.95658         1.95756         3.30744
| 16>    C       -8.84103         2.21223         4.31778
| 17>    F       -9.14714         3.47500         4.64222
| 18>    C       -9.44104         1.15415         5.02988
| 19>    F      -10.30522         1.43345         6.01468
| 20>    C       -9.14679        -0.14472         4.72248
| 21>    C       -8.23880        -0.43937         3.68703
| 22>    C       -7.63285         0.62925         2.96482
| 23>    C       -6.71973         0.35829         1.91987
| 24>    C       -6.41951        -0.94160         1.60735
| 25>    C       -7.02717        -2.00075         2.33747
| 26>    C       -7.91396        -1.77191         3.34941
| 27>    C       -6.53539        -3.28941         1.81923
| 28>    O       -6.85592        -4.39411         2.21685
| 29>    C       -5.59092        -2.96365         0.74202
| 30>    C       -5.53062        -1.51938         0.60087
| 31>    C       -4.79326        -0.79941        -0.30255
| 32>    C       -3.93555        -1.33432        -1.28691
| 33>    N       -3.22431        -1.68530        -2.11773
| 34>    C       -4.79291         0.61028        -0.37660
| 35>    N       -4.74561         1.75128        -0.49028
| 36>    C       -4.87619        -3.87056         0.00491
| 37>    C       -4.84540        -5.27432         0.05897
| 38>    C       -4.01932        -6.01430        -0.78839
| 39>    C       -4.13470        -7.37608        -0.56991
| 40>    C       -5.04989        -7.70350         0.44215
| 41>    S       -5.77740        -6.30899         1.13649
| 42>    C       -5.16232        -9.08784         0.65733
| 43>    C       -4.34777        -9.79157        -0.18002
| 44>    S       -3.41267        -8.79316        -1.26048
| 45>    C       -4.18096       -11.28352        -0.22220
| 46>    C       -2.84496       -11.68240         0.43651
| 47>    N       -5.22872       -11.86271         0.62755
| 48>    N       -5.93226       -12.79838         0.35496
| 49>    C       -5.91914       -13.57547        -0.89674
| 50>    C       -5.08380       -12.92142        -1.93148
| 51>    C       -4.25156       -11.81132        -1.60729
| 52>    N       -3.66462       -11.42100        -2.70141
| 53>    O       -4.09455       -12.23812        -3.67047
| 54>    N       -4.95954       -13.15028        -3.20746
| 55>    C       -7.38116       -13.71772        -1.34354
| 56>    C       -5.35776       -14.91105        -0.50567
| 57>    C       -4.53033       -15.71868        -1.23009
| 58>    C       -4.24802       -16.90233        -0.52936
| 59>    C       -4.85480       -16.97518         0.72767
| 60>    S       -5.79393       -15.55907         1.05034
| 61>    C       -4.55972       -18.14312         1.43037
| 62>    C       -3.76000       -18.99847         0.69889
| 63>    S       -3.31969       -18.31075        -0.86197
| 64>    C       -3.24280       -20.23599         1.15700
| 65>    C       -2.70892       -21.26222         0.44478
| 66>    C       -1.79818       -22.23063         1.11791
| 67>    O       -1.65177       -22.38148         2.30771
| 68>    C       -1.07526       -22.90204         0.01780
| 69>    C       -0.03332       -23.78140         0.08758
| 70>    C        0.52903       -24.27625        -1.11043
| 71>    C        0.00075       -23.84603        -2.36268
| 72>    C        0.57309       -24.33781        -3.55311
| 73>    C        1.61834       -25.21671        -3.50316
| 74>    C        2.13905       -25.64259        -2.26437
| 75>    C        1.60642       -25.18356        -1.09249
| 76>    F        3.16527       -26.50324        -2.24569
| 77>    F        2.16058       -25.68304        -4.63518
| 78>    C       -1.08503       -22.94184        -2.40436
| 79>    C       -1.61793       -22.48136        -1.23054
| 80>    C       -2.74230       -21.58891        -0.96635
| 81>    C       -3.78643       -21.35253        -1.81958
| 82>    C       -4.98740       -20.73566        -1.40934
| 83>    N       -5.99346       -20.28576        -1.08938
| 84>    C       -3.81320       -21.78738        -3.16012
| 85>    N       -3.86517       -22.10897        -4.26039
| 86>    H       -7.50658         2.77931         2.77252
| 87>    H       -9.61366        -0.94348         5.27723
| 88>    H       -6.28039         1.19049         1.39458
| 89>    H       -8.35995        -2.59628         3.88474
| 90>    H       -4.21101        -3.46819        -0.74966
| 91>    H       -3.37580        -5.55876        -1.51907
| 92>    H       -5.80308        -9.54941         1.38506
| 93>    H       -2.84416       -11.34926         1.47089
| 94>    H       -2.02627       -11.21314        -0.10324
| 95>    H       -2.72016       -12.76394         0.41056
| 96>    H       -7.78982       -12.74183        -1.59650
| 97>    H       -7.96297       -14.14540        -0.53179
| 98>    H       -7.42975       -14.36287        -2.21647
| 99>    H       -4.17130       -15.49099        -2.21672
|100>    H       -4.93259       -18.38020         2.40960
|101>    H       -3.18901       -20.34440         2.23646
|102>    H        0.35774       -24.09472         1.04356
|103>    H        0.18411       -24.02499        -4.50947
|104>    H        2.01630       -25.51913        -0.15276
|105>    H       -1.46271       -22.62500        -3.36362
|106> *
|107>
|108>                          ****END OF INPUT****

CARTESIAN COORDINATES (ANGSTROEM)
---------------------------------
  C     -7.956580    1.957560    3.307440
  C     -8.841030    2.212230    4.317780
  F     -9.147140    3.475000    4.642220
  C     -9.441040    1.154150    5.029880
  F    -10.305220    1.433450    6.014680
  C     -9.146790   -0.144720    4.722480
  C     -8.238800   -0.439370    3.687030
  C     -7.632850    0.629250    2.964820
  C     -6.719730    0.358290    1.919870
  C     -6.419510   -0.941600    1.607350
  C     -7.027170   -2.000750    2.337470
  C     -7.913960   -1.771910    3.349410
  C     -6.535390   -3.289410    1.819230
  O     -6.855920   -4.394110    2.216850
  C     -5.590920   -2.963650    0.742020
  C     -5.530620   -1.519380    0.600870
  C     -4.793260   -0.799410   -0.302550
  C     -3.935550   -1.334320   -1.286910
  N     -3.224310   -1.685300   -2.117730
  C     -4.792910    0.610280   -0.376600
  N     -4.745610    1.751280   -0.490280
  C     -4.876190   -3.870560    0.004910
  C     -4.845400   -5.274320    0.058970
  C     -4.019320   -6.014300   -0.788390
  C     -4.134700   -7.376080   -0.569910
  C     -5.049890   -7.703500    0.442150
  S     -5.777400   -6.308990    1.136490
  C     -5.162320   -9.087840    0.657330
  C     -4.347770   -9.791570   -0.180020
  S     -3.412670   -8.793160   -1.260480
  C     -4.180960  -11.283520   -0.222200
  C     -2.844960  -11.682400    0.436510
  N     -5.228720  -11.862710    0.627550
  N     -5.932260  -12.798380    0.354960
  C     -5.919140  -13.575470   -0.896740
  C     -5.083800  -12.921420   -1.931480
  C     -4.251560  -11.811320   -1.607290
  N     -3.664620  -11.421000   -2.701410
  O     -4.094550  -12.238120   -3.670470
  N     -4.959540  -13.150280   -3.207460
  C     -7.381160  -13.717720   -1.343540
  C     -5.357760  -14.911050   -0.505670
  C     -4.530330  -15.718680   -1.230090
  C     -4.248020  -16.902330   -0.529360
  C     -4.854800  -16.975180    0.727670
  S     -5.793930  -15.559070    1.050340
  C     -4.559720  -18.143120    1.430370
  C     -3.760000  -18.998470    0.698890
  S     -3.319690  -18.310750   -0.861970
  C     -3.242800  -20.235990    1.157000
  C     -2.708920  -21.262220    0.444780
  C     -1.798180  -22.230630    1.117910
  O     -1.651770  -22.381480    2.307710
  C     -1.075260  -22.902040    0.017800
  C     -0.033320  -23.781400    0.087580
  C      0.529030  -24.276250   -1.110430
  C      0.000750  -23.846030   -2.362680
  C      0.573090  -24.337810   -3.553110
  C      1.618340  -25.216710   -3.503160
  C      2.139050  -25.642590   -2.264370
  C      1.606420  -25.183560   -1.092490
  F      3.165270  -26.503240   -2.245690
  F      2.160580  -25.683040   -4.635180
  C     -1.085030  -22.941840   -2.404360
  C     -1.617930  -22.481360   -1.230540
  C     -2.742300  -21.588910   -0.966350
  C     -3.786430  -21.352530   -1.819580
  C     -4.987400  -20.735660   -1.409340
  N     -5.993460  -20.285760   -1.089380
  C     -3.813200  -21.787380   -3.160120
  N     -3.865170  -22.108970   -4.260390
  H     -7.506580    2.779310    2.772520
  H     -9.613660   -0.943480    5.277230
  H     -6.280390    1.190490    1.394580
  H     -8.359950   -2.596280    3.884740
  H     -4.211010   -3.468190   -0.749660
  H     -3.375800   -5.558760   -1.519070
  H     -5.803080   -9.549410    1.385060
  H     -2.844160  -11.349260    1.470890
  H     -2.026270  -11.213140   -0.103240
  H     -2.720160  -12.763940    0.410560
  H     -7.789820  -12.741830   -1.596500
  H     -7.962970  -14.145400   -0.531790
  H     -7.429750  -14.362870   -2.216470
  H     -4.171300  -15.490990   -2.216720
  H     -4.932590  -18.380200    2.409600
  H     -3.189010  -20.344400    2.236460
  H      0.357740  -24.094720    1.043560
  H      0.184110  -24.024990   -4.509470
  H      2.016300  -25.519130   -0.152760
  H     -1.462710  -22.625000   -3.363620

 Total Charge           Charge          ....    0
 Multiplicity           Mult            ....    1
 Number of Electrons    NEL             ....  512
 Basis Dimension        Dim             .... 1110

ORBITAL ENERGIES
----------------

  NO   OCC          E(Eh)            E(eV)
   0   2.0000     -88.977786     -2421.2086
   1   2.0000     -88.976085     -2421.1624
   2   2.0000     -88.972416     -2421.0625
   3   2.0000     -88.967775     -2420.9362
   4   2.0000     -24.800333      -674.8514
   5   2.0000     -24.799858      -674.8384
   6   2.0000     -24.799719      -674.8347
   7   2.0000     -24.798357      -674.7976
   8   2.0000     -19.361023      -526.8402
   9   2.0000     -19.223891      -523.1087
  10   2.0000     -19.219832      -522.9982
  11   2.0000     -14.500135      -394.5687
  12   2.0000     -14.499583      -394.5537
  13   2.0000     -14.494185      -394.4068
  14   2.0000     -14.493134      -394.3782
  15   2.0000     -14.420573      -392.4038
  16   2.0000     -14.420094      -392.3907
  17   2.0000     -14.416550      -392.2943
  18   2.0000     -14.416210      -392.2850
  19   2.0000     -10.383665      -282.5539
  20   2.0000     -10.383317      -282.5444
  21   2.0000     -10.382766      -282.5294
  22   2.0000     -10.381902      -282.5059
  23   2.0000     -10.372531      -282.2509
  24   2.0000     -10.371767      -282.2301
  25   2.0000     -10.364287      -282.0266
  26   2.0000     -10.362528      -281.9787
  27   2.0000     -10.348635      -281.6007
  28   2.0000     -10.346441      -281.5410
  29   2.0000     -10.346355      -281.5386
  30   2.0000     -10.345824      -281.5242
  31   2.0000     -10.344552      -281.4896
  32   2.0000     -10.343676      -281.4657
  33   2.0000     -10.333820      -281.1975
  34   2.0000     -10.330214      -281.0994
  35   2.0000     -10.327831      -281.0346
  36   2.0000     -10.327658      -281.0299
  37   2.0000     -10.326358      -280.9945
  38   2.0000     -10.322998      -280.9031
  39   2.0000     -10.322712      -280.8953
  40   2.0000     -10.322100      -280.8786
  41   2.0000     -10.321794      -280.8703
  42   2.0000     -10.319498      -280.8078
  43   2.0000     -10.318584      -280.7830
  44   2.0000     -10.316049      -280.7140
  45   2.0000     -10.313596      -280.6472
  46   2.0000     -10.313143      -280.6349
  47   2.0000     -10.311858      -280.5999
  48   2.0000     -10.311508      -280.5904
  49   2.0000     -10.311464      -280.5892
  50   2.0000     -10.311440      -280.5886
  51   2.0000     -10.311021      -280.5771
  52   2.0000     -10.310589      -280.5654
  53   2.0000     -10.308742      -280.5151
  54   2.0000     -10.307803      -280.4896
  55   2.0000     -10.306083      -280.4428
  56   2.0000     -10.305570      -280.4288
  57   2.0000     -10.304212      -280.3919
  58   2.0000     -10.303613      -280.3756
  59   2.0000     -10.303589      -280.3749
  60   2.0000     -10.303443      -280.3709
  61   2.0000     -10.303067      -280.3607
  62   2.0000     -10.302820      -280.3540
  63   2.0000     -10.302456      -280.3441
  64   2.0000     -10.301571      -280.3200
  65   2.0000     -10.300258      -280.2843
  66   2.0000     -10.297641      -280.2131
  67   2.0000     -10.297423      -280.2071
  68   2.0000     -10.294886      -280.1381
  69   2.0000     -10.294795      -280.1356
  70   2.0000     -10.290097      -280.0078
  71   2.0000      -8.072667      -219.6684
  72   2.0000      -8.071013      -219.6234
  73   2.0000      -8.067415      -219.5255
  74   2.0000      -8.060981      -219.3504
  75   2.0000      -6.042170      -164.4158
  76   2.0000      -6.040549      -164.3717
  77   2.0000      -6.038080      -164.3045
  78   2.0000      -6.037023      -164.2757
  79   2.0000      -6.036524      -164.2622
  80   2.0000      -6.034310      -164.2019
  81   2.0000      -6.032897      -164.1635
  82   2.0000      -6.032538      -164.1537
  83   2.0000      -6.030609      -164.1012
  84   2.0000      -6.028858      -164.0536
  85   2.0000      -6.026100      -163.9785
  86   2.0000      -6.022756      -163.8875
  87   2.0000      -1.323196       -36.0060
  88   2.0000      -1.322083       -35.9757
  89   2.0000      -1.319091       -35.8943
  90   2.0000      -1.308332       -35.6015
  91   2.0000      -1.307180       -35.5702
  92   2.0000      -1.178719       -32.0746
  93   2.0000      -1.139929       -31.0191
  94   2.0000      -1.135630       -30.9021
  95   2.0000      -1.036708       -28.2103
  96   2.0000      -1.029360       -28.0103
  97   2.0000      -1.023127       -27.8407
  98   2.0000      -1.022396       -27.8208
  99   2.0000      -1.020725       -27.7753
 100   2.0000      -1.006916       -27.3996
 101   2.0000      -1.006637       -27.3920
 102   2.0000      -1.005499       -27.3610
 103   2.0000      -0.997312       -27.1383
 104   2.0000      -0.996833       -27.1252
 105   2.0000      -0.986690       -26.8492
 106   2.0000      -0.984136       -26.7797
 107   2.0000      -0.981674       -26.7127
 108   2.0000      -0.965297       -26.2671
 109   2.0000      -0.945553       -25.7298
 110   2.0000      -0.933996       -25.4153
 111   2.0000      -0.931185       -25.3388
 112   2.0000      -0.912123       -24.8201
 113   2.0000      -0.905448       -24.6385
 114   2.0000      -0.901384       -24.5279
 115   2.0000      -0.895561       -24.3695
 116   2.0000      -0.893620       -24.3166
 117   2.0000      -0.882958       -24.0265
 118   2.0000      -0.880667       -23.9642
 119   2.0000      -0.874462       -23.7953
 120   2.0000      -0.869110       -23.6497
 121   2.0000      -0.843630       -22.9564
 122   2.0000      -0.842181       -22.9169
 123   2.0000      -0.827023       -22.5044
 124   2.0000      -0.825841       -22.4723
 125   2.0000      -0.821966       -22.3668
 126   2.0000      -0.816634       -22.2217
 127   2.0000      -0.798630       -21.7318
 128   2.0000      -0.795247       -21.6398
 129   2.0000      -0.784932       -21.3591
 130   2.0000      -0.781032       -21.2530
 131   2.0000      -0.773551       -21.0494
 132   2.0000      -0.770369       -20.9628
 133   2.0000      -0.768800       -20.9201
 134   2.0000      -0.745800       -20.2942
 135   2.0000      -0.741971       -20.1901
 136   2.0000      -0.726056       -19.7570
 137   2.0000      -0.721800       -19.6412
 138   2.0000      -0.719530       -19.5794
 139   2.0000      -0.714407       -19.4400
 140   2.0000      -0.700649       -19.0656
 141   2.0000      -0.690857       -18.7992
 142   2.0000      -0.688218       -18.7274
 143   2.0000      -0.683872       -18.6091
 144   2.0000      -0.681850       -18.5541
 145   2.0000      -0.671632       -18.2760
 146   2.0000      -0.668981       -18.2039
 147   2.0000      -0.661985       -18.0135
 148   2.0000      -0.658604       -17.9215
 149   2.0000      -0.657452       -17.8902
 150   2.0000      -0.653396       -17.7798
 151   2.0000      -0.645283       -17.5590
 152   2.0000      -0.644396       -17.5349
 153   2.0000      -0.639763       -17.4088
 154   2.0000      -0.635026       -17.2799
 155   2.0000      -0.629626       -17.1330
 156   2.0000      -0.625589       -17.0231
 157   2.0000      -0.618754       -16.8371
 158   2.0000      -0.617056       -16.7910
 159   2.0000      -0.615146       -16.7390
 160   2.0000      -0.596744       -16.2382
 161   2.0000      -0.594329       -16.1725
 162   2.0000      -0.591264       -16.0891
 163   2.0000      -0.590228       -16.0609
 164   2.0000      -0.588771       -16.0213
 165   2.0000      -0.587667       -15.9912
 166   2.0000      -0.586903       -15.9704
 167   2.0000      -0.586545       -15.9607
 168   2.0000      -0.579971       -15.7818
 169   2.0000      -0.576072       -15.6757
 170   2.0000      -0.563942       -15.3456
 171   2.0000      -0.561345       -15.2750
 172   2.0000      -0.558684       -15.2026
 173   2.0000      -0.555681       -15.1208
 174   2.0000      -0.554055       -15.0766
 175   2.0000      -0.549209       -14.9447
 176   2.0000      -0.548092       -14.9143
 177   2.0000      -0.545254       -14.8371
 178   2.0000      -0.543766       -14.7966
 179   2.0000      -0.540584       -14.7100
 180   2.0000      -0.539481       -14.6800
 181   2.0000      -0.536288       -14.5931
 182   2.0000      -0.534597       -14.5471
 183   2.0000      -0.531286       -14.4570
 184   2.0000      -0.530627       -14.4391
 185   2.0000      -0.530232       -14.4284
 186   2.0000      -0.526535       -14.3277
 187   2.0000      -0.523964       -14.2578
 188   2.0000      -0.519216       -14.1286
 189   2.0000      -0.518163       -14.0999
 190   2.0000      -0.516295       -14.0491
 191   2.0000      -0.511426       -13.9166
 192   2.0000      -0.509742       -13.8708
 193   2.0000      -0.504670       -13.7328
 194   2.0000      -0.504125       -13.7179
 195   2.0000      -0.502272       -13.6675
 196   2.0000      -0.501519       -13.6470
 197   2.0000      -0.500229       -13.6119
 198   2.0000      -0.497499       -13.5376
 199   2.0000      -0.493475       -13.4281
 200   2.0000      -0.490667       -13.3517
 201   2.0000      -0.488310       -13.2876
 202   2.0000      -0.487859       -13.2753
 203   2.0000      -0.483055       -13.1446
 204   2.0000      -0.480548       -13.0764
 205   2.0000      -0.476214       -12.9584
 206   2.0000      -0.474690       -12.9170
 207   2.0000      -0.471507       -12.8304
 208   2.0000      -0.469823       -12.7845
 209   2.0000      -0.466082       -12.6827
 210   2.0000      -0.465762       -12.6740
 211   2.0000      -0.463153       -12.6030
 212   2.0000      -0.458479       -12.4758
 213   2.0000      -0.455134       -12.3848
 214   2.0000      -0.452842       -12.3225
 215   2.0000      -0.452031       -12.3004
 216   2.0000      -0.450168       -12.2497
 217   2.0000      -0.448637       -12.2080
 218   2.0000      -0.447719       -12.1831
 219   2.0000      -0.446143       -12.1402
 220   2.0000      -0.445613       -12.1257
 221   2.0000      -0.444142       -12.0857
 222   2.0000      -0.441736       -12.0202
 223   2.0000      -0.433837       -11.8053
 224   2.0000      -0.432584       -11.7712
 225   2.0000      -0.430742       -11.7211
 226   2.0000      -0.430405       -11.7119
 227   2.0000      -0.428981       -11.6732
 228   2.0000      -0.426763       -11.6128
 229   2.0000      -0.424280       -11.5452
 230   2.0000      -0.420070       -11.4307
 231   2.0000      -0.415580       -11.3085
 232   2.0000      -0.410999       -11.1839
 233   2.0000      -0.409995       -11.1565
 234   2.0000      -0.407364       -11.0849
 235   2.0000      -0.403495       -10.9797
 236   2.0000      -0.397354       -10.8126
 237   2.0000      -0.395993       -10.7755
 238   2.0000      -0.394199       -10.7267
 239   2.0000      -0.387676       -10.5492
 240   2.0000      -0.385711       -10.4957
 241   2.0000      -0.378045       -10.2871
 242   2.0000      -0.372158       -10.1269
 243   2.0000      -0.355377        -9.6703
 244   2.0000      -0.349120        -9.5000
 245   2.0000      -0.339080        -9.2268
 246   2.0000      -0.338366        -9.2074
 247   2.0000      -0.320312        -8.7161
 248   2.0000      -0.320259        -8.7147
 249   2.0000      -0.318568        -8.6687
 250   2.0000      -0.310426        -8.4471
 251   2.0000      -0.306849        -8.3498
 252   2.0000      -0.304295        -8.2803
 253   2.0000      -0.301870        -8.2143
 254   2.0000      -0.283695        -7.7197
 255   2.0000      -0.277732        -7.5575
 256   0.0000      -0.099955        -2.7199
 257   0.0000      -0.097610        -2.6561
 258   0.0000      -0.062938        -1.7126
 259   0.0000      -0.061141        -1.6637
 260   0.0000      -0.037794        -1.0284

MULLIKEN ATOMIC CHARGES
-----------------------
   0 C :   -0.104562
   1 C :    0.240129
   2 F :   -0.170536
   3 C :    0.236940
   4 F :   -0.171829
   5 C :   -0.102906
   6 C :    0.114721
   7 C :    0.110805
   8 C :   -0.081780
   9 C :    0.048533
  10 C :   -0.007573
  11 C :   -0.079329
  12 C :    0.164099
  13 O :   -0.172359
  14 C :   -0.093423
  15 C :    0.332643
  16 C :   -0.357807
  17 C :   -0.186492
  18 N :    0.142507
  19 C :   -0.182494
  20 N :    0.148474
  21 C :   -0.016983
  22 C :   -0.066503
  23 C :   -0.047887
  24 C :    0.010753
  25 C :    0.002034
  26 S :    0.202813
  27 C :   -0.005959
  28 C :   -0.129381
  29 S :    0.180835
  30 C :   -0.065465
  31 C :    0.155004
  32 N :   -0.088673
  33 N :   -0.093603
  34 C :   -0.034348
  35 C :   -0.094135
  36 C :   -0.072873
  37 N :    0.060418
  38 O :   -0.118882
  39 N :    0.049447
  40 C :    0.154175
  41 C :   -0.161436
  42 C :    0.022878
  43 C :   -0.022260
  44 C :   -0.008321
  45 S :    0.190751
  46 C :    0.017170
  47 C :   -0.101862
  48 S :    0.160800
  49 C :    0.051695
  50 C :   -0.134327
  51 C :    0.143267
  52 O :   -0.140073
  53 C :    0.007886
  54 C :   -0.077841
  55 C :    0.108512
  56 C :    0.108764
  57 C :   -0.103228
  58 C :    0.240933
  59 C :    0.238211
  60 C :   -0.100076
  61 F :   -0.171851
  62 F :   -0.170314
  63 C :   -0.077839
  64 C :    0.041213
  65 C :    0.244134
  66 C :   -0.316912
  67 C :   -0.204426
  68 N :    0.175415
  69 C :   -0.174669
  70 N :    0.156071
  71 H :    0.007950
  72 H :   -0.000463
  73 H :   -0.007150
  74 H :   -0.010610
  75 H :    0.010328
  76 H :    0.011834
  77 H :    0.003696
  78 H :    0.042453
  79 H :    0.037271
  80 H :    0.026060
  81 H :    0.025040
  82 H :    0.032722
  83 H :    0.045518
  84 H :   -0.000500
  85 H :    0.001184
  86 H :    0.029899
  87 H :   -0.008410
  88 H :    0.006163
  89 H :   -0.000466
  90 H :   -0.003331
Sum of atomic charges:   -0.0000000

LOEWDIN ATOMIC CHARGES
----------------------
   0 C :   -0.028776
   1 C :    0.066274
   2 F :   -0.048456
   3 C :    0.067474
   4 F :   -0.049129
   5 C :   -0.033292
   6 C :   -0.009023
   7 C :   -0.006883
   8 C :    0.018345
   9 C :   -0.022491
  10 C :   -0.051889
  11 C :    0.029583
  12 C :    0.083275
  13 O :   -0.163310
  14 C :   -0.112455
  15 C :    0.078036
  16 C :   -0.143249
  17 C :   -0.021028
  18 N :   -0.054286
  19 C :   -0.017387
  20 N :   -0.054957
  21 C :    0.062473
  22 C :   -0.180693
  23 C :   -0.019443
  24 C :   -0.209043
  25 C :   -0.189477
  26 S :    0.494378
  27 C :   -0.069256
  28 C :   -0.147675
  29 S :    0.442778
  30 C :   -0.048559
  31 C :   -0.018703
  32 N :    0.004652
  33 N :   -0.011313
  34 C :   -0.049268
  35 C :   -0.061034
  36 C :   -0.067779
  37 N :   -0.014117
  38 O :    0.054095
  39 N :   -0.009354
  40 C :   -0.020827
  41 C :   -0.154688
  42 C :   -0.069276
  43 C :   -0.181303
  44 C :   -0.206408
  45 S :    0.453686
  46 C :   -0.015946
  47 C :   -0.174081
  48 S :    0.454703
  49 C :    0.054781
  50 C :   -0.097883
  51 C :    0.083663
  52 O :   -0.141268
  53 C :   -0.054386
  54 C :    0.031243
  55 C :   -0.009707
  56 C :   -0.005541
  57 C :   -0.030206
  58 C :    0.067338
  59 C :    0.067086
  60 C :   -0.032314
  61 F :   -0.048928
  62 F :   -0.047991
  63 C :    0.014181
  64 C :   -0.019532
  65 C :    0.059779
  66 C :   -0.137267
  67 C :   -0.035343
  68 N :   -0.045624
  69 C :   -0.019147
  70 N :   -0.048627
  71 H :    0.047889
  72 H :    0.044690
  73 H :    0.039995
  74 H :    0.040068
  75 H :    0.051481
  76 H :    0.042268
  77 H :    0.037911
  78 H :    0.039028
  79 H :    0.035407
  80 H :    0.031202
  81 H :    0.032398
  82 H :    0.032917
  83 H :    0.041391
  84 H :    0.037635
  85 H :    0.040857
  86 H :    0.052898
  87 H :    0.040839
  88 H :    0.047293
  89 H :    0.044870
  90 H :    0.039753

  Mayer bond orders larger than 0.100000
B(  0-C ,  1-C ) :   1.4413 B(  0-C ,  5-C ) :   0.1077 B(  0-C ,  7-C ) :   1.1898
B(  0-C , 71-H ) :   1.0063 B(  1-C ,  2-F ) :   1.1354 B(  1-C ,  3-C ) :   1.1906
B(  3-C ,  4-F ) :   1.1334 B(  3-C ,  5-C ) :   1.4434 B(  5-C ,  6-C ) :   1.1938
B(  5-C , 72-H ) :   1.0065 B(  6-C ,  7-C ) :   1.2561 B(  6-C , 11-C ) :   1.1872
B(  7-C ,  8-C ) :   1.2164 B(  8-C ,  9-C ) :   1.4523 B(  8-C , 73-H ) :   0.9888
B(  9-C , 10-C ) :   1.2224 B(  9-C , 15-C ) :   0.9818 B( 10-C , 11-C ) :   1.4730
B( 10-C , 12-C ) :   0.9554 B( 11-C , 74-H ) :   1.0160 B( 12-C , 13-O ) :   2.1480
B( 12-C , 14-C ) :   0.9722 B( 14-C , 15-C ) :   1.0840 B( 14-C , 21-C ) :   1.4935
B( 15-C , 16-C ) :   1.6217 B( 16-C , 17-C ) :   1.1428 B( 16-C , 19-C ) :   1.1486
B( 17-C , 18-N ) :   2.9554 B( 19-C , 20-N ) :   2.9591 B( 21-C , 22-C ) :   1.2732
B( 21-C , 75-H ) :   0.9374 B( 22-C , 23-C ) :   1.3798 B( 22-C , 26-S ) :   1.0770
B( 23-C , 24-C ) :   1.3065 B( 23-C , 76-H ) :   1.0121 B( 24-C , 25-C ) :   1.3700
B( 24-C , 29-S ) :   1.0416 B( 25-C , 26-S ) :   1.0688 B( 25-C , 27-C ) :   1.1909
B( 27-C , 28-C ) :   1.6294 B( 27-C , 77-H ) :   1.0030 B( 28-C , 29-S ) :   1.1315
B( 28-C , 30-C ) :   0.9507 B( 30-C , 31-C ) :   1.0680 B( 30-C , 32-N ) :   0.9900
B( 30-C , 36-C ) :   0.9192 B( 31-C , 78-H ) :   0.9547 B( 31-C , 79-H ) :   0.9520
B( 31-C , 80-H ) :   0.9489 B( 32-N , 33-N ) :   1.8778 B( 33-N , 34-C ) :   0.9493
B( 34-C , 35-C ) :   0.9579 B( 34-C , 40-C ) :   1.0541 B( 34-C , 41-C ) :   0.9371
B( 35-C , 36-C ) :   1.2434 B( 35-C , 39-N ) :   1.6830 B( 36-C , 37-N ) :   1.7171
B( 37-N , 38-O ) :   1.0468 B( 37-N , 39-N ) :   0.1501 B( 38-O , 39-N ) :   1.0423
B( 40-C , 81-H ) :   0.9514 B( 40-C , 82-H ) :   0.9505 B( 40-C , 83-H ) :   0.9583
B( 41-C , 42-C ) :   1.6221 B( 41-C , 45-S ) :   1.1424 B( 42-C , 43-C ) :   1.2069
B( 42-C , 84-H ) :   0.9951 B( 43-C , 44-C ) :   1.4282 B( 43-C , 48-S ) :   1.0957
B( 44-C , 45-S ) :   1.0446 B( 44-C , 46-C ) :   1.2627 B( 46-C , 47-C ) :   1.4668
B( 46-C , 85-H ) :   1.0051 B( 47-C , 48-S ) :   1.0902 B( 47-C , 49-C ) :   1.1372
B( 49-C , 50-C ) :   1.6509 B( 49-C , 86-H ) :   0.9478 B( 50-C , 51-C ) :   0.9382
B( 50-C , 65-C ) :   1.0299 B( 51-C , 52-O ) :   2.2746 B( 51-C , 53-C ) :   0.9187
B( 53-C , 54-C ) :   1.4770 B( 53-C , 64-C ) :   1.2218 B( 54-C , 55-C ) :   1.1950
B( 54-C , 87-H ) :   1.0161 B( 55-C , 56-C ) :   1.2576 B( 55-C , 60-C ) :   1.1949
B( 56-C , 57-C ) :   1.1887 B( 56-C , 63-C ) :   1.2161 B( 57-C , 58-C ) :   1.4436
B( 57-C , 60-C ) :   0.1079 B( 57-C , 88-H ) :   1.0070 B( 58-C , 59-C ) :   1.1891
B( 58-C , 62-F ) :   1.1357 B( 59-C , 60-C ) :   1.4439 B( 59-C , 61-F ) :   1.1327
B( 60-C , 89-H ) :   1.0071 B( 63-C , 64-C ) :   1.4565 B( 63-C , 90-H ) :   0.9953
B( 64-C , 65-C ) :   1.0015 B( 65-C , 66-C ) :   1.6678 B( 66-C , 67-C ) :   1.1491
B( 66-C , 69-C ) :   1.1362 B( 67-C , 68-N ) :   3.0289 B( 69-C , 70-N ) :   2.9901

-----------------------------------------------------------------------------
         ABSORPTION SPECTRUM VIA TRANSITION ELECTRIC DIPOLE MOMENTS
-----------------------------------------------------------------------------
State   Energy  Wavelength   fosc         T2         TX        TY        TZ
        (cm-1)    (nm)                  (au**2)     (au)      (au)      (au)
-----------------------------------------------------------------------------
   0   22119.1    452.1   1.095239012  16.30110  -1.01911   3.80173   0.89966
   1   23040.1    434.0   0.711141469  10.16126  -0.50399   3.13735   0.25351
   2   27122.0    368.7   0.147718679   1.79304  -1.00595   0.74624   0.47352
   3   27527.5    363.3   0.030937923   0.37000   0.39458  -0.15709  -0.43546
   4   27619.3    362.1   0.009676754   0.11534  -0.23395  -0.03974  -0.24297
   5   28200.3    354.6   0.023062126   0.26923   0.09418   0.49483  -0.12449
   6   28447.0    351.5   0.008332818   0.09643   0.24133  -0.19529  -0.00754
   7   28578.8    349.9   0.008669256   0.09986   0.09720  -0.12673  -0.27269
   8   28647.3    349.1   0.000505040   0.00580   0.05408  -0.04806   0.02386
   9   29037.9    344.4   0.277147790   3.14211  -0.89706   1.21773   0.92441
  10   29741.3    336.2   0.006988397   0.07736   0.17675   0.12784  -0.17254
  11   30343.9    329.6   0.282005289   3.05958  -1.11823   0.64960   1.17777
  12   30984.4    322.7   0.002826854   0.03004  -0.08498   0.13557  -0.06659
  13   31284.9    319.6   0.578387447   6.08639   1.62321  -1.83372   0.29838
  14   32359.5    309.0   0.000607640   0.00618  -0.06913  -0.00265   0.03736
  15   33202.8    301.2   0.000361184   0.00358   0.01376   0.01497   0.05628
  16   33517.1    298.4   0.205578102   2.01923   1.13625  -0.78455   0.33563
  17   33696.2    296.8   0.102594178   1.00235  -0.85324   0.52377   0.00168
  18   34286.8    291.7   0.794668988   7.63018   1.77100  -0.77616  -1.97264
  19   34525.9    289.6   0.021936289   0.20917   0.31975  -0.01171  -0.32679
  20   34740.1    287.9   0.454618805   4.30816  -1.65518   1.25160  -0.04512
  21   35984.3    277.9   0.031590282   0.28901   0.00901  -0.53748   0.00657
  22   36102.1    277.0   0.000056484   0.00052  -0.00606   0.01867  -0.01139
  23   37117.8    269.4   0.013584757   0.12049  -0.34036   0.02781   0.06219
  24   37188.3    268.9   0.353211930   3.12683   0.18629  -1.75413   0.12315
  25   37642.0    265.7   0.007349939   0.06428   0.13161   0.01545  -0.21615
  26   37783.4    264.7   0.009225433   0.08038  -0.06720  -0.27542   0.00309
  27   38021.8    263.0   0.014028519   0.12147   0.18779  -0.20177  -0.21329
  28   38108.8    262.4   0.003208592   0.02772  -0.09195   0.04992   0.12951
  29   38249.2    261.4   0.049467841   0.42577   0.33350   0.15173  -0.53993
  30   38799.6    257.7   0.107002060   0.90790   0.27328   0.74692  -0.52472
  31   38817.5    257.6   0.069024162   0.58540   0.34971   0.62307  -0.27365
  32   39035.2    256.2   0.069009280   0.58200  -0.11215  -0.72872   0.19596
  33   39154.2    255.4   0.002881880   0.02423  -0.02810  -0.13991   0.06218
  34   39840.0    251.0   0.000264954   0.00219  -0.02129   0.03316  -0.02523
  35   40132.3    249.2   0.061476962   0.50431  -0.24106  -0.21048  -0.63395

FINAL SINGLE POINT ENERGY     -4644.939732306982

DIPOLE MOMENT
-------------
                                X             Y             Z
Electronic contribution:      4.48092       4.32689       0.44546
Nuclear contribution   :     -4.18891      -5.43951       1.48362
                        -----------------------------------------
Total Dipole Moment    :      0.29201      -1.11262       1.92908
                        -----------------------------------------
Magnitude (a.u.)       :      2.24601
Magnitude (Debye)      :      5.70890

Rotational constants in cm-1:     0.002789     0.000179     0.000175
Rotational constants in MHz :    83.601359     5.376884     5.233059

                             ****ORCA TERMINATED NORMALLY****
TOTAL RUN TIME: 0 days 0 hours 8 minutes 36 seconds 157 msec
