                         Program Version 4.2.0 -  RELEASE  -
|  1> # ORCA input file
|  2> # SCF done       -178.129082461186          0.000515111870
|  3> ! CAM-B3LYP def2-SVP def2/J RIJCOSX Grid4 TightSCF
|  4> %maxcore 5000
|  5> %tddft
|  6>     Mode sTDDFT
|  7>     Ethresh 5.0
|  8>     maxcore 5000
|  9> end
| 10>
| 11> %pal
| 12>   nprocs 6
| 13>   end
| 14> * xyz 0 1
| 15>    C       -6.62228         2.15119        -3.75703
| 16>    C       -6.80777         2.40373        -5.08741
| 17>    F       -7.08451         3.64557        -5.50465
| 18>    C       -6.71181         1.36494        -6.03532
| 19>    F       -6.89952         1.64146        -7.33235
| 20>    C       -6.43125         0.08721        -5.63923
| 21>    C       -6.23596        -0.20478        -4.27545
| 22>    C       -6.33269         0.84434        -3.31578
| 23>    C       -6.14394         0.57488        -1.94058
| 24>    C       -5.87024        -0.70541        -1.53640
| 25>    C       -5.77875        -1.74581        -2.50273
| 26>    C       -5.95119        -1.51696        -3.83722
| 27>    C       -5.49794        -3.01879        -1.81739
| 28>    O       -5.33459        -4.10182        -2.34773
| 29>    C       -5.46332        -2.71076        -0.38042
| 30>    C       -5.64469        -1.27957        -0.21136
| 31>    C       -5.59562        -0.56680         0.95800
| 32>    C       -5.35756        -1.10076         2.24227
| 33>    N       -5.16815        -1.45236         3.31911
| 34>    C       -5.76566         0.83230         1.03653
| 35>    N       -5.89549         1.96483         1.16980
| 36>    C       -5.33944        -3.62782         0.62953
| 37>    C       -5.18827        -5.02469         0.58141
| 38>    C       -5.15605        -5.79015         1.74967
| 39>    C       -5.01835        -7.13958         1.48545
| 40>    C       -4.92437        -7.43516         0.11129
| 41>    S       -5.03018        -6.01728        -0.86239
| 42>    C       -4.79429        -8.79769        -0.15424
| 43>    C       -4.79753        -9.54645         1.00593
| 44>    S       -4.94784        -8.57365         2.45232
| 45>    C       -4.72044       -10.95964         1.07781
| 46>    N       -4.54687       -11.71988         0.03451
| 47>    C       -4.55436       -13.00407         0.38102
| 48>    C       -4.74596       -13.28732         1.74706
| 49>    S       -4.90747       -11.82241         2.62565
| 50>    N       -4.78411       -14.57366         2.08631
| 51>    C       -4.62317       -15.33422         1.04508
| 52>    S       -4.39876       -14.46945        -0.50059
| 53>    C       -4.65683       -16.74852         1.08340
| 54>    C       -4.46396       -17.62299         0.03354
| 55>    C       -4.61727       -18.94601         0.44320
| 56>    C       -4.92736       -19.08518         1.80767
| 57>    S       -5.02170       -17.54952         2.59412
| 58>    C       -5.08572       -20.40382         2.21798
| 59>    C       -4.90350       -21.29757         1.17491
| 60>    S       -4.54423       -20.47555        -0.33789
| 61>    C       -5.05238       -22.70162         1.14888
| 62>    C       -5.10781       -23.59800         2.17350
| 63>    C       -5.72537       -24.93047         1.91486
| 64>    O       -5.98395       -25.40915         0.83597
| 65>    C       -6.00118       -25.49505         3.25090
| 66>    C       -6.67256       -26.63789         3.57692
| 67>    C       -6.85067       -26.96413         4.94010
| 68>    C       -6.33179       -26.09263         5.94150
| 69>    C       -6.52305       -26.41834         7.29930
| 70>    C       -7.19389       -27.55732         7.64656
| 71>    C       -7.70367       -28.42022         6.65536
| 72>    C       -7.53637       -28.13104         5.33005
| 73>    F       -8.35724       -29.52934         7.02498
| 74>    F       -7.37464       -27.86509         8.93709
| 75>    C       -5.63197       -24.92058         5.57313
| 76>    C       -5.46318       -24.62998         4.24597
| 77>    C       -4.77264       -23.52810         3.57825
| 78>    C       -3.79692       -22.75156         4.14749
| 79>    C       -2.97244       -21.87704         3.41199
| 80>    N       -2.26530       -21.17707         2.84000
| 81>    C       -3.45383       -22.80255         5.51417
| 82>    N       -3.15509       -22.79612         6.62221
| 83>    H       -6.69909         2.95811        -3.04509
| 84>    H       -6.36142        -0.69712        -6.37656
| 85>    H       -6.22702         1.39128        -1.24191
| 86>    H       -5.87556        -2.32680        -4.54677
| 87>    H       -5.38325        -3.24646         1.64271
| 88>    H       -5.23736        -5.35884         2.73092
| 89>    H       -4.71037        -9.24238        -1.12760
| 90>    H       -4.22991       -17.30659        -0.96621
| 91>    H       -5.37069       -20.69400         3.21225
| 92>    H       -5.23050       -23.13286         0.16771
| 93>    H       -7.06456       -27.28315         2.80564
| 94>    H       -6.13588       -25.77101         8.07059
| 95>    H       -7.93290       -28.80119         4.58350
| 96>    H       -5.25583       -24.27561         6.35125
| 97> *
| 98>
| 99>                          ****END OF INPUT****

CARTESIAN COORDINATES (ANGSTROEM)
---------------------------------
  C     -6.622280    2.151190   -3.757030
  C     -6.807770    2.403730   -5.087410
  F     -7.084510    3.645570   -5.504650
  C     -6.711810    1.364940   -6.035320
  F     -6.899520    1.641460   -7.332350
  C     -6.431250    0.087210   -5.639230
  C     -6.235960   -0.204780   -4.275450
  C     -6.332690    0.844340   -3.315780
  C     -6.143940    0.574880   -1.940580
  C     -5.870240   -0.705410   -1.536400
  C     -5.778750   -1.745810   -2.502730
  C     -5.951190   -1.516960   -3.837220
  C     -5.497940   -3.018790   -1.817390
  O     -5.334590   -4.101820   -2.347730
  C     -5.463320   -2.710760   -0.380420
  C     -5.644690   -1.279570   -0.211360
  C     -5.595620   -0.566800    0.958000
  C     -5.357560   -1.100760    2.242270
  N     -5.168150   -1.452360    3.319110
  C     -5.765660    0.832300    1.036530
  N     -5.895490    1.964830    1.169800
  C     -5.339440   -3.627820    0.629530
  C     -5.188270   -5.024690    0.581410
  C     -5.156050   -5.790150    1.749670
  C     -5.018350   -7.139580    1.485450
  C     -4.924370   -7.435160    0.111290
  S     -5.030180   -6.017280   -0.862390
  C     -4.794290   -8.797690   -0.154240
  C     -4.797530   -9.546450    1.005930
  S     -4.947840   -8.573650    2.452320
  C     -4.720440  -10.959640    1.077810
  N     -4.546870  -11.719880    0.034510
  C     -4.554360  -13.004070    0.381020
  C     -4.745960  -13.287320    1.747060
  S     -4.907470  -11.822410    2.625650
  N     -4.784110  -14.573660    2.086310
  C     -4.623170  -15.334220    1.045080
  S     -4.398760  -14.469450   -0.500590
  C     -4.656830  -16.748520    1.083400
  C     -4.463960  -17.622990    0.033540
  C     -4.617270  -18.946010    0.443200
  C     -4.927360  -19.085180    1.807670
  S     -5.021700  -17.549520    2.594120
  C     -5.085720  -20.403820    2.217980
  C     -4.903500  -21.297570    1.174910
  S     -4.544230  -20.475550   -0.337890
  C     -5.052380  -22.701620    1.148880
  C     -5.107810  -23.598000    2.173500
  C     -5.725370  -24.930470    1.914860
  O     -5.983950  -25.409150    0.835970
  C     -6.001180  -25.495050    3.250900
  C     -6.672560  -26.637890    3.576920
  C     -6.850670  -26.964130    4.940100
  C     -6.331790  -26.092630    5.941500
  C     -6.523050  -26.418340    7.299300
  C     -7.193890  -27.557320    7.646560
  C     -7.703670  -28.420220    6.655360
  C     -7.536370  -28.131040    5.330050
  F     -8.357240  -29.529340    7.024980
  F     -7.374640  -27.865090    8.937090
  C     -5.631970  -24.920580    5.573130
  C     -5.463180  -24.629980    4.245970
  C     -4.772640  -23.528100    3.578250
  C     -3.796920  -22.751560    4.147490
  C     -2.972440  -21.877040    3.411990
  N     -2.265300  -21.177070    2.840000
  C     -3.453830  -22.802550    5.514170
  N     -3.155090  -22.796120    6.622210
  H     -6.699090    2.958110   -3.045090
  H     -6.361420   -0.697120   -6.376560
  H     -6.227020    1.391280   -1.241910
  H     -5.875560   -2.326800   -4.546770
  H     -5.383250   -3.246460    1.642710
  H     -5.237360   -5.358840    2.730920
  H     -4.710370   -9.242380   -1.127600
  H     -4.229910  -17.306590   -0.966210
  H     -5.370690  -20.694000    3.212250
  H     -5.230500  -23.132860    0.167710
  H     -7.064560  -27.283150    2.805640
  H     -6.135880  -25.771010    8.070590
  H     -7.932900  -28.801190    4.583500
  H     -5.255830  -24.275610    6.351250

 Total Charge           Charge          ....    0
 Multiplicity           Mult            ....    1
 Number of Electrons    NEL             ....  504
 Basis Dimension        Dim             .... 1046

ORBITAL ENERGIES
----------------

  NO   OCC          E(Eh)            E(eV)
   0   2.0000     -88.983857     -2421.3738
   1   2.0000     -88.983117     -2421.3537
   2   2.0000     -88.977916     -2421.2122
   3   2.0000     -88.976226     -2421.1662
   4   2.0000     -88.976123     -2421.1634
   5   2.0000     -88.970558     -2421.0120
   6   2.0000     -24.800508      -674.8561
   7   2.0000     -24.800344      -674.8517
   8   2.0000     -24.799666      -674.8332
   9   2.0000     -24.799443      -674.8272
  10   2.0000     -19.226173      -523.1708
  11   2.0000     -19.219265      -522.9828
  12   2.0000     -14.437973      -392.8772
  13   2.0000     -14.436843      -392.8465
  14   2.0000     -14.421493      -392.4288
  15   2.0000     -14.420772      -392.4092
  16   2.0000     -14.419751      -392.3814
  17   2.0000     -14.417787      -392.3279
  18   2.0000     -10.383806      -282.5577
  19   2.0000     -10.383633      -282.5530
  20   2.0000     -10.383219      -282.5418
  21   2.0000     -10.382989      -282.5355
  22   2.0000     -10.374726      -282.3107
  23   2.0000     -10.370675      -282.2004
  24   2.0000     -10.365151      -282.0501
  25   2.0000     -10.364567      -282.0342
  26   2.0000     -10.348613      -281.6001
  27   2.0000     -10.347400      -281.5671
  28   2.0000     -10.346260      -281.5360
  29   2.0000     -10.345595      -281.5179
  30   2.0000     -10.344728      -281.4944
  31   2.0000     -10.344190      -281.4797
  32   2.0000     -10.332894      -281.1723
  33   2.0000     -10.332665      -281.1661
  34   2.0000     -10.329429      -281.0781
  35   2.0000     -10.327446      -281.0241
  36   2.0000     -10.326610      -281.0013
  37   2.0000     -10.325865      -280.9811
  38   2.0000     -10.324353      -280.9399
  39   2.0000     -10.323797      -280.9248
  40   2.0000     -10.323329      -280.9121
  41   2.0000     -10.320969      -280.8478
  42   2.0000     -10.320294      -280.8295
  43   2.0000     -10.318539      -280.7817
  44   2.0000     -10.318106      -280.7699
  45   2.0000     -10.314740      -280.6783
  46   2.0000     -10.313382      -280.6414
  47   2.0000     -10.313126      -280.6344
  48   2.0000     -10.312951      -280.6297
  49   2.0000     -10.312825      -280.6262
  50   2.0000     -10.311414      -280.5878
  51   2.0000     -10.311158      -280.5809
  52   2.0000     -10.310459      -280.5618
  53   2.0000     -10.310320      -280.5581
  54   2.0000     -10.307528      -280.4821
  55   2.0000     -10.305731      -280.4332
  56   2.0000     -10.305721      -280.4329
  57   2.0000     -10.305474      -280.4262
  58   2.0000     -10.305066      -280.4151
  59   2.0000     -10.303575      -280.3745
  60   2.0000     -10.303394      -280.3696
  61   2.0000     -10.303164      -280.3634
  62   2.0000     -10.303080      -280.3611
  63   2.0000     -10.302687      -280.3504
  64   2.0000     -10.302666      -280.3498
  65   2.0000     -10.300977      -280.3038
  66   2.0000     -10.296924      -280.1936
  67   2.0000     -10.296369      -280.1784
  68   2.0000      -8.079823      -219.8632
  69   2.0000      -8.078972      -219.8400
  70   2.0000      -8.073418      -219.6889
  71   2.0000      -8.071685      -219.6417
  72   2.0000      -8.071237      -219.6295
  73   2.0000      -8.063802      -219.4272
  74   2.0000      -6.048969      -164.6008
  75   2.0000      -6.048122      -164.5778
  76   2.0000      -6.045269      -164.5001
  77   2.0000      -6.044502      -164.4793
  78   2.0000      -6.042990      -164.4381
  79   2.0000      -6.041575      -164.3996
  80   2.0000      -6.041105      -164.3868
  81   2.0000      -6.040819      -164.3790
  82   2.0000      -6.040654      -164.3745
  83   2.0000      -6.039026      -164.3302
  84   2.0000      -6.037178      -164.2800
  85   2.0000      -6.036758      -164.2685
  86   2.0000      -6.034748      -164.2139
  87   2.0000      -6.033447      -164.1784
  88   2.0000      -6.033265      -164.1735
  89   2.0000      -6.032634      -164.1563
  90   2.0000      -6.028972      -164.0567
  91   2.0000      -6.025472      -163.9614
  92   2.0000      -1.323136       -36.0044
  93   2.0000      -1.323090       -36.0031
  94   2.0000      -1.308271       -35.5999
  95   2.0000      -1.308207       -35.5981
  96   2.0000      -1.142295       -31.0834
  97   2.0000      -1.135248       -30.8917
  98   2.0000      -1.109650       -30.1951
  99   2.0000      -1.070081       -29.1184
 100   2.0000      -1.028853       -27.9965
 101   2.0000      -1.024758       -27.8851
 102   2.0000      -1.022993       -27.8370
 103   2.0000      -1.022441       -27.8220
 104   2.0000      -1.008040       -27.4302
 105   2.0000      -1.007417       -27.4132
 106   2.0000      -0.998792       -27.1785
 107   2.0000      -0.998256       -27.1639
 108   2.0000      -0.985369       -26.8132
 109   2.0000      -0.985210       -26.8089
 110   2.0000      -0.969563       -26.3831
 111   2.0000      -0.967465       -26.3260
 112   2.0000      -0.935167       -25.4472
 113   2.0000      -0.934495       -25.4289
 114   2.0000      -0.929200       -25.2848
 115   2.0000      -0.909578       -24.7509
 116   2.0000      -0.907420       -24.6922
 117   2.0000      -0.898475       -24.4488
 118   2.0000      -0.895558       -24.3694
 119   2.0000      -0.895504       -24.3679
 120   2.0000      -0.887041       -24.1376
 121   2.0000      -0.883776       -24.0488
 122   2.0000      -0.881267       -23.9805
 123   2.0000      -0.875361       -23.8198
 124   2.0000      -0.858700       -23.3664
 125   2.0000      -0.843607       -22.9557
 126   2.0000      -0.843497       -22.9527
 127   2.0000      -0.838213       -22.8089
 128   2.0000      -0.821497       -22.3541
 129   2.0000      -0.818862       -22.2824
 130   2.0000      -0.815953       -22.2032
 131   2.0000      -0.805189       -21.9103
 132   2.0000      -0.775487       -21.1021
 133   2.0000      -0.771952       -21.0059
 134   2.0000      -0.768766       -20.9192
 135   2.0000      -0.757770       -20.6200
 136   2.0000      -0.740720       -20.1560
 137   2.0000      -0.732560       -19.9340
 138   2.0000      -0.721537       -19.6340
 139   2.0000      -0.720330       -19.6012
 140   2.0000      -0.714731       -19.4488
 141   2.0000      -0.705181       -19.1890
 142   2.0000      -0.693084       -18.8598
 143   2.0000      -0.691332       -18.8121
 144   2.0000      -0.686173       -18.6717
 145   2.0000      -0.684537       -18.6272
 146   2.0000      -0.673402       -18.3242
 147   2.0000      -0.670675       -18.2500
 148   2.0000      -0.665205       -18.1011
 149   2.0000      -0.660733       -17.9795
 150   2.0000      -0.658012       -17.9054
 151   2.0000      -0.652454       -17.7542
 152   2.0000      -0.651050       -17.7160
 153   2.0000      -0.645268       -17.5586
 154   2.0000      -0.644828       -17.5467
 155   2.0000      -0.633064       -17.2265
 156   2.0000      -0.627020       -17.0621
 157   2.0000      -0.619076       -16.8459
 158   2.0000      -0.617471       -16.8022
 159   2.0000      -0.612376       -16.6636
 160   2.0000      -0.597289       -16.2531
 161   2.0000      -0.595281       -16.1984
 162   2.0000      -0.592267       -16.1164
 163   2.0000      -0.591780       -16.1032
 164   2.0000      -0.587598       -15.9894
 165   2.0000      -0.587576       -15.9888
 166   2.0000      -0.587347       -15.9825
 167   2.0000      -0.582639       -15.8544
 168   2.0000      -0.578617       -15.7450
 169   2.0000      -0.568434       -15.4679
 170   2.0000      -0.566903       -15.4262
 171   2.0000      -0.560862       -15.2618
 172   2.0000      -0.556911       -15.1543
 173   2.0000      -0.556135       -15.1332
 174   2.0000      -0.549171       -14.9437
 175   2.0000      -0.549103       -14.9419
 176   2.0000      -0.547052       -14.8860
 177   2.0000      -0.545577       -14.8459
 178   2.0000      -0.542374       -14.7588
 179   2.0000      -0.539626       -14.6840
 180   2.0000      -0.538446       -14.6519
 181   2.0000      -0.536202       -14.5908
 182   2.0000      -0.533355       -14.5133
 183   2.0000      -0.532596       -14.4927
 184   2.0000      -0.530298       -14.4302
 185   2.0000      -0.529191       -14.4000
 186   2.0000      -0.526323       -14.3220
 187   2.0000      -0.521962       -14.2033
 188   2.0000      -0.519753       -14.1432
 189   2.0000      -0.517964       -14.0945
 190   2.0000      -0.516248       -14.0478
 191   2.0000      -0.510325       -13.8867
 192   2.0000      -0.508252       -13.8302
 193   2.0000      -0.504542       -13.7293
 194   2.0000      -0.502107       -13.6630
 195   2.0000      -0.500580       -13.6215
 196   2.0000      -0.495579       -13.4854
 197   2.0000      -0.494348       -13.4519
 198   2.0000      -0.491563       -13.3761
 199   2.0000      -0.489399       -13.3172
 200   2.0000      -0.486826       -13.2472
 201   2.0000      -0.485356       -13.2072
 202   2.0000      -0.478920       -13.0321
 203   2.0000      -0.476854       -12.9758
 204   2.0000      -0.472352       -12.8534
 205   2.0000      -0.469210       -12.7679
 206   2.0000      -0.466937       -12.7060
 207   2.0000      -0.465419       -12.6647
 208   2.0000      -0.459892       -12.5143
 209   2.0000      -0.455907       -12.4059
 210   2.0000      -0.454822       -12.3763
 211   2.0000      -0.453499       -12.3403
 212   2.0000      -0.452963       -12.3258
 213   2.0000      -0.449295       -12.2259
 214   2.0000      -0.448974       -12.2172
 215   2.0000      -0.447136       -12.1672
 216   2.0000      -0.446998       -12.1634
 217   2.0000      -0.442592       -12.0436
 218   2.0000      -0.437019       -11.8919
 219   2.0000      -0.435436       -11.8488
 220   2.0000      -0.432594       -11.7715
 221   2.0000      -0.431264       -11.7353
 222   2.0000      -0.430888       -11.7251
 223   2.0000      -0.430482       -11.7140
 224   2.0000      -0.429304       -11.6819
 225   2.0000      -0.425246       -11.5715
 226   2.0000      -0.414968       -11.2919
 227   2.0000      -0.414371       -11.2756
 228   2.0000      -0.409755       -11.1500
 229   2.0000      -0.408804       -11.1241
 230   2.0000      -0.403527       -10.9805
 231   2.0000      -0.398070       -10.8320
 232   2.0000      -0.391498       -10.6532
 233   2.0000      -0.390016       -10.6129
 234   2.0000      -0.387666       -10.5489
 235   2.0000      -0.379723       -10.3328
 236   2.0000      -0.375508       -10.2181
 237   2.0000      -0.367252        -9.9934
 238   2.0000      -0.361848        -9.8464
 239   2.0000      -0.353816        -9.6278
 240   2.0000      -0.342451        -9.3186
 241   2.0000      -0.340657        -9.2697
 242   2.0000      -0.340119        -9.2551
 243   2.0000      -0.322439        -8.7740
 244   2.0000      -0.321316        -8.7434
 245   2.0000      -0.319446        -8.6926
 246   2.0000      -0.311180        -8.4676
 247   2.0000      -0.309189        -8.4135
 248   2.0000      -0.304280        -8.2799
 249   2.0000      -0.302723        -8.2375
 250   2.0000      -0.283855        -7.7241
 251   2.0000      -0.256072        -6.9681
 252   0.0000      -0.109655        -2.9839
 253   0.0000      -0.099126        -2.6973
 254   0.0000      -0.069447        -1.8898
 255   0.0000      -0.063702        -1.7334
 256   0.0000      -0.055572        -1.5122

MULLIKEN ATOMIC CHARGES
-----------------------
   0 C :   -0.109422
   1 C :    0.241817
   2 F :   -0.170168
   3 C :    0.239242
   4 F :   -0.171589
   5 C :   -0.106559
   6 C :    0.117879
   7 C :    0.114464
   8 C :   -0.084239
   9 C :    0.047154
  10 C :   -0.003933
  11 C :   -0.081466
  12 C :    0.167486
  13 O :   -0.173408
  14 C :   -0.092930
  15 C :    0.328608
  16 C :   -0.351726
  17 C :   -0.190840
  18 N :    0.147869
  19 C :   -0.185506
  20 N :    0.148734
  21 C :   -0.017925
  22 C :   -0.066428
  23 C :   -0.042356
  24 C :    0.016633
  25 C :    0.005462
  26 S :    0.207904
  27 C :   -0.029306
  28 C :   -0.039526
  29 S :    0.154161
  30 C :   -0.101176
  31 N :   -0.026911
  32 C :   -0.052639
  33 C :   -0.059115
  34 S :    0.142976
  35 N :   -0.034095
  36 C :   -0.093818
  37 S :    0.127959
  38 C :   -0.049737
  39 C :   -0.044530
  40 C :    0.007175
  41 C :   -0.044393
  42 S :    0.215483
  43 C :    0.028172
  44 C :   -0.125224
  45 S :    0.166513
  46 C :    0.092885
  47 C :   -0.141480
  48 C :    0.138755
  49 O :   -0.141058
  50 C :    0.015412
  51 C :   -0.080651
  52 C :    0.110462
  53 C :    0.110179
  54 C :   -0.106472
  55 C :    0.242234
  56 C :    0.238745
  57 C :   -0.102412
  58 F :   -0.171226
  59 F :   -0.170672
  60 C :   -0.080295
  61 C :    0.034535
  62 C :    0.266350
  63 C :   -0.335006
  64 C :   -0.208100
  65 N :    0.178060
  66 C :   -0.173295
  67 N :    0.155654
  68 H :    0.009568
  69 H :    0.000521
  70 H :   -0.006112
  71 H :   -0.009168
  72 H :    0.012110
  73 H :    0.011382
  74 H :    0.005451
  75 H :    0.002638
  76 H :    0.005072
  77 H :    0.025331
  78 H :   -0.008423
  79 H :    0.005981
  80 H :    0.000640
  81 H :   -0.004322
Sum of atomic charges:   -0.0000000

LOEWDIN ATOMIC CHARGES
----------------------
   0 C :   -0.028994
   1 C :    0.066715
   2 F :   -0.048033
   3 C :    0.067848
   4 F :   -0.048775
   5 C :   -0.033296
   6 C :   -0.008826
   7 C :   -0.006475
   8 C :    0.018360
   9 C :   -0.022430
  10 C :   -0.052083
  11 C :    0.030086
  12 C :    0.084072
  13 O :   -0.162636
  14 C :   -0.108498
  15 C :    0.077076
  16 C :   -0.141736
  17 C :   -0.021470
  18 N :   -0.053047
  19 C :   -0.017497
  20 N :   -0.053710
  21 C :    0.059180
  22 C :   -0.176235
  23 C :   -0.022914
  24 C :   -0.200724
  25 C :   -0.188522
  26 S :    0.496317
  27 C :   -0.038469
  28 C :   -0.177822
  29 S :    0.420982
  30 C :   -0.132870
  31 N :   -0.093483
  32 C :   -0.207503
  33 C :   -0.209391
  34 S :    0.418085
  35 N :   -0.099687
  36 C :   -0.130309
  37 S :    0.416346
  38 C :   -0.177768
  39 C :   -0.061302
  40 C :   -0.182131
  41 C :   -0.194164
  42 S :    0.469103
  43 C :   -0.020264
  44 C :   -0.173468
  45 S :    0.448054
  46 C :    0.049664
  47 C :   -0.094933
  48 C :    0.083175
  49 O :   -0.141411
  50 C :   -0.054139
  51 C :    0.031108
  52 C :   -0.009560
  53 C :   -0.005776
  54 C :   -0.030272
  55 C :    0.067343
  56 C :    0.067092
  57 C :   -0.032636
  58 F :   -0.048806
  59 F :   -0.048149
  60 C :    0.013550
  61 C :   -0.020561
  62 C :    0.064627
  63 C :   -0.140857
  64 C :   -0.020898
  65 N :   -0.037290
  66 C :   -0.020656
  67 N :   -0.050236
  68 H :    0.048200
  69 H :    0.044930
  70 H :    0.040139
  71 H :    0.040446
  72 H :    0.051516
  73 H :    0.042482
  74 H :    0.042400
  75 H :    0.033684
  76 H :    0.038187
  77 H :    0.046943
  78 H :    0.041014
  79 H :    0.047323
  80 H :    0.045175
  81 H :    0.039491

  Mayer bond orders larger than 0.100000
B(  0-C ,  1-C ) :   1.4404 B(  0-C ,  5-C ) :   0.1082 B(  0-C ,  7-C ) :   1.1892
B(  0-C , 68-H ) :   1.0070 B(  1-C ,  2-F ) :   1.1356 B(  1-C ,  3-C ) :   1.1907
B(  3-C ,  4-F ) :   1.1334 B(  3-C ,  5-C ) :   1.4422 B(  5-C ,  6-C ) :   1.1930
B(  5-C , 69-H ) :   1.0074 B(  6-C ,  7-C ) :   1.2554 B(  6-C , 11-C ) :   1.1869
B(  7-C ,  8-C ) :   1.2157 B(  8-C ,  9-C ) :   1.4524 B(  8-C , 70-H ) :   0.9899
B(  9-C , 10-C ) :   1.2219 B(  9-C , 15-C ) :   0.9828 B( 10-C , 11-C ) :   1.4706
B( 10-C , 12-C ) :   0.9557 B( 11-C , 71-H ) :   1.0170 B( 12-C , 13-O ) :   2.1432
B( 12-C , 14-C ) :   0.9725 B( 14-C , 15-C ) :   1.0806 B( 14-C , 21-C ) :   1.4967
B( 15-C , 16-C ) :   1.6239 B( 16-C , 17-C ) :   1.1433 B( 16-C , 19-C ) :   1.1491
B( 17-C , 18-N ) :   2.9610 B( 19-C , 20-N ) :   2.9608 B( 21-C , 22-C ) :   1.2694
B( 21-C , 72-H ) :   0.9399 B( 22-C , 23-C ) :   1.3726 B( 22-C , 26-S ) :   1.0821
B( 23-C , 24-C ) :   1.3137 B( 23-C , 73-H ) :   1.0134 B( 24-C , 25-C ) :   1.3457
B( 24-C , 29-S ) :   1.0563 B( 25-C , 26-S ) :   1.0568 B( 25-C , 27-C ) :   1.2384
B( 27-C , 28-C ) :   1.5202 B( 27-C , 74-H ) :   1.0158 B( 28-C , 29-S ) :   1.0992
B( 28-C , 30-C ) :   1.1135 B( 30-C , 31-N ) :   1.7265 B( 30-C , 34-S ) :   1.0873
B( 31-N , 32-C ) :   1.4058 B( 31-N , 34-S ) :   0.1015 B( 32-C , 33-C ) :   1.2925
B( 32-C , 37-S ) :   1.1001 B( 33-C , 34-S ) :   1.1048 B( 33-C , 35-N ) :   1.4036
B( 35-N , 36-C ) :   1.7219 B( 35-N , 37-S ) :   0.1001 B( 36-C , 37-S ) :   1.0896
B( 36-C , 38-C ) :   1.1537 B( 38-C , 39-C ) :   1.5032 B( 38-C , 42-S ) :   1.1123
B( 39-C , 40-C ) :   1.2777 B( 39-C , 75-H ) :   0.9908 B( 40-C , 41-C ) :   1.3900
B( 40-C , 45-S ) :   1.0939 B( 41-C , 42-S ) :   1.0629 B( 41-C , 43-C ) :   1.3264
B( 43-C , 44-C ) :   1.4448 B( 43-C , 76-H ) :   0.9879 B( 44-C , 45-S ) :   1.0880
B( 44-C , 46-C ) :   1.1540 B( 46-C , 47-C ) :   1.6557 B( 46-C , 77-H ) :   0.9257
B( 47-C , 48-C ) :   0.9439 B( 47-C , 62-C ) :   1.0442 B( 48-C , 49-O ) :   2.2681
B( 48-C , 50-C ) :   0.9169 B( 50-C , 51-C ) :   1.4752 B( 50-C , 61-C ) :   1.2214
B( 51-C , 52-C ) :   1.1932 B( 51-C , 78-H ) :   1.0161 B( 52-C , 53-C ) :   1.2574
B( 52-C , 57-C ) :   1.1928 B( 53-C , 54-C ) :   1.1906 B( 53-C , 60-C ) :   1.2142
B( 54-C , 55-C ) :   1.4409 B( 54-C , 57-C ) :   0.1087 B( 54-C , 79-H ) :   1.0068
B( 55-C , 56-C ) :   1.1922 B( 55-C , 59-F ) :   1.1344 B( 56-C , 57-C ) :   1.4429
B( 56-C , 58-F ) :   1.1335 B( 57-C , 80-H ) :   1.0067 B( 60-C , 61-C ) :   1.4582
B( 60-C , 81-H ) :   0.9938 B( 61-C , 62-C ) :   0.9950 B( 62-C , 63-C ) :   1.6466
B( 63-C , 64-C ) :   1.1649 B( 63-C , 66-C ) :   1.1287 B( 64-C , 65-N ) :   3.0061
B( 66-C , 67-N ) :   2.9867

-----------------------------------------------------------------------------
         ABSORPTION SPECTRUM VIA TRANSITION ELECTRIC DIPOLE MOMENTS
-----------------------------------------------------------------------------
State   Energy  Wavelength   fosc         T2         TX        TY        TZ
        (cm-1)    (nm)                  (au**2)     (au)      (au)      (au)
-----------------------------------------------------------------------------
   0   17462.8    572.6   2.968185482  55.95689  -0.30049   7.28777  -1.65982
   1   20661.4    484.0   0.129419490   2.06213  -0.21642   1.36799   0.37932
   2   26182.5    381.9   0.001684584   0.02118   0.09558  -0.02618   0.10659
   3   26371.4    379.2   0.090097255   1.12475   0.16952   1.04032   0.11726
   4   26964.6    370.9   0.010741765   0.13115   0.05911  -0.17517   0.31140
   5   27191.4    367.8   0.111174478   1.34601  -0.56160  -0.97149   0.29465
   6   27536.9    363.1   0.012603667   0.15068   0.13989   0.28728   0.22041
   7   27808.2    359.6   0.129333178   1.53113   0.10247  -0.51665  -1.11969
   8   28404.6    352.1   0.048621457   0.56353  -0.27898  -0.05880  -0.69444
   9   28493.1    351.0   0.025831436   0.29846  -0.35008  -0.31715  -0.27444
  10   28878.5    346.3   0.082206579   0.93715  -0.56068   0.11285  -0.78106
  11   29719.2    336.5   0.154559511   1.71212   0.25438   1.28227  -0.05640
  12   29918.9    334.2   0.256652016   2.82406   0.05747  -0.93770   1.39337
  13   30069.1    332.6   0.256147904   2.80444   0.46276   1.45653  -0.68469
  14   30535.9    327.5   0.043752348   0.47170   0.50761  -0.46225  -0.01869
  15   33524.5    298.3   0.020429969   0.20062   0.30461   0.28554   0.16218
  16   33744.7    296.3   0.258330982   2.52026   0.84078   0.40459   1.28439
  17   34056.2    293.6   0.547893124   5.29633   0.65287   1.46972  -1.64621
  18   34209.3    292.3   0.027780145   0.26734   0.33036   0.34942  -0.19002
  19   34441.0    290.4   0.362429157   3.46436   0.18041  -0.61140   1.74872
  20   34579.7    289.2   0.055175058   0.52529   0.14014   0.25061  -0.66547
  21   35110.7    284.8   0.370850896   3.47725   1.08793   1.45870  -0.40727
  22   35261.6    283.6   0.008367609   0.07812   0.19498   0.19719  -0.03494
  23   35660.1    280.4   0.010217367   0.09433  -0.20325   0.09320   0.21055
  24   36538.7    273.7   0.021223756   0.19123  -0.10365  -0.22205  -0.36218
  25   36719.2    272.3   0.200965764   1.80179  -0.19267   0.38010   1.27287
  26   37150.6    269.2   0.023486619   0.20813  -0.01715   0.42403  -0.16744
  27   37282.3    268.2   0.048282373   0.42635  -0.10740  -0.60273   0.22699
  28   37492.0    266.7   0.053897605   0.47327  -0.06066  -0.41178  -0.54775
  29   37936.5    263.6   0.036982290   0.32093   0.26222  -0.45172   0.21936
  30   38334.1    260.9   0.050551920   0.43414  -0.26759  -0.54321   0.25972
  31   38604.4    259.0   0.021997315   0.18759   0.01842   0.40193   0.16031
  32   38853.6    257.4   0.061713154   0.52290  -0.47122  -0.53948  -0.09905
  33   39138.4    255.5   0.119096661   1.00178  -0.24098   0.92289   0.30328
  34   39222.3    255.0   0.126931978   1.06540  -0.28349  -0.57099  -0.81180
  35   39652.1    252.2   0.018773445   0.15587  -0.06652   0.36912  -0.12326
  36   40234.8    248.5   0.001177420   0.00963  -0.01573  -0.07167  -0.06519

FINAL SINGLE POINT ENERGY     -5177.002014523898

DIPOLE MOMENT
-------------
                                X             Y             Z
Electronic contribution:     -3.31094       0.99910       0.40114
Nuclear contribution   :      1.97841      -2.23994      -2.17591
                        -----------------------------------------
Total Dipole Moment    :     -1.33253      -1.24083      -1.77477
                        -----------------------------------------
Magnitude (a.u.)       :      2.54266
Magnitude (Debye)      :      6.46293

Rotational constants in cm-1:     0.003037     0.000148     0.000144
Rotational constants in MHz :    91.037266     4.429739     4.313003

                             ****ORCA TERMINATED NORMALLY****
TOTAL RUN TIME: 0 days 0 hours 7 minutes 31 seconds 887 msec
