                         Program Version 4.2.0 -  RELEASE  -
|  1> # ORCA input file
|  2> # SCF done       -212.863038592181          0.000968438200
|  3> ! CAM-B3LYP def2-SVP def2/J RIJCOSX Grid4 TightSCF
|  4> %maxcore 5000
|  5> %tddft
|  6>     Mode sTDDFT
|  7>     Ethresh 5.0
|  8>     maxcore 5000
|  9> end
| 10>
| 11> %pal
| 12>   nprocs 6
| 13>   end
| 14> * xyz 0 1
| 15>    C       -2.72168        -3.63212         9.32054
| 16>    C       -3.01355        -4.09804        10.57180
| 17>    F       -2.75777        -3.34481        11.64675
| 18>    C       -3.58698        -5.37492        10.74761
| 19>    F       -3.86252        -5.80342        11.98453
| 20>    C       -3.86100        -6.16758         9.66853
| 21>    C       -3.57292        -5.71499         8.36592
| 22>    C       -2.99097        -4.42529         8.18655
| 23>    C       -2.68645        -3.95371         6.88991
| 24>    C       -2.95357        -4.74786         5.80429
| 25>    C       -3.54433        -6.02900         5.99257
| 26>    C       -3.84997        -6.51127         7.23402
| 27>    C       -3.73886        -6.68960         4.69153
| 28>    O       -4.23181        -7.77702         4.50092
| 29>    C       -3.28139        -5.69302         3.67116
| 30>    C       -2.73254        -4.54142         4.37915
| 31>    C       -2.04921        -3.50362         3.81060
| 32>    C       -1.75385        -3.39793         2.43262
| 33>    N       -1.45729        -3.27351         1.33166
| 34>    C       -1.51172        -2.42129         4.54198
| 35>    N       -1.06022        -1.51998         5.08900
| 36>    C       -3.54797        -5.75900         2.34565
| 37>    C       -4.04710        -6.92110         1.65486
| 38>    C       -3.59918        -8.17627         1.89527
| 39>    C       -4.10537        -9.33667         1.24503
| 40>    C       -3.57901       -10.59371         1.54354
| 41>    C       -4.07456       -11.76460         0.94949
| 42>    N       -4.48686       -12.71930         0.46015
| 43>    C       -2.52447       -10.76290         2.45412
| 44>    N       -1.65353       -10.90552         3.18967
| 45>    C       -5.17116        -9.23274         0.31267
| 46>    C       -5.74864        -8.08144        -0.13475
| 47>    S       -5.21243        -6.50097         0.40131
| 48>    C       -6.83106        -8.11978        -1.09386
| 49>    C       -7.23203        -6.95473        -1.78123
| 50>    C       -8.26909        -6.94528        -2.78050
| 51>    N       -8.45515        -5.84472        -3.53436
| 52>    C       -7.71889        -4.78760        -3.32016
| 53>    C       -6.82265        -4.73422        -2.19763
| 54>    N       -6.60537        -5.80865        -1.48538
| 55>    C       -6.17179        -3.52563        -1.84524
| 56>    N       -5.64881        -2.54376        -1.57595
| 57>    C       -7.74782        -3.69757        -4.22984
| 58>    N       -7.68142        -2.81943        -4.96105
| 59>    C       -9.01155        -8.10349        -3.06309
| 60>    C       -8.62080        -9.27075        -2.39442
| 61>    C       -7.54102        -9.29159        -1.42798
| 62>    N       -7.37434       -10.52274        -0.93275
| 63>    S       -8.42735       -11.52468        -1.59685
| 64>    N       -9.17480       -10.48004        -2.54367
| 65>    C      -10.09048        -8.12209        -4.03778
| 66>    C      -10.20256        -9.09744        -4.96587
| 67>    C      -11.22024        -9.15940        -5.96500
| 68>    C      -11.27648       -10.25255        -6.82250
| 69>    C      -12.25368       -10.37552        -7.82393
| 70>    N      -13.05556       -10.47917        -8.63954
| 71>    C      -10.37457       -11.32422        -6.71273
| 72>    N       -9.63328       -12.19608        -6.61388
| 73>    C      -12.16968        -8.10424        -6.08931
| 74>    C      -12.26240        -7.01488        -5.27920
| 75>    S      -11.23176        -6.81347        -3.87183
| 76>    C      -13.30707        -6.05089        -5.49563
| 77>    C      -13.49063        -4.81297        -4.98213
| 78>    C      -14.86572        -4.21466        -5.01733
| 79>    O      -15.78222        -4.56034        -5.71898
| 80>    C      -14.85406        -3.18343        -3.96267
| 81>    C      -15.88790        -2.41365        -3.51046
| 82>    C      -15.64990        -1.48117        -2.47656
| 83>    C      -14.33972        -1.36610        -1.92503
| 84>    C      -14.10920        -0.43317        -0.89375
| 85>    C      -15.12998         0.35016        -0.43319
| 86>    C      -16.42529         0.23642        -0.98008
| 87>    C      -16.68089        -0.65949        -1.98037
| 88>    F      -17.40471         1.01529        -0.50822
| 89>    F      -14.91003         1.23473         0.54511
| 90>    C      -13.28749        -2.17125        -2.41550
| 91>    C      -13.53902        -3.06442        -3.42349
| 92>    C      -12.65352        -3.94728        -4.17183
| 93>    C      -11.29423        -3.82497        -4.28269
| 94>    C      -10.58456        -4.43666        -5.34192
| 95>    N      -10.04668        -4.88340        -6.25088
| 96>    C      -10.51897        -3.09596        -3.36335
| 97>    N       -9.86441        -2.60602        -2.55695
| 98>    H       -2.28104        -2.65421         9.20488
| 99>    H       -4.29879        -7.14192         9.81912
|100>    H       -2.25195        -2.97257         6.78646
|101>    H       -4.29244        -7.48928         7.34715
|102>    H       -3.44992        -4.86795         1.73659
|103>    H       -2.80451        -8.31929         2.61385
|104>    H       -5.55572       -10.16252        -0.08480
|105>    H       -9.45384        -9.87730        -4.97375
|106>    H      -12.86461        -8.17248        -6.91732
|107>    H      -14.12653        -6.40702        -6.11378
|108>    H      -16.87302        -2.51172        -3.94036
|109>    H      -13.12348        -0.33012        -0.46761
|110>    H      -17.67668        -0.73328        -2.38848
|111>    H      -12.30672        -2.06631        -1.97964
|112> *
|113>
|114>                          ****END OF INPUT****

CARTESIAN COORDINATES (ANGSTROEM)
---------------------------------
  C     -2.721680   -3.632120    9.320540
  C     -3.013550   -4.098040   10.571800
  F     -2.757770   -3.344810   11.646750
  C     -3.586980   -5.374920   10.747610
  F     -3.862520   -5.803420   11.984530
  C     -3.861000   -6.167580    9.668530
  C     -3.572920   -5.714990    8.365920
  C     -2.990970   -4.425290    8.186550
  C     -2.686450   -3.953710    6.889910
  C     -2.953570   -4.747860    5.804290
  C     -3.544330   -6.029000    5.992570
  C     -3.849970   -6.511270    7.234020
  C     -3.738860   -6.689600    4.691530
  O     -4.231810   -7.777020    4.500920
  C     -3.281390   -5.693020    3.671160
  C     -2.732540   -4.541420    4.379150
  C     -2.049210   -3.503620    3.810600
  C     -1.753850   -3.397930    2.432620
  N     -1.457290   -3.273510    1.331660
  C     -1.511720   -2.421290    4.541980
  N     -1.060220   -1.519980    5.089000
  C     -3.547970   -5.759000    2.345650
  C     -4.047100   -6.921100    1.654860
  C     -3.599180   -8.176270    1.895270
  C     -4.105370   -9.336670    1.245030
  C     -3.579010  -10.593710    1.543540
  C     -4.074560  -11.764600    0.949490
  N     -4.486860  -12.719300    0.460150
  C     -2.524470  -10.762900    2.454120
  N     -1.653530  -10.905520    3.189670
  C     -5.171160   -9.232740    0.312670
  C     -5.748640   -8.081440   -0.134750
  S     -5.212430   -6.500970    0.401310
  C     -6.831060   -8.119780   -1.093860
  C     -7.232030   -6.954730   -1.781230
  C     -8.269090   -6.945280   -2.780500
  N     -8.455150   -5.844720   -3.534360
  C     -7.718890   -4.787600   -3.320160
  C     -6.822650   -4.734220   -2.197630
  N     -6.605370   -5.808650   -1.485380
  C     -6.171790   -3.525630   -1.845240
  N     -5.648810   -2.543760   -1.575950
  C     -7.747820   -3.697570   -4.229840
  N     -7.681420   -2.819430   -4.961050
  C     -9.011550   -8.103490   -3.063090
  C     -8.620800   -9.270750   -2.394420
  C     -7.541020   -9.291590   -1.427980
  N     -7.374340  -10.522740   -0.932750
  S     -8.427350  -11.524680   -1.596850
  N     -9.174800  -10.480040   -2.543670
  C    -10.090480   -8.122090   -4.037780
  C    -10.202560   -9.097440   -4.965870
  C    -11.220240   -9.159400   -5.965000
  C    -11.276480  -10.252550   -6.822500
  C    -12.253680  -10.375520   -7.823930
  N    -13.055560  -10.479170   -8.639540
  C    -10.374570  -11.324220   -6.712730
  N     -9.633280  -12.196080   -6.613880
  C    -12.169680   -8.104240   -6.089310
  C    -12.262400   -7.014880   -5.279200
  S    -11.231760   -6.813470   -3.871830
  C    -13.307070   -6.050890   -5.495630
  C    -13.490630   -4.812970   -4.982130
  C    -14.865720   -4.214660   -5.017330
  O    -15.782220   -4.560340   -5.718980
  C    -14.854060   -3.183430   -3.962670
  C    -15.887900   -2.413650   -3.510460
  C    -15.649900   -1.481170   -2.476560
  C    -14.339720   -1.366100   -1.925030
  C    -14.109200   -0.433170   -0.893750
  C    -15.129980    0.350160   -0.433190
  C    -16.425290    0.236420   -0.980080
  C    -16.680890   -0.659490   -1.980370
  F    -17.404710    1.015290   -0.508220
  F    -14.910030    1.234730    0.545110
  C    -13.287490   -2.171250   -2.415500
  C    -13.539020   -3.064420   -3.423490
  C    -12.653520   -3.947280   -4.171830
  C    -11.294230   -3.824970   -4.282690
  C    -10.584560   -4.436660   -5.341920
  N    -10.046680   -4.883400   -6.250880
  C    -10.518970   -3.095960   -3.363350
  N     -9.864410   -2.606020   -2.556950
  H     -2.281040   -2.654210    9.204880
  H     -4.298790   -7.141920    9.819120
  H     -2.251950   -2.972570    6.786460
  H     -4.292440   -7.489280    7.347150
  H     -3.449920   -4.867950    1.736590
  H     -2.804510   -8.319290    2.613850
  H     -5.555720  -10.162520   -0.084800
  H     -9.453840   -9.877300   -4.973750
  H    -12.864610   -8.172480   -6.917320
  H    -14.126530   -6.407020   -6.113780
  H    -16.873020   -2.511720   -3.940360
  H    -13.123480   -0.330120   -0.467610
  H    -17.676680   -0.733280   -2.388480
  H    -12.306720   -2.066310   -1.979640

 Total Charge           Charge          ....    0
 Multiplicity           Mult            ....    1
 Number of Electrons    NEL             ....  572
 Basis Dimension        Dim             .... 1244

ORBITAL ENERGIES
----------------

  NO   OCC          E(Eh)            E(eV)
   0   2.0000     -89.081080     -2424.0194
   1   2.0000     -89.003123     -2421.8981
   2   2.0000     -88.992301     -2421.6036
   3   2.0000     -24.814052      -675.2247
   4   2.0000     -24.813727      -675.2158
   5   2.0000     -24.809135      -675.0909
   6   2.0000     -24.808569      -675.0755
   7   2.0000     -19.243304      -523.6369
   8   2.0000     -19.238632      -523.5098
   9   2.0000     -14.495417      -394.4404
  10   2.0000     -14.492018      -394.3479
  11   2.0000     -14.484832      -394.1523
  12   2.0000     -14.483900      -394.1270
  13   2.0000     -14.451808      -393.2537
  14   2.0000     -14.448897      -393.1745
  15   2.0000     -14.447581      -393.1387
  16   2.0000     -14.433777      -392.7631
  17   2.0000     -14.433259      -392.7489
  18   2.0000     -14.432266      -392.7219
  19   2.0000     -14.419736      -392.3810
  20   2.0000     -14.419226      -392.3671
  21   2.0000     -14.412882      -392.1945
  22   2.0000     -14.410468      -392.1288
  23   2.0000     -10.414633      -283.3966
  24   2.0000     -10.412864      -283.3484
  25   2.0000     -10.398936      -282.9694
  26   2.0000     -10.398621      -282.9609
  27   2.0000     -10.394348      -282.8446
  28   2.0000     -10.393642      -282.8254
  29   2.0000     -10.393096      -282.8105
  30   2.0000     -10.391252      -282.7603
  31   2.0000     -10.386496      -282.6309
  32   2.0000     -10.385333      -282.5993
  33   2.0000     -10.381052      -282.4828
  34   2.0000     -10.379924      -282.4521
  35   2.0000     -10.373745      -282.2840
  36   2.0000     -10.370920      -282.2071
  37   2.0000     -10.370843      -282.2050
  38   2.0000     -10.369261      -282.1619
  39   2.0000     -10.367081      -282.1026
  40   2.0000     -10.365231      -282.0523
  41   2.0000     -10.363123      -281.9949
  42   2.0000     -10.360353      -281.9195
  43   2.0000     -10.359834      -281.9054
  44   2.0000     -10.355426      -281.7855
  45   2.0000     -10.350940      -281.6634
  46   2.0000     -10.350867      -281.6614
  47   2.0000     -10.347795      -281.5778
  48   2.0000     -10.346487      -281.5422
  49   2.0000     -10.344310      -281.4830
  50   2.0000     -10.344009      -281.4748
  51   2.0000     -10.343766      -281.4682
  52   2.0000     -10.340138      -281.3695
  53   2.0000     -10.338702      -281.3304
  54   2.0000     -10.337993      -281.3111
  55   2.0000     -10.335975      -281.2562
  56   2.0000     -10.334875      -281.2263
  57   2.0000     -10.334661      -281.2204
  58   2.0000     -10.333425      -281.1868
  59   2.0000     -10.331797      -281.1425
  60   2.0000     -10.330639      -281.1110
  61   2.0000     -10.330080      -281.0958
  62   2.0000     -10.329935      -281.0918
  63   2.0000     -10.329211      -281.0721
  64   2.0000     -10.324467      -280.9430
  65   2.0000     -10.324213      -280.9361
  66   2.0000     -10.324080      -280.9325
  67   2.0000     -10.324004      -280.9304
  68   2.0000     -10.323836      -280.9259
  69   2.0000     -10.322226      -280.8821
  70   2.0000     -10.321594      -280.8648
  71   2.0000     -10.320807      -280.8434
  72   2.0000     -10.320213      -280.8273
  73   2.0000     -10.318291      -280.7750
  74   2.0000     -10.317783      -280.7612
  75   2.0000     -10.317633      -280.7571
  76   2.0000     -10.317392      -280.7505
  77   2.0000     -10.316968      -280.7390
  78   2.0000     -10.315337      -280.6946
  79   2.0000     -10.312912      -280.6286
  80   2.0000     -10.312624      -280.6208
  81   2.0000     -10.312186      -280.6088
  82   2.0000     -10.309422      -280.5336
  83   2.0000      -8.171758      -222.3648
  84   2.0000      -8.097777      -220.3517
  85   2.0000      -8.085830      -220.0266
  86   2.0000      -6.142658      -167.1502
  87   2.0000      -6.135181      -166.9468
  88   2.0000      -6.134616      -166.9314
  89   2.0000      -6.067674      -165.1098
  90   2.0000      -6.063099      -164.9853
  91   2.0000      -6.058939      -164.8721
  92   2.0000      -6.055864      -164.7884
  93   2.0000      -6.050978      -164.6555
  94   2.0000      -6.046971      -164.5464
  95   2.0000      -1.337622       -36.3985
  96   2.0000      -1.332527       -36.2599
  97   2.0000      -1.322670       -35.9917
  98   2.0000      -1.317571       -35.8529
  99   2.0000      -1.176935       -32.0260
 100   2.0000      -1.159794       -31.5596
 101   2.0000      -1.155864       -31.4527
 102   2.0000      -1.155258       -31.4362
 103   2.0000      -1.082844       -29.4657
 104   2.0000      -1.048798       -28.5393
 105   2.0000      -1.042109       -28.3572
 106   2.0000      -1.037724       -28.2379
 107   2.0000      -1.036407       -28.2021
 108   2.0000      -1.029095       -28.0031
 109   2.0000      -1.028354       -27.9829
 110   2.0000      -1.023072       -27.8392
 111   2.0000      -1.020972       -27.7821
 112   2.0000      -1.019465       -27.7411
 113   2.0000      -1.018899       -27.7257
 114   2.0000      -1.013592       -27.5812
 115   2.0000      -1.011023       -27.5113
 116   2.0000      -1.007601       -27.4182
 117   2.0000      -1.002486       -27.2790
 118   2.0000      -0.999937       -27.2097
 119   2.0000      -0.997548       -27.1447
 120   2.0000      -0.994402       -27.0591
 121   2.0000      -0.989668       -26.9302
 122   2.0000      -0.962636       -26.1946
 123   2.0000      -0.958495       -26.0820
 124   2.0000      -0.952355       -25.9149
 125   2.0000      -0.948131       -25.8000
 126   2.0000      -0.941904       -25.6305
 127   2.0000      -0.940485       -25.5919
 128   2.0000      -0.934877       -25.4393
 129   2.0000      -0.921148       -25.0657
 130   2.0000      -0.913215       -24.8499
 131   2.0000      -0.911950       -24.8154
 132   2.0000      -0.905671       -24.6446
 133   2.0000      -0.893983       -24.3265
 134   2.0000      -0.880080       -23.9482
 135   2.0000      -0.871451       -23.7134
 136   2.0000      -0.869467       -23.6594
 137   2.0000      -0.865300       -23.5460
 138   2.0000      -0.860793       -23.4234
 139   2.0000      -0.860705       -23.4210
 140   2.0000      -0.854627       -23.2556
 141   2.0000      -0.834149       -22.6984
 142   2.0000      -0.825178       -22.4542
 143   2.0000      -0.817343       -22.2410
 144   2.0000      -0.801127       -21.7998
 145   2.0000      -0.790127       -21.5004
 146   2.0000      -0.784265       -21.3409
 147   2.0000      -0.776255       -21.1230
 148   2.0000      -0.767800       -20.8929
 149   2.0000      -0.767585       -20.8871
 150   2.0000      -0.757072       -20.6010
 151   2.0000      -0.750979       -20.4352
 152   2.0000      -0.745250       -20.2793
 153   2.0000      -0.739515       -20.1232
 154   2.0000      -0.734177       -19.9780
 155   2.0000      -0.732347       -19.9282
 156   2.0000      -0.726607       -19.7720
 157   2.0000      -0.714074       -19.4310
 158   2.0000      -0.713023       -19.4023
 159   2.0000      -0.711091       -19.3498
 160   2.0000      -0.703442       -19.1416
 161   2.0000      -0.696915       -18.9640
 162   2.0000      -0.689217       -18.7545
 163   2.0000      -0.680977       -18.5303
 164   2.0000      -0.677922       -18.4472
 165   2.0000      -0.676252       -18.4018
 166   2.0000      -0.671268       -18.2661
 167   2.0000      -0.667948       -18.1758
 168   2.0000      -0.662863       -18.0374
 169   2.0000      -0.662254       -18.0209
 170   2.0000      -0.656690       -17.8694
 171   2.0000      -0.653124       -17.7724
 172   2.0000      -0.643830       -17.5195
 173   2.0000      -0.639866       -17.4116
 174   2.0000      -0.636411       -17.3176
 175   2.0000      -0.634454       -17.2644
 176   2.0000      -0.626077       -17.0364
 177   2.0000      -0.619133       -16.8475
 178   2.0000      -0.617590       -16.8055
 179   2.0000      -0.612012       -16.6537
 180   2.0000      -0.609908       -16.5964
 181   2.0000      -0.605414       -16.4742
 182   2.0000      -0.603248       -16.4152
 183   2.0000      -0.601767       -16.3749
 184   2.0000      -0.596723       -16.2376
 185   2.0000      -0.595855       -16.2140
 186   2.0000      -0.593487       -16.1496
 187   2.0000      -0.589637       -16.0448
 188   2.0000      -0.587638       -15.9904
 189   2.0000      -0.584664       -15.9095
 190   2.0000      -0.578040       -15.7293
 191   2.0000      -0.573312       -15.6006
 192   2.0000      -0.571057       -15.5393
 193   2.0000      -0.566993       -15.4287
 194   2.0000      -0.562975       -15.3193
 195   2.0000      -0.562660       -15.3108
 196   2.0000      -0.561762       -15.2863
 197   2.0000      -0.558665       -15.2020
 198   2.0000      -0.558031       -15.1848
 199   2.0000      -0.557628       -15.1738
 200   2.0000      -0.556291       -15.1375
 201   2.0000      -0.553308       -15.0563
 202   2.0000      -0.550751       -14.9867
 203   2.0000      -0.544493       -14.8164
 204   2.0000      -0.542911       -14.7734
 205   2.0000      -0.542628       -14.7657
 206   2.0000      -0.538355       -14.6494
 207   2.0000      -0.536668       -14.6035
 208   2.0000      -0.533874       -14.5275
 209   2.0000      -0.530974       -14.4485
 210   2.0000      -0.530625       -14.4391
 211   2.0000      -0.526889       -14.3374
 212   2.0000      -0.525879       -14.3099
 213   2.0000      -0.517655       -14.0861
 214   2.0000      -0.515784       -14.0352
 215   2.0000      -0.515353       -14.0235
 216   2.0000      -0.513819       -13.9817
 217   2.0000      -0.511900       -13.9295
 218   2.0000      -0.509955       -13.8766
 219   2.0000      -0.506417       -13.7803
 220   2.0000      -0.500531       -13.6201
 221   2.0000      -0.498555       -13.5664
 222   2.0000      -0.495069       -13.4715
 223   2.0000      -0.492403       -13.3990
 224   2.0000      -0.488723       -13.2988
 225   2.0000      -0.487698       -13.2709
 226   2.0000      -0.484297       -13.1784
 227   2.0000      -0.482345       -13.1253
 228   2.0000      -0.479834       -13.0569
 229   2.0000      -0.476431       -12.9644
 230   2.0000      -0.475729       -12.9453
 231   2.0000      -0.474377       -12.9084
 232   2.0000      -0.471109       -12.8195
 233   2.0000      -0.470682       -12.8079
 234   2.0000      -0.467366       -12.7177
 235   2.0000      -0.464720       -12.6457
 236   2.0000      -0.464348       -12.6356
 237   2.0000      -0.463186       -12.6039
 238   2.0000      -0.462541       -12.5864
 239   2.0000      -0.459965       -12.5163
 240   2.0000      -0.458828       -12.4853
 241   2.0000      -0.456191       -12.4136
 242   2.0000      -0.454901       -12.3785
 243   2.0000      -0.454076       -12.3560
 244   2.0000      -0.451102       -12.2751
 245   2.0000      -0.448849       -12.2138
 246   2.0000      -0.448079       -12.1928
 247   2.0000      -0.447674       -12.1818
 248   2.0000      -0.446195       -12.1416
 249   2.0000      -0.445323       -12.1179
 250   2.0000      -0.443297       -12.0627
 251   2.0000      -0.441230       -12.0065
 252   2.0000      -0.440787       -11.9944
 253   2.0000      -0.439879       -11.9697
 254   2.0000      -0.437881       -11.9153
 255   2.0000      -0.434076       -11.8118
 256   2.0000      -0.432331       -11.7643
 257   2.0000      -0.431324       -11.7369
 258   2.0000      -0.429650       -11.6914
 259   2.0000      -0.426765       -11.6129
 260   2.0000      -0.425697       -11.5838
 261   2.0000      -0.424796       -11.5593
 262   2.0000      -0.423461       -11.5230
 263   2.0000      -0.420102       -11.4316
 264   2.0000      -0.417791       -11.3687
 265   2.0000      -0.412097       -11.2137
 266   2.0000      -0.409402       -11.1404
 267   2.0000      -0.405751       -11.0410
 268   2.0000      -0.403557       -10.9813
 269   2.0000      -0.400097       -10.8872
 270   2.0000      -0.396543       -10.7905
 271   2.0000      -0.393106       -10.6970
 272   2.0000      -0.391253       -10.6465
 273   2.0000      -0.376864       -10.2550
 274   2.0000      -0.374808       -10.1990
 275   2.0000      -0.366905        -9.9840
 276   2.0000      -0.362038        -9.8515
 277   2.0000      -0.352216        -9.5843
 278   2.0000      -0.345328        -9.3969
 279   2.0000      -0.336335        -9.1521
 280   2.0000      -0.331546        -9.0218
 281   2.0000      -0.324124        -8.8199
 282   2.0000      -0.319641        -8.6979
 283   2.0000      -0.312902        -8.5145
 284   2.0000      -0.292455        -7.9581
 285   2.0000      -0.280762        -7.6399
 286   0.0000      -0.158154        -4.3036
 287   0.0000      -0.131885        -3.5888
 288   0.0000      -0.116596        -3.1727
 289   0.0000      -0.084983        -2.3125
 290   0.0000      -0.083162        -2.2630

MULLIKEN ATOMIC CHARGES
-----------------------
   0 C :   -0.102745
   1 C :    0.244130
   2 F :   -0.165332
   3 C :    0.239337
   4 F :   -0.166815
   5 C :   -0.099174
   6 C :    0.112271
   7 C :    0.111197
   8 C :   -0.076919
   9 C :    0.058184
  10 C :   -0.015937
  11 C :   -0.066044
  12 C :    0.155183
  13 O :   -0.128641
  14 C :   -0.076830
  15 C :    0.287385
  16 C :   -0.317208
  17 C :   -0.206136
  18 N :    0.177421
  19 C :   -0.178262
  20 N :    0.161532
  21 C :    0.013201
  22 C :   -0.053662
  23 C :    0.025600
  24 C :    0.245376
  25 C :   -0.328240
  26 C :   -0.159020
  27 N :    0.131966
  28 C :   -0.167225
  29 N :    0.140551
  30 C :   -0.120149
  31 C :   -0.060899
  32 S :    0.156369
  33 C :    0.143051
  34 C :   -0.033509
  35 C :   -0.028809
  36 N :    0.061700
  37 C :   -0.093480
  38 C :   -0.089329
  39 N :   -0.012178
  40 C :   -0.201100
  41 N :    0.250307
  42 C :   -0.227475
  43 N :    0.246896
  44 C :    0.051391
  45 C :    0.010046
  46 C :    0.020016
  47 N :   -0.293961
  48 S :    0.621423
  49 N :   -0.268936
  50 C :   -0.077823
  51 C :   -0.015920
  52 C :    0.256010
  53 C :   -0.320783
  54 C :   -0.166354
  55 N :    0.147823
  56 C :   -0.168084
  57 N :    0.140540
  58 C :   -0.058108
  59 C :   -0.019131
  60 S :    0.155978
  61 C :    0.027586
  62 C :   -0.096420
  63 C :    0.148984
  64 O :   -0.122096
  65 C :   -0.002272
  66 C :   -0.069746
  67 C :    0.110068
  68 C :    0.113530
  69 C :   -0.104024
  70 C :    0.244197
  71 C :    0.240455
  72 C :   -0.098355
  73 F :   -0.165443
  74 F :   -0.165302
  75 C :   -0.084486
  76 C :    0.062229
  77 C :    0.218724
  78 C :   -0.269785
  79 C :   -0.221511
  80 N :    0.194128
  81 C :   -0.133921
  82 N :    0.116459
  83 H :    0.008996
  84 H :    0.004161
  85 H :   -0.003456
  86 H :   -0.004141
  87 H :    0.050950
  88 H :    0.026936
  89 H :    0.049158
  90 H :    0.032420
  91 H :    0.038409
  92 H :    0.043457
  93 H :   -0.001235
  94 H :    0.009094
  95 H :    0.005035
  96 H :   -0.003443
Sum of atomic charges:   -0.0000000

LOEWDIN ATOMIC CHARGES
----------------------
   0 C :   -0.028104
   1 C :    0.069948
   2 F :   -0.043893
   3 C :    0.070437
   4 F :   -0.044495
   5 C :   -0.030699
   6 C :   -0.007165
   7 C :   -0.003871
   8 C :    0.020896
   9 C :   -0.023866
  10 C :   -0.055676
  11 C :    0.038417
  12 C :    0.085159
  13 O :   -0.122179
  14 C :   -0.061981
  15 C :    0.069451
  16 C :   -0.118964
  17 C :   -0.026236
  18 N :   -0.030521
  19 C :   -0.016801
  20 N :   -0.037242
  21 C :    0.046211
  22 C :   -0.150736
  23 C :    0.011524
  24 C :    0.038622
  25 C :   -0.144334
  26 C :   -0.026514
  27 N :   -0.061582
  28 C :   -0.028014
  29 N :   -0.053942
  30 C :   -0.001796
  31 C :   -0.131224
  32 S :    0.469801
  33 C :   -0.020568
  34 C :   -0.006001
  35 C :   -0.005023
  36 N :   -0.004486
  37 C :   -0.007268
  38 C :   -0.003258
  39 N :   -0.017564
  40 C :   -0.037180
  41 N :    0.020533
  42 C :   -0.040109
  43 N :    0.016868
  44 C :   -0.034641
  45 C :   -0.035388
  46 C :   -0.030716
  47 N :   -0.271682
  48 S :    0.744977
  49 N :   -0.273574
  50 C :   -0.117508
  51 C :   -0.006391
  52 C :    0.039153
  53 C :   -0.140673
  54 C :   -0.031102
  55 N :   -0.046763
  56 C :   -0.027151
  57 N :   -0.051102
  58 C :    0.009538
  59 C :   -0.132836
  60 S :    0.483991
  61 C :    0.045449
  62 C :   -0.065460
  63 C :    0.087112
  64 O :   -0.121601
  65 C :   -0.057029
  66 C :    0.038261
  67 C :   -0.007531
  68 C :   -0.003188
  69 C :   -0.029608
  70 C :    0.071292
  71 C :    0.070739
  72 C :   -0.030035
  73 F :   -0.043487
  74 F :   -0.043040
  75 C :    0.015229
  76 C :   -0.020667
  77 C :    0.057519
  78 C :   -0.129858
  79 C :   -0.046615
  80 N :   -0.032489
  81 C :   -0.006353
  82 N :   -0.051052
  83 H :    0.048760
  84 H :    0.046797
  85 H :    0.041016
  86 H :    0.043140
  87 H :    0.047219
  88 H :    0.046731
  89 H :    0.043689
  90 H :    0.048963
  91 H :    0.054338
  92 H :    0.057792
  93 H :    0.043966
  94 H :    0.048399
  95 H :    0.047128
  96 H :    0.039768

  Mayer bond orders larger than 0.100000
B(  0-C ,  1-C ) :   1.4429 B(  0-C ,  5-C ) :   0.1078 B(  0-C ,  7-C ) :   1.1889
B(  0-C , 83-H ) :   1.0059 B(  1-C ,  2-F ) :   1.1403 B(  1-C ,  3-C ) :   1.1871
B(  3-C ,  4-F ) :   1.1378 B(  3-C ,  5-C ) :   1.4461 B(  5-C ,  6-C ) :   1.1894
B(  5-C , 84-H ) :   1.0062 B(  6-C ,  7-C ) :   1.2495 B(  6-C , 11-C ) :   1.1983
B(  7-C ,  8-C ) :   1.2237 B(  8-C ,  9-C ) :   1.4421 B(  8-C , 85-H ) :   0.9895
B(  9-C , 10-C ) :   1.2158 B(  9-C , 15-C ) :   0.9990 B( 10-C , 11-C ) :   1.4652
B( 10-C , 12-C ) :   0.9487 B( 11-C , 86-H ) :   1.0155 B( 12-C , 13-O ) :   2.2385
B( 12-C , 14-C ) :   0.9130 B( 14-C , 15-C ) :   1.0316 B( 14-C , 21-C ) :   1.7397
B( 15-C , 16-C ) :   1.6786 B( 16-C , 17-C ) :   1.1320 B( 16-C , 19-C ) :   1.1386
B( 17-C , 18-N ) :   2.9997 B( 19-C , 20-N ) :   2.9699 B( 21-C , 22-C ) :   1.0364
B( 21-C , 87-H ) :   0.9310 B( 22-C , 23-C ) :   1.6231 B( 22-C , 32-S ) :   1.0023
B( 23-C , 24-C ) :   1.1595 B( 23-C , 88-H ) :   0.9513 B( 24-C , 25-C ) :   1.5239
B( 24-C , 30-C ) :   1.1159 B( 25-C , 26-C ) :   1.1367 B( 25-C , 28-C ) :   1.1313
B( 26-C , 27-N ) :   2.9850 B( 28-C , 29-N ) :   2.9970 B( 30-C , 31-C ) :   1.5840
B( 30-C , 89-H ) :   0.9422 B( 31-C , 32-S ) :   1.0650 B( 31-C , 33-C ) :   1.1240
B( 33-C , 34-C ) :   1.2729 B( 33-C , 44-C ) :   0.1293 B( 33-C , 46-C ) :   1.2311
B( 34-C , 35-C ) :   1.1171 B( 34-C , 39-N ) :   1.3623 B( 35-C , 36-N ) :   1.4246
B( 35-C , 44-C ) :   1.3185 B( 36-N , 37-C ) :   1.7604 B( 37-C , 38-C ) :   1.1867
B( 37-C , 42-C ) :   1.1279 B( 38-C , 39-N ) :   1.7150 B( 38-C , 40-C ) :   1.1423
B( 40-C , 41-N ) :   3.0418 B( 42-C , 43-N ) :   3.0157 B( 44-C , 45-C ) :   1.2989
B( 44-C , 50-C ) :   1.0013 B( 45-C , 46-C ) :   1.1039 B( 45-C , 49-N ) :   1.4883
B( 46-C , 47-N ) :   1.4649 B( 47-N , 48-S ) :   1.3019 B( 47-N , 49-N ) :   0.1494
B( 48-S , 49-N ) :   1.3167 B( 50-C , 51-C ) :   1.6602 B( 50-C , 60-S ) :   1.0653
B( 51-C , 52-C ) :   1.1252 B( 51-C , 90-H ) :   0.9603 B( 52-C , 53-C ) :   1.5440
B( 52-C , 58-C ) :   1.0913 B( 53-C , 54-C ) :   1.1278 B( 53-C , 56-C ) :   1.1358
B( 54-C , 55-N ) :   2.9987 B( 56-C , 57-N ) :   2.9952 B( 58-C , 59-C ) :   1.5897
B( 58-C , 91-H ) :   0.9779 B( 59-C , 60-S ) :   1.0649 B( 59-C , 61-C ) :   1.0736
B( 61-C , 62-C ) :   1.7163 B( 61-C , 92-H ) :   0.9444 B( 62-C , 63-C ) :   0.9164
B( 62-C , 77-C ) :   1.0016 B( 63-C , 64-O ) :   2.2808 B( 63-C , 65-C ) :   0.9255
B( 65-C , 66-C ) :   1.4737 B( 65-C , 76-C ) :   1.2128 B( 66-C , 67-C ) :   1.2019
B( 66-C , 93-H ) :   1.0152 B( 67-C , 68-C ) :   1.2505 B( 67-C , 72-C ) :   1.1927
B( 68-C , 69-C ) :   1.1893 B( 68-C , 75-C ) :   1.2186 B( 69-C , 70-C ) :   1.4435
B( 69-C , 72-C ) :   0.1074 B( 69-C , 94-H ) :   1.0064 B( 70-C , 71-C ) :   1.1878
B( 70-C , 74-F ) :   1.1403 B( 71-C , 72-C ) :   1.4451 B( 71-C , 73-F ) :   1.1396
B( 72-C , 95-H ) :   1.0067 B( 75-C , 76-C ) :   1.4468 B( 75-C , 96-H ) :   0.9948
B( 76-C , 77-C ) :   1.0262 B( 77-C , 78-C ) :   1.6720 B( 78-C , 79-C ) :   1.1484
B( 78-C , 81-C ) :   1.1376 B( 79-C , 80-N ) :   2.9894 B( 81-C , 82-N ) :   2.8914

-----------------------------------------------------------------------------
         ABSORPTION SPECTRUM VIA TRANSITION ELECTRIC DIPOLE MOMENTS
-----------------------------------------------------------------------------
State   Energy  Wavelength   fosc         T2         TX        TY        TZ
        (cm-1)    (nm)                  (au**2)     (au)      (au)      (au)
-----------------------------------------------------------------------------
   0   11044.5    905.4   0.172019533   5.12750   1.57600  -0.78725   1.42266
   1   12861.2    777.5   0.029025994   0.74299  -0.29880  -0.52892  -0.61151
   2   18614.2    537.2   0.349955394   6.18932   0.32582   1.74578   1.74224
   3   19116.1    523.1   0.153974873   2.65171   0.23382   1.42652   0.74971
   4   19366.3    516.4   0.302274458   5.13843   1.77100  -0.88908   1.10069
   5   21610.1    462.7   0.008950326   0.13635   0.16996   0.29241   0.14820
   6   21973.3    455.1   0.036015202   0.53959   0.40746  -0.60055  -0.11361
   7   22845.4    437.7   0.004358836   0.06281   0.05015  -0.19557   0.14850
   8   23845.7    419.4   0.010303672   0.14225  -0.00954  -0.09977   0.36360
   9   24181.0    413.5   0.034402048   0.46837  -0.66195   0.05072   0.16619
  10   25256.2    395.9   0.027652084   0.36044  -0.30535  -0.42145  -0.29931
  11   26013.7    384.4   0.021018821   0.26600   0.32292  -0.25554  -0.31052
  12   26140.7    382.5   0.022199194   0.27957   0.49566   0.18378   0.01086
  13   26730.3    374.1   0.065391950   0.80537  -0.76977   0.33901  -0.31287
  14   26964.1    370.9   0.017239109   0.21048   0.21718  -0.26063  -0.30884
  15   27132.9    368.6   0.067180706   0.81512   0.19862  -0.59784   0.64673
  16   27200.1    367.6   0.092170411   1.11557   0.78521  -0.59378  -0.38266
  17   27428.1    364.6   0.023065367   0.27685  -0.07275  -0.20686  -0.47829
  18   27748.3    360.4   0.017823897   0.21147  -0.41591  -0.13867   0.13876
  19   27935.5    358.0   0.042326579   0.49881  -0.22057   0.42325   0.52059
  20   28230.7    354.2   0.055869687   0.65152   0.43992  -0.37374   0.56419
  21   28411.6    352.0   0.015419522   0.17867   0.09509  -0.36341   0.19380
  22   28605.7    349.6   0.011994619   0.13804  -0.28425   0.23870   0.01644
  23   29075.1    343.9   0.041747400   0.47270  -0.01392  -0.43820   0.52961
  24   29429.7    339.8   0.096700108   1.08173   0.07823  -0.63139   0.82277
  25   29603.3    337.8   0.036661732   0.40771  -0.31063  -0.25081  -0.49831
  26   29734.2    336.3   0.078768648   0.87211   0.06408  -0.67634   0.64076
  27   30021.2    333.1   0.435663127   4.77748  -0.45234  -1.92974  -0.92140
  28   30386.0    329.1   0.065754005   0.71240  -0.28640   0.72265   0.32887
  29   30481.0    328.1   0.580779710   6.27276  -0.38669   2.28545   0.94866
  30   30773.5    325.0   0.087833003   0.93963   0.04476  -0.78803  -0.56271
  31   30984.4    322.7   0.220766628   2.34566  -0.61751   1.23860  -0.65591
  32   31978.8    312.7   0.138622660   1.42708   0.72739  -0.36260   0.87550
  33   32204.6    310.5   0.473172115   4.83701   0.65831  -1.61564  -1.33916
  34   32435.7    308.3   0.024414048   0.24779  -0.33963   0.31314   0.18545
  35   33035.0    302.7   0.323620498   3.22506   1.50075  -0.91132  -0.37725
  36   33089.0    302.2   0.026350491   0.26217   0.09891   0.26675  -0.42571
  37   33172.9    301.5   0.334817534   3.32277  -0.19142   1.34919  -1.21071
  38   33292.8    300.4   0.467548288   4.62330   0.96869  -0.19872  -1.90931
  39   33523.4    298.3   0.086271174   0.84721   0.77553   0.20108  -0.45314
  40   33927.0    294.8   0.314731138   3.05401  -0.36201   0.32244   1.67898
  41   34357.3    291.1   0.034087311   0.32663   0.14434  -0.46990  -0.29152
  42   34420.1    290.5   0.007572057   0.07242  -0.15208  -0.15745   0.15654
  43   34720.5    288.0   0.279926689   2.65420  -0.31512  -1.30259  -0.92637
  44   35218.6    283.9   0.122030778   1.14070  -0.26673   0.18329  -1.01782
  45   35400.0    282.5   0.248784607   2.31364  -0.79048  -0.40059  -1.23625
  46   35494.1    281.7   0.061333637   0.56888   0.07604   0.29448  -0.69020
  47   35652.5    280.5   0.125806610   1.16169  -0.72125   0.74730  -0.28813
  48   35825.0    279.1   0.001464831   0.01346  -0.04048   0.10716   0.01843
  49   36184.5    276.4   0.024259507   0.22072   0.35394  -0.22601   0.21062
  50   36298.1    275.5   0.078741517   0.71416   0.49616   0.66517   0.15980
  51   36520.7    273.8   0.043495006   0.39208  -0.54739   0.30119   0.04161
  52   36624.8    273.0   0.235758384   2.11918  -0.30662  -1.38326   0.33430
  53   36814.1    271.6   0.098041313   0.87674  -0.06646   0.83985  -0.40863
  54   37083.4    269.7   0.063419044   0.56301   0.10034  -0.62312   0.40579
  55   37265.3    268.3   0.014103258   0.12459   0.24544   0.16120  -0.19587
  56   37451.9    267.0   0.073541992   0.64645   0.35578   0.67667  -0.24899
  57   37690.1    265.3   0.010566596   0.09230  -0.08591  -0.04971  -0.28713
  58   37781.5    264.7   0.063883848   0.55666   0.42510   0.60873  -0.07344
  59   37814.0    264.5   0.020857540   0.18159  -0.02175   0.42556  -0.00369
  60   37940.1    263.6   0.032741516   0.28410   0.42264   0.31522   0.07819
  61   38186.2    261.9   0.010282128   0.08864   0.27366  -0.10693   0.04818
  62   38276.7    261.3   0.057645251   0.49580  -0.00619   0.66508   0.23114
  63   38486.6    259.8   0.072179706   0.61742   0.04845  -0.29621  -0.72618
  64   38561.0    259.3   0.162295466   1.38559   0.61406   0.98616   0.18973
  65   38873.1    257.2   0.366977777   3.10789   0.04259   1.75750   0.13146
  66   39273.8    254.6   0.028973945   0.24287  -0.05890   0.07443  -0.48360
  67   39342.0    254.2   0.360710403   3.01840   0.61057   1.61110   0.22353
  68   39407.3    253.8   0.007899764   0.06600  -0.09153  -0.16532  -0.17403
  69   39687.7    252.0   0.047180304   0.39136  -0.39252  -0.16223  -0.45932
  70   39865.9    250.8   0.018384599   0.15182   0.26659   0.25876   0.11746
  71   39914.1    250.5   0.025298455   0.20866   0.10791   0.24748  -0.36848
  72   40113.8    249.3   0.032506921   0.26678  -0.27389  -0.14514  -0.41316

FINAL SINGLE POINT ENERGY     -4800.610237973090

DIPOLE MOMENT
-------------
                                X             Y             Z
Electronic contribution:     -2.16729       8.75848      13.01588
Nuclear contribution   :     -1.53426      -7.41715     -10.11873
                        -----------------------------------------
Total Dipole Moment    :     -3.70155       1.34133       2.89715
                        -----------------------------------------
Magnitude (a.u.)       :      4.88816
Magnitude (Debye)      :     12.42472

Rotational constants in cm-1:     0.000815     0.000352     0.000277
Rotational constants in MHz :    24.436410    10.562304     8.315193

                             ****ORCA TERMINATED NORMALLY****
TOTAL RUN TIME: 0 days 0 hours 11 minutes 40 seconds 592 msec
