                         Program Version 4.2.0 -  RELEASE  -
|  1> # ORCA input file
|  2> # SCF done       -223.616483770597          0.000563496974
|  3> ! CAM-B3LYP def2-SVP def2/J RIJCOSX Grid4 TightSCF
|  4> %maxcore 5000
|  5> %tddft
|  6>     Mode sTDDFT
|  7>     Ethresh 5.0
|  8>     maxcore 5000
|  9> end
| 10>
| 11> %pal
| 12>   nprocs 6
| 13>   end
| 14> * xyz 0 1
| 15>    C       12.58682        -5.01681         6.66426
| 16>    C       13.01462        -5.33450         7.92304
| 17>    F       14.21964        -4.93235         8.34583
| 18>    C       12.19685        -6.08658         8.79038
| 19>    F       12.64187        -6.38308        10.01825
| 20>    C       10.96170        -6.51067         8.38656
| 21>    C       10.49279        -6.19868         7.09585
| 22>    C       11.31852        -5.43859         6.21762
| 23>    C       10.86902        -5.11251         4.91698
| 24>    C        9.63112        -5.53232         4.50690
| 25>    C        8.81401        -6.28963         5.39270
| 26>    C        9.21991        -6.62166         6.65292
| 27>    C        7.54417        -6.60861         4.72085
| 28>    O        6.61864        -7.24771         5.19025
| 29>    C        7.62069        -6.00311         3.38654
| 30>    C        8.90970        -5.35027         3.24839
| 31>    C        9.39399        -4.68652         2.15135
| 32>    C        8.71500        -4.50847         0.92751
| 33>    N        8.23351        -4.32198        -0.09844
| 34>    C       10.66796        -4.08161         2.09367
| 35>    N       11.68988        -3.57151         1.98036
| 36>    C        6.62686        -6.04529         2.44262
| 37>    C        5.36215        -6.65313         2.49237
| 38>    C        4.47084        -6.58543         1.42117
| 39>    C        3.28198        -7.25015         1.65091
| 40>   Cl        2.01502        -7.32189         0.49688
| 41>    C        3.21324        -7.85765         2.91000
| 42>    S        4.67544        -7.57088         3.80737
| 43>    C        2.14501        -8.61490         3.43634
| 44>    C        2.06345        -9.23185         4.68799
| 45>   Cl        3.31613        -9.14525         5.84694
| 46>    C        0.87927        -9.92650         4.91339
| 47>    C        0.01253        -9.86197         3.83598
| 48>    S        0.68508        -8.92052         2.53570
| 49>    C       -1.25341       -10.46990         3.73335
| 50>    C       -1.88316       -11.27665         4.69376
| 51>    C       -3.16489       -11.76879         4.26178
| 52>    N       -3.89796       -12.56106         5.04715
| 53>    C       -3.40089       -12.86346         6.22636
| 54>    C       -4.21975       -13.74862         7.09397
| 55>    O       -5.28874       -14.19914         6.74187
| 56>    C       -3.63374       -14.04096         8.41402
| 57>    C       -2.44785       -13.57494         8.81915
| 58>    C       -1.58314       -12.71196         7.99511
| 59>    O       -0.50576       -12.31158         8.38111
| 60>    C       -2.13105       -12.36904         6.65808
| 61>    N       -1.39415       -11.59222         5.89438
| 62>    C       -3.51486       -11.33082         2.97600
| 63>    S       -2.25907       -10.32490         2.32829
| 64>    C       -4.68712       -11.64568         2.26133
| 65>    C       -5.71498       -12.47568         2.67347
| 66>    C       -6.71631       -12.59741         1.71494
| 67>   Cl       -8.10747       -13.56478         1.94926
| 68>    C       -6.49609       -11.86176         0.54974
| 69>    S       -4.99026       -10.99892         0.67384
| 70>    C       -7.31406       -11.77759        -0.59837
| 71>    C       -7.13849       -10.97715        -1.72658
| 72>   Cl       -5.82475        -9.89340        -1.90267
| 73>    C       -8.11826       -11.14197        -2.69973
| 74>    C       -9.09254       -12.05763        -2.34403
| 75>    S       -8.74642       -12.73956        -0.77743
| 76>    C      -10.15097       -12.49014        -3.17537
| 77>    C      -11.22877       -13.26770        -2.88443
| 78>    C      -11.90955       -14.00171        -3.98906
| 79>    O      -11.80611       -13.78704        -5.17347
| 80>    C      -12.66675       -15.07935        -3.32008
| 81>    C      -13.35363       -16.11838        -3.87883
| 82>    C      -13.97858       -17.06207        -3.03311
| 83>    C      -13.87582       -16.91198        -1.61919
| 84>    C      -14.49396       -17.86323        -0.78289
| 85>    C      -15.18374       -18.91165        -1.32397
| 86>    C      -15.28644       -19.05785        -2.72218
| 87>    C      -14.69730       -18.15295        -3.55994
| 88>    F      -15.96768       -20.09603        -3.22460
| 89>    F      -15.77047       -19.81427        -0.52769
| 90>    C      -13.16621       -15.82001        -1.06870
| 91>    C      -12.57546       -14.91419        -1.90782
| 92>    C      -11.82610       -13.69079        -1.63525
| 93>    C      -11.91867       -12.94308        -0.49191
| 94>    C      -11.43825       -11.61976        -0.39923
| 95>    N      -11.11044       -10.52292        -0.31990
| 96>    C      -12.59109       -13.37286         0.66985
| 97>    N      -13.11029       -13.69460         1.64128
| 98>    H       13.22569        -4.44056         6.01336
| 99>    H       10.34753        -7.08534         9.06200
|100>    H       11.51924        -4.53591         4.27959
|101>    H        8.57818        -7.19757         7.30212
|102>    H        6.81732        -5.53948         1.50401
|103>    H        4.69504        -6.06541         0.50720
|104>    H        0.64710       -10.46217         5.81577
|105>    H       -4.23598       -14.67509         9.05065
|106>    H       -2.05287       -13.81682         9.79671
|107>    H       -5.71921       -12.96612         3.62994
|108>    H       -8.13014       -10.59693        -3.62570
|109>    H      -10.03465       -12.24790        -4.22793
|110>    H      -13.41850       -16.22037        -4.95137
|111>    H      -14.42833       -17.76434         0.28935
|112>    H      -14.78476       -18.27897        -4.62773
|113>    H      -13.09625       -15.73180         0.00390
|114> *
|115>
|116>                          ****END OF INPUT****

CARTESIAN COORDINATES (ANGSTROEM)
---------------------------------
  C     12.586820   -5.016810    6.664260
  C     13.014620   -5.334500    7.923040
  F     14.219640   -4.932350    8.345830
  C     12.196850   -6.086580    8.790380
  F     12.641870   -6.383080   10.018250
  C     10.961700   -6.510670    8.386560
  C     10.492790   -6.198680    7.095850
  C     11.318520   -5.438590    6.217620
  C     10.869020   -5.112510    4.916980
  C      9.631120   -5.532320    4.506900
  C      8.814010   -6.289630    5.392700
  C      9.219910   -6.621660    6.652920
  C      7.544170   -6.608610    4.720850
  O      6.618640   -7.247710    5.190250
  C      7.620690   -6.003110    3.386540
  C      8.909700   -5.350270    3.248390
  C      9.393990   -4.686520    2.151350
  C      8.715000   -4.508470    0.927510
  N      8.233510   -4.321980   -0.098440
  C     10.667960   -4.081610    2.093670
  N     11.689880   -3.571510    1.980360
  C      6.626860   -6.045290    2.442620
  C      5.362150   -6.653130    2.492370
  C      4.470840   -6.585430    1.421170
  C      3.281980   -7.250150    1.650910
  Cl     2.015020   -7.321890    0.496880
  C      3.213240   -7.857650    2.910000
  S      4.675440   -7.570880    3.807370
  C      2.145010   -8.614900    3.436340
  C      2.063450   -9.231850    4.687990
  Cl     3.316130   -9.145250    5.846940
  C      0.879270   -9.926500    4.913390
  C      0.012530   -9.861970    3.835980
  S      0.685080   -8.920520    2.535700
  C     -1.253410  -10.469900    3.733350
  C     -1.883160  -11.276650    4.693760
  C     -3.164890  -11.768790    4.261780
  N     -3.897960  -12.561060    5.047150
  C     -3.400890  -12.863460    6.226360
  C     -4.219750  -13.748620    7.093970
  O     -5.288740  -14.199140    6.741870
  C     -3.633740  -14.040960    8.414020
  C     -2.447850  -13.574940    8.819150
  C     -1.583140  -12.711960    7.995110
  O     -0.505760  -12.311580    8.381110
  C     -2.131050  -12.369040    6.658080
  N     -1.394150  -11.592220    5.894380
  C     -3.514860  -11.330820    2.976000
  S     -2.259070  -10.324900    2.328290
  C     -4.687120  -11.645680    2.261330
  C     -5.714980  -12.475680    2.673470
  C     -6.716310  -12.597410    1.714940
  Cl    -8.107470  -13.564780    1.949260
  C     -6.496090  -11.861760    0.549740
  S     -4.990260  -10.998920    0.673840
  C     -7.314060  -11.777590   -0.598370
  C     -7.138490  -10.977150   -1.726580
  Cl    -5.824750   -9.893400   -1.902670
  C     -8.118260  -11.141970   -2.699730
  C     -9.092540  -12.057630   -2.344030
  S     -8.746420  -12.739560   -0.777430
  C    -10.150970  -12.490140   -3.175370
  C    -11.228770  -13.267700   -2.884430
  C    -11.909550  -14.001710   -3.989060
  O    -11.806110  -13.787040   -5.173470
  C    -12.666750  -15.079350   -3.320080
  C    -13.353630  -16.118380   -3.878830
  C    -13.978580  -17.062070   -3.033110
  C    -13.875820  -16.911980   -1.619190
  C    -14.493960  -17.863230   -0.782890
  C    -15.183740  -18.911650   -1.323970
  C    -15.286440  -19.057850   -2.722180
  C    -14.697300  -18.152950   -3.559940
  F    -15.967680  -20.096030   -3.224600
  F    -15.770470  -19.814270   -0.527690
  C    -13.166210  -15.820010   -1.068700
  C    -12.575460  -14.914190   -1.907820
  C    -11.826100  -13.690790   -1.635250
  C    -11.918670  -12.943080   -0.491910
  C    -11.438250  -11.619760   -0.399230
  N    -11.110440  -10.522920   -0.319900
  C    -12.591090  -13.372860    0.669850
  N    -13.110290  -13.694600    1.641280
  H     13.225690   -4.440560    6.013360
  H     10.347530   -7.085340    9.062000
  H     11.519240   -4.535910    4.279590
  H      8.578180   -7.197570    7.302120
  H      6.817320   -5.539480    1.504010
  H      4.695040   -6.065410    0.507200
  H      0.647100  -10.462170    5.815770
  H     -4.235980  -14.675090    9.050650
  H     -2.052870  -13.816820    9.796710
  H     -5.719210  -12.966120    3.629940
  H     -8.130140  -10.596930   -3.625700
  H    -10.034650  -12.247900   -4.227930
  H    -13.418500  -16.220370   -4.951370
  H    -14.428330  -17.764340    0.289350
  H    -14.784760  -18.278970   -4.627730
  H    -13.096250  -15.731800    0.003900

 Total Charge           Charge          ....    0
 Multiplicity           Mult            ....    1
 Number of Electrons    NEL             ....  634
 Basis Dimension        Dim             .... 1278

ORBITAL ENERGIES
----------------

  NO   OCC          E(Eh)            E(eV)
   0   2.0000    -101.611371     -2764.9860
   1   2.0000    -101.609023     -2764.9221
   2   2.0000    -101.608661     -2764.9122
   3   2.0000    -101.604685     -2764.8040
   4   2.0000     -89.008105     -2422.0337
   5   2.0000     -88.982309     -2421.3317
   6   2.0000     -88.980787     -2421.2903
   7   2.0000     -88.980693     -2421.2877
   8   2.0000     -88.974704     -2421.1248
   9   2.0000     -24.800351      -674.8519
  10   2.0000     -24.799302      -674.8233
  11   2.0000     -24.799215      -674.8210
  12   2.0000     -24.798765      -674.8087
  13   2.0000     -19.235732      -523.4309
  14   2.0000     -19.235612      -523.4276
  15   2.0000     -19.226784      -523.1874
  16   2.0000     -19.218061      -522.9500
  17   2.0000     -14.457785      -393.4163
  18   2.0000     -14.457651      -393.4127
  19   2.0000     -14.421177      -392.4202
  20   2.0000     -14.419131      -392.3645
  21   2.0000     -14.417648      -392.3241
  22   2.0000     -14.415534      -392.2666
  23   2.0000     -10.384410      -282.5742
  24   2.0000     -10.384254      -282.5699
  25   2.0000     -10.383526      -282.5501
  26   2.0000     -10.382740      -282.5287
  27   2.0000     -10.382459      -282.5211
  28   2.0000     -10.382099      -282.5113
  29   2.0000     -10.374708      -282.3102
  30   2.0000     -10.370044      -282.1833
  31   2.0000     -10.349881      -281.6346
  32   2.0000     -10.349617      -281.6274
  33   2.0000     -10.348163      -281.5878
  34   2.0000     -10.347436      -281.5680
  35   2.0000     -10.347096      -281.5588
  36   2.0000     -10.346349      -281.5385
  37   2.0000     -10.345955      -281.5278
  38   2.0000     -10.345340      -281.5110
  39   2.0000     -10.345207      -281.5074
  40   2.0000     -10.344718      -281.4941
  41   2.0000     -10.344457      -281.4870
  42   2.0000     -10.343560      -281.4626
  43   2.0000     -10.343558      -281.4625
  44   2.0000     -10.343292      -281.4553
  45   2.0000     -10.343093      -281.4499
  46   2.0000     -10.337155      -281.2883
  47   2.0000     -10.334548      -281.2173
  48   2.0000     -10.333288      -281.1831
  49   2.0000     -10.332175      -281.1528
  50   2.0000     -10.331288      -281.1286
  51   2.0000     -10.329316      -281.0750
  52   2.0000     -10.326489      -280.9981
  53   2.0000     -10.323932      -280.9285
  54   2.0000     -10.323862      -280.9266
  55   2.0000     -10.321823      -280.8711
  56   2.0000     -10.321321      -280.8574
  57   2.0000     -10.320805      -280.8434
  58   2.0000     -10.317370      -280.7499
  59   2.0000     -10.316934      -280.7381
  60   2.0000     -10.316239      -280.7191
  61   2.0000     -10.312875      -280.6276
  62   2.0000     -10.312571      -280.6193
  63   2.0000     -10.312258      -280.6108
  64   2.0000     -10.311773      -280.5976
  65   2.0000     -10.310224      -280.5555
  66   2.0000     -10.310068      -280.5512
  67   2.0000     -10.308207      -280.5006
  68   2.0000     -10.305993      -280.4403
  69   2.0000     -10.305690      -280.4321
  70   2.0000     -10.304812      -280.4082
  71   2.0000     -10.304609      -280.4027
  72   2.0000     -10.304150      -280.3902
  73   2.0000     -10.303386      -280.3694
  74   2.0000     -10.302761      -280.3524
  75   2.0000     -10.302478      -280.3447
  76   2.0000     -10.302386      -280.3422
  77   2.0000     -10.301670      -280.3227
  78   2.0000     -10.301539      -280.3191
  79   2.0000     -10.296286      -280.1762
  80   2.0000     -10.296080      -280.1706
  81   2.0000     -10.295138      -280.1449
  82   2.0000     -10.293828      -280.1093
  83   2.0000      -9.566117      -260.3073
  84   2.0000      -9.563738      -260.2425
  85   2.0000      -9.563445      -260.2346
  86   2.0000      -9.559440      -260.1256
  87   2.0000      -8.102704      -220.4858
  88   2.0000      -8.077209      -219.7920
  89   2.0000      -8.075557      -219.7471
  90   2.0000      -8.075083      -219.7342
  91   2.0000      -8.067402      -219.5252
  92   2.0000      -7.336217      -199.6286
  93   2.0000      -7.333866      -199.5646
  94   2.0000      -7.333481      -199.5542
  95   2.0000      -7.329560      -199.4475
  96   2.0000      -7.326197      -199.3560
  97   2.0000      -7.326122      -199.3539
  98   2.0000      -7.323826      -199.2914
  99   2.0000      -7.323689      -199.2877
 100   2.0000      -7.323554      -199.2840
 101   2.0000      -7.323489      -199.2823
 102   2.0000      -7.319620      -199.1770
 103   2.0000      -7.319287      -199.1679
 104   2.0000      -6.071696      -165.2193
 105   2.0000      -6.067544      -165.1063
 106   2.0000      -6.065554      -165.0521
 107   2.0000      -6.046812      -164.5421
 108   2.0000      -6.045141      -164.4966
 109   2.0000      -6.044609      -164.4822
 110   2.0000      -6.042422      -164.4226
 111   2.0000      -6.040775      -164.3778
 112   2.0000      -6.040217      -164.3627
 113   2.0000      -6.038853      -164.3255
 114   2.0000      -6.037216      -164.2810
 115   2.0000      -6.037047      -164.2764
 116   2.0000      -6.036877      -164.2718
 117   2.0000      -6.032272      -164.1465
 118   2.0000      -6.029193      -164.0627
 119   2.0000      -1.322964       -35.9997
 120   2.0000      -1.322045       -35.9747
 121   2.0000      -1.308089       -35.5949
 122   2.0000      -1.307196       -35.5706
 123   2.0000      -1.152715       -31.3670
 124   2.0000      -1.148197       -31.2440
 125   2.0000      -1.142544       -31.0902
 126   2.0000      -1.134036       -30.8587
 127   2.0000      -1.109239       -30.1839
 128   2.0000      -1.040838       -28.3227
 129   2.0000      -1.037836       -28.2409
 130   2.0000      -1.034071       -28.1385
 131   2.0000      -1.023916       -27.8622
 132   2.0000      -1.023368       -27.8472
 133   2.0000      -1.020452       -27.7679
 134   2.0000      -1.013000       -27.5651
 135   2.0000      -1.007800       -27.4236
 136   2.0000      -1.005637       -27.3648
 137   2.0000      -1.005564       -27.3628
 138   2.0000      -0.997975       -27.1563
 139   2.0000      -0.995946       -27.1011
 140   2.0000      -0.984942       -26.8016
 141   2.0000      -0.983925       -26.7740
 142   2.0000      -0.972986       -26.4763
 143   2.0000      -0.968998       -26.3678
 144   2.0000      -0.963030       -26.2054
 145   2.0000      -0.958060       -26.0701
 146   2.0000      -0.946786       -25.7634
 147   2.0000      -0.934498       -25.4290
 148   2.0000      -0.933721       -25.4078
 149   2.0000      -0.915247       -24.9051
 150   2.0000      -0.911791       -24.8111
 151   2.0000      -0.903148       -24.5759
 152   2.0000      -0.896973       -24.4079
 153   2.0000      -0.894685       -24.3456
 154   2.0000      -0.892111       -24.2756
 155   2.0000      -0.883560       -24.0429
 156   2.0000      -0.883414       -24.0389
 157   2.0000      -0.870793       -23.6955
 158   2.0000      -0.859154       -23.3788
 159   2.0000      -0.843577       -22.9549
 160   2.0000      -0.842381       -22.9224
 161   2.0000      -0.840195       -22.8629
 162   2.0000      -0.837621       -22.7928
 163   2.0000      -0.831704       -22.6318
 164   2.0000      -0.829602       -22.5746
 165   2.0000      -0.824058       -22.4237
 166   2.0000      -0.817284       -22.2394
 167   2.0000      -0.799545       -21.7567
 168   2.0000      -0.798803       -21.7365
 169   2.0000      -0.790908       -21.5217
 170   2.0000      -0.776144       -21.1200
 171   2.0000      -0.771929       -21.0052
 172   2.0000      -0.767636       -20.8884
 173   2.0000      -0.752636       -20.4803
 174   2.0000      -0.752298       -20.4711
 175   2.0000      -0.740322       -20.1452
 176   2.0000      -0.733575       -19.9616
 177   2.0000      -0.722097       -19.6493
 178   2.0000      -0.719959       -19.5911
 179   2.0000      -0.715914       -19.4810
 180   2.0000      -0.712515       -19.3885
 181   2.0000      -0.693053       -18.8589
 182   2.0000      -0.690030       -18.7767
 183   2.0000      -0.687942       -18.7198
 184   2.0000      -0.684490       -18.6259
 185   2.0000      -0.681373       -18.5411
 186   2.0000      -0.677330       -18.4311
 187   2.0000      -0.676131       -18.3985
 188   2.0000      -0.665279       -18.1032
 189   2.0000      -0.660844       -17.9825
 190   2.0000      -0.657581       -17.8937
 191   2.0000      -0.655645       -17.8410
 192   2.0000      -0.646264       -17.5857
 193   2.0000      -0.644470       -17.5369
 194   2.0000      -0.640822       -17.4376
 195   2.0000      -0.639202       -17.3936
 196   2.0000      -0.633749       -17.2452
 197   2.0000      -0.629891       -17.1402
 198   2.0000      -0.626097       -17.0370
 199   2.0000      -0.624014       -16.9803
 200   2.0000      -0.616457       -16.7746
 201   2.0000      -0.615387       -16.7455
 202   2.0000      -0.610895       -16.6233
 203   2.0000      -0.603972       -16.4349
 204   2.0000      -0.601832       -16.3767
 205   2.0000      -0.594492       -16.1769
 206   2.0000      -0.591260       -16.0890
 207   2.0000      -0.587428       -15.9847
 208   2.0000      -0.586548       -15.9608
 209   2.0000      -0.583377       -15.8745
 210   2.0000      -0.581985       -15.8366
 211   2.0000      -0.577466       -15.7137
 212   2.0000      -0.576717       -15.6933
 213   2.0000      -0.575530       -15.6610
 214   2.0000      -0.568059       -15.4577
 215   2.0000      -0.563379       -15.3303
 216   2.0000      -0.557169       -15.1613
 217   2.0000      -0.556021       -15.1301
 218   2.0000      -0.554694       -15.0940
 219   2.0000      -0.552412       -15.0319
 220   2.0000      -0.548980       -14.9385
 221   2.0000      -0.548172       -14.9165
 222   2.0000      -0.546158       -14.8617
 223   2.0000      -0.544718       -14.8225
 224   2.0000      -0.541293       -14.7293
 225   2.0000      -0.540600       -14.7105
 226   2.0000      -0.539657       -14.6848
 227   2.0000      -0.539263       -14.6741
 228   2.0000      -0.535883       -14.5821
 229   2.0000      -0.534595       -14.5471
 230   2.0000      -0.534396       -14.5417
 231   2.0000      -0.533583       -14.5195
 232   2.0000      -0.532171       -14.4811
 233   2.0000      -0.528395       -14.3784
 234   2.0000      -0.526817       -14.3354
 235   2.0000      -0.525856       -14.3093
 236   2.0000      -0.521602       -14.1935
 237   2.0000      -0.519627       -14.1398
 238   2.0000      -0.517053       -14.0697
 239   2.0000      -0.515985       -14.0407
 240   2.0000      -0.514012       -13.9870
 241   2.0000      -0.511058       -13.9066
 242   2.0000      -0.509010       -13.8509
 243   2.0000      -0.508169       -13.8280
 244   2.0000      -0.506435       -13.7808
 245   2.0000      -0.504617       -13.7313
 246   2.0000      -0.502324       -13.6689
 247   2.0000      -0.502088       -13.6625
 248   2.0000      -0.500483       -13.6188
 249   2.0000      -0.499508       -13.5923
 250   2.0000      -0.497768       -13.5450
 251   2.0000      -0.495688       -13.4883
 252   2.0000      -0.489763       -13.3271
 253   2.0000      -0.488738       -13.2992
 254   2.0000      -0.485118       -13.2007
 255   2.0000      -0.481134       -13.0923
 256   2.0000      -0.474654       -12.9160
 257   2.0000      -0.473087       -12.8734
 258   2.0000      -0.472771       -12.8648
 259   2.0000      -0.468790       -12.7564
 260   2.0000      -0.466834       -12.7032
 261   2.0000      -0.466379       -12.6908
 262   2.0000      -0.464438       -12.6380
 263   2.0000      -0.463276       -12.6064
 264   2.0000      -0.458450       -12.4751
 265   2.0000      -0.457694       -12.4545
 266   2.0000      -0.454820       -12.3763
 267   2.0000      -0.453542       -12.3415
 268   2.0000      -0.450007       -12.2453
 269   2.0000      -0.448894       -12.2150
 270   2.0000      -0.448166       -12.1952
 271   2.0000      -0.446883       -12.1603
 272   2.0000      -0.446613       -12.1530
 273   2.0000      -0.443860       -12.0780
 274   2.0000      -0.442902       -12.0520
 275   2.0000      -0.439613       -11.9625
 276   2.0000      -0.435568       -11.8524
 277   2.0000      -0.430839       -11.7237
 278   2.0000      -0.429355       -11.6833
 279   2.0000      -0.428951       -11.6723
 280   2.0000      -0.428601       -11.6628
 281   2.0000      -0.426020       -11.5926
 282   2.0000      -0.423475       -11.5233
 283   2.0000      -0.422295       -11.4912
 284   2.0000      -0.415705       -11.3119
 285   2.0000      -0.413158       -11.2426
 286   2.0000      -0.411592       -11.2000
 287   2.0000      -0.408572       -11.1178
 288   2.0000      -0.403949       -10.9920
 289   2.0000      -0.395048       -10.7498
 290   2.0000      -0.392693       -10.6857
 291   2.0000      -0.391475       -10.6526
 292   2.0000      -0.390403       -10.6234
 293   2.0000      -0.382999       -10.4219
 294   2.0000      -0.381319       -10.3762
 295   2.0000      -0.381037       -10.3685
 296   2.0000      -0.376994       -10.2585
 297   2.0000      -0.375057       -10.2058
 298   2.0000      -0.371299       -10.1036
 299   2.0000      -0.358779        -9.7629
 300   2.0000      -0.357323        -9.7233
 301   2.0000      -0.355411        -9.6712
 302   2.0000      -0.344633        -9.3779
 303   2.0000      -0.344477        -9.3737
 304   2.0000      -0.337872        -9.1940
 305   2.0000      -0.336587        -9.1590
 306   2.0000      -0.336210        -9.1487
 307   2.0000      -0.332551        -9.0492
 308   2.0000      -0.327793        -8.9197
 309   2.0000      -0.326434        -8.8827
 310   2.0000      -0.319649        -8.6981
 311   2.0000      -0.318573        -8.6688
 312   2.0000      -0.309596        -8.4245
 313   2.0000      -0.303189        -8.2502
 314   2.0000      -0.298978        -8.1356
 315   2.0000      -0.275770        -7.5041
 316   2.0000      -0.243719        -6.6319
 317   0.0000      -0.120401        -3.2763
 318   0.0000      -0.103020        -2.8033
 319   0.0000      -0.093246        -2.5374
 320   0.0000      -0.092557        -2.5186
 321   0.0000      -0.065064        -1.7705

MULLIKEN ATOMIC CHARGES
-----------------------
   0 C :   -0.110671
   1 C :    0.242313
   2 F :   -0.169454
   3 C :    0.238935
   4 F :   -0.170302
   5 C :   -0.107762
   6 C :    0.119430
   7 C :    0.117184
   8 C :   -0.090422
   9 C :    0.049695
  10 C :   -0.000995
  11 C :   -0.085704
  12 C :    0.171510
  13 O :   -0.179988
  14 C :   -0.099843
  15 C :    0.338451
  16 C :   -0.357906
  17 C :   -0.185473
  18 N :    0.143552
  19 C :   -0.183629
  20 N :    0.150209
  21 C :   -0.006253
  22 C :   -0.044294
  23 C :    0.008478
  24 C :    0.082767
  25 Cl:   -0.060082
  26 C :   -0.073255
  27 S :    0.213080
  28 C :   -0.094129
  29 C :    0.080073
  30 Cl:   -0.034546
  31 C :   -0.014254
  32 C :   -0.074855
  33 S :    0.145337
  34 C :   -0.097163
  35 C :    0.027656
  36 C :    0.015306
  37 N :    0.062657
  38 C :   -0.118515
  39 C :    0.144681
  40 O :   -0.102298
  41 C :   -0.017294
  42 C :   -0.015590
  43 C :    0.145444
  44 O :   -0.103215
  45 C :   -0.122332
  46 N :    0.064817
  47 C :   -0.093134
  48 S :    0.223567
  49 C :   -0.073195
  50 C :   -0.013405
  51 C :    0.080804
  52 Cl:   -0.043458
  53 C :   -0.085060
  54 S :    0.147715
  55 C :   -0.075484
  56 C :    0.071055
  57 Cl:   -0.057243
  58 C :    0.043177
  59 C :   -0.067803
  60 S :    0.171847
  61 C :    0.057663
  62 C :   -0.134470
  63 C :    0.140759
  64 O :   -0.140112
  65 C :    0.012437
  66 C :   -0.084134
  67 C :    0.113646
  68 C :    0.113329
  69 C :   -0.109655
  70 C :    0.242675
  71 C :    0.241111
  72 C :   -0.106610
  73 F :   -0.172164
  74 F :   -0.170458
  75 C :   -0.083035
  76 C :    0.041827
  77 C :    0.243177
  78 C :   -0.314244
  79 C :   -0.213429
  80 N :    0.177444
  81 C :   -0.169866
  82 N :    0.153481
  83 H :    0.008801
  84 H :    0.000396
  85 H :   -0.005583
  86 H :   -0.009674
  87 H :    0.006214
  88 H :    0.005499
  89 H :    0.009327
  90 H :    0.021275
  91 H :    0.019886
  92 H :    0.011492
  93 H :   -0.001922
  94 H :    0.025474
  95 H :   -0.007329
  96 H :    0.006744
  97 H :    0.000956
  98 H :   -0.001665
Sum of atomic charges:   -0.0000000

LOEWDIN ATOMIC CHARGES
----------------------
   0 C :   -0.029027
   1 C :    0.066654
   2 F :   -0.047864
   3 C :    0.067626
   4 F :   -0.048442
   5 C :   -0.033262
   6 C :   -0.008854
   7 C :   -0.006345
   8 C :    0.018082
   9 C :   -0.022080
  10 C :   -0.051940
  11 C :    0.030153
  12 C :    0.085082
  13 O :   -0.165915
  14 C :   -0.108537
  15 C :    0.076646
  16 C :   -0.141583
  17 C :   -0.020761
  18 N :   -0.053059
  19 C :   -0.017479
  20 N :   -0.053737
  21 C :    0.059549
  22 C :   -0.190460
  23 C :   -0.028566
  24 C :   -0.179563
  25 Cl:    0.159123
  26 C :   -0.193536
  27 S :    0.523694
  28 C :   -0.209458
  29 C :   -0.156823
  30 Cl:    0.183720
  31 C :   -0.048524
  32 C :   -0.186396
  33 S :    0.439045
  34 C :   -0.188078
  35 C :   -0.041019
  36 C :   -0.040959
  37 N :    0.009448
  38 C :   -0.040396
  39 C :    0.056641
  40 O :   -0.099260
  41 C :   -0.011129
  42 C :   -0.011276
  43 C :    0.056513
  44 O :   -0.100269
  45 C :   -0.040974
  46 N :    0.010061
  47 C :   -0.188913
  48 S :    0.510484
  49 C :   -0.185439
  50 C :   -0.047230
  51 C :   -0.158024
  52 Cl:    0.177409
  53 C :   -0.208369
  54 S :    0.442450
  55 C :   -0.182243
  56 C :   -0.176222
  57 Cl:    0.165400
  58 C :   -0.025716
  59 C :   -0.184736
  60 S :    0.491105
  61 C :    0.052651
  62 C :   -0.097245
  63 C :    0.083405
  64 O :   -0.141740
  65 C :   -0.053788
  66 C :    0.030512
  67 C :   -0.009552
  68 C :   -0.005345
  69 C :   -0.030634
  70 C :    0.067147
  71 C :    0.066971
  72 C :   -0.032852
  73 F :   -0.049378
  74 F :   -0.048364
  75 C :    0.013174
  76 C :   -0.018826
  77 C :    0.059800
  78 C :   -0.139822
  79 C :   -0.039602
  80 N :   -0.043648
  81 C :   -0.019301
  82 N :   -0.049204
  83 H :    0.048044
  84 H :    0.044924
  85 H :    0.040212
  86 H :    0.040382
  87 H :    0.051039
  88 H :    0.042126
  89 H :    0.040282
  90 H :    0.047051
  91 H :    0.046744
  92 H :    0.041268
  93 H :    0.040999
  94 H :    0.052627
  95 H :    0.041060
  96 H :    0.047410
  97 H :    0.045115
  98 H :    0.039937

  Mayer bond orders larger than 0.100000
B(  0-C ,  1-C ) :   1.4401 B(  0-C ,  5-C ) :   0.1081 B(  0-C ,  7-C ) :   1.1905
B(  0-C , 83-H ) :   1.0062 B(  1-C ,  2-F ) :   1.1364 B(  1-C ,  3-C ) :   1.1908
B(  3-C ,  4-F ) :   1.1347 B(  3-C ,  5-C ) :   1.4427 B(  5-C ,  6-C ) :   1.1934
B(  5-C , 84-H ) :   1.0065 B(  6-C ,  7-C ) :   1.2541 B(  6-C , 11-C ) :   1.1863
B(  7-C ,  8-C ) :   1.2140 B(  8-C ,  9-C ) :   1.4543 B(  8-C , 85-H ) :   0.9889
B(  9-C , 10-C ) :   1.2213 B(  9-C , 15-C ) :   0.9806 B( 10-C , 11-C ) :   1.4698
B( 10-C , 12-C ) :   0.9571 B( 11-C , 86-H ) :   1.0167 B( 12-C , 13-O ) :   2.1256
B( 12-C , 14-C ) :   0.9809 B( 14-C , 15-C ) :   1.0789 B( 14-C , 21-C ) :   1.4924
B( 15-C , 16-C ) :   1.6207 B( 16-C , 17-C ) :   1.1435 B( 16-C , 19-C ) :   1.1517
B( 17-C , 18-N ) :   2.9544 B( 19-C , 20-N ) :   2.9591 B( 21-C , 22-C ) :   1.2660
B( 21-C , 87-H ) :   0.9376 B( 22-C , 23-C ) :   1.3343 B( 22-C , 27-S ) :   1.0764
B( 23-C , 24-C ) :   1.3436 B( 23-C , 88-H ) :   1.0132 B( 24-C , 25-Cl) :   1.0320
B( 24-C , 26-C ) :   1.3610 B( 26-C , 27-S ) :   1.1202 B( 26-C , 28-C ) :   1.2223
B( 28-C , 29-C ) :   1.4291 B( 28-C , 32-C ) :   0.1004 B( 28-C , 33-S ) :   1.1176
B( 29-C , 30-Cl) :   1.0629 B( 29-C , 31-C ) :   1.2650 B( 31-C , 32-C ) :   1.4527
B( 31-C , 89-H ) :   0.9988 B( 32-C , 33-S ) :   1.0899 B( 32-C , 34-C ) :   1.1908
B( 34-C , 35-C ) :   1.3574 B( 34-C , 47-C ) :   0.1519 B( 34-C , 48-S ) :   1.1623
B( 35-C , 36-C ) :   1.1882 B( 35-C , 46-N ) :   1.4402 B( 36-C , 37-N ) :   1.4414
B( 36-C , 47-C ) :   1.3620 B( 37-N , 38-C ) :   1.7130 B( 38-C , 39-C ) :   0.8934
B( 38-C , 45-C ) :   1.0900 B( 39-C , 40-O ) :   2.2328 B( 39-C , 41-C ) :   1.0275
B( 41-C , 42-C ) :   1.6803 B( 41-C , 90-H ) :   0.9987 B( 42-C , 43-C ) :   1.0270
B( 42-C , 91-H ) :   0.9991 B( 43-C , 44-O ) :   2.2326 B( 43-C , 45-C ) :   0.8914
B( 45-C , 46-N ) :   1.7156 B( 47-C , 48-S ) :   1.1592 B( 47-C , 49-C ) :   1.1850
B( 49-C , 50-C ) :   1.4599 B( 49-C , 53-C ) :   0.1021 B( 49-C , 54-S ) :   1.0900
B( 50-C , 51-C ) :   1.2616 B( 50-C , 92-H ) :   0.9978 B( 51-C , 52-Cl) :   1.0475
B( 51-C , 53-C ) :   1.4389 B( 53-C , 54-S ) :   1.1203 B( 53-C , 55-C ) :   1.2040
B( 55-C , 56-C ) :   1.4142 B( 55-C , 60-S ) :   1.1615 B( 56-C , 57-Cl) :   1.0304
B( 56-C , 58-C ) :   1.3039 B( 58-C , 59-C ) :   1.4053 B( 58-C , 93-H ) :   1.0090
B( 59-C , 60-S ) :   1.0856 B( 59-C , 61-C ) :   1.1572 B( 61-C , 62-C ) :   1.6348
B( 61-C , 94-H ) :   0.9452 B( 62-C , 63-C ) :   0.9412 B( 62-C , 77-C ) :   1.0324
B( 63-C , 64-O ) :   2.2706 B( 63-C , 65-C ) :   0.9188 B( 65-C , 66-C ) :   1.4761
B( 65-C , 76-C ) :   1.2224 B( 66-C , 67-C ) :   1.1940 B( 66-C , 95-H ) :   1.0164
B( 67-C , 68-C ) :   1.2577 B( 67-C , 72-C ) :   1.1934 B( 68-C , 69-C ) :   1.1893
B( 68-C , 75-C ) :   1.2130 B( 69-C , 70-C ) :   1.4417 B( 69-C , 72-C ) :   0.1088
B( 69-C , 96-H ) :   1.0073 B( 70-C , 71-C ) :   1.1909 B( 70-C , 74-F ) :   1.1354
B( 71-C , 72-C ) :   1.4428 B( 71-C , 73-F ) :   1.1327 B( 72-C , 97-H ) :   1.0073
B( 75-C , 76-C ) :   1.4575 B( 75-C , 98-H ) :   0.9954 B( 76-C , 77-C ) :   1.0013
B( 77-C , 78-C ) :   1.6606 B( 78-C , 79-C ) :   1.1486 B( 78-C , 81-C ) :   1.1352
B( 79-C , 80-N ) :   3.0299 B( 81-C , 82-N ) :   2.9882

-----------------------------------------------------------------------------
         ABSORPTION SPECTRUM VIA TRANSITION ELECTRIC DIPOLE MOMENTS
-----------------------------------------------------------------------------
State   Energy  Wavelength   fosc         T2         TX        TY        TZ
        (cm-1)    (nm)                  (au**2)     (au)      (au)      (au)
-----------------------------------------------------------------------------
   0   11870.8    842.4   1.414717732  39.23421  -5.63754  -2.24606  -1.55163
   1   16657.6    600.3   0.260727719   5.15287  -0.27307  -1.02563   2.00659
   2   18456.3    541.8   0.712600363  12.71095  -3.25910  -1.35561  -0.50154
   3   19304.0    518.0   0.168593318   2.87520  -1.49263  -0.78768   0.16381
   4   20627.7    484.8   0.063797571   1.01819  -0.05262  -0.44648   0.90337
   5   24893.0    401.7   0.003388138   0.04481  -0.12630   0.14256   0.09237
   6   25059.9    399.0   0.080141603   1.05282  -0.85525  -0.26066   0.50342
   7   25719.2    388.8   0.071387208   0.91377   0.52329  -0.07108   0.79680
   8   26055.6    383.8   0.000025692   0.00032   0.01472  -0.00655  -0.00807
   9   26138.4    382.6   0.022196484   0.27956  -0.36005   0.26281  -0.28436
  10   26601.8    375.9   0.000674050   0.00834   0.06504  -0.06237  -0.01488
  11   26887.6    371.9   0.133657555   1.63650  -0.61918  -0.51832  -0.99220
  12   27045.0    369.8   0.156729496   1.90783  -0.89619  -0.37221  -0.98292
  13   27268.4    366.7   0.066975387   0.80859  -0.58550  -0.63690   0.24523
  14   27318.0    366.1   0.004276634   0.05154  -0.22666  -0.00767   0.01015
  15   28077.7    356.2   0.022668651   0.26579  -0.10229  -0.45394   0.22195
  16   28169.9    355.0   0.107627050   1.25780   0.78982   0.16064   0.77986
  17   28511.4    350.7   0.113064384   1.30552   0.62671   0.41778   0.85919
  18   28900.9    346.0   0.045502257   0.51832   0.66778   0.21085   0.16712
  19   29328.7    341.0   0.022056862   0.24759   0.12080  -0.26789   0.40153
  20   29476.9    339.2   0.230373974   2.57293  -1.43685  -0.67713  -0.22334
  21   29651.0    337.3   0.024482142   0.27182  -0.16954  -0.10039   0.48270
  22   29757.1    336.1   0.042435557   0.46948   0.16306   0.60028   0.28732
  23   30857.6    324.1   0.000033685   0.00036  -0.00872   0.01031  -0.01331
  24   31064.4    321.9   0.044466685   0.47125  -0.50075  -0.46909   0.02110
  25   31322.2    319.3   0.028302258   0.29747  -0.25920   0.00681  -0.47983
  26   31634.3    316.1   0.054006357   0.56203   0.38967   0.38733  -0.51007
  27   32037.7    312.1   0.018667644   0.19182   0.12810   0.22657  -0.35225
  28   32855.0    304.4   0.156083754   1.56398   0.36594   1.10898  -0.44749
  29   33181.1    301.4   0.004559508   0.04524  -0.11991   0.17563  -0.00366
  30   33218.9    301.0   0.151248269   1.49893   0.08638  -0.22971  -1.19946
  31   33319.6    300.1   0.555835658   5.49190  -0.68664   0.42819  -2.19934
  32   33673.3    297.0   0.011584797   0.11326  -0.04723   0.04655   0.32994
  33   33994.9    294.2   0.000708051   0.00686   0.03458  -0.02985   0.06906
  34   34107.5    293.2   0.500353747   4.82950   0.95250  -0.31803   1.95476
  35   34186.4    292.5   0.448174976   4.31588   0.87220   1.86908  -0.24842
  36   34466.5    290.1   0.097841949   0.93455   0.69375   0.36112   0.56821
  37   34572.6    289.2   0.009977059   0.09501  -0.21537  -0.16597  -0.14517
  38   34653.2    288.6   0.080365465   0.76349   0.34560   0.75695  -0.26660
  39   34861.4    286.9   0.018198579   0.17186  -0.15513  -0.37226   0.09601
  40   34887.0    286.6   0.003201957   0.03022   0.02690   0.16960  -0.02695
  41   35211.6    284.0   0.000182387   0.00171   0.00700  -0.01854  -0.03623
  42   35265.5    283.6   0.140503947   1.31164  -0.42066  -0.70293   0.80036
  43   35497.6    281.7   0.147000936   1.36332  -0.56175  -0.31833  -0.97284
  44   35752.9    279.7   0.015513093   0.14284  -0.36511  -0.09758   0.00401
  45   35838.2    279.0   0.017842994   0.16391   0.30234   0.21026  -0.16820
  46   36104.1    277.0   0.035714009   0.32565  -0.19953  -0.47205   0.25103
  47   36212.6    276.1   0.001537259   0.01398   0.00310  -0.11519  -0.02639
  48   36311.5    275.4   0.006349333   0.05757   0.02851  -0.22171   0.08716
  49   36366.4    275.0   0.063353015   0.57351   0.36832   0.18815   0.63439
  50   36567.5    273.5   0.031414855   0.28282  -0.14244  -0.50070  -0.10881
  51   36814.4    271.6   0.003732802   0.03338  -0.00676  -0.18209  -0.01331
  52   37030.8    270.0   0.226385290   2.01261  -0.25360  -0.92902   1.04174
  53   37183.6    268.9   0.224443307   1.98715  -0.33774  -0.90231  -1.02904
  54   37623.5    265.8   0.034754957   0.30411   0.15177   0.02822   0.52941
  55   37751.6    264.9   0.323147604   2.81800   0.41445   0.81832  -1.40591
  56   37803.1    264.5   0.051677755   0.45004   0.26840   0.48704  -0.37522
  57   38013.3    263.1   0.036111973   0.31275   0.18739  -0.11271   0.51471
  58   38334.1    260.9   0.023403592   0.20099   0.21370  -0.10702   0.37930
  59   38923.5    256.9   0.084321768   0.71319   0.57932   0.48029   0.38327
  60   39214.7    255.0   0.056631685   0.47543   0.64199   0.16681  -0.18830
  61   39341.4    254.2   0.013217512   0.11061   0.29279   0.10405  -0.11855
  62   39551.8    252.8   0.004073447   0.03391  -0.03566  -0.18013  -0.01364
  63   39647.7    252.2   0.011951660   0.09924   0.13122   0.02342  -0.28544
  64   39813.2    251.2   0.043005130   0.35561   0.52814   0.16517   0.22226
  65   39857.5    250.9   0.017218594   0.14222   0.36375   0.09679  -0.02327
  66   39942.7    250.4   0.034672856   0.28578  -0.30629  -0.10629   0.42504
  67   40107.9    249.3   0.022377875   0.18368  -0.02945   0.05028  -0.42460
  68   40308.5    248.1   0.025439976   0.20778   0.31288  -0.03992   0.32907

FINAL SINGLE POINT ENERGY     -7151.211288990667

DIPOLE MOMENT
-------------
                                X             Y             Z
Electronic contribution:      0.70184       0.76873      -1.09706
Nuclear contribution   :     -0.71647      -2.52889       1.79706
                        -----------------------------------------
Total Dipole Moment    :     -0.01463      -1.76016       0.70000
                        -----------------------------------------
Magnitude (a.u.)       :      1.89430
Magnitude (Debye)      :      4.81494

Rotational constants in cm-1:     0.001535     0.000138     0.000129
Rotational constants in MHz :    46.020378     4.145252     3.869366

                             ****ORCA TERMINATED NORMALLY****
TOTAL RUN TIME: 0 days 0 hours 22 minutes 42 seconds 481 msec
